 Entering Gaussian System, Link 0=g09
 Input=C16H20OSi_5b73_conf_0.com
 Output=C16H20OSi_5b73_conf_0.log
 Initial command:
 /sw/target/amd/app/gaussian/Gaussian09RevA.02_gcc-4.9.2/g09/l1.exe /home/jschleinitz/gaussian/Gau-3874554.inp -scrdir=/home/jschleinitz/gaussian/
 Entering Link 1 = /sw/target/amd/app/gaussian/Gaussian09RevA.02_gcc-4.9.2/g09/l1.exe PID=   3874559.
  
 Copyright (c) 1988,1990,1992,1993,1995,1998,2003,2009, Gaussian, Inc.
                  All Rights Reserved.
  
 This is part of the Gaussian(R) 09 program.  It is based on
 the Gaussian(R) 03 system (copyright 2003, Gaussian, Inc.),
 the Gaussian(R) 98 system (copyright 1998, Gaussian, Inc.),
 the Gaussian(R) 94 system (copyright 1995, Gaussian, Inc.),
 the Gaussian 92(TM) system (copyright 1992, Gaussian, Inc.),
 the Gaussian 90(TM) system (copyright 1990, Gaussian, Inc.),
 the Gaussian 88(TM) system (copyright 1988, Gaussian, Inc.),
 the Gaussian 86(TM) system (copyright 1986, Carnegie Mellon
 University), and the Gaussian 82(TM) system (copyright 1983,
 Carnegie Mellon University). Gaussian is a federally registered
 trademark of Gaussian, Inc.
  
 This software contains proprietary and confidential information,
 including trade secrets, belonging to Gaussian, Inc.
  
 This software is provided under written license and may be
 used, copied, transmitted, or stored only in accord with that
 written license.
  
 The following legend is applicable only to US Government
 contracts under FAR:
  
                    RESTRICTED RIGHTS LEGEND
  
 Use, reproduction and disclosure by the US Government is
 subject to restrictions as set forth in subparagraphs (a)
 and (c) of the Commercial Computer Software - Restricted
 Rights clause in FAR 52.227-19.
  
 Gaussian, Inc.
 340 Quinnipiac St., Bldg. 40, Wallingford CT 06492
  
  
 ---------------------------------------------------------------
 Warning -- This program may not be used in any manner that
 competes with the business of Gaussian, Inc. or will provide
 assistance to any competitor of Gaussian, Inc.  The licensee
 of this program is prohibited from giving any competitor of
 Gaussian, Inc. access to this program.  By using this program,
 the user acknowledges that Gaussian, Inc. is engaged in the
 business of creating and licensing software in the field of
 computational chemistry and represents and warrants to the
 licensee that it is not a competitor of Gaussian, Inc. and that
 it will not use this program in any manner prohibited above.
 ---------------------------------------------------------------
  

 Cite this work as:
 Gaussian 09, Revision A.02,
 M. J. Frisch, G. W. Trucks, H. B. Schlegel, G. E. Scuseria, 
 M. A. Robb, J. R. Cheeseman, G. Scalmani, V. Barone, B. Mennucci, 
 G. A. Petersson, H. Nakatsuji, M. Caricato, X. Li, H. P. Hratchian, 
 A. F. Izmaylov, J. Bloino, G. Zheng, J. L. Sonnenberg, M. Hada, 
 M. Ehara, K. Toyota, R. Fukuda, J. Hasegawa, M. Ishida, T. Nakajima, 
 Y. Honda, O. Kitao, H. Nakai, T. Vreven, J. A. Montgomery, Jr., 
 J. E. Peralta, F. Ogliaro, M. Bearpark, J. J. Heyd, E. Brothers, 
 K. N. Kudin, V. N. Staroverov, R. Kobayashi, J. Normand, 
 K. Raghavachari, A. Rendell, J. C. Burant, S. S. Iyengar, J. Tomasi, 
 M. Cossi, N. Rega, J. M. Millam, M. Klene, J. E. Knox, J. B. Cross, 
 V. Bakken, C. Adamo, J. Jaramillo, R. Gomperts, R. E. Stratmann, 
 O. Yazyev, A. J. Austin, R. Cammi, C. Pomelli, J. W. Ochterski, 
 R. L. Martin, K. Morokuma, V. G. Zakrzewski, G. A. Voth, 
 P. Salvador, J. J. Dannenberg, S. Dapprich, A. D. Daniels, 
 O. Farkas, J. B. Foresman, J. V. Ortiz, J. Cioslowski, 
 and D. J. Fox, Gaussian, Inc., Wallingford CT, 2009.
 
 ******************************************
 Gaussian 09:  AM64L-G09RevA.02 11-Jun-2009
                30-Sep-2021 
 ******************************************
 %nproc=6
 Will use up to    6 processors via shared memory.
 %mem=12gb
 %chk=C16H20OSi_5b73_conf_0.chk
 -----------------------------------
 #p opt b3lyp/6-31G* scf=(xqc,tight)
 -----------------------------------
 1/14=-1,18=20,19=15,26=3,38=1/1,3;
 2/9=110,12=2,17=6,18=5,40=1/2;
 3/5=1,6=6,7=1,11=2,16=1,25=1,30=1,71=1,74=-5/1,2,3;
 4//1;
 5/5=2,8=3,13=1,32=2,38=5/2,8;
 6/7=2,8=2,9=2,10=2,28=1/1;
 7//1,2,3,16;
 1/14=-1,18=20,19=15/3(2);
 2/9=110/2;
 99//99;
 2/9=110/2;
 3/5=1,6=6,7=1,11=2,16=1,25=1,30=1,71=1,74=-5/1,2,3;
 4/5=5,16=3/1;
 5/5=2,8=3,13=1,32=2,38=5/2,8;
 7//1,2,3,16;
 1/14=-1,18=20,19=15/3(-5);
 2/9=110/2;
 6/7=2,8=2,9=2,10=2,19=2,28=1/1;
 99/9=1/99;
 Leave Link    1 at Thu Sep 30 17:19:40 2021, MaxMem= 1610612736 cpu:       0.1
 (Enter /sw/target/amd/app/gaussian/Gaussian09RevA.02_gcc-4.9.2/g09/l101.exe)
 --------------------------------------
 C[Si](Oc1ccc(cc1)Cc1ccccc1)(C)C_conf_0
 --------------------------------------
 Symbolic Z-matrix:
 Charge =  0 Multiplicity = 1
 C                     3.52747   1.42762   2.30669 
 Si                    4.04979  -0.30549   1.77576 
 O                     2.82201  -1.40317   2.06818 
 C                     2.8029   -2.76453   2.21733 
 C                     1.72011  -3.29509   2.91984 
 C                     1.63804  -4.67082   3.15604 
 C                     2.63269  -5.53613   2.67997 
 C                     3.70463  -4.99513   1.95586 
 C                     3.78326  -3.61978   1.71936 
 C                     2.56279  -7.02284   2.94814 
 C                     1.36018  -7.71045   2.34042 
 C                     1.15067  -7.68916   0.95352 
 C                     0.0423   -8.32545   0.3937 
 C                    -0.86391  -8.99703   1.21196 
 C                    -0.66177  -9.03271   2.59099 
 C                     0.44535  -8.39394   3.15259 
 C                     4.50302  -0.22499  -0.04743 
 C                     5.6006   -0.74224   2.75316 
 H                     2.58154   1.70831   1.83489 
 H                     4.28887   2.15753   2.01556 
 H                     3.40266   1.4746    3.39232 
 H                     0.94173  -2.63721   3.29565 
 H                     0.78961  -5.06485   3.71189 
 H                     4.48806  -5.64247   1.56808 
 H                     4.62157  -3.24396   1.14034 
 H                     2.58064  -7.17128   4.03543 
 H                     3.4638   -7.52417   2.56868 
 H                     1.8472   -7.1662    0.30121 
 H                    -0.11443  -8.29509  -0.68118 
 H                    -1.7272   -9.49075   0.77609 
 H                    -1.3677   -9.55777   3.2287 
 H                     0.5865   -8.43382   4.23081 
 H                     3.67861   0.19141  -0.63364 
 H                     4.73979  -1.21747  -0.43963 
 H                     5.37906   0.41615  -0.1894 
 H                     5.36981  -0.81402   3.81995 
 H                     6.36603   0.02655   2.6151 
 H                     6.01659  -1.69847   2.42496 
 
 NAtoms=     38 NQM=     38 NQMF=      0 NMic=      0 NMicF=      0 NTot=     38.
                    Isotopes and Nuclear Properties:
 (Nuclear quadrupole moments (NQMom) in fm**2, nuclear magnetic moments (NMagM)
  in nuclear magnetons)

  Atom         1           2           3           4           5           6           7           8           9          10
 IAtWgt=          12          28          16          12          12          12          12          12          12          12
 AtmWgt=  12.0000000  27.9769284  15.9949146  12.0000000  12.0000000  12.0000000  12.0000000  12.0000000  12.0000000  12.0000000
 NucSpn=           0           0           0           0           0           0           0           0           0           0
 AtZEff=   0.0000000   0.0000000   0.0000000   0.0000000   0.0000000   0.0000000   0.0000000   0.0000000   0.0000000   0.0000000
 NQMom=    0.0000000   0.0000000   0.0000000   0.0000000   0.0000000   0.0000000   0.0000000   0.0000000   0.0000000   0.0000000
 NMagM=    0.0000000   0.0000000   0.0000000   0.0000000   0.0000000   0.0000000   0.0000000   0.0000000   0.0000000   0.0000000

  Atom        11          12          13          14          15          16          17          18          19          20
 IAtWgt=          12          12          12          12          12          12          12          12           1           1
 AtmWgt=  12.0000000  12.0000000  12.0000000  12.0000000  12.0000000  12.0000000  12.0000000  12.0000000   1.0078250   1.0078250
 NucSpn=           0           0           0           0           0           0           0           0           1           1
 AtZEff=   0.0000000   0.0000000   0.0000000   0.0000000   0.0000000   0.0000000   0.0000000   0.0000000   0.0000000   0.0000000
 NQMom=    0.0000000   0.0000000   0.0000000   0.0000000   0.0000000   0.0000000   0.0000000   0.0000000   0.0000000   0.0000000
 NMagM=    0.0000000   0.0000000   0.0000000   0.0000000   0.0000000   0.0000000   0.0000000   0.0000000   2.7928460   2.7928460

  Atom        21          22          23          24          25          26          27          28          29          30
 IAtWgt=           1           1           1           1           1           1           1           1           1           1
 AtmWgt=   1.0078250   1.0078250   1.0078250   1.0078250   1.0078250   1.0078250   1.0078250   1.0078250   1.0078250   1.0078250
 NucSpn=           1           1           1           1           1           1           1           1           1           1
 AtZEff=   0.0000000   0.0000000   0.0000000   0.0000000   0.0000000   0.0000000   0.0000000   0.0000000   0.0000000   0.0000000
 NQMom=    0.0000000   0.0000000   0.0000000   0.0000000   0.0000000   0.0000000   0.0000000   0.0000000   0.0000000   0.0000000
 NMagM=    2.7928460   2.7928460   2.7928460   2.7928460   2.7928460   2.7928460   2.7928460   2.7928460   2.7928460   2.7928460

  Atom        31          32          33          34          35          36          37          38
 IAtWgt=           1           1           1           1           1           1           1           1
 AtmWgt=   1.0078250   1.0078250   1.0078250   1.0078250   1.0078250   1.0078250   1.0078250   1.0078250
 NucSpn=           1           1           1           1           1           1           1           1
 AtZEff=   0.0000000   0.0000000   0.0000000   0.0000000   0.0000000   0.0000000   0.0000000   0.0000000
 NQMom=    0.0000000   0.0000000   0.0000000   0.0000000   0.0000000   0.0000000   0.0000000   0.0000000
 NMagM=    2.7928460   2.7928460   2.7928460   2.7928460   2.7928460   2.7928460   2.7928460   2.7928460
 Leave Link  101 at Thu Sep 30 17:19:41 2021, MaxMem= 1610612736 cpu:       0.2
 (Enter /sw/target/amd/app/gaussian/Gaussian09RevA.02_gcc-4.9.2/g09/l103.exe)

 GradGradGradGradGradGradGradGradGradGradGradGradGradGradGradGradGradGrad
 Berny optimization.
 Initialization pass.
                           ----------------------------
                           !    Initial Parameters    !
                           ! (Angstroms and Degrees)  !
 --------------------------                            --------------------------
 ! Name  Definition              Value          Derivative Info.                !
 --------------------------------------------------------------------------------
 ! R1    R(1,2)                  1.8864         estimate D2E/DX2                !
 ! R2    R(1,19)                 1.0937         estimate D2E/DX2                !
 ! R3    R(1,20)                 1.0942         estimate D2E/DX2                !
 ! R4    R(1,21)                 1.0938         estimate D2E/DX2                !
 ! R5    R(2,3)                  1.6727         estimate D2E/DX2                !
 ! R6    R(2,17)                 1.8804         estimate D2E/DX2                !
 ! R7    R(2,18)                 1.8844         estimate D2E/DX2                !
 ! R8    R(3,4)                  1.3696         estimate D2E/DX2                !
 ! R9    R(4,5)                  1.3955         estimate D2E/DX2                !
 ! R10   R(4,9)                  1.393          estimate D2E/DX2                !
 ! R11   R(5,6)                  1.3983         estimate D2E/DX2                !
 ! R12   R(5,22)                 1.0862         estimate D2E/DX2                !
 ! R13   R(6,7)                  1.4017         estimate D2E/DX2                !
 ! R14   R(6,23)                 1.0881         estimate D2E/DX2                !
 ! R15   R(7,8)                  1.4022         estimate D2E/DX2                !
 ! R16   R(7,10)                 1.5123         estimate D2E/DX2                !
 ! R17   R(8,9)                  1.3977         estimate D2E/DX2                !
 ! R18   R(8,24)                 1.0877         estimate D2E/DX2                !
 ! R19   R(9,25)                 1.0859         estimate D2E/DX2                !
 ! R20   R(10,11)                1.5127         estimate D2E/DX2                !
 ! R21   R(10,26)                1.0975         estimate D2E/DX2                !
 ! R22   R(10,27)                1.0987         estimate D2E/DX2                !
 ! R23   R(11,12)                1.4028         estimate D2E/DX2                !
 ! R24   R(11,16)                1.4013         estimate D2E/DX2                !
 ! R25   R(12,13)                1.3953         estimate D2E/DX2                !
 ! R26   R(12,28)                1.0882         estimate D2E/DX2                !
 ! R27   R(13,14)                1.3935         estimate D2E/DX2                !
 ! R28   R(13,29)                1.0867         estimate D2E/DX2                !
 ! R29   R(14,15)                1.3942         estimate D2E/DX2                !
 ! R30   R(14,30)                1.0858         estimate D2E/DX2                !
 ! R31   R(15,16)                1.3961         estimate D2E/DX2                !
 ! R32   R(15,31)                1.0866         estimate D2E/DX2                !
 ! R33   R(16,32)                1.0882         estimate D2E/DX2                !
 ! R34   R(17,33)                1.0939         estimate D2E/DX2                !
 ! R35   R(17,34)                1.0931         estimate D2E/DX2                !
 ! R36   R(17,35)                1.0948         estimate D2E/DX2                !
 ! R37   R(18,36)                1.0938         estimate D2E/DX2                !
 ! R38   R(18,37)                1.0936         estimate D2E/DX2                !
 ! R39   R(18,38)                1.0932         estimate D2E/DX2                !
 ! A1    A(2,1,19)             110.7238         estimate D2E/DX2                !
 ! A2    A(2,1,20)             110.2014         estimate D2E/DX2                !
 ! A3    A(2,1,21)             110.5124         estimate D2E/DX2                !
 ! A4    A(19,1,20)            108.413          estimate D2E/DX2                !
 ! A5    A(19,1,21)            108.5692         estimate D2E/DX2                !
 ! A6    A(20,1,21)            108.3506         estimate D2E/DX2                !
 ! A7    A(1,2,3)              110.5165         estimate D2E/DX2                !
 ! A8    A(1,2,17)             107.4754         estimate D2E/DX2                !
 ! A9    A(1,2,18)             107.1472         estimate D2E/DX2                !
 ! A10   A(3,2,17)             111.9943         estimate D2E/DX2                !
 ! A11   A(3,2,18)             111.18           estimate D2E/DX2                !
 ! A12   A(17,2,18)            108.3279         estimate D2E/DX2                !
 ! A13   A(2,3,4)              132.9653         estimate D2E/DX2                !
 ! A14   A(3,4,5)              116.3299         estimate D2E/DX2                !
 ! A15   A(3,4,9)              124.159          estimate D2E/DX2                !
 ! A16   A(5,4,9)              119.511          estimate D2E/DX2                !
 ! A17   A(4,5,6)              120.3078         estimate D2E/DX2                !
 ! A18   A(4,5,22)             119.9936         estimate D2E/DX2                !
 ! A19   A(6,5,22)             119.695          estimate D2E/DX2                !
 ! A20   A(5,6,7)              120.5542         estimate D2E/DX2                !
 ! A21   A(5,6,23)             119.2314         estimate D2E/DX2                !
 ! A22   A(7,6,23)             120.2141         estimate D2E/DX2                !
 ! A23   A(6,7,8)              118.6657         estimate D2E/DX2                !
 ! A24   A(6,7,10)             120.9207         estimate D2E/DX2                !
 ! A25   A(8,7,10)             120.4117         estimate D2E/DX2                !
 ! A26   A(7,8,9)              120.6663         estimate D2E/DX2                !
 ! A27   A(7,8,24)             120.338          estimate D2E/DX2                !
 ! A28   A(9,8,24)             118.9957         estimate D2E/DX2                !
 ! A29   A(4,9,8)              120.2673         estimate D2E/DX2                !
 ! A30   A(4,9,25)             121.4267         estimate D2E/DX2                !
 ! A31   A(8,9,25)             118.3058         estimate D2E/DX2                !
 ! A32   A(7,10,11)            114.3535         estimate D2E/DX2                !
 ! A33   A(7,10,26)            107.9313         estimate D2E/DX2                !
 ! A34   A(7,10,27)            110.4517         estimate D2E/DX2                !
 ! A35   A(11,10,26)           110.4529         estimate D2E/DX2                !
 ! A36   A(11,10,27)           107.8056         estimate D2E/DX2                !
 ! A37   A(26,10,27)           105.4916         estimate D2E/DX2                !
 ! A38   A(10,11,12)           120.598          estimate D2E/DX2                !
 ! A39   A(10,11,16)           120.5219         estimate D2E/DX2                !
 ! A40   A(12,11,16)           118.8753         estimate D2E/DX2                !
 ! A41   A(11,12,13)           120.5578         estimate D2E/DX2                !
 ! A42   A(11,12,28)           120.2884         estimate D2E/DX2                !
 ! A43   A(13,12,28)           119.1509         estimate D2E/DX2                !
 ! A44   A(12,13,14)           120.0516         estimate D2E/DX2                !
 ! A45   A(12,13,29)           119.915          estimate D2E/DX2                !
 ! A46   A(14,13,29)           120.0334         estimate D2E/DX2                !
 ! A47   A(13,14,15)           119.9245         estimate D2E/DX2                !
 ! A48   A(13,14,30)           120.0305         estimate D2E/DX2                !
 ! A49   A(15,14,30)           120.0449         estimate D2E/DX2                !
 ! A50   A(14,15,16)           120.0753         estimate D2E/DX2                !
 ! A51   A(14,15,31)           119.9118         estimate D2E/DX2                !
 ! A52   A(16,15,31)           120.0129         estimate D2E/DX2                !
 ! A53   A(11,16,15)           120.5122         estimate D2E/DX2                !
 ! A54   A(11,16,32)           120.4956         estimate D2E/DX2                !
 ! A55   A(15,16,32)           118.9922         estimate D2E/DX2                !
 ! A56   A(2,17,33)            110.7457         estimate D2E/DX2                !
 ! A57   A(2,17,34)            111.1743         estimate D2E/DX2                !
 ! A58   A(2,17,35)            110.0996         estimate D2E/DX2                !
 ! A59   A(33,17,34)           108.4562         estimate D2E/DX2                !
 ! A60   A(33,17,35)           108.0964         estimate D2E/DX2                !
 ! A61   A(34,17,35)           108.1713         estimate D2E/DX2                !
 ! A62   A(2,18,36)            110.3297         estimate D2E/DX2                !
 ! A63   A(2,18,37)            110.34           estimate D2E/DX2                !
 ! A64   A(2,18,38)            111.1101         estimate D2E/DX2                !
 ! A65   A(36,18,37)           108.4775         estimate D2E/DX2                !
 ! A66   A(36,18,38)           108.4021         estimate D2E/DX2                !
 ! A67   A(37,18,38)           108.099          estimate D2E/DX2                !
 ! D1    D(19,1,2,3)           -53.9878         estimate D2E/DX2                !
 ! D2    D(19,1,2,17)           68.4946         estimate D2E/DX2                !
 ! D3    D(19,1,2,18)         -175.2647         estimate D2E/DX2                !
 ! D4    D(20,1,2,3)          -173.926          estimate D2E/DX2                !
 ! D5    D(20,1,2,17)          -51.4436         estimate D2E/DX2                !
 ! D6    D(20,1,2,18)           64.7971         estimate D2E/DX2                !
 ! D7    D(21,1,2,3)            66.3488         estimate D2E/DX2                !
 ! D8    D(21,1,2,17)         -171.1688         estimate D2E/DX2                !
 ! D9    D(21,1,2,18)          -54.9281         estimate D2E/DX2                !
 ! D10   D(1,2,3,4)           -158.9977         estimate D2E/DX2                !
 ! D11   D(17,2,3,4)            81.2038         estimate D2E/DX2                !
 ! D12   D(18,2,3,4)           -40.1425         estimate D2E/DX2                !
 ! D13   D(1,2,17,33)          -54.8181         estimate D2E/DX2                !
 ! D14   D(1,2,17,34)         -175.4663         estimate D2E/DX2                !
 ! D15   D(1,2,17,35)           64.6741         estimate D2E/DX2                !
 ! D16   D(3,2,17,33)           66.7451         estimate D2E/DX2                !
 ! D17   D(3,2,17,34)          -53.903          estimate D2E/DX2                !
 ! D18   D(3,2,17,35)         -173.7627         estimate D2E/DX2                !
 ! D19   D(18,2,17,33)        -170.2794         estimate D2E/DX2                !
 ! D20   D(18,2,17,34)          69.0725         estimate D2E/DX2                !
 ! D21   D(18,2,17,35)         -50.7872         estimate D2E/DX2                !
 ! D22   D(1,2,18,36)           65.2553         estimate D2E/DX2                !
 ! D23   D(1,2,18,37)          -54.5999         estimate D2E/DX2                !
 ! D24   D(1,2,18,38)         -174.4856         estimate D2E/DX2                !
 ! D25   D(3,2,18,36)          -55.6022         estimate D2E/DX2                !
 ! D26   D(3,2,18,37)         -175.4573         estimate D2E/DX2                !
 ! D27   D(3,2,18,38)           64.6569         estimate D2E/DX2                !
 ! D28   D(17,2,18,36)        -179.0696         estimate D2E/DX2                !
 ! D29   D(17,2,18,37)          61.0752         estimate D2E/DX2                !
 ! D30   D(17,2,18,38)         -58.8105         estimate D2E/DX2                !
 ! D31   D(2,3,4,5)            157.2307         estimate D2E/DX2                !
 ! D32   D(2,3,4,9)            -22.6419         estimate D2E/DX2                !
 ! D33   D(3,4,5,6)           -178.0579         estimate D2E/DX2                !
 ! D34   D(3,4,5,22)             1.254          estimate D2E/DX2                !
 ! D35   D(9,4,5,6)              1.8209         estimate D2E/DX2                !
 ! D36   D(9,4,5,22)          -178.8672         estimate D2E/DX2                !
 ! D37   D(3,4,9,8)            177.9505         estimate D2E/DX2                !
 ! D38   D(3,4,9,25)            -2.179          estimate D2E/DX2                !
 ! D39   D(5,4,9,8)             -1.9182         estimate D2E/DX2                !
 ! D40   D(5,4,9,25)           177.9522         estimate D2E/DX2                !
 ! D41   D(4,5,6,7)             -0.6537         estimate D2E/DX2                !
 ! D42   D(4,5,6,23)           179.5668         estimate D2E/DX2                !
 ! D43   D(22,5,6,7)          -179.9677         estimate D2E/DX2                !
 ! D44   D(22,5,6,23)            0.2529         estimate D2E/DX2                !
 ! D45   D(5,6,7,8)             -0.4185         estimate D2E/DX2                !
 ! D46   D(5,6,7,10)           179.0913         estimate D2E/DX2                !
 ! D47   D(23,6,7,8)           179.3588         estimate D2E/DX2                !
 ! D48   D(23,6,7,10)           -1.1314         estimate D2E/DX2                !
 ! D49   D(6,7,8,9)              0.3207         estimate D2E/DX2                !
 ! D50   D(6,7,8,24)          -179.5898         estimate D2E/DX2                !
 ! D51   D(10,7,8,9)          -179.1917         estimate D2E/DX2                !
 ! D52   D(10,7,8,24)            0.8978         estimate D2E/DX2                !
 ! D53   D(6,7,10,11)           62.6574         estimate D2E/DX2                !
 ! D54   D(6,7,10,26)          -60.6837         estimate D2E/DX2                !
 ! D55   D(6,7,10,27)         -175.537          estimate D2E/DX2                !
 ! D56   D(8,7,10,11)         -117.8413         estimate D2E/DX2                !
 ! D57   D(8,7,10,26)          118.8176         estimate D2E/DX2                !
 ! D58   D(8,7,10,27)            3.9643         estimate D2E/DX2                !
 ! D59   D(7,8,9,4)              0.8525         estimate D2E/DX2                !
 ! D60   D(7,8,9,25)          -179.0219         estimate D2E/DX2                !
 ! D61   D(24,8,9,4)          -179.2359         estimate D2E/DX2                !
 ! D62   D(24,8,9,25)            0.8897         estimate D2E/DX2                !
 ! D63   D(7,10,11,12)          59.9036         estimate D2E/DX2                !
 ! D64   D(7,10,11,16)        -120.899          estimate D2E/DX2                !
 ! D65   D(26,10,11,12)       -178.1249         estimate D2E/DX2                !
 ! D66   D(26,10,11,16)          1.0725         estimate D2E/DX2                !
 ! D67   D(27,10,11,12)        -63.3414         estimate D2E/DX2                !
 ! D68   D(27,10,11,16)        115.856          estimate D2E/DX2                !
 ! D69   D(10,11,12,13)        179.8988         estimate D2E/DX2                !
 ! D70   D(10,11,12,28)         -0.7255         estimate D2E/DX2                !
 ! D71   D(16,11,12,13)          0.6883         estimate D2E/DX2                !
 ! D72   D(16,11,12,28)       -179.9359         estimate D2E/DX2                !
 ! D73   D(10,11,16,15)       -179.7597         estimate D2E/DX2                !
 ! D74   D(10,11,16,32)          0.3151         estimate D2E/DX2                !
 ! D75   D(12,11,16,15)         -0.5486         estimate D2E/DX2                !
 ! D76   D(12,11,16,32)        179.5261         estimate D2E/DX2                !
 ! D77   D(11,12,13,14)         -0.4143         estimate D2E/DX2                !
 ! D78   D(11,12,13,29)        179.4719         estimate D2E/DX2                !
 ! D79   D(28,12,13,14)       -179.7971         estimate D2E/DX2                !
 ! D80   D(28,12,13,29)          0.0891         estimate D2E/DX2                !
 ! D81   D(12,13,14,15)         -0.0099         estimate D2E/DX2                !
 ! D82   D(12,13,14,30)        179.9033         estimate D2E/DX2                !
 ! D83   D(29,13,14,15)       -179.896          estimate D2E/DX2                !
 ! D84   D(29,13,14,30)          0.0172         estimate D2E/DX2                !
 ! D85   D(13,14,15,16)          0.1487         estimate D2E/DX2                !
 ! D86   D(13,14,15,31)       -179.904          estimate D2E/DX2                !
 ! D87   D(30,14,15,16)       -179.7644         estimate D2E/DX2                !
 ! D88   D(30,14,15,31)          0.1829         estimate D2E/DX2                !
 ! D89   D(14,15,16,11)          0.1353         estimate D2E/DX2                !
 ! D90   D(14,15,16,32)       -179.9384         estimate D2E/DX2                !
 ! D91   D(31,15,16,11)       -179.812          estimate D2E/DX2                !
 ! D92   D(31,15,16,32)          0.1144         estimate D2E/DX2                !
 --------------------------------------------------------------------------------
 Trust Radius=3.00D-01 FncErr=1.00D-07 GrdErr=1.00D-06
 Number of steps in this run= 208 maximum allowed number of steps= 228.
 GradGradGradGradGradGradGradGradGradGradGradGradGradGradGradGradGradGrad

 Leave Link  103 at Thu Sep 30 17:19:41 2021, MaxMem= 1610612736 cpu:       0.0
 (Enter /sw/target/amd/app/gaussian/Gaussian09RevA.02_gcc-4.9.2/g09/l202.exe)
                          Input orientation:                          
 ---------------------------------------------------------------------
 Center     Atomic      Atomic             Coordinates (Angstroms)
 Number     Number       Type             X           Y           Z
 ---------------------------------------------------------------------
      1          6           0        3.527467    1.427617    2.306685
      2         14           0        4.049788   -0.305492    1.775763
      3          8           0        2.822013   -1.403172    2.068185
      4          6           0        2.802900   -2.764534    2.217331
      5          6           0        1.720113   -3.295093    2.919843
      6          6           0        1.638036   -4.670818    3.156045
      7          6           0        2.632694   -5.536130    2.679972
      8          6           0        3.704628   -4.995130    1.955864
      9          6           0        3.783260   -3.619783    1.719364
     10          6           0        2.562787   -7.022839    2.948136
     11          6           0        1.360185   -7.710454    2.340422
     12          6           0        1.150675   -7.689163    0.953524
     13          6           0        0.042303   -8.325446    0.393699
     14          6           0       -0.863905   -8.997028    1.211961
     15          6           0       -0.661772   -9.032705    2.590993
     16          6           0        0.445346   -8.393944    3.152591
     17          6           0        4.503019   -0.224993   -0.047435
     18          6           0        5.600602   -0.742239    2.753162
     19          1           0        2.581540    1.708307    1.834887
     20          1           0        4.288868    2.157530    2.015560
     21          1           0        3.402656    1.474596    3.392323
     22          1           0        0.941733   -2.637211    3.295647
     23          1           0        0.789614   -5.064852    3.711893
     24          1           0        4.488064   -5.642470    1.568079
     25          1           0        4.621574   -3.243961    1.140344
     26          1           0        2.580637   -7.171282    4.035429
     27          1           0        3.463797   -7.524167    2.568679
     28          1           0        1.847199   -7.166197    0.301212
     29          1           0       -0.114429   -8.295085   -0.681181
     30          1           0       -1.727197   -9.490749    0.776087
     31          1           0       -1.367700   -9.557773    3.228701
     32          1           0        0.586503   -8.433823    4.230814
     33          1           0        3.678614    0.191410   -0.633640
     34          1           0        4.739787   -1.217475   -0.439627
     35          1           0        5.379058    0.416149   -0.189402
     36          1           0        5.369814   -0.814019    3.819955
     37          1           0        6.366031    0.026553    2.615098
     38          1           0        6.016594   -1.698465    2.424957
 ---------------------------------------------------------------------
                    Distance matrix (angstroms):
                    1          2          3          4          5
     1  C    0.000000
     2  Si   1.886363   0.000000
     3  O    2.927099   1.672675   0.000000
     4  C    4.255245   2.792239   1.369641   0.000000
     5  C    5.093769   3.959043   2.349228   1.395508   0.000000
     6  C    6.440673   5.174727   3.641807   2.423223   1.398266
     7  C    7.030913   5.494117   4.182281   2.815094   2.431581
     8  C    6.434760   4.705771   3.700512   2.420132   2.785261
     9  C    5.087890   3.325469   2.441114   1.393029   2.408973
    10  C    8.529494   6.979139   5.694047   4.327227   3.821909
    11  C    9.391624   7.898498   6.480191   5.153514   4.467739
    12  C    9.518185   7.974931   6.599206   5.345936   4.847527
    13  C   10.532242   9.071367   7.645166   6.470724   5.873746
    14  C   11.364673  10.000253   8.484442   7.300700   6.488919
    15  C   11.271597   9.951264   8.403563   7.171719   6.221070
    16  C   10.328508   8.961624   7.462934   6.174385   5.260939
    17  C    3.037220   1.880412   2.947835   3.803792   5.096549
    18  C    3.034057   1.884431   2.937104   3.493412   4.647907
    19  H    1.093690   2.492917   3.129465   4.494615   5.191647
    20  H    1.094193   2.486190   3.851367   5.145437   6.094861
    21  H    1.093797   2.490132   3.220564   4.439655   5.079776
    22  H    4.918017   4.172166   2.562220   2.154744   1.086239
    23  H    7.184887   6.085133   4.498925   3.402720   2.150632
    24  H    7.173174   5.358970   4.582301   3.397621   3.872854
    25  H    4.937719   3.060278   2.736387   2.167332   3.404072
    26  H    8.821910   7.375877   6.099132   4.772243   4.124302
    27  H    8.955844   7.285697   6.174866   4.818127   4.587899
    28  H    8.983254   7.354928   6.106137   4.894846   4.675342
    29  H   10.803781   9.338677   7.979986   6.891965   6.429062
    30  H   12.213310  10.896874   9.368764   8.236561   7.407145
    31  H   12.061989  10.819654   9.241105   8.035227   6.989360
    32  H   10.468980   9.170136   7.687947   6.411503   5.423123
    33  H    3.193206   2.487952   3.252124   4.199109   5.349643
    34  H    4.001058   2.493144   3.162509   3.633779   4.972019
    35  H    3.268319   2.479838   3.865890   4.748231   6.068657
    36  H    3.272485   2.485918   3.147553   3.600271   4.504025
    37  H    3.180495   2.485904   3.860479   4.543599   5.719332
    38  H    3.997766   2.496027   3.227976   3.392261   4.610193
                    6          7          8          9         10
     6  C    0.000000
     7  C    1.401697   0.000000
     8  C    2.411724   1.402161   0.000000
     9  C    2.787600   2.432890   1.397746   0.000000
    10  C    2.535822   1.512317   2.529824   3.818406   0.000000
    11  C    3.159403   2.542097   3.607947   4.794851   1.512740
    12  C    3.768159   3.132499   3.845149   4.906818   2.533086
    13  C    4.851105   4.440433   5.190760   6.155924   3.817692
    14  C    5.362393   5.134109   6.118829   7.125192   4.319021
    15  C    4.963311   4.804941   5.980873   7.058170   3.816398
    16  C    3.909499   3.629733   4.858704   5.999035   2.530866
    17  C    6.183507   6.256599   5.234963   3.894127   7.677803
    18  C    5.594459   5.638726   4.724139   3.556927   6.979418
    19  H    6.582469   7.293741   6.797943   5.463151   8.801851
    20  H    7.413094   7.897896   7.176730   5.806954   9.387664
    21  H    6.398111   7.088764   6.634151   5.375533   8.550385
    22  H    2.154039   3.412058   3.871484   3.394760   4.688530
    23  H    1.088141   2.164234   3.403793   3.875605   2.749760
    24  H    3.404174   2.165644   1.087749   2.147300   2.741654
    25  H    3.873043   3.402960   2.138330   1.085945   4.667615
    26  H    2.813206   2.124546   3.213033   4.407222   1.097524
    27  H    3.438023   2.157640   2.613345   4.008442   1.098698
    28  H    3.797464   2.988748   3.301734   4.282118   2.745691
    29  H    5.561542   5.143527   5.694639   6.543168   4.685940
    30  H    6.341982   6.186473   7.148929   8.106982   5.404844
    31  H    5.737775   5.698936   6.940197   8.004387   4.685438
    32  H    4.052290   3.871516   5.169401   6.300922   2.746240
    33  H    6.493607   6.699156   5.797104   4.480265   8.131395
    34  H    5.871567   5.729094   4.591363   3.368571   7.065304
    35  H    7.145942   7.155798   6.057047   4.741171   8.550676
    36  H    5.407572   5.575815   4.871280   3.847330   6.869419
    37  H    6.686693   6.699662   5.721448   4.557282   8.016827
    38  H    5.342390   5.122839   4.053792   3.029374   6.368002
                   11         12         13         14         15
    11  C    0.000000
    12  C    1.402795   0.000000
    13  C    2.429970   1.395259   0.000000
    14  C    2.806291   2.415747   1.393481   0.000000
    15  C    2.428877   2.787718   2.413304   1.394223   0.000000
    16  C    1.401323   2.414560   2.789018   2.417415   1.396109
    17  C    8.462351   8.243419   9.257965  10.360431  10.545717
    18  C    8.167467   8.443950   9.693646  10.597485  10.391124
    19  H    9.511064   9.546550  10.449925  11.263362  11.245449
    20  H   10.298536  10.389106  11.426134  12.313448  12.249952
    21  H    9.468016   9.746468  10.785385  11.515747  11.294471
    22  H    5.179320   5.572379   6.448743   6.931764   6.630996
    23  H    3.034089   3.824392   4.711725   4.944269   4.371132
    24  H    3.828407   3.962927   5.323750   6.326409   6.249868
    25  H    5.659187   5.642859   6.881038   7.949426   7.970425
    26  H    2.157142   3.436732   4.586658   4.813542   4.008056
    27  H    2.124144   2.826037   4.132700   4.768544   4.392779
    28  H    2.166050   1.088187   2.147105   3.395805   3.875807
    29  H    3.412677   2.154041   1.086671   2.153700   3.398645
    30  H    3.892110   3.399904   2.152971   1.085827   2.153792
    31  H    3.412181   3.874319   3.397643   2.153018   1.086602
    32  H    2.166894   3.407850   3.877029   3.396227   2.146128
    33  H    8.755548   8.426921   9.317458  10.414803  10.692124
    34  H    7.830017   7.530295   8.560610   9.728852   9.971927
    35  H    9.412387   9.213120  10.258481  11.381841  11.554352
    36  H    8.113381   8.560675   9.825636  10.612375  10.268260
    37  H    9.219286   9.460076  10.708877  11.647566  11.465634
    38  H    7.604821   7.856891   9.150684  10.103546   9.920646
                   16         17         18         19         20
    16  C    0.000000
    17  C    9.666262   0.000000
    18  C    9.234977   3.052143   0.000000
    19  H   10.409378   3.312531   3.995389   0.000000
    20  H   11.287121   3.158833   3.267011   1.774658   0.000000
    21  H   10.304913   3.991407   3.186511   1.776079   1.774048
    22  H    5.779865   5.447729   5.058683   4.868914   5.985941
    23  H    3.393257   7.165623   6.538330   7.253264   8.202752
    24  H    5.140511   5.653244   5.162793   7.598681   7.815365
    25  H    6.929093   3.246389   3.133416   5.400841   5.482044
    26  H    2.614148   8.283492   7.217824   9.148195   9.696631
    27  H    3.195076   7.823169   7.112983   9.303516   9.732520
    28  H    3.406306   7.440110   7.833730   9.035941   9.789413
    29  H    3.875685   9.319272  10.074809  10.661459  11.658413
    30  H    3.401573  11.195893  11.581964  12.045959  13.168589
    31  H    2.155789  11.502138  11.247089  12.019309  13.065864
    32  H    1.088154  10.051238   9.299737  10.610535  11.436416
    33  H    9.924610   1.093925   4.004518   3.098091   3.355040
    34  H    9.102086   1.093112   3.340771   4.288548   4.197848
    35  H   10.636172   1.094835   3.170115   3.686939   3.013765
    36  H    9.063719   4.006868   1.093829   4.251717   3.640658
    37  H   10.307676   3.259321   1.093611   4.214190   3.035641
    38  H    8.740577   3.251884   1.093223   4.873794   4.245155
                   21         22         23         24         25
    21  H    0.000000
    22  H    4.792958   0.000000
    23  H    7.049432   2.467760   0.000000
    24  H    7.426884   4.959087   4.313713   0.000000
    25  H    5.368608   4.307518   4.961091   2.440006   0.000000
    26  H    8.708645   4.877610   2.783790   3.473234   5.288741
    27  H    9.036585   5.547219   3.808730   2.364552   4.658407
    28  H    9.307938   5.504382   4.143293   3.301645   4.877010
    29  H   11.153923   6.995869   5.527278   5.768750   7.159716
    30  H   12.385430   7.774468   5.877233   7.352957   8.914142
    31  H   12.020659   7.296036   5.007376   7.237212   8.949685
    32  H   10.334919   5.882298   3.414747   5.486710   7.264122
    33  H    4.234512   5.561557   7.406637   6.287841   3.979695
    34  H    4.870216   5.512998   6.902268   4.865679   2.572340
    35  H    4.225545   6.415484   8.143984   6.370987   3.967167
    36  H    3.048006   4.817347   6.249759   5.400219   3.693886
    37  H    3.388584   6.081267   7.630321   6.063072   3.989273
    38  H    4.223362   5.233886   6.349022   4.315764   2.446400
                   26         27         28         29         30
    26  H    0.000000
    27  H    1.748100   0.000000
    28  H    3.805566   2.807657   0.000000
    29  H    5.547317   4.894855   2.467280   0.000000
    30  H    5.878833   5.833288   4.290147   2.480779   0.000000
    31  H    4.683537   5.283422   4.962399   4.295608   2.479727
    32  H    2.368281   3.445140   4.317175   4.963693   4.290157
    33  H    8.787206   8.356503   7.639529   9.295700  11.178298
    34  H    7.754732   7.102987   6.656065   8.585705  10.571041
    35  H    9.124114   8.621128   8.378943  10.310472  12.230195
    36  H    6.945554   7.086937   8.070968  10.310358  11.615435
    37  H    8.255627   8.089407   8.803952  11.050407  12.627801
    38  H    6.659665   6.362093   7.196543   9.526433  11.108770
                   31         32         33         34         35
    31  H    0.000000
    32  H    2.467064   0.000000
    33  H   11.637420  10.373944   0.000000
    34  H   10.968984   9.546647   1.774454   0.000000
    35  H   12.517240  10.992220   1.771825   1.772006   0.000000
    36  H   11.054271   9.006124   4.868835   4.324783   4.193846
    37  H   12.330711  10.372630   4.219442   3.677448   2.998520
    38  H   10.813996   8.838102   4.288683   3.172922   3.422414
                   36         37         38
    36  H    0.000000
    37  H    1.775019   0.000000
    38  H    1.773862   1.770296   0.000000
 Stoichiometry    C16H20OSi
 Framework group  C1[X(C16H20OSi)]
 Deg. of freedom   108
 Full point group                 C1      NOp   1
 Largest Abelian subgroup         C1      NOp   1
 Largest concise Abelian subgroup C1      NOp   1
                         Standard orientation:                         
 ---------------------------------------------------------------------
 Center     Atomic      Atomic             Coordinates (Angstroms)
 Number     Number       Type             X           Y           Z
 ---------------------------------------------------------------------
      1          6           0        5.517878    0.122755    1.481471
      2         14           0        4.183545    0.237569    0.153036
      3          8           0        2.661714    0.206990    0.846533
      4          6           0        1.419556   -0.101094    0.358634
      5          6           0        0.464484   -0.490642    1.298598
      6          6           0       -0.819192   -0.862754    0.887680
      7          6           0       -1.168408   -0.836804   -0.469571
      8          6           0       -0.208104   -0.422201   -1.403368
      9          6           0        1.073767   -0.048777   -0.989781
     10          6           0       -2.547880   -1.256969   -0.925225
     11          6           0       -3.670742   -0.396046   -0.390084
     12          6           0       -3.714008    0.977437   -0.672051
     13          6           0       -4.751195    1.770322   -0.179787
     14          6           0       -5.760745    1.198530    0.591997
     15          6           0       -5.733481   -0.167075    0.871707
     16          6           0       -4.694622   -0.960921    0.382115
     17          6           0        4.484841    1.821541   -0.814539
     18          6           0        4.430936   -1.223816   -1.010678
     19          1           0        5.377503    0.898920    2.239112
     20          1           0        6.508243    0.251304    1.034359
     21          1           0        5.486157   -0.853773    1.973183
     22          1           0        0.720271   -0.516465    2.353975
     23          1           0       -1.548034   -1.170292    1.634848
     24          1           0       -0.451970   -0.385342   -2.462787
     25          1           0        1.782277    0.281410   -1.743615
     26          1           0       -2.695530   -2.304689   -0.633606
     27          1           0       -2.609731   -1.246152   -2.022128
     28          1           0       -2.931472    1.439795   -1.270392
     29          1           0       -4.769789    2.834806   -0.397462
     30          1           0       -6.566906    1.816179    0.976231
     31          1           0       -6.521646   -0.613013    1.472240
     32          1           0       -4.691342   -2.024885    0.610259
     33          1           0        4.521224    2.684612   -0.143378
     34          1           0        3.695845    1.989781   -1.552153
     35          1           0        5.440926    1.762482   -1.344707
     36          1           0        4.246994   -2.164561   -0.483777
     37          1           0        5.455220   -1.235604   -1.393678
     38          1           0        3.749908   -1.167317   -1.863993
 ---------------------------------------------------------------------
 Rotational constants (GHZ):      1.1487771      0.1315891      0.1307706
 Leave Link  202 at Thu Sep 30 17:19:42 2021, MaxMem= 1610612736 cpu:       0.1
 (Enter /sw/target/amd/app/gaussian/Gaussian09RevA.02_gcc-4.9.2/g09/l301.exe)
 Standard basis: 6-31G(d) (6D, 7F)
 Ernie: Thresh=  0.10000D-02 Tol=  0.10000D-05 Strict=F.
 There are   314 symmetry adapted basis functions of A   symmetry.
 Integral buffers will be    131072 words long.
 Raffenetti 2 integral format.
 Two-electron integral symmetry is turned on.
   314 basis functions,   608 primitive gaussians,   314 cartesian basis functions
    69 alpha electrons       69 beta electrons
       nuclear repulsion energy      1313.2446018244 Hartrees.
 IExCor=  402 DFT=T Ex+Corr=B3LYP ExCW=0 ScaHFX=  0.200000
 ScaDFX=  0.800000  0.720000  1.000000  0.810000 ScalE2=  1.000000  1.000000
 IRadAn=      0 IRanWt=     -1 IRanGd=            0 ICorTp=0
 NAtoms=   38 NActive=   38 NUniq=   38 SFac= 7.50D-01 NAtFMM=   80 NAOKFM=F Big=F
 Leave Link  301 at Thu Sep 30 17:19:42 2021, MaxMem= 1610612736 cpu:       0.1
 (Enter /sw/target/amd/app/gaussian/Gaussian09RevA.02_gcc-4.9.2/g09/l302.exe)
 NPDir=0 NMtPBC=     1 NCelOv=     1 NCel=       1 NClECP=     1 NCelD=      1
         NCelK=      1 NCelE2=     1 NClLst=     1 CellRange=     0.0.
 One-electron integrals computed using PRISM.
 NBasis=   314 RedAO= T  NBF=   314
 NBsUse=   314 1.00D-06 NBFU=   314
 Precomputing XC quadrature grid using
 IXCGrd= 2 IRadAn=           0 IRanWt=          -1 IRanGd=           0 AccXCQ= 1.00D-10.
 NRdTot=    2439 NPtTot=      311010 NUsed=      328590 NTot=      328622
 NSgBfM=   308   308   308   308   308 NAtAll=    38    38.
 Leave Link  302 at Thu Sep 30 17:19:47 2021, MaxMem= 1610612736 cpu:       3.8
 (Enter /sw/target/amd/app/gaussian/Gaussian09RevA.02_gcc-4.9.2/g09/l303.exe)
 DipDrv:  MaxL=1.
 Leave Link  303 at Thu Sep 30 17:19:48 2021, MaxMem= 1610612736 cpu:       0.3
 (Enter /sw/target/amd/app/gaussian/Gaussian09RevA.02_gcc-4.9.2/g09/l401.exe)
 Harris functional with IExCor=  402 diagonalized for initial guess.
 ExpMin= 7.78D-02 ExpMax= 1.61D+04 ExpMxC= 2.43D+03 IAcc=2 IRadAn=         0 AccDes= 0.00D+00
 HarFok:  IExCor=  402 AccDes= 0.00D+00 IRadAn=         0 IDoV= 1
 ScaDFX=  1.000000  1.000000  1.000000  1.000000
 FoFCou: FMM=F IPFlag=           0 FMFlag=      100000 FMFlg1=           0
         NFxFlg=           0 DoJE=T BraDBF=F KetDBF=T FulRan=T
         Omega=  0.000000  0.000000  1.000000  0.000000  0.000000 ICntrl=     500 IOpCl=  0
         NMat0=    1 NMatS0=    1 NMatT0=    0 NMatD0=    1 NMtDS0=    0 NMtDT0=    0
         I1Cent=           4 NGrid=           0.
 Petite list used in FoFCou.
 Harris En= -986.780446375758    
 Initial guess orbital symmetries:
       Occupied  (A) (A) (A) (A) (A) (A) (A) (A) (A) (A) (A) (A)
                 (A) (A) (A) (A) (A) (A) (A) (A) (A) (A) (A) (A)
                 (A) (A) (A) (A) (A) (A) (A) (A) (A) (A) (A) (A)
                 (A) (A) (A) (A) (A) (A) (A) (A) (A) (A) (A) (A)
                 (A) (A) (A) (A) (A) (A) (A) (A) (A) (A) (A) (A)
                 (A) (A) (A) (A) (A) (A) (A) (A) (A)
       Virtual   (A) (A) (A) (A) (A) (A) (A) (A) (A) (A) (A) (A)
                 (A) (A) (A) (A) (A) (A) (A) (A) (A) (A) (A) (A)
                 (A) (A) (A) (A) (A) (A) (A) (A) (A) (A) (A) (A)
                 (A) (A) (A) (A) (A) (A) (A) (A) (A) (A) (A) (A)
                 (A) (A) (A) (A) (A) (A) (A) (A) (A) (A) (A) (A)
                 (A) (A) (A) (A) (A) (A) (A) (A) (A) (A) (A) (A)
                 (A) (A) (A) (A) (A) (A) (A) (A) (A) (A) (A) (A)
                 (A) (A) (A) (A) (A) (A) (A) (A) (A) (A) (A) (A)
                 (A) (A) (A) (A) (A) (A) (A) (A) (A) (A) (A) (A)
                 (A) (A) (A) (A) (A) (A) (A) (A) (A) (A) (A) (A)
                 (A) (A) (A) (A) (A) (A) (A) (A) (A) (A) (A) (A)
                 (A) (A) (A) (A) (A) (A) (A) (A) (A) (A) (A) (A)
                 (A) (A) (A) (A) (A) (A) (A) (A) (A) (A) (A) (A)
                 (A) (A) (A) (A) (A) (A) (A) (A) (A) (A) (A) (A)
                 (A) (A) (A) (A) (A) (A) (A) (A) (A) (A) (A) (A)
                 (A) (A) (A) (A) (A) (A) (A) (A) (A) (A) (A) (A)
                 (A) (A) (A) (A) (A) (A) (A) (A) (A) (A) (A) (A)
                 (A) (A) (A) (A) (A) (A) (A) (A) (A) (A) (A) (A)
                 (A) (A) (A) (A) (A) (A) (A) (A) (A) (A) (A) (A)
                 (A) (A) (A) (A) (A) (A) (A) (A) (A) (A) (A) (A)
                 (A) (A) (A) (A) (A)
 The electronic state of the initial guess is 1-A.
 Leave Link  401 at Thu Sep 30 17:20:15 2021, MaxMem= 1610612736 cpu:      31.8
 (Enter /sw/target/amd/app/gaussian/Gaussian09RevA.02_gcc-4.9.2/g09/l502.exe)
 Closed shell SCF:
 Requested convergence on RMS density matrix=1.00D-08 within  64 cycles.
 Requested convergence on MAX density matrix=1.00D-06.
 Requested convergence on             energy=1.00D-06.
 No special actions if energy rises.
 Using DIIS extrapolation, IDIIS=  1040.
 Integral symmetry usage will be decided dynamically.
       328235 words used for storage of precomputed grid.
 Keep R1 ints in memory in canonical form, NReq=1239184866.
 IEnd=      633832 IEndB=      633832 NGot=  1610612736 MDV=   387158771
 LenX=   387158771 LenY=   387059734
 Symmetry not used in FoFDir.
 MinBra= 0 MaxBra= 2 Meth= 1.
 IRaf=       0 NMat=   1 IRICut=       1 DoRegI=T DoRafI=F ISym2E= 0 JSym2E=0.
 Integral accuracy reduced to 1.0D-05 until final iterations.

 Cycle   1  Pass 0  IDiag  1:
 E= -985.848415920026    
 DIIS: error= 4.60D-02 at cycle   1 NSaved=   1.
 NSaved= 1 IEnMin= 1 EnMin= -985.848415920026     IErMin= 1 ErrMin= 4.60D-02
 ErrMax= 4.60D-02 EMaxC= 1.00D-01 BMatC= 6.69D-01 BMatP= 6.69D-01
 IDIUse=3 WtCom= 5.40D-01 WtEn= 4.60D-01
 Coeff-Com:  0.100D+01
 Coeff-En:   0.100D+01
 Coeff:      0.100D+01
 Gap=     0.224 Goal=   None    Shift=    0.000
 GapD=    0.224 DampG=1.000 DampE=0.500 DampFc=0.5000 IDamp=-1.
 Damping current iteration by 5.00D-01
 RMSDP=5.48D-03 MaxDP=1.84D-01              OVMax= 2.13D-01

 Cycle   2  Pass 0  IDiag  1:
 E= -986.178418067777     Delta-E=       -0.330002147752 Rises=F Damp=T
 DIIS: error= 8.83D-03 at cycle   2 NSaved=   2.
 NSaved= 2 IEnMin= 2 EnMin= -986.178418067777     IErMin= 2 ErrMin= 8.83D-03
 ErrMax= 8.83D-03 EMaxC= 1.00D-01 BMatC= 2.06D-02 BMatP= 6.69D-01
 IDIUse=3 WtCom= 9.12D-01 WtEn= 8.83D-02
 Coeff-Com:  0.387D-01 0.961D+00
 Coeff-En:   0.606D-01 0.939D+00
 Coeff:      0.406D-01 0.959D+00
 Gap=     0.227 Goal=   None    Shift=    0.000
 RMSDP=1.05D-03 MaxDP=4.88D-02 DE=-3.30D-01 OVMax= 1.22D-01

 Cycle   3  Pass 0  IDiag  1:
 E= -986.540854063574     Delta-E=       -0.362435995797 Rises=F Damp=F
 DIIS: error= 2.76D-03 at cycle   3 NSaved=   3.
 NSaved= 3 IEnMin= 3 EnMin= -986.540854063574     IErMin= 3 ErrMin= 2.76D-03
 ErrMax= 2.76D-03 EMaxC= 1.00D-01 BMatC= 5.22D-03 BMatP= 2.06D-02
 IDIUse=3 WtCom= 9.72D-01 WtEn= 2.76D-02
 Coeff-Com: -0.590D-02 0.283D+00 0.723D+00
 Coeff-En:   0.000D+00 0.000D+00 0.100D+01
 Coeff:     -0.574D-02 0.275D+00 0.731D+00
 Gap=     0.214 Goal=   None    Shift=    0.000
 RMSDP=4.17D-04 MaxDP=1.77D-02 DE=-3.62D-01 OVMax= 3.95D-02

 Cycle   4  Pass 0  IDiag  1:
 E= -986.541738689385     Delta-E=       -0.000884625811 Rises=F Damp=F
 DIIS: error= 2.97D-03 at cycle   4 NSaved=   4.
 NSaved= 4 IEnMin= 4 EnMin= -986.541738689385     IErMin= 3 ErrMin= 2.76D-03
 ErrMax= 2.97D-03 EMaxC= 1.00D-01 BMatC= 4.09D-03 BMatP= 5.22D-03
 IDIUse=3 WtCom= 9.70D-01 WtEn= 2.97D-02
 Coeff-Com: -0.625D-02 0.642D-01 0.471D+00 0.471D+00
 Coeff-En:   0.000D+00 0.000D+00 0.458D+00 0.542D+00
 Coeff:     -0.606D-02 0.623D-01 0.471D+00 0.473D+00
 Gap=     0.212 Goal=   None    Shift=    0.000
 RMSDP=2.28D-04 MaxDP=1.03D-02 DE=-8.85D-04 OVMax= 2.54D-02

 Cycle   5  Pass 0  IDiag  1:
 E= -986.545630458091     Delta-E=       -0.003891768706 Rises=F Damp=F
 DIIS: error= 6.19D-04 at cycle   5 NSaved=   5.
 NSaved= 5 IEnMin= 5 EnMin= -986.545630458091     IErMin= 5 ErrMin= 6.19D-04
 ErrMax= 6.19D-04 EMaxC= 1.00D-01 BMatC= 1.42D-04 BMatP= 4.09D-03
 IDIUse=3 WtCom= 9.94D-01 WtEn= 6.19D-03
 Coeff-Com: -0.195D-02 0.922D-02 0.175D+00 0.233D+00 0.584D+00
 Coeff-En:   0.000D+00 0.000D+00 0.000D+00 0.000D+00 0.100D+01
 Coeff:     -0.194D-02 0.916D-02 0.174D+00 0.232D+00 0.587D+00
 Gap=     0.212 Goal=   None    Shift=    0.000
 RMSDP=5.70D-05 MaxDP=2.23D-03 DE=-3.89D-03 OVMax= 5.73D-03

 Cycle   6  Pass 0  IDiag  1:
 E= -986.545756296864     Delta-E=       -0.000125838773 Rises=F Damp=F
 DIIS: error= 2.08D-04 at cycle   6 NSaved=   6.
 NSaved= 6 IEnMin= 6 EnMin= -986.545756296864     IErMin= 6 ErrMin= 2.08D-04
 ErrMax= 2.08D-04 EMaxC= 1.00D-01 BMatC= 2.85D-05 BMatP= 1.42D-04
 IDIUse=3 WtCom= 9.98D-01 WtEn= 2.08D-03
 Coeff-Com: -0.655D-03 0.717D-03 0.700D-01 0.106D+00 0.371D+00 0.453D+00
 Coeff-En:   0.000D+00 0.000D+00 0.000D+00 0.000D+00 0.154D+00 0.846D+00
 Coeff:     -0.653D-03 0.716D-03 0.698D-01 0.106D+00 0.371D+00 0.453D+00
 Gap=     0.212 Goal=   None    Shift=    0.000
 RMSDP=2.29D-05 MaxDP=6.97D-04 DE=-1.26D-04 OVMax= 1.90D-03

 Cycle   7  Pass 0  IDiag  1:
 E= -986.545785342531     Delta-E=       -0.000029045667 Rises=F Damp=F
 DIIS: error= 5.56D-05 at cycle   7 NSaved=   7.
 NSaved= 7 IEnMin= 7 EnMin= -986.545785342531     IErMin= 7 ErrMin= 5.56D-05
 ErrMax= 5.56D-05 EMaxC= 1.00D-01 BMatC= 1.72D-06 BMatP= 2.85D-05
 IDIUse=1 WtCom= 1.00D+00 WtEn= 0.00D+00
 Coeff-Com: -0.216D-03-0.304D-03 0.295D-01 0.468D-01 0.179D+00 0.267D+00
 Coeff-Com:  0.478D+00
 Coeff:     -0.216D-03-0.304D-03 0.295D-01 0.468D-01 0.179D+00 0.267D+00
 Coeff:      0.478D+00
 Gap=     0.212 Goal=   None    Shift=    0.000
 RMSDP=4.97D-06 MaxDP=1.69D-04 DE=-2.90D-05 OVMax= 4.49D-04

 Initial convergence to 1.0D-05 achieved.  Increase integral accuracy.
 Cycle   8  Pass 1  IDiag  1:
 E= -986.545787546091     Delta-E=       -0.000002203560 Rises=F Damp=F
 DIIS: error= 2.18D-05 at cycle   1 NSaved=   1.
 NSaved= 1 IEnMin= 1 EnMin= -986.545787546091     IErMin= 1 ErrMin= 2.18D-05
 ErrMax= 2.18D-05 EMaxC= 1.00D-01 BMatC= 2.13D-07 BMatP= 2.13D-07
 IDIUse=1 WtCom= 1.00D+00 WtEn= 0.00D+00
 Coeff-Com:  0.100D+01
 Coeff:      0.100D+01
 Gap=     0.212 Goal=   None    Shift=    0.000
 RMSDP=4.97D-06 MaxDP=1.69D-04 DE=-2.20D-06 OVMax= 3.08D-04

 Cycle   9  Pass 1  IDiag  1:
 E= -986.545787577364     Delta-E=       -0.000000031273 Rises=F Damp=F
 DIIS: error= 2.40D-05 at cycle   2 NSaved=   2.
 NSaved= 2 IEnMin= 2 EnMin= -986.545787577364     IErMin= 1 ErrMin= 2.18D-05
 ErrMax= 2.40D-05 EMaxC= 1.00D-01 BMatC= 2.53D-07 BMatP= 2.13D-07
 IDIUse=1 WtCom= 1.00D+00 WtEn= 0.00D+00
 Coeff-Com:  0.527D+00 0.473D+00
 Coeff:      0.527D+00 0.473D+00
 Gap=     0.212 Goal=   None    Shift=    0.000
 RMSDP=2.39D-06 MaxDP=9.17D-05 DE=-3.13D-08 OVMax= 2.50D-04

 Cycle  10  Pass 1  IDiag  1:
 E= -986.545787809539     Delta-E=       -0.000000232175 Rises=F Damp=F
 DIIS: error= 1.14D-05 at cycle   3 NSaved=   3.
 NSaved= 3 IEnMin= 3 EnMin= -986.545787809539     IErMin= 3 ErrMin= 1.14D-05
 ErrMax= 1.14D-05 EMaxC= 1.00D-01 BMatC= 4.19D-08 BMatP= 2.13D-07
 IDIUse=1 WtCom= 1.00D+00 WtEn= 0.00D+00
 Coeff-Com:  0.424D-01 0.285D+00 0.673D+00
 Coeff:      0.424D-01 0.285D+00 0.673D+00
 Gap=     0.212 Goal=   None    Shift=    0.000
 RMSDP=9.57D-07 MaxDP=2.44D-05 DE=-2.32D-07 OVMax= 9.02D-05

 Cycle  11  Pass 1  IDiag  1:
 E= -986.545787850855     Delta-E=       -0.000000041316 Rises=F Damp=F
 DIIS: error= 4.03D-06 at cycle   4 NSaved=   4.
 NSaved= 4 IEnMin= 4 EnMin= -986.545787850855     IErMin= 4 ErrMin= 4.03D-06
 ErrMax= 4.03D-06 EMaxC= 1.00D-01 BMatC= 7.02D-09 BMatP= 4.19D-08
 IDIUse=1 WtCom= 1.00D+00 WtEn= 0.00D+00
 Coeff-Com: -0.166D-01 0.140D+00 0.424D+00 0.454D+00
 Coeff:     -0.166D-01 0.140D+00 0.424D+00 0.454D+00
 Gap=     0.212 Goal=   None    Shift=    0.000
 RMSDP=3.34D-07 MaxDP=1.13D-05 DE=-4.13D-08 OVMax= 3.03D-05

 Cycle  12  Pass 1  IDiag  1:
 E= -986.545787858080     Delta-E=       -0.000000007225 Rises=F Damp=F
 DIIS: error= 9.40D-07 at cycle   5 NSaved=   5.
 NSaved= 5 IEnMin= 5 EnMin= -986.545787858080     IErMin= 5 ErrMin= 9.40D-07
 ErrMax= 9.40D-07 EMaxC= 1.00D-01 BMatC= 2.33D-10 BMatP= 7.02D-09
 IDIUse=1 WtCom= 1.00D+00 WtEn= 0.00D+00
 Coeff-Com: -0.113D-01 0.597D-01 0.194D+00 0.240D+00 0.518D+00
 Coeff:     -0.113D-01 0.597D-01 0.194D+00 0.240D+00 0.518D+00
 Gap=     0.212 Goal=   None    Shift=    0.000
 RMSDP=6.70D-08 MaxDP=3.11D-06 DE=-7.23D-09 OVMax= 7.68D-06

 Cycle  13  Pass 1  IDiag  1:
 E= -986.545787858299     Delta-E=       -0.000000000219 Rises=F Damp=F
 DIIS: error= 3.31D-07 at cycle   6 NSaved=   6.
 NSaved= 6 IEnMin= 6 EnMin= -986.545787858299     IErMin= 6 ErrMin= 3.31D-07
 ErrMax= 3.31D-07 EMaxC= 1.00D-01 BMatC= 3.55D-11 BMatP= 2.33D-10
 IDIUse=1 WtCom= 1.00D+00 WtEn= 0.00D+00
 Coeff-Com: -0.388D-02 0.148D-01 0.525D-01 0.744D-01 0.309D+00 0.553D+00
 Coeff:     -0.388D-02 0.148D-01 0.525D-01 0.744D-01 0.309D+00 0.553D+00
 Gap=     0.212 Goal=   None    Shift=    0.000
 RMSDP=2.49D-08 MaxDP=1.04D-06 DE=-2.19D-10 OVMax= 3.18D-06

 Cycle  14  Pass 1  IDiag  1:
 E= -986.545787858318     Delta-E=       -0.000000000019 Rises=F Damp=F
 DIIS: error= 6.19D-08 at cycle   7 NSaved=   7.
 NSaved= 7 IEnMin= 7 EnMin= -986.545787858318     IErMin= 7 ErrMin= 6.19D-08
 ErrMax= 6.19D-08 EMaxC= 1.00D-01 BMatC= 1.63D-12 BMatP= 3.55D-11
 IDIUse=1 WtCom= 1.00D+00 WtEn= 0.00D+00
 Coeff-Com: -0.641D-03 0.656D-03 0.442D-02 0.965D-02 0.853D-01 0.243D+00
 Coeff-Com:  0.657D+00
 Coeff:     -0.641D-03 0.656D-03 0.442D-02 0.965D-02 0.853D-01 0.243D+00
 Coeff:      0.657D+00
 Gap=     0.212 Goal=   None    Shift=    0.000
 RMSDP=5.72D-09 MaxDP=2.53D-07 DE=-1.91D-11 OVMax= 4.96D-07

 SCF Done:  E(RB3LYP) =  -986.545787858     A.U. after   14 cycles
             Convg  =    0.5717D-08             -V/T =  2.0081
 KE= 9.786256758920D+02 PE=-4.931566655198D+03 EE= 1.653150589623D+03
 Leave Link  502 at Thu Sep 30 17:33:52 2021, MaxMem= 1610612736 cpu:     439.3
 (Enter /sw/target/amd/app/gaussian/Gaussian09RevA.02_gcc-4.9.2/g09/l508.exe)
 QCSCF skips out because SCF is already converged.
 Leave Link  508 at Thu Sep 30 17:33:56 2021, MaxMem= 1610612736 cpu:       0.0
 (Enter /sw/target/amd/app/gaussian/Gaussian09RevA.02_gcc-4.9.2/g09/l601.exe)
 Copying SCF densities to generalized density rwf, IOpCl= 0 IROHF=0.

 **********************************************************************

            Population analysis using the SCF density.

 **********************************************************************

 Orbital symmetries:
       Occupied  (A) (A) (A) (A) (A) (A) (A) (A) (A) (A) (A) (A)
                 (A) (A) (A) (A) (A) (A) (A) (A) (A) (A) (A) (A)
                 (A) (A) (A) (A) (A) (A) (A) (A) (A) (A) (A) (A)
                 (A) (A) (A) (A) (A) (A) (A) (A) (A) (A) (A) (A)
                 (A) (A) (A) (A) (A) (A) (A) (A) (A) (A) (A) (A)
                 (A) (A) (A) (A) (A) (A) (A) (A) (A)
       Virtual   (A) (A) (A) (A) (A) (A) (A) (A) (A) (A) (A) (A)
                 (A) (A) (A) (A) (A) (A) (A) (A) (A) (A) (A) (A)
                 (A) (A) (A) (A) (A) (A) (A) (A) (A) (A) (A) (A)
                 (A) (A) (A) (A) (A) (A) (A) (A) (A) (A) (A) (A)
                 (A) (A) (A) (A) (A) (A) (A) (A) (A) (A) (A) (A)
                 (A) (A) (A) (A) (A) (A) (A) (A) (A) (A) (A) (A)
                 (A) (A) (A) (A) (A) (A) (A) (A) (A) (A) (A) (A)
                 (A) (A) (A) (A) (A) (A) (A) (A) (A) (A) (A) (A)
                 (A) (A) (A) (A) (A) (A) (A) (A) (A) (A) (A) (A)
                 (A) (A) (A) (A) (A) (A) (A) (A) (A) (A) (A) (A)
                 (A) (A) (A) (A) (A) (A) (A) (A) (A) (A) (A) (A)
                 (A) (A) (A) (A) (A) (A) (A) (A) (A) (A) (A) (A)
                 (A) (A) (A) (A) (A) (A) (A) (A) (A) (A) (A) (A)
                 (A) (A) (A) (A) (A) (A) (A) (A) (A) (A) (A) (A)
                 (A) (A) (A) (A) (A) (A) (A) (A) (A) (A) (A) (A)
                 (A) (A) (A) (A) (A) (A) (A) (A) (A) (A) (A) (A)
                 (A) (A) (A) (A) (A) (A) (A) (A) (A) (A) (A) (A)
                 (A) (A) (A) (A) (A) (A) (A) (A) (A) (A) (A) (A)
                 (A) (A) (A) (A) (A) (A) (A) (A) (A) (A) (A) (A)
                 (A) (A) (A) (A) (A) (A) (A) (A) (A) (A) (A) (A)
                 (A) (A) (A) (A) (A)
 The electronic state is 1-A.
 Alpha  occ. eigenvalues --  -66.14487 -19.15567 -10.24620 -10.19189 -10.18838
 Alpha  occ. eigenvalues --  -10.18814 -10.18713 -10.18491 -10.18474 -10.18424
 Alpha  occ. eigenvalues --  -10.18414 -10.18301 -10.18227 -10.18192 -10.18057
 Alpha  occ. eigenvalues --  -10.16121 -10.15975 -10.15841  -5.28630  -3.64718
 Alpha  occ. eigenvalues --   -3.64431  -3.64407  -1.02763  -0.85509  -0.84188
 Alpha  occ. eigenvalues --   -0.78039  -0.74227  -0.73778  -0.73239  -0.71234
 Alpha  occ. eigenvalues --   -0.67753  -0.67681  -0.67033  -0.61264  -0.59846
 Alpha  occ. eigenvalues --   -0.59396  -0.57110  -0.54036  -0.50682  -0.47547
 Alpha  occ. eigenvalues --   -0.46778  -0.45443  -0.44368  -0.44092  -0.42477
 Alpha  occ. eigenvalues --   -0.42095  -0.41875  -0.41446  -0.40843  -0.40499
 Alpha  occ. eigenvalues --   -0.40442  -0.39796  -0.39333  -0.38671  -0.38277
 Alpha  occ. eigenvalues --   -0.38100  -0.36422  -0.35611  -0.34348  -0.34028
 Alpha  occ. eigenvalues --   -0.32856  -0.32593  -0.32074  -0.28925  -0.28427
 Alpha  occ. eigenvalues --   -0.24721  -0.24419  -0.23717  -0.21390
 Alpha virt. eigenvalues --   -0.00225   0.00259   0.00461   0.01934   0.06992
 Alpha virt. eigenvalues --    0.07420   0.09687   0.10255   0.10759   0.11373
 Alpha virt. eigenvalues --    0.12570   0.12792   0.13847   0.14132   0.14268
 Alpha virt. eigenvalues --    0.15735   0.16331   0.16702   0.16976   0.17246
 Alpha virt. eigenvalues --    0.17354   0.17960   0.18607   0.19263   0.19654
 Alpha virt. eigenvalues --    0.19895   0.20028   0.21057   0.21299   0.24247
 Alpha virt. eigenvalues --    0.25776   0.26056   0.27835   0.30943   0.31289
 Alpha virt. eigenvalues --    0.32175   0.33022   0.34506   0.34796   0.35413
 Alpha virt. eigenvalues --    0.35879   0.36475   0.37579   0.40149   0.41779
 Alpha virt. eigenvalues --    0.44380   0.45875   0.46300   0.50261   0.51379
 Alpha virt. eigenvalues --    0.52245   0.53797   0.54074   0.54868   0.55244
 Alpha virt. eigenvalues --    0.55752   0.56922   0.57834   0.59014   0.59618
 Alpha virt. eigenvalues --    0.59982   0.60154   0.60663   0.61110   0.61524
 Alpha virt. eigenvalues --    0.61775   0.62363   0.62932   0.63836   0.64738
 Alpha virt. eigenvalues --    0.65706   0.66069   0.66470   0.67855   0.68285
 Alpha virt. eigenvalues --    0.70719   0.72580   0.73310   0.73787   0.75437
 Alpha virt. eigenvalues --    0.75638   0.77102   0.77746   0.78598   0.79678
 Alpha virt. eigenvalues --    0.80863   0.81857   0.82767   0.83886   0.84567
 Alpha virt. eigenvalues --    0.84882   0.85003   0.85715   0.86915   0.87156
 Alpha virt. eigenvalues --    0.87331   0.88487   0.89155   0.90411   0.91027
 Alpha virt. eigenvalues --    0.91538   0.91858   0.93464   0.93593   0.93700
 Alpha virt. eigenvalues --    0.93803   0.94390   0.95524   0.95701   0.96688
 Alpha virt. eigenvalues --    0.97755   0.99760   1.00816   1.01554   1.01628
 Alpha virt. eigenvalues --    1.02901   1.03719   1.05913   1.09924   1.12113
 Alpha virt. eigenvalues --    1.13159   1.13491   1.16396   1.16823   1.17693
 Alpha virt. eigenvalues --    1.20487   1.21410   1.22362   1.23938   1.26641
 Alpha virt. eigenvalues --    1.27398   1.28121   1.29910   1.33937   1.37235
 Alpha virt. eigenvalues --    1.39144   1.41348   1.43905   1.44095   1.44739
 Alpha virt. eigenvalues --    1.45844   1.46707   1.47254   1.49037   1.50102
 Alpha virt. eigenvalues --    1.51579   1.51899   1.52642   1.55509   1.62641
 Alpha virt. eigenvalues --    1.64241   1.66336   1.69042   1.70529   1.74625
 Alpha virt. eigenvalues --    1.79625   1.79943   1.80460   1.81215   1.81973
 Alpha virt. eigenvalues --    1.82733   1.83960   1.85562   1.88669   1.89767
 Alpha virt. eigenvalues --    1.91907   1.92336   1.93384   1.93973   1.94747
 Alpha virt. eigenvalues --    1.95827   1.97709   1.98436   1.99363   2.01965
 Alpha virt. eigenvalues --    2.06201   2.06653   2.08181   2.08864   2.14146
 Alpha virt. eigenvalues --    2.14890   2.15570   2.15664   2.16421   2.18740
 Alpha virt. eigenvalues --    2.21729   2.23043   2.23550   2.24703   2.26961
 Alpha virt. eigenvalues --    2.27684   2.28262   2.28519   2.29247   2.29280
 Alpha virt. eigenvalues --    2.29547   2.29986   2.31205   2.31692   2.31858
 Alpha virt. eigenvalues --    2.34680   2.38504   2.40074   2.45081   2.49557
 Alpha virt. eigenvalues --    2.55902   2.58363   2.58908   2.59568   2.63701
 Alpha virt. eigenvalues --    2.66222   2.66811   2.70687   2.73264   2.74101
 Alpha virt. eigenvalues --    2.75403   2.76025   2.77748   2.81331   2.85711
 Alpha virt. eigenvalues --    2.92070   2.93745   2.99376   3.06872   3.09983
 Alpha virt. eigenvalues --    3.17094   3.41622   3.42426   4.07487   4.09532
 Alpha virt. eigenvalues --    4.11532   4.11840   4.13000   4.16069   4.17302
 Alpha virt. eigenvalues --    4.22487   4.24752   4.25337   4.31716   4.33172
 Alpha virt. eigenvalues --    4.35257   4.42044   4.50897   4.70509   4.77288
          Condensed to atoms (all electrons):
              1          2          3          4          5          6
     1  C    5.272922   0.390088  -0.018086   0.000157   0.000021   0.000000
     2  Si   0.390088  11.771703   0.354625  -0.016041  -0.003332   0.000340
     3  O   -0.018086   0.354625   8.186004   0.249273  -0.058971   0.003887
     4  C    0.000157  -0.016041   0.249273   4.451141   0.544495  -0.016836
     5  C    0.000021  -0.003332  -0.058971   0.544495   5.023412   0.489600
     6  C    0.000000   0.000340   0.003887  -0.016836   0.489600   5.002987
     7  C   -0.000000   0.000152   0.000214  -0.031187  -0.022260   0.532200
     8  C    0.000001   0.000124   0.003765  -0.012927  -0.039663  -0.044661
     9  C   -0.000061   0.002427  -0.049803   0.511327  -0.077480  -0.040768
    10  C   -0.000000  -0.000003   0.000000   0.000357   0.005909  -0.067743
    11  C   -0.000000  -0.000000  -0.000000   0.000016   0.000201  -0.000390
    12  C    0.000000   0.000000   0.000000   0.000004  -0.000081  -0.000981
    13  C   -0.000000   0.000000   0.000000   0.000000  -0.000004  -0.000073
    14  C   -0.000000  -0.000000   0.000000   0.000000  -0.000000  -0.000000
    15  C    0.000000   0.000000   0.000000   0.000000   0.000000  -0.000077
    16  C   -0.000000  -0.000000  -0.000000  -0.000000   0.000027   0.001747
    17  C   -0.036045   0.382821  -0.017912  -0.000928  -0.000027   0.000001
    18  C   -0.032966   0.387673  -0.017451  -0.002541  -0.000205   0.000006
    19  H    0.363626  -0.019834  -0.000385  -0.000030  -0.000001  -0.000000
    20  H    0.360173  -0.010387   0.000412   0.000007  -0.000000  -0.000000
    21  H    0.365360  -0.021802  -0.000413  -0.000070   0.000001  -0.000000
    22  H   -0.000026   0.000890  -0.002105  -0.034692   0.347032  -0.040474
    23  H   -0.000000  -0.000009  -0.000060   0.003746  -0.039641   0.353023
    24  H   -0.000000  -0.000090  -0.000052   0.003278   0.000370   0.006279
    25  H   -0.000009   0.006965  -0.006402  -0.039279   0.005086   0.000702
    26  H    0.000000  -0.000000  -0.000000   0.000036  -0.000023  -0.006344
    27  H   -0.000000   0.000000  -0.000000  -0.000004  -0.000141   0.005676
    28  H   -0.000000   0.000000   0.000000  -0.000013  -0.000043   0.000417
    29  H   -0.000000   0.000000   0.000000  -0.000000   0.000000   0.000001
    30  H   -0.000000   0.000000   0.000000  -0.000000  -0.000000   0.000000
    31  H    0.000000   0.000000   0.000000  -0.000000   0.000000   0.000001
    32  H    0.000000  -0.000000  -0.000000   0.000000  -0.000000  -0.000011
    33  H   -0.001326  -0.021365  -0.000558  -0.000013   0.000001   0.000000
    34  H    0.001353  -0.024363  -0.000791  -0.000027  -0.000002  -0.000000
    35  H   -0.000368  -0.009295   0.000510   0.000023   0.000001  -0.000000
    36  H   -0.001112  -0.021001  -0.000658   0.000117   0.000027   0.000000
    37  H   -0.000671  -0.010984   0.000472   0.000098   0.000003  -0.000000
    38  H    0.001415  -0.024087  -0.000580   0.000115   0.000003  -0.000002
              7          8          9         10         11         12
     1  C   -0.000000   0.000001  -0.000061  -0.000000  -0.000000   0.000000
     2  Si   0.000152   0.000124   0.002427  -0.000003  -0.000000   0.000000
     3  O    0.000214   0.003765  -0.049803   0.000000  -0.000000   0.000000
     4  C   -0.031187  -0.012927   0.511327   0.000357   0.000016   0.000004
     5  C   -0.022260  -0.039663  -0.077480   0.005909   0.000201  -0.000081
     6  C    0.532200  -0.044661  -0.040768  -0.067743  -0.000390  -0.000981
     7  C    4.656467   0.553289  -0.027552   0.344612  -0.050880  -0.000860
     8  C    0.553289   4.996976   0.474090  -0.044099  -0.003438   0.001710
     9  C   -0.027552   0.474090   5.082078   0.007203  -0.000061  -0.000100
    10  C    0.344612  -0.044099   0.007203   5.301722   0.341718  -0.067731
    11  C   -0.050880  -0.003438  -0.000061   0.341718   4.657672   0.534653
    12  C   -0.000860   0.001710  -0.000100  -0.067731   0.534653   4.984369
    13  C    0.000211   0.000026   0.000000   0.005907  -0.016136   0.526881
    14  C    0.000022   0.000000  -0.000000   0.000455  -0.035251  -0.036485
    15  C   -0.000084   0.000003  -0.000000   0.006569  -0.020392  -0.045065
    16  C   -0.002731  -0.000185   0.000004  -0.044560   0.547343  -0.048425
    17  C   -0.000000   0.000010  -0.000783   0.000000   0.000000  -0.000000
    18  C   -0.000006   0.000011   0.000150   0.000000  -0.000000  -0.000000
    19  H   -0.000000   0.000000   0.000001  -0.000000  -0.000000   0.000000
    20  H    0.000000  -0.000000   0.000001   0.000000   0.000000   0.000000
    21  H   -0.000000   0.000000   0.000001  -0.000000  -0.000000   0.000000
    22  H    0.003705   0.000430   0.006562  -0.000166  -0.000000   0.000000
    23  H   -0.044130   0.006150   0.000190  -0.008402   0.002908   0.000417
    24  H   -0.039195   0.351223  -0.042759  -0.010376   0.000174  -0.000023
    25  H    0.003398  -0.035849   0.343090  -0.000177   0.000000   0.000001
    26  H   -0.028865   0.002409  -0.000274   0.347381  -0.035154   0.005927
    27  H   -0.034034  -0.007343   0.000300   0.347648  -0.028391  -0.006423
    28  H    0.003419   0.001972   0.000087  -0.008562  -0.045301   0.353878
    29  H    0.000001  -0.000000  -0.000000  -0.000186   0.003537  -0.040156
    30  H    0.000000   0.000000  -0.000000   0.000008   0.000730   0.004844
    31  H    0.000001  -0.000000   0.000000  -0.000182   0.003826   0.000808
    32  H    0.000187  -0.000003  -0.000000  -0.010532  -0.042920   0.006226
    33  H   -0.000000  -0.000000   0.000039  -0.000000   0.000000   0.000000
    34  H   -0.000000   0.000009   0.000001   0.000000   0.000000   0.000000
    35  H    0.000000  -0.000000   0.000002  -0.000000  -0.000000   0.000000
    36  H   -0.000001  -0.000007   0.000143  -0.000000  -0.000000   0.000000
    37  H    0.000000   0.000000   0.000028  -0.000000  -0.000000   0.000000
    38  H   -0.000006   0.000077   0.001756  -0.000000  -0.000000   0.000000
             13         14         15         16         17         18
     1  C   -0.000000  -0.000000   0.000000  -0.000000  -0.036045  -0.032966
     2  Si   0.000000  -0.000000   0.000000  -0.000000   0.382821   0.387673
     3  O    0.000000   0.000000   0.000000  -0.000000  -0.017912  -0.017451
     4  C    0.000000   0.000000   0.000000  -0.000000  -0.000928  -0.002541
     5  C   -0.000004  -0.000000   0.000000   0.000027  -0.000027  -0.000205
     6  C   -0.000073  -0.000000  -0.000077   0.001747   0.000001   0.000006
     7  C    0.000211   0.000022  -0.000084  -0.002731  -0.000000  -0.000006
     8  C    0.000026   0.000000   0.000003  -0.000185   0.000010   0.000011
     9  C    0.000000  -0.000000  -0.000000   0.000004  -0.000783   0.000150
    10  C    0.005907   0.000455   0.006569  -0.044560   0.000000   0.000000
    11  C   -0.016136  -0.035251  -0.020392   0.547343   0.000000  -0.000000
    12  C    0.526881  -0.036485  -0.045065  -0.048425  -0.000000  -0.000000
    13  C    4.859151   0.549815  -0.026703  -0.044815  -0.000000  -0.000000
    14  C    0.549815   4.852621   0.555462  -0.036715   0.000000   0.000000
    15  C   -0.026703   0.555462   4.868601   0.517722  -0.000000  -0.000000
    16  C   -0.044815  -0.036715   0.517722   4.984873  -0.000000   0.000000
    17  C   -0.000000   0.000000  -0.000000  -0.000000   5.294983  -0.034778
    18  C   -0.000000   0.000000  -0.000000   0.000000  -0.034778   5.295653
    19  H   -0.000000  -0.000000   0.000000   0.000000  -0.001207   0.001367
    20  H    0.000000  -0.000000   0.000000   0.000000  -0.000491  -0.000714
    21  H   -0.000000  -0.000000  -0.000000   0.000000   0.001318  -0.001384
    22  H    0.000000  -0.000000  -0.000000  -0.000000   0.000001  -0.000001
    23  H   -0.000033  -0.000012   0.000072   0.001531  -0.000000   0.000000
    24  H   -0.000000   0.000000  -0.000000  -0.000003   0.000000   0.000002
    25  H    0.000000  -0.000000   0.000000  -0.000000   0.000195  -0.001050
    26  H   -0.000152  -0.000003   0.000265  -0.007402  -0.000000  -0.000000
    27  H   -0.000037   0.000033  -0.000272   0.002267   0.000000   0.000000
    28  H   -0.044590   0.004794   0.000383   0.005879  -0.000000   0.000000
    29  H    0.356698  -0.043481   0.004678   0.000875   0.000000   0.000000
    30  H   -0.043838   0.358248  -0.043826   0.004805  -0.000000   0.000000
    31  H    0.004708  -0.043611   0.355698  -0.039860  -0.000000   0.000000
    32  H    0.000359   0.004864  -0.047312   0.353132  -0.000000   0.000000
    33  H   -0.000000  -0.000000   0.000000   0.000000   0.366653   0.001296
    34  H    0.000000  -0.000000  -0.000000  -0.000000   0.364486  -0.001193
    35  H    0.000000  -0.000000   0.000000   0.000000   0.357856  -0.000941
    36  H    0.000000   0.000000   0.000000  -0.000000   0.001257   0.365532
    37  H   -0.000000   0.000000   0.000000  -0.000000  -0.000770   0.358766
    38  H   -0.000000  -0.000000   0.000000   0.000000  -0.001474   0.363270
             19         20         21         22         23         24
     1  C    0.363626   0.360173   0.365360  -0.000026  -0.000000  -0.000000
     2  Si  -0.019834  -0.010387  -0.021802   0.000890  -0.000009  -0.000090
     3  O   -0.000385   0.000412  -0.000413  -0.002105  -0.000060  -0.000052
     4  C   -0.000030   0.000007  -0.000070  -0.034692   0.003746   0.003278
     5  C   -0.000001  -0.000000   0.000001   0.347032  -0.039641   0.000370
     6  C   -0.000000  -0.000000  -0.000000  -0.040474   0.353023   0.006279
     7  C   -0.000000   0.000000  -0.000000   0.003705  -0.044130  -0.039195
     8  C    0.000000  -0.000000   0.000000   0.000430   0.006150   0.351223
     9  C    0.000001   0.000001   0.000001   0.006562   0.000190  -0.042759
    10  C   -0.000000   0.000000  -0.000000  -0.000166  -0.008402  -0.010376
    11  C   -0.000000   0.000000  -0.000000  -0.000000   0.002908   0.000174
    12  C    0.000000   0.000000   0.000000   0.000000   0.000417  -0.000023
    13  C   -0.000000   0.000000  -0.000000   0.000000  -0.000033  -0.000000
    14  C   -0.000000  -0.000000  -0.000000  -0.000000  -0.000012   0.000000
    15  C    0.000000   0.000000  -0.000000  -0.000000   0.000072  -0.000000
    16  C    0.000000   0.000000   0.000000  -0.000000   0.001531  -0.000003
    17  C   -0.001207  -0.000491   0.001318   0.000001  -0.000000   0.000000
    18  C    0.001367  -0.000714  -0.001384  -0.000001   0.000000   0.000002
    19  H    0.535519  -0.024827  -0.022669  -0.000002   0.000000  -0.000000
    20  H   -0.024827   0.535912  -0.025320   0.000000   0.000000   0.000000
    21  H   -0.022669  -0.025320   0.539264  -0.000003   0.000000  -0.000000
    22  H   -0.000002   0.000000  -0.000003   0.586974  -0.005832   0.000016
    23  H    0.000000   0.000000   0.000000  -0.005832   0.595256  -0.000176
    24  H   -0.000000   0.000000  -0.000000   0.000016  -0.000176   0.603488
    25  H    0.000000   0.000001   0.000000  -0.000167   0.000016  -0.005438
    26  H    0.000000  -0.000000  -0.000000  -0.000001   0.002110   0.000130
    27  H   -0.000000   0.000000   0.000000   0.000003   0.000095   0.007425
    28  H    0.000000  -0.000000   0.000000  -0.000000  -0.000017   0.000261
    29  H    0.000000  -0.000000  -0.000000   0.000000  -0.000000  -0.000000
    30  H    0.000000   0.000000  -0.000000   0.000000  -0.000000  -0.000000
    31  H    0.000000  -0.000000   0.000000  -0.000000  -0.000002  -0.000000
    32  H    0.000000  -0.000000  -0.000000  -0.000000   0.000197   0.000000
    33  H    0.000667  -0.000086   0.000010  -0.000000   0.000000   0.000000
    34  H   -0.000011   0.000017  -0.000025  -0.000000  -0.000000  -0.000002
    35  H   -0.000008  -0.000074  -0.000010   0.000000   0.000000  -0.000000
    36  H   -0.000001  -0.000015   0.000753  -0.000001   0.000000   0.000000
    37  H    0.000010  -0.000014  -0.000094   0.000000   0.000000  -0.000000
    38  H   -0.000024  -0.000013   0.000005  -0.000001   0.000000   0.000000
             25         26         27         28         29         30
     1  C   -0.000009   0.000000  -0.000000  -0.000000  -0.000000  -0.000000
     2  Si   0.006965  -0.000000   0.000000   0.000000   0.000000   0.000000
     3  O   -0.006402  -0.000000  -0.000000   0.000000   0.000000   0.000000
     4  C   -0.039279   0.000036  -0.000004  -0.000013  -0.000000  -0.000000
     5  C    0.005086  -0.000023  -0.000141  -0.000043   0.000000  -0.000000
     6  C    0.000702  -0.006344   0.005676   0.000417   0.000001   0.000000
     7  C    0.003398  -0.028865  -0.034034   0.003419   0.000001   0.000000
     8  C   -0.035849   0.002409  -0.007343   0.001972  -0.000000   0.000000
     9  C    0.343090  -0.000274   0.000300   0.000087  -0.000000  -0.000000
    10  C   -0.000177   0.347381   0.347648  -0.008562  -0.000186   0.000008
    11  C    0.000000  -0.035154  -0.028391  -0.045301   0.003537   0.000730
    12  C    0.000001   0.005927  -0.006423   0.353878  -0.040156   0.004844
    13  C    0.000000  -0.000152  -0.000037  -0.044590   0.356698  -0.043838
    14  C   -0.000000  -0.000003   0.000033   0.004794  -0.043481   0.358248
    15  C    0.000000   0.000265  -0.000272   0.000383   0.004678  -0.043826
    16  C   -0.000000  -0.007402   0.002267   0.005879   0.000875   0.004805
    17  C    0.000195  -0.000000   0.000000  -0.000000   0.000000  -0.000000
    18  C   -0.001050  -0.000000   0.000000   0.000000   0.000000   0.000000
    19  H    0.000000   0.000000  -0.000000   0.000000   0.000000   0.000000
    20  H    0.000001  -0.000000   0.000000  -0.000000  -0.000000   0.000000
    21  H    0.000000  -0.000000   0.000000   0.000000  -0.000000  -0.000000
    22  H   -0.000167  -0.000001   0.000003  -0.000000   0.000000   0.000000
    23  H    0.000016   0.002110   0.000095  -0.000017  -0.000000  -0.000000
    24  H   -0.005438   0.000130   0.007425   0.000261  -0.000000  -0.000000
[...]
    62    C    4  dyz    Ryd( 3d)     0.00095
    63    C    4  dx2y2  Ryd( 3d)     0.00123
    64    C    4  dz2    Ryd( 3d)     0.00128

    65    C    5  S      Cor( 1S)     1.99905
    66    C    5  S      Val( 2S)     0.96379
    67    C    5  S      Ryd( 3S)     0.00081
    68    C    5  S      Ryd( 4S)     0.00005
    69    C    5  px     Val( 2p)     1.06275
    70    C    5  px     Ryd( 3p)     0.00551
    71    C    5  py     Val( 2p)     1.09876
    72    C    5  py     Ryd( 3p)     0.00529
    73    C    5  pz     Val( 2p)     1.15672
    74    C    5  pz     Ryd( 3p)     0.00469
    75    C    5  dxy    Ryd( 3d)     0.00057
    76    C    5  dxz    Ryd( 3d)     0.00074
    77    C    5  dyz    Ryd( 3d)     0.00054
    78    C    5  dx2y2  Ryd( 3d)     0.00047
    79    C    5  dz2    Ryd( 3d)     0.00054

    80    C    6  S      Cor( 1S)     1.99905
    81    C    6  S      Val( 2S)     0.95226
    82    C    6  S      Ryd( 3S)     0.00064
    83    C    6  S      Ryd( 4S)     0.00005
    84    C    6  px     Val( 2p)     1.12419
    85    C    6  px     Ryd( 3p)     0.00407
    86    C    6  py     Val( 2p)     1.05024
    87    C    6  py     Ryd( 3p)     0.00510
    88    C    6  pz     Val( 2p)     1.12441
    89    C    6  pz     Ryd( 3p)     0.00486
    90    C    6  dxy    Ryd( 3d)     0.00054
    91    C    6  dxz    Ryd( 3d)     0.00082
    92    C    6  dyz    Ryd( 3d)     0.00042
    93    C    6  dx2y2  Ryd( 3d)     0.00059
    94    C    6  dz2    Ryd( 3d)     0.00056

    95    C    7  S      Cor( 1S)     1.99903
    96    C    7  S      Val( 2S)     0.89383
    97    C    7  S      Ryd( 3S)     0.00089
    98    C    7  S      Ryd( 4S)     0.00005
    99    C    7  px     Val( 2p)     1.03752
   100    C    7  px     Ryd( 3p)     0.00504
   101    C    7  py     Val( 2p)     0.94655
   102    C    7  py     Ryd( 3p)     0.00318
   103    C    7  pz     Val( 2p)     1.05399
   104    C    7  pz     Ryd( 3p)     0.00439
   105    C    7  dxy    Ryd( 3d)     0.00065
   106    C    7  dxz    Ryd( 3d)     0.00077
   107    C    7  dyz    Ryd( 3d)     0.00077
   108    C    7  dx2y2  Ryd( 3d)     0.00053
   109    C    7  dz2    Ryd( 3d)     0.00081

   110    C    8  S      Cor( 1S)     1.99905
   111    C    8  S      Val( 2S)     0.94996
   112    C    8  S      Ryd( 3S)     0.00066
   113    C    8  S      Ryd( 4S)     0.00005
   114    C    8  px     Val( 2p)     1.05831
   115    C    8  px     Ryd( 3p)     0.00441
   116    C    8  py     Val( 2p)     1.08774
   117    C    8  py     Ryd( 3p)     0.00537
   118    C    8  pz     Val( 2p)     1.16073
   119    C    8  pz     Ryd( 3p)     0.00526
   120    C    8  dxy    Ryd( 3d)     0.00060
   121    C    8  dxz    Ryd( 3d)     0.00063
   122    C    8  dyz    Ryd( 3d)     0.00056
   123    C    8  dx2y2  Ryd( 3d)     0.00049
   124    C    8  dz2    Ryd( 3d)     0.00063

   125    C    9  S      Cor( 1S)     1.99904
   126    C    9  S      Val( 2S)     0.96015
   127    C    9  S      Ryd( 3S)     0.00065
   128    C    9  S      Ryd( 4S)     0.00005
   129    C    9  px     Val( 2p)     1.13368
   130    C    9  px     Ryd( 3p)     0.00415
   131    C    9  py     Val( 2p)     1.08411
   132    C    9  py     Ryd( 3p)     0.00588
   133    C    9  pz     Val( 2p)     1.12501
   134    C    9  pz     Ryd( 3p)     0.00450
   135    C    9  dxy    Ryd( 3d)     0.00045
   136    C    9  dxz    Ryd( 3d)     0.00080
   137    C    9  dyz    Ryd( 3d)     0.00047
   138    C    9  dx2y2  Ryd( 3d)     0.00059
   139    C    9  dz2    Ryd( 3d)     0.00055

   140    C   10  S      Cor( 1S)     1.99921
   141    C   10  S      Val( 2S)     1.02278
   142    C   10  S      Ryd( 3S)     0.00063
   143    C   10  S      Ryd( 4S)     0.00001
   144    C   10  px     Val( 2p)     1.04327
   145    C   10  px     Ryd( 3p)     0.00214
   146    C   10  py     Val( 2p)     1.15600
   147    C   10  py     Ryd( 3p)     0.00244
   148    C   10  pz     Val( 2p)     1.25019
   149    C   10  pz     Ryd( 3p)     0.00553
   150    C   10  dxy    Ryd( 3d)     0.00073
   151    C   10  dxz    Ryd( 3d)     0.00037
   152    C   10  dyz    Ryd( 3d)     0.00106
   153    C   10  dx2y2  Ryd( 3d)     0.00076
   154    C   10  dz2    Ryd( 3d)     0.00075

   155    C   11  S      Cor( 1S)     1.99900
   156    C   11  S      Val( 2S)     0.88118
   157    C   11  S      Ryd( 3S)     0.00109
   158    C   11  S      Ryd( 4S)     0.00005
   159    C   11  px     Val( 2p)     1.03945
   160    C   11  px     Ryd( 3p)     0.00521
   161    C   11  py     Val( 2p)     1.05890
   162    C   11  py     Ryd( 3p)     0.00420
   163    C   11  pz     Val( 2p)     1.04735
   164    C   11  pz     Ryd( 3p)     0.00325
   165    C   11  dxy    Ryd( 3d)     0.00064
   166    C   11  dxz    Ryd( 3d)     0.00050
   167    C   11  dyz    Ryd( 3d)     0.00053
   168    C   11  dx2y2  Ryd( 3d)     0.00064
   169    C   11  dz2    Ryd( 3d)     0.00064

   170    C   12  S      Cor( 1S)     1.99902
   171    C   12  S      Val( 2S)     0.95132
   172    C   12  S      Ryd( 3S)     0.00067
   173    C   12  S      Ryd( 4S)     0.00005
   174    C   12  px     Val( 2p)     1.12711
   175    C   12  px     Ryd( 3p)     0.00345
   176    C   12  py     Val( 2p)     1.05088
   177    C   12  py     Ryd( 3p)     0.00321
   178    C   12  pz     Val( 2p)     1.07636
   179    C   12  pz     Ryd( 3p)     0.00274
   180    C   12  dxy    Ryd( 3d)     0.00051
   181    C   12  dxz    Ryd( 3d)     0.00076
   182    C   12  dyz    Ryd( 3d)     0.00052
   183    C   12  dx2y2  Ryd( 3d)     0.00071
   184    C   12  dz2    Ryd( 3d)     0.00038

   185    C   13  S      Cor( 1S)     1.99910
   186    C   13  S      Val( 2S)     0.95738
   187    C   13  S      Ryd( 3S)     0.00059
   188    C   13  S      Ryd( 4S)     0.00003
   189    C   13  px     Val( 2p)     1.05333
   190    C   13  px     Ryd( 3p)     0.00402
   191    C   13  py     Val( 2p)     1.14552
   192    C   13  py     Ryd( 3p)     0.00434
   193    C   13  pz     Val( 2p)     1.08158
   194    C   13  pz     Ryd( 3p)     0.00313
   195    C   13  dxy    Ryd( 3d)     0.00051
   196    C   13  dxz    Ryd( 3d)     0.00046
   197    C   13  dyz    Ryd( 3d)     0.00070
   198    C   13  dx2y2  Ryd( 3d)     0.00067
   199    C   13  dz2    Ryd( 3d)     0.00042

   200    C   14  S      Cor( 1S)     1.99909
   201    C   14  S      Val( 2S)     0.96110
   202    C   14  S      Ryd( 3S)     0.00053
   203    C   14  S      Ryd( 4S)     0.00003
   204    C   14  px     Val( 2p)     1.12468
   205    C   14  px     Ryd( 3p)     0.00398
   206    C   14  py     Val( 2p)     1.10801
   207    C   14  py     Ryd( 3p)     0.00397
   208    C   14  pz     Val( 2p)     1.03504
   209    C   14  pz     Ryd( 3p)     0.00273
   210    C   14  dxy    Ryd( 3d)     0.00083
   211    C   14  dxz    Ryd( 3d)     0.00043
   212    C   14  dyz    Ryd( 3d)     0.00042
   213    C   14  dx2y2  Ryd( 3d)     0.00048
   214    C   14  dz2    Ryd( 3d)     0.00064

   215    C   15  S      Cor( 1S)     1.99910
   216    C   15  S      Val( 2S)     0.95946
   217    C   15  S      Ryd( 3S)     0.00057
   218    C   15  S      Ryd( 4S)     0.00003
   219    C   15  px     Val( 2p)     1.12128
   220    C   15  px     Ryd( 3p)     0.00402
   221    C   15  py     Val( 2p)     1.05344
   222    C   15  py     Ryd( 3p)     0.00382
   223    C   15  pz     Val( 2p)     1.07827
   224    C   15  pz     Ryd( 3p)     0.00282
   225    C   15  dxy    Ryd( 3d)     0.00053
   226    C   15  dxz    Ryd( 3d)     0.00074
   227    C   15  dyz    Ryd( 3d)     0.00052
   228    C   15  dx2y2  Ryd( 3d)     0.00067
   229    C   15  dz2    Ryd( 3d)     0.00039

   230    C   16  S      Cor( 1S)     1.99902
   231    C   16  S      Val( 2S)     0.94782
   232    C   16  S      Ryd( 3S)     0.00056
   233    C   16  S      Ryd( 4S)     0.00004
   234    C   16  px     Val( 2p)     1.05922
   235    C   16  px     Ryd( 3p)     0.00338
   236    C   16  py     Val( 2p)     1.15146
   237    C   16  py     Ryd( 3p)     0.00394
   238    C   16  pz     Val( 2p)     1.08557
   239    C   16  pz     Ryd( 3p)     0.00329
   240    C   16  dxy    Ryd( 3d)     0.00050
   241    C   16  dxz    Ryd( 3d)     0.00046
   242    C   16  dyz    Ryd( 3d)     0.00069
   243    C   16  dx2y2  Ryd( 3d)     0.00067
   244    C   16  dz2    Ryd( 3d)     0.00040

   245    C   17  S      Cor( 1S)     1.99948
   246    C   17  S      Val( 2S)     1.23482
   247    C   17  S      Ryd( 3S)     0.00192
   248    C   17  S      Ryd( 4S)     0.00001
   249    C   17  px     Val( 2p)     1.27296
   250    C   17  px     Ryd( 3p)     0.00096
   251    C   17  py     Val( 2p)     1.30267
   252    C   17  py     Ryd( 3p)     0.00116
   253    C   17  pz     Val( 2p)     1.40346
   254    C   17  pz     Ryd( 3p)     0.00269
   255    C   17  dxy    Ryd( 3d)     0.00031
   256    C   17  dxz    Ryd( 3d)     0.00050
   257    C   17  dyz    Ryd( 3d)     0.00045
   258    C   17  dx2y2  Ryd( 3d)     0.00093
   259    C   17  dz2    Ryd( 3d)     0.00060

   260    C   18  S      Cor( 1S)     1.99948
   261    C   18  S      Val( 2S)     1.23495
   262    C   18  S      Ryd( 3S)     0.00187
   263    C   18  S      Ryd( 4S)     0.00001
   264    C   18  px     Val( 2p)     1.27785
   265    C   18  px     Ryd( 3p)     0.00085
   266    C   18  py     Val( 2p)     1.42350
   267    C   18  py     Ryd( 3p)     0.00307
   268    C   18  pz     Val( 2p)     1.27864
   269    C   18  pz     Ryd( 3p)     0.00068
   270    C   18  dxy    Ryd( 3d)     0.00030
   271    C   18  dxz    Ryd( 3d)     0.00057
   272    C   18  dyz    Ryd( 3d)     0.00043
   273    C   18  dx2y2  Ryd( 3d)     0.00078
   274    C   18  dz2    Ryd( 3d)     0.00071

   275    H   19  S      Val( 1S)     0.73965
   276    H   19  S      Ryd( 2S)     0.00078

   277    H   20  S      Val( 1S)     0.74554
   278    H   20  S      Ryd( 2S)     0.00056

   279    H   21  S      Val( 1S)     0.74032
   280    H   21  S      Ryd( 2S)     0.00076

   281    H   22  S      Val( 1S)     0.75914
   282    H   22  S      Ryd( 2S)     0.00120

   283    H   23  S      Val( 1S)     0.76088
   284    H   23  S      Ryd( 2S)     0.00114

   285    H   24  S      Val( 1S)     0.76948
   286    H   24  S      Ryd( 2S)     0.00108

   287    H   25  S      Val( 1S)     0.77278
   288    H   25  S      Ryd( 2S)     0.00110

   289    H   26  S      Val( 1S)     0.74021
   290    H   26  S      Ryd( 2S)     0.00235

   291    H   27  S      Val( 1S)     0.74611
   292    H   27  S      Ryd( 2S)     0.00151

   293    H   28  S      Val( 1S)     0.76517
   294    H   28  S      Ryd( 2S)     0.00170

   295    H   29  S      Val( 1S)     0.76727
   296    H   29  S      Ryd( 2S)     0.00089

   297    H   30  S      Val( 1S)     0.76777
   298    H   30  S      Ryd( 2S)     0.00086

   299    H   31  S      Val( 1S)     0.76698
   300    H   31  S      Ryd( 2S)     0.00090

   301    H   32  S      Val( 1S)     0.77197
   302    H   32  S      Ryd( 2S)     0.00117

   303    H   33  S      Val( 1S)     0.73944
   304    H   33  S      Ryd( 2S)     0.00079

   305    H   34  S      Val( 1S)     0.74583
   306    H   34  S      Ryd( 2S)     0.00075

   307    H   35  S      Val( 1S)     0.74337
   308    H   35  S      Ryd( 2S)     0.00064

   309    H   36  S      Val( 1S)     0.74015
   310    H   36  S      Ryd( 2S)     0.00081

   311    H   37  S      Val( 1S)     0.74375
   312    H   37  S      Ryd( 2S)     0.00073

   313    H   38  S      Val( 1S)     0.73968
   314    H   38  S      Ryd( 2S)     0.00157

 WARNING:  1 low occupancy (<1.9990e) core orbital  found on Si    2
           1 low occupancy (<1.9990e) core orbital  found on  C    4


 Summary of Natural Population Analysis:                  
                                                          
                                       Natural Population 
                Natural  -----------------------------------------------
    Atom  No    Charge         Core      Valence    Rydberg      Total
 -----------------------------------------------------------------------
      C    1   -1.22083      1.99949     5.21242    0.00893     7.22083
     Si    2    2.01009      9.99783     1.94619    0.04589    11.98991
      O    3   -0.78988      1.99976     6.77812    0.01200     8.78988
      C    4    0.36726      1.99878     3.61140    0.02257     5.63274
      C    5   -0.30030      1.99905     4.28203    0.01922     6.30030
      C    6   -0.26780      1.99905     4.25109    0.01765     6.26780
      C    7    0.05202      1.99903     3.93188    0.01707     5.94798
      C    8   -0.27445      1.99905     4.25675    0.01865     6.27445
      C    9   -0.32007      1.99904     4.30294    0.01808     6.32007
      C   10   -0.48587      1.99921     4.47224    0.01441     6.48587
      C   11   -0.04263      1.99900     4.02687    0.01676     6.04263
      C   12   -0.21770      1.99902     4.20568    0.01300     6.21770
      C   13   -0.25178      1.99910     4.23781    0.01487     6.25178
      C   14   -0.24196      1.99909     4.22883    0.01404     6.24196
      C   15   -0.22566      1.99910     4.21246    0.01411     6.22566
      C   16   -0.25704      1.99902     4.24408    0.01394     6.25704
      C   17   -1.22293      1.99948     5.21391    0.00954     7.22293
      C   18   -1.22369      1.99948     5.21495    0.00926     7.22369
      H   19    0.25958      0.00000     0.73965    0.00078     0.74042
      H   20    0.25389      0.00000     0.74554    0.00056     0.74611
      H   21    0.25892      0.00000     0.74032    0.00076     0.74108
      H   22    0.23967      0.00000     0.75914    0.00120     0.76033
      H   23    0.23798      0.00000     0.76088    0.00114     0.76202
      H   24    0.22944      0.00000     0.76948    0.00108     0.77056
      H   25    0.22612      0.00000     0.77278    0.00110     0.77388
      H   26    0.25744      0.00000     0.74021    0.00235     0.74256
      H   27    0.25238      0.00000     0.74611    0.00151     0.74762
      H   28    0.23313      0.00000     0.76517    0.00170     0.76687
      H   29    0.23184      0.00000     0.76727    0.00089     0.76816
      H   30    0.23137      0.00000     0.76777    0.00086     0.76863
      H   31    0.23212      0.00000     0.76698    0.00090     0.76788
      H   32    0.22686      0.00000     0.77197    0.00117     0.77314
      H   33    0.25977      0.00000     0.73944    0.00079     0.74023
      H   34    0.25343      0.00000     0.74583    0.00075     0.74657
      H   35    0.25599      0.00000     0.74337    0.00064     0.74401
      H   36    0.25904      0.00000     0.74015    0.00081     0.74096
      H   37    0.25552      0.00000     0.74375    0.00073     0.74448
      H   38    0.25875      0.00000     0.73968    0.00157     0.74125
 =======================================================================
   * Total *   -0.00000     43.98359    93.69512    0.32129   138.00000

                                 Natural Population      
 --------------------------------------------------------
   Core                      43.98359 ( 99.9627% of  44)
   Valence                   93.69512 ( 99.6757% of  94)
   Natural Minimal Basis    137.67871 ( 99.7672% of 138)
   Natural Rydberg Basis      0.32129 (  0.2328% of 138)
 --------------------------------------------------------

    Atom  No          Natural Electron Configuration
 ----------------------------------------------------------------------------
      C    1      [core]2S( 1.23)2p( 3.98)
     Si    2      [core]3S( 0.74)3p( 1.20)3d( 0.04)4p( 0.01)
      O    3      [core]2S( 1.64)2p( 5.14)3p( 0.01)3d( 0.01)
      C    4      [core]2S( 0.84)2p( 2.77)3p( 0.01)3d( 0.01)
      C    5      [core]2S( 0.96)2p( 3.32)3p( 0.02)
      C    6      [core]2S( 0.95)2p( 3.30)3p( 0.01)
      C    7      [core]2S( 0.89)2p( 3.04)3p( 0.01)
      C    8      [core]2S( 0.95)2p( 3.31)3p( 0.02)
      C    9      [core]2S( 0.96)2p( 3.34)3p( 0.01)
      C   10      [core]2S( 1.02)2p( 3.45)3p( 0.01)
      C   11      [core]2S( 0.88)2p( 3.15)3p( 0.01)
      C   12      [core]2S( 0.95)2p( 3.25)3p( 0.01)
      C   13      [core]2S( 0.96)2p( 3.28)3p( 0.01)
      C   14      [core]2S( 0.96)2p( 3.27)3p( 0.01)
      C   15      [core]2S( 0.96)2p( 3.25)3p( 0.01)
      C   16      [core]2S( 0.95)2p( 3.30)3p( 0.01)
      C   17      [core]2S( 1.23)2p( 3.98)
      C   18      [core]2S( 1.23)2p( 3.98)
      H   19            1S( 0.74)
      H   20            1S( 0.75)
      H   21            1S( 0.74)
      H   22            1S( 0.76)
      H   23            1S( 0.76)
      H   24            1S( 0.77)
      H   25            1S( 0.77)
      H   26            1S( 0.74)
      H   27            1S( 0.75)
      H   28            1S( 0.77)
      H   29            1S( 0.77)
      H   30            1S( 0.77)
      H   31            1S( 0.77)
      H   32            1S( 0.77)
      H   33            1S( 0.74)
      H   34            1S( 0.75)
      H   35            1S( 0.74)
      H   36            1S( 0.74)
      H   37            1S( 0.74)
      H   38            1S( 0.74)


 NBO analysis skipped by request.
 Leave Link  607 at Fri Oct  1 04:45:22 2021, MaxMem= 1610612736 cpu:      26.3
 (Enter /sw/target/amd/app/gaussian/Gaussian09RevA.02_gcc-4.9.2/g09/l9999.exe)
 1\1\GINC-HERMITE\SP\RTD-B3LYP-FC\6-31G(d)\C16H20O1Si1\JSCHLEINITZ\01-O
 ct-2021\0\\#p TD(NStates=10, Root=1) b3lyp/6-31G* volume pop=NPA densi
 ty=current Geom=AllCheck Guess=Read\\C[Si](Oc1ccc(cc1)Cc1ccccc1)(C)C_c
 onf_0\\0,1\C,0,3.340565391,1.3736582072,2.1389800309\Si,0,4.1402950321
 ,-0.2920014227,1.7980491396\O,0,2.8950990248,-1.3976612029,2.094602356
 9\C,0,2.8831806934,-2.755326495,2.2361546211\C,0,1.803245984,-3.320207
 4768,2.9297367316\C,0,1.7194803569,-4.6975858341,3.0962462457\C,0,2.70
 45232689,-5.5567476141,2.5843532696\C,0,3.7714759106,-4.9801593725,1.8
 904559147\C,0,3.868251308,-3.5977823923,1.7106252031\C,0,2.6198350929,
 -7.0593463101,2.7953305459\C,0,1.3411733958,-7.7045717545,2.282623283\
 C,0,0.9402789435,-7.5408725385,0.9485092055\C,0,-0.2177145136,-8.15145
 01598,0.470349575\C,0,-1.001696114,-8.9363842823,1.3204479591\C,0,-0.6
 163676539,-9.1037192519,2.6499418348\C,0,0.5465225177,-8.4911138101,3.
 1241710313\C,0,4.7026803743,-0.3815391527,-0.0015094505\C,0,5.57892772
 04,-0.6089795555,2.9750624412\H,0,2.4723724905,1.5333736343,1.48951679
 43\H,0,4.0454107839,2.1956375307,1.9638004075\H,0,2.9966832538,1.44145
 88626,3.1771759769\H,0,1.040087534,-2.6589211127,3.3287236245\H,0,0.86
 9873269,-5.1170165466,3.6300721414\H,0,4.5493952439,-5.6194623875,1.47
 79530978\H,0,4.702708335,-3.1841211869,1.1530305965\H,0,2.7209612709,-
 7.2873362259,3.8650817273\H,0,3.4836656681,-7.5301396229,2.3066792263\
 H,0,1.5392685583,-6.922154471,0.2845750396\H,0,-0.5110423245,-8.013404
 8045,-0.5673188835\H,0,-1.9058887439,-9.4106999592,0.9480856068\H,0,-1
 .2195603637,-9.7094468641,3.3215342486\H,0,0.8422328446,-8.6279143647,
 4.1623264973\H,0,3.8504289806,-0.2688246444,-0.6818439047\H,0,5.199830
 6242,-1.3264784786,-0.2473827161\H,0,5.4102068498,0.42843583,-0.220438
 8799\H,0,5.2547792612,-0.527943201,4.0190861503\H,0,6.376750103,0.1273
 349992,2.8163773018\H,0,6.014973553,-1.6049181614,2.8407584093\\Versio
 n=AM64L-G09RevA.02\State=1-A\HF=-986.549618\RMSD=6.333e-09\Dipole=0.92
 28,1.1588518,-0.0579236\Quadrupole=-0.3450225,1.8173131,-1.4722906,3.9
 692541,-1.4561057,-2.483178\PG=C01 [X(C16H20O1Si1)]\\@


 IF YOU PERCEIVE THAT THERE ARE FOUR POSSIBLE WAYS IN
 WHICH A PROCEDURE CAN GO WRONG AND CIRCUMVENT THESE, 
 THEN A FIFTH WAY WILL DEVELOP.

                              -- MURPHY'S TWELFTH LAW
 Job cpu time:  0 days  6 hours  2 minutes 43.7 seconds.
 File lengths (MBytes):  RWF=    313 Int=      0 D2E=      0 Chk=     44 Scr=      1
 Normal termination of Gaussian 09 at Fri Oct  1 04:45:24 2021.
