 Entering Gaussian System, Link 0=g09
 Input=C17H18O2_abb6_conf_0.com
 Output=C17H18O2_abb6_conf_0.log
 Initial command:
 /sw/target/amd/app/gaussian/Gaussian09RevA.02_gcc-4.9.2/g09/l1.exe /home/jschleinitz/gaussian/Gau-694488.inp -scrdir=/home/jschleinitz/gaussian/
 Entering Link 1 = /sw/target/amd/app/gaussian/Gaussian09RevA.02_gcc-4.9.2/g09/l1.exe PID=    694490.
  
 Copyright (c) 1988,1990,1992,1993,1995,1998,2003,2009, Gaussian, Inc.
                  All Rights Reserved.
  
 This is part of the Gaussian(R) 09 program.  It is based on
 the Gaussian(R) 03 system (copyright 2003, Gaussian, Inc.),
 the Gaussian(R) 98 system (copyright 1998, Gaussian, Inc.),
 the Gaussian(R) 94 system (copyright 1995, Gaussian, Inc.),
 the Gaussian 92(TM) system (copyright 1992, Gaussian, Inc.),
 the Gaussian 90(TM) system (copyright 1990, Gaussian, Inc.),
 the Gaussian 88(TM) system (copyright 1988, Gaussian, Inc.),
 the Gaussian 86(TM) system (copyright 1986, Carnegie Mellon
 University), and the Gaussian 82(TM) system (copyright 1983,
 Carnegie Mellon University). Gaussian is a federally registered
 trademark of Gaussian, Inc.
  
 This software contains proprietary and confidential information,
 including trade secrets, belonging to Gaussian, Inc.
  
 This software is provided under written license and may be
 used, copied, transmitted, or stored only in accord with that
 written license.
  
 The following legend is applicable only to US Government
 contracts under FAR:
  
                    RESTRICTED RIGHTS LEGEND
  
 Use, reproduction and disclosure by the US Government is
 subject to restrictions as set forth in subparagraphs (a)
 and (c) of the Commercial Computer Software - Restricted
 Rights clause in FAR 52.227-19.
  
 Gaussian, Inc.
 340 Quinnipiac St., Bldg. 40, Wallingford CT 06492
  
  
 ---------------------------------------------------------------
 Warning -- This program may not be used in any manner that
 competes with the business of Gaussian, Inc. or will provide
 assistance to any competitor of Gaussian, Inc.  The licensee
 of this program is prohibited from giving any competitor of
 Gaussian, Inc. access to this program.  By using this program,
 the user acknowledges that Gaussian, Inc. is engaged in the
 business of creating and licensing software in the field of
 computational chemistry and represents and warrants to the
 licensee that it is not a competitor of Gaussian, Inc. and that
 it will not use this program in any manner prohibited above.
 ---------------------------------------------------------------
  

 Cite this work as:
 Gaussian 09, Revision A.02,
 M. J. Frisch, G. W. Trucks, H. B. Schlegel, G. E. Scuseria, 
 M. A. Robb, J. R. Cheeseman, G. Scalmani, V. Barone, B. Mennucci, 
 G. A. Petersson, H. Nakatsuji, M. Caricato, X. Li, H. P. Hratchian, 
 A. F. Izmaylov, J. Bloino, G. Zheng, J. L. Sonnenberg, M. Hada, 
 M. Ehara, K. Toyota, R. Fukuda, J. Hasegawa, M. Ishida, T. Nakajima, 
 Y. Honda, O. Kitao, H. Nakai, T. Vreven, J. A. Montgomery, Jr., 
 J. E. Peralta, F. Ogliaro, M. Bearpark, J. J. Heyd, E. Brothers, 
 K. N. Kudin, V. N. Staroverov, R. Kobayashi, J. Normand, 
 K. Raghavachari, A. Rendell, J. C. Burant, S. S. Iyengar, J. Tomasi, 
 M. Cossi, N. Rega, J. M. Millam, M. Klene, J. E. Knox, J. B. Cross, 
 V. Bakken, C. Adamo, J. Jaramillo, R. Gomperts, R. E. Stratmann, 
 O. Yazyev, A. J. Austin, R. Cammi, C. Pomelli, J. W. Ochterski, 
 R. L. Martin, K. Morokuma, V. G. Zakrzewski, G. A. Voth, 
 P. Salvador, J. J. Dannenberg, S. Dapprich, A. D. Daniels, 
 O. Farkas, J. B. Foresman, J. V. Ortiz, J. Cioslowski, 
 and D. J. Fox, Gaussian, Inc., Wallingford CT, 2009.
 
 ******************************************
 Gaussian 09:  AM64L-G09RevA.02 11-Jun-2009
                29-Sep-2021 
 ******************************************
 %nproc=6
 Will use up to    6 processors via shared memory.
 %mem=12gb
 %chk=C17H18O2_abb6_conf_0.chk
 -----------------------------------
 #p opt b3lyp/6-31G* scf=(xqc,tight)
 -----------------------------------
 1/14=-1,18=20,19=15,26=3,38=1/1,3;
 2/9=110,12=2,17=6,18=5,40=1/2;
 3/5=1,6=6,7=1,11=2,16=1,25=1,30=1,71=1,74=-5/1,2,3;
 4//1;
 5/5=2,8=3,13=1,32=2,38=5/2,8;
 6/7=2,8=2,9=2,10=2,28=1/1;
 7//1,2,3,16;
 1/14=-1,18=20,19=15/3(2);
 2/9=110/2;
 99//99;
 2/9=110/2;
 3/5=1,6=6,7=1,11=2,16=1,25=1,30=1,71=1,74=-5/1,2,3;
 4/5=5,16=3/1;
 5/5=2,8=3,13=1,32=2,38=5/2,8;
 7//1,2,3,16;
 1/14=-1,18=20,19=15/3(-5);
 2/9=110/2;
 6/7=2,8=2,9=2,10=2,19=2,28=1/1;
 99/9=1/99;
 Leave Link    1 at Wed Sep 29 02:33:18 2021, MaxMem= 1610612736 cpu:       0.1
 (Enter /sw/target/amd/app/gaussian/Gaussian09RevA.02_gcc-4.9.2/g09/l101.exe)
 ---------------------------------------
 O=C(C(C)(C)C)Oc1ccc(cc1)c1ccccc1_conf_0
 ---------------------------------------
 Symbolic Z-matrix:
 Charge =  0 Multiplicity = 1
 O                     3.14088  -0.57126   1.30714 
 C                     2.65138  -0.82889   0.21182 
 C                     1.14804  -0.91279  -0.05157 
 C                     0.65364   0.48691  -0.43106 
 C                     0.83352  -1.91266  -1.17426 
 C                     0.44868  -1.38531   1.23238 
 O                     3.35814  -1.01068  -0.97668 
 C                     4.76291  -1.02331  -1.00879 
 C                     5.54501  -1.50341   0.03247 
 C                     6.9362   -1.5109   -0.09751 
 C                     7.57502  -1.07443  -1.27445 
 C                     6.74553  -0.62883  -2.32345 
 C                     5.35244  -0.59894  -2.19449 
 C                     9.05562  -1.07601  -1.39053 
 C                     9.84918  -2.01998  -0.70966 
 C                     11.24634  -1.99432  -0.78058 
 C                     11.88717  -1.03144  -1.55145 
 C                     11.13127  -0.09709  -2.25061 
 C                     9.73455  -0.11783  -2.16633 
 H                     1.16098   0.85778  -1.32919 
 H                     0.85026   1.20855   0.37062 
 H                    -0.42378   0.48652  -0.62705 
 H                     1.22308  -1.57163  -2.14059 
 H                    -0.24623  -2.05406  -1.2903 
 H                     1.28444  -2.88999  -0.96548 
 H                     0.60185  -0.67927   2.05678 
 H                     0.84036  -2.35591   1.5586 
 H                    -0.6309   -1.48889   1.08092 
 H                     5.1039   -1.87001   0.95362 
 H                     7.5157   -1.85908   0.75457 
 H                     7.17477  -0.30812  -3.26982 
 H                     4.73708  -0.25028  -3.01945 
 H                     9.38833  -2.80027  -0.10804 
 H                     11.82968  -2.72758  -0.22977 
 H                     12.97204  -1.00783  -1.60542 
 H                     11.62505   0.65884  -2.85544 
 H                     9.18303   0.64863  -2.70566 
 
 NAtoms=     37 NQM=     37 NQMF=      0 NMic=      0 NMicF=      0 NTot=     37.
                    Isotopes and Nuclear Properties:
 (Nuclear quadrupole moments (NQMom) in fm**2, nuclear magnetic moments (NMagM)
  in nuclear magnetons)

  Atom         1           2           3           4           5           6           7           8           9          10
 IAtWgt=          16          12          12          12          12          12          16          12          12          12
 AtmWgt=  15.9949146  12.0000000  12.0000000  12.0000000  12.0000000  12.0000000  15.9949146  12.0000000  12.0000000  12.0000000
 NucSpn=           0           0           0           0           0           0           0           0           0           0
 AtZEff=   0.0000000   0.0000000   0.0000000   0.0000000   0.0000000   0.0000000   0.0000000   0.0000000   0.0000000   0.0000000
 NQMom=    0.0000000   0.0000000   0.0000000   0.0000000   0.0000000   0.0000000   0.0000000   0.0000000   0.0000000   0.0000000
 NMagM=    0.0000000   0.0000000   0.0000000   0.0000000   0.0000000   0.0000000   0.0000000   0.0000000   0.0000000   0.0000000

  Atom        11          12          13          14          15          16          17          18          19          20
 IAtWgt=          12          12          12          12          12          12          12          12          12           1
 AtmWgt=  12.0000000  12.0000000  12.0000000  12.0000000  12.0000000  12.0000000  12.0000000  12.0000000  12.0000000   1.0078250
 NucSpn=           0           0           0           0           0           0           0           0           0           1
 AtZEff=   0.0000000   0.0000000   0.0000000   0.0000000   0.0000000   0.0000000   0.0000000   0.0000000   0.0000000   0.0000000
 NQMom=    0.0000000   0.0000000   0.0000000   0.0000000   0.0000000   0.0000000   0.0000000   0.0000000   0.0000000   0.0000000
 NMagM=    0.0000000   0.0000000   0.0000000   0.0000000   0.0000000   0.0000000   0.0000000   0.0000000   0.0000000   2.7928460

  Atom        21          22          23          24          25          26          27          28          29          30
 IAtWgt=           1           1           1           1           1           1           1           1           1           1
 AtmWgt=   1.0078250   1.0078250   1.0078250   1.0078250   1.0078250   1.0078250   1.0078250   1.0078250   1.0078250   1.0078250
 NucSpn=           1           1           1           1           1           1           1           1           1           1
 AtZEff=   0.0000000   0.0000000   0.0000000   0.0000000   0.0000000   0.0000000   0.0000000   0.0000000   0.0000000   0.0000000
 NQMom=    0.0000000   0.0000000   0.0000000   0.0000000   0.0000000   0.0000000   0.0000000   0.0000000   0.0000000   0.0000000
 NMagM=    2.7928460   2.7928460   2.7928460   2.7928460   2.7928460   2.7928460   2.7928460   2.7928460   2.7928460   2.7928460

  Atom        31          32          33          34          35          36          37
 IAtWgt=           1           1           1           1           1           1           1
 AtmWgt=   1.0078250   1.0078250   1.0078250   1.0078250   1.0078250   1.0078250   1.0078250
 NucSpn=           1           1           1           1           1           1           1
 AtZEff=   0.0000000   0.0000000   0.0000000   0.0000000   0.0000000   0.0000000   0.0000000
 NQMom=    0.0000000   0.0000000   0.0000000   0.0000000   0.0000000   0.0000000   0.0000000
 NMagM=    2.7928460   2.7928460   2.7928460   2.7928460   2.7928460   2.7928460   2.7928460
 Leave Link  101 at Wed Sep 29 02:33:19 2021, MaxMem= 1610612736 cpu:       0.2
 (Enter /sw/target/amd/app/gaussian/Gaussian09RevA.02_gcc-4.9.2/g09/l103.exe)

 GradGradGradGradGradGradGradGradGradGradGradGradGradGradGradGradGradGrad
 Berny optimization.
 Initialization pass.
                           ----------------------------
                           !    Initial Parameters    !
                           ! (Angstroms and Degrees)  !
 --------------------------                            --------------------------
 ! Name  Definition              Value          Derivative Info.                !
 --------------------------------------------------------------------------------
 ! R1    R(1,2)                  1.2271         estimate D2E/DX2                !
 ! R2    R(2,3)                  1.5285         estimate D2E/DX2                !
 ! R3    R(2,7)                  1.3947         estimate D2E/DX2                !
 ! R4    R(3,4)                  1.5322         estimate D2E/DX2                !
 ! R5    R(3,5)                  1.5359         estimate D2E/DX2                !
 ! R6    R(3,6)                  1.5365         estimate D2E/DX2                !
 ! R7    R(4,20)                 1.0962         estimate D2E/DX2                !
 ! R8    R(4,21)                 1.0964         estimate D2E/DX2                !
 ! R9    R(4,22)                 1.0951         estimate D2E/DX2                !
 ! R10   R(5,23)                 1.0963         estimate D2E/DX2                !
 ! R11   R(5,24)                 1.0951         estimate D2E/DX2                !
 ! R12   R(5,25)                 1.0964         estimate D2E/DX2                !
 ! R13   R(6,26)                 1.0962         estimate D2E/DX2                !
 ! R14   R(6,27)                 1.0963         estimate D2E/DX2                !
 ! R15   R(6,28)                 1.0951         estimate D2E/DX2                !
 ! R16   R(7,8)                  1.4052         estimate D2E/DX2                !
 ! R17   R(8,9)                  1.388          estimate D2E/DX2                !
 ! R18   R(8,13)                 1.3905         estimate D2E/DX2                !
 ! R19   R(9,10)                 1.3973         estimate D2E/DX2                !
 ! R20   R(9,29)                 1.0851         estimate D2E/DX2                !
 ! R21   R(10,11)                1.4085         estimate D2E/DX2                !
 ! R22   R(10,30)                1.0877         estimate D2E/DX2                !
 ! R23   R(11,12)                1.4096         estimate D2E/DX2                !
 ! R24   R(11,14)                1.4852         estimate D2E/DX2                !
 ! R25   R(12,13)                1.3994         estimate D2E/DX2                !
 ! R26   R(12,31)                1.0875         estimate D2E/DX2                !
 ! R27   R(13,32)                1.0866         estimate D2E/DX2                !
 ! R28   R(14,15)                1.4087         estimate D2E/DX2                !
 ! R29   R(14,19)                1.4074         estimate D2E/DX2                !
 ! R30   R(15,16)                1.3992         estimate D2E/DX2                !
 ! R31   R(15,33)                1.0877         estimate D2E/DX2                !
 ! R32   R(16,17)                1.39           estimate D2E/DX2                !
 ! R33   R(16,34)                1.0869         estimate D2E/DX2                !
 ! R34   R(17,18)                1.3904         estimate D2E/DX2                !
 ! R35   R(17,35)                1.0865         estimate D2E/DX2                !
 ! R36   R(18,19)                1.3994         estimate D2E/DX2                !
 ! R37   R(18,36)                1.0868         estimate D2E/DX2                !
 ! R38   R(19,37)                1.0874         estimate D2E/DX2                !
 ! A1    A(1,2,3)              123.8952         estimate D2E/DX2                !
 ! A2    A(1,2,7)              125.8657         estimate D2E/DX2                !
 ! A3    A(3,2,7)              110.1457         estimate D2E/DX2                !
 ! A4    A(2,3,4)              108.0531         estimate D2E/DX2                !
 ! A5    A(2,3,5)              111.2895         estimate D2E/DX2                !
 ! A6    A(2,3,6)              108.6957         estimate D2E/DX2                !
 ! A7    A(4,3,5)              110.3394         estimate D2E/DX2                !
 ! A8    A(4,3,6)              109.9396         estimate D2E/DX2                !
 ! A9    A(5,3,6)              108.5051         estimate D2E/DX2                !
 ! A10   A(3,4,20)             111.264          estimate D2E/DX2                !
 ! A11   A(3,4,21)             111.2423         estimate D2E/DX2                !
 ! A12   A(3,4,22)             111.1907         estimate D2E/DX2                !
 ! A13   A(20,4,21)            107.0613         estimate D2E/DX2                !
 ! A14   A(20,4,22)            107.9889         estimate D2E/DX2                !
 ! A15   A(21,4,22)            107.9108         estimate D2E/DX2                !
 ! A16   A(3,5,23)             111.6557         estimate D2E/DX2                !
 ! A17   A(3,5,24)             111.3095         estimate D2E/DX2                !
 ! A18   A(3,5,25)             110.9087         estimate D2E/DX2                !
 ! A19   A(23,5,24)            107.2846         estimate D2E/DX2                !
 ! A20   A(23,5,25)            107.3973         estimate D2E/DX2                !
 ! A21   A(24,5,25)            108.094          estimate D2E/DX2                !
 ! A22   A(3,6,26)             111.5165         estimate D2E/DX2                !
 ! A23   A(3,6,27)             110.9963         estimate D2E/DX2                !
 ! A24   A(3,6,28)             111.2375         estimate D2E/DX2                !
 ! A25   A(26,6,27)            107.249          estimate D2E/DX2                !
 ! A26   A(26,6,28)            107.6197         estimate D2E/DX2                !
 ! A27   A(27,6,28)            108.037          estimate D2E/DX2                !
 ! A28   A(2,7,8)              121.82           estimate D2E/DX2                !
 ! A29   A(7,8,9)              123.3183         estimate D2E/DX2                !
 ! A30   A(7,8,13)             116.141          estimate D2E/DX2                !
 ! A31   A(9,8,13)             120.423          estimate D2E/DX2                !
 ! A32   A(8,9,10)             119.5449         estimate D2E/DX2                !
 ! A33   A(8,9,29)             121.6443         estimate D2E/DX2                !
 ! A34   A(10,9,29)            118.8097         estimate D2E/DX2                !
 ! A35   A(9,10,11)            121.847          estimate D2E/DX2                !
 ! A36   A(9,10,30)            117.3414         estimate D2E/DX2                !
 ! A37   A(11,10,30)           120.8084         estimate D2E/DX2                !
 ! A38   A(10,11,12)           116.9306         estimate D2E/DX2                !
 ! A39   A(10,11,14)           121.141          estimate D2E/DX2                !
 ! A40   A(12,11,14)           121.9262         estimate D2E/DX2                !
 ! A41   A(11,12,13)           121.6001         estimate D2E/DX2                !
 ! A42   A(11,12,31)           120.5665         estimate D2E/DX2                !
 ! A43   A(13,12,31)           117.8284         estimate D2E/DX2                !
 ! A44   A(8,13,12)            119.6123         estimate D2E/DX2                !
 ! A45   A(8,13,32)            120.3442         estimate D2E/DX2                !
 ! A46   A(12,13,32)           120.0429         estimate D2E/DX2                !
 ! A47   A(11,14,15)           121.6375         estimate D2E/DX2                !
 ! A48   A(11,14,19)           121.5513         estimate D2E/DX2                !
 ! A49   A(15,14,19)           116.8003         estimate D2E/DX2                !
 ! A50   A(14,15,16)           121.7168         estimate D2E/DX2                !
 ! A51   A(14,15,33)           120.6213         estimate D2E/DX2                !
 ! A52   A(16,15,33)           117.6618         estimate D2E/DX2                !
 ! A53   A(15,16,17)           120.0782         estimate D2E/DX2                !
 ! A54   A(15,16,34)           119.8581         estimate D2E/DX2                !
 ! A55   A(17,16,34)           120.0636         estimate D2E/DX2                !
 ! A56   A(16,17,18)           119.5869         estimate D2E/DX2                !
 ! A57   A(16,17,35)           120.1957         estimate D2E/DX2                !
 ! A58   A(18,17,35)           120.2173         estimate D2E/DX2                !
 ! A59   A(17,18,19)           120.1569         estimate D2E/DX2                !
 ! A60   A(17,18,36)           120.0177         estimate D2E/DX2                !
 ! A61   A(19,18,36)           119.8218         estimate D2E/DX2                !
 ! A62   A(14,19,18)           121.6506         estimate D2E/DX2                !
 ! A63   A(14,19,37)           120.5688         estimate D2E/DX2                !
 ! A64   A(18,19,37)           117.7675         estimate D2E/DX2                !
 ! D1    D(1,2,3,4)             88.9241         estimate D2E/DX2                !
 ! D2    D(1,2,3,5)           -149.7862         estimate D2E/DX2                !
 ! D3    D(1,2,3,6)            -30.3486         estimate D2E/DX2                !
 ! D4    D(7,2,3,4)            -87.7399         estimate D2E/DX2                !
 ! D5    D(7,2,3,5)             33.5498         estimate D2E/DX2                !
 ! D6    D(7,2,3,6)            152.9874         estimate D2E/DX2                !
 ! D7    D(1,2,7,8)              5.5045         estimate D2E/DX2                !
 ! D8    D(3,2,7,8)           -177.9126         estimate D2E/DX2                !
 ! D9    D(2,3,4,20)            59.8541         estimate D2E/DX2                !
 ! D10   D(2,3,4,21)           -59.4243         estimate D2E/DX2                !
 ! D11   D(2,3,4,22)          -179.7282         estimate D2E/DX2                !
 ! D12   D(5,3,4,20)           -62.0231         estimate D2E/DX2                !
 ! D13   D(5,3,4,21)           178.6985         estimate D2E/DX2                !
 ! D14   D(5,3,4,22)            58.3946         estimate D2E/DX2                !
 ! D15   D(6,3,4,20)           178.3362         estimate D2E/DX2                !
 ! D16   D(6,3,4,21)            59.0578         estimate D2E/DX2                !
 ! D17   D(6,3,4,22)           -61.2461         estimate D2E/DX2                !
 ! D18   D(2,3,5,23)           -66.2587         estimate D2E/DX2                !
 ! D19   D(2,3,5,24)           173.872          estimate D2E/DX2                !
 ! D20   D(2,3,5,25)            53.4815         estimate D2E/DX2                !
 ! D21   D(4,3,5,23)            53.6859         estimate D2E/DX2                !
 ! D22   D(4,3,5,24)           -66.1834         estimate D2E/DX2                !
 ! D23   D(4,3,5,25)           173.4261         estimate D2E/DX2                !
 ! D24   D(6,3,5,23)           174.1904         estimate D2E/DX2                !
 ! D25   D(6,3,5,24)            54.3211         estimate D2E/DX2                !
 ! D26   D(6,3,5,25)           -66.0694         estimate D2E/DX2                !
 ! D27   D(2,3,6,26)            61.5405         estimate D2E/DX2                !
 ! D28   D(2,3,6,27)           -57.9785         estimate D2E/DX2                !
 ! D29   D(2,3,6,28)          -178.3077         estimate D2E/DX2                !
 ! D30   D(4,3,6,26)           -56.5449         estimate D2E/DX2                !
 ! D31   D(4,3,6,27)          -176.0639         estimate D2E/DX2                !
 ! D32   D(4,3,6,28)            63.6069         estimate D2E/DX2                !
 ! D33   D(5,3,6,26)          -177.2971         estimate D2E/DX2                !
 ! D34   D(5,3,6,27)            63.1839         estimate D2E/DX2                !
 ! D35   D(5,3,6,28)           -57.1453         estimate D2E/DX2                !
 ! D36   D(2,7,8,9)             32.5838         estimate D2E/DX2                !
 ! D37   D(2,7,8,13)          -151.3544         estimate D2E/DX2                !
 ! D38   D(7,8,9,10)           178.329          estimate D2E/DX2                !
 ! D39   D(7,8,9,29)            -2.0598         estimate D2E/DX2                !
 ! D40   D(13,8,9,10)            2.4291         estimate D2E/DX2                !
 ! D41   D(13,8,9,29)         -177.9597         estimate D2E/DX2                !
 ! D42   D(7,8,13,12)         -177.658          estimate D2E/DX2                !
 ! D43   D(7,8,13,32)            2.0416         estimate D2E/DX2                !
 ! D44   D(9,8,13,12)           -1.4742         estimate D2E/DX2                !
 ! D45   D(9,8,13,32)          178.2254         estimate D2E/DX2                !
 ! D46   D(8,9,10,11)           -1.6386         estimate D2E/DX2                !
 ! D47   D(8,9,10,30)          177.7133         estimate D2E/DX2                !
 ! D48   D(29,9,10,11)         178.7391         estimate D2E/DX2                !
 ! D49   D(29,9,10,30)          -1.9089         estimate D2E/DX2                !
 ! D50   D(9,10,11,12)          -0.1022         estimate D2E/DX2                !
 ! D51   D(9,10,11,14)         179.3653         estimate D2E/DX2                !
 ! D52   D(30,10,11,12)       -179.432          estimate D2E/DX2                !
 ! D53   D(30,10,11,14)          0.0356         estimate D2E/DX2                !
 ! D54   D(10,11,12,13)          1.0821         estimate D2E/DX2                !
 ! D55   D(10,11,12,31)       -178.0831         estimate D2E/DX2                !
 ! D56   D(14,11,12,13)       -178.3809         estimate D2E/DX2                !
 ! D57   D(14,11,12,31)          2.4539         estimate D2E/DX2                !
 ! D58   D(10,11,14,15)         30.5858         estimate D2E/DX2                !
 ! D59   D(10,11,14,19)       -148.18           estimate D2E/DX2                !
 ! D60   D(12,11,14,15)       -149.9736         estimate D2E/DX2                !
 ! D61   D(12,11,14,19)         31.2607         estimate D2E/DX2                !
 ! D62   D(11,12,13,8)          -0.3178         estimate D2E/DX2                !
 ! D63   D(11,12,13,32)        179.9817         estimate D2E/DX2                !
 ! D64   D(31,12,13,8)         178.8694         estimate D2E/DX2                !
 ! D65   D(31,12,13,32)         -0.8311         estimate D2E/DX2                !
 ! D66   D(11,14,15,16)       -177.7343         estimate D2E/DX2                !
 ! D67   D(11,14,15,33)          2.3852         estimate D2E/DX2                !
 ! D68   D(19,14,15,16)          1.0873         estimate D2E/DX2                !
 ! D69   D(19,14,15,33)       -178.7931         estimate D2E/DX2                !
 ! D70   D(11,14,19,18)        178.3908         estimate D2E/DX2                !
 ! D71   D(11,14,19,37)         -0.2666         estimate D2E/DX2                !
 ! D72   D(15,14,19,18)         -0.4319         estimate D2E/DX2                !
 ! D73   D(15,14,19,37)       -179.0894         estimate D2E/DX2                !
 ! D74   D(14,15,16,17)         -0.8674         estimate D2E/DX2                !
 ! D75   D(14,15,16,34)        178.9951         estimate D2E/DX2                !
 ! D76   D(33,15,16,17)        179.0164         estimate D2E/DX2                !
 ! D77   D(33,15,16,34)         -1.1211         estimate D2E/DX2                !
 ! D78   D(15,16,17,18)         -0.0528         estimate D2E/DX2                !
 ! D79   D(15,16,17,35)        179.8098         estimate D2E/DX2                !
 ! D80   D(34,16,17,18)       -179.915          estimate D2E/DX2                !
 ! D81   D(34,16,17,35)         -0.0524         estimate D2E/DX2                !
 ! D82   D(16,17,18,19)          0.6962         estimate D2E/DX2                !
 ! D83   D(16,17,18,36)        179.9981         estimate D2E/DX2                !
 ! D84   D(35,17,18,19)       -179.1664         estimate D2E/DX2                !
 ! D85   D(35,17,18,36)          0.1356         estimate D2E/DX2                !
 ! D86   D(17,18,19,14)         -0.4483         estimate D2E/DX2                !
 ! D87   D(17,18,19,37)        178.2453         estimate D2E/DX2                !
 ! D88   D(36,18,19,14)       -179.7516         estimate D2E/DX2                !
 ! D89   D(36,18,19,37)         -1.058          estimate D2E/DX2                !
 --------------------------------------------------------------------------------
 Trust Radius=3.00D-01 FncErr=1.00D-07 GrdErr=1.00D-06
 Number of steps in this run= 201 maximum allowed number of steps= 222.
 GradGradGradGradGradGradGradGradGradGradGradGradGradGradGradGradGradGrad

 Leave Link  103 at Wed Sep 29 02:33:19 2021, MaxMem= 1610612736 cpu:       0.0
 (Enter /sw/target/amd/app/gaussian/Gaussian09RevA.02_gcc-4.9.2/g09/l202.exe)
                          Input orientation:                          
 ---------------------------------------------------------------------
 Center     Atomic      Atomic             Coordinates (Angstroms)
 Number     Number       Type             X           Y           Z
 ---------------------------------------------------------------------
      1          8           0        3.140884   -0.571263    1.307144
      2          6           0        2.651381   -0.828894    0.211818
      3          6           0        1.148044   -0.912786   -0.051572
      4          6           0        0.653641    0.486909   -0.431055
      5          6           0        0.833521   -1.912658   -1.174258
      6          6           0        0.448683   -1.385312    1.232376
      7          8           0        3.358139   -1.010680   -0.976678
      8          6           0        4.762912   -1.023311   -1.008789
      9          6           0        5.545014   -1.503414    0.032473
     10          6           0        6.936205   -1.510897   -0.097510
     11          6           0        7.575018   -1.074425   -1.274451
     12          6           0        6.745526   -0.628827   -2.323447
     13          6           0        5.352444   -0.598940   -2.194490
     14          6           0        9.055624   -1.076010   -1.390530
     15          6           0        9.849181   -2.019981   -0.709659
     16          6           0       11.246344   -1.994315   -0.780576
     17          6           0       11.887172   -1.031437   -1.551450
     18          6           0       11.131272   -0.097094   -2.250608
     19          6           0        9.734551   -0.117830   -2.166325
     20          1           0        1.160979    0.857784   -1.329190
     21          1           0        0.850264    1.208554    0.370618
     22          1           0       -0.423778    0.486521   -0.627053
     23          1           0        1.223080   -1.571633   -2.140590
     24          1           0       -0.246234   -2.054064   -1.290297
     25          1           0        1.284443   -2.889985   -0.965478
     26          1           0        0.601851   -0.679275    2.056776
     27          1           0        0.840355   -2.355914    1.558604
     28          1           0       -0.630904   -1.488888    1.080915
     29          1           0        5.103900   -1.870009    0.953619
     30          1           0        7.515696   -1.859078    0.754571
     31          1           0        7.174774   -0.308125   -3.269819
     32          1           0        4.737082   -0.250281   -3.019450
     33          1           0        9.388334   -2.800268   -0.108045
     34          1           0       11.829675   -2.727579   -0.229766
     35          1           0       12.972044   -1.007833   -1.605420
     36          1           0       11.625051    0.658842   -2.855436
     37          1           0        9.183029    0.648630   -2.705661
 ---------------------------------------------------------------------
                    Distance matrix (angstroms):
                    1          2          3          4          5
     1  O    0.000000
     2  C    1.227080   0.000000
     3  C    2.436013   1.528540   0.000000
     4  C    3.213634   2.477012   1.532184   0.000000
     5  C    3.644259   2.529894   1.535934   2.518458   0.000000
     6  C    2.813577   2.490586   1.536525   2.512812   2.493608
     7  O    2.335836   1.394660   2.397900   3.139233   2.688177
     8  C    2.863366   2.446680   3.741090   4.415954   4.032174
     9  C    2.876375   2.976618   4.437257   5.301110   4.880762
    10  C    4.154566   4.349773   5.819163   6.600992   6.209955
    11  C    5.155516   5.148931   6.544277   7.145247   6.794148
    12  C    5.116439   4.819712   6.047633   6.475885   6.157975
    13  C    4.141643   3.624767   4.729437   5.134931   4.815328
    14  C    6.520457   6.606279   8.021801   8.599804   8.267390
    15  C    7.153148   7.353648   8.795951   9.535202   9.028260
    16  C    8.490119   8.730203  10.182182  10.885036  10.420582
    17  C    9.213082   9.404785  10.844012  11.390913  11.095135
    18  C    8.759493   8.860452  10.255045  10.650473  10.511825
    19  C    7.466394   7.505497   8.878753   9.264978   9.134218
    20  H    3.593391   2.727799   2.183436   1.096169   2.794027
    21  H    3.048241   2.724047   2.183346   1.096409   3.482655
    22  H    4.191281   3.448278   2.181711   1.095101   2.763385
    23  H    4.070084   2.850531   2.191736   2.735756   1.096290
    24  H    4.518625   3.486196   2.186543   2.829243   1.095140
    25  H    3.740008   2.739095   2.182464   3.476627   1.096397
    26  H    2.649586   2.761671   2.190430   2.748085   3.466192
    27  H    2.922438   2.724966   2.184023   3.474946   2.768584
    28  H    3.888393   3.458947   2.186110   2.799979   2.722119
    29  H    2.380158   2.765690   4.192313   5.222757   4.771353
    30  H    4.593776   5.001742   6.487860   7.348277   6.955193
    31  H    6.106562   5.731848   6.858879   7.156525   6.868580
    32  H    4.622801   3.889221   4.704084   4.890576   4.626664
    33  H    6.782466   7.026746   8.453885   9.338348   8.666573
    34  H    9.083330   9.383021  10.836165  11.630873  11.066687
    35  H   10.262813  10.480957  11.926042  12.464207  12.179834
    36  H    9.530022   9.599383  10.958985  11.237394  11.220342
    37  H    7.355152   7.304601   8.604836   8.828956   8.866774
                    6          7          8          9         10
     6  C    0.000000
     7  O    3.672221   0.000000
     8  C    4.875084   1.405197   0.000000
     9  C    5.237013   2.458372   1.387950   0.000000
    10  C    6.623618   3.718294   2.406527   1.397270   0.000000
    11  C    7.560787   4.227861   2.825089   2.452142   1.408468
    12  C    7.270928   3.665241   2.411369   2.785047   2.401916
    13  C    6.033959   2.372730   1.390513   2.411331   2.781599
    14  C    9.003041   5.712870   4.309975   3.812086   2.520510
    15  C    9.619962   6.574467   5.191624   4.398120   3.019822
    16  C   11.000561   7.951715   6.559712   5.779896   4.390623
    17  C   11.777689   8.548404   7.144902   6.553972   5.182268
    18  C   11.309659   7.929636   6.554082   6.196488   4.922728
    19  C    9.969205   6.547601   5.184302   4.930191   3.748517
    20  H    3.478573   2.905673   4.076162   5.162280   6.362462
    21  H    2.762614   3.609660   4.710924   5.432291   6.682308
    22  H    2.778925   4.082492   5.415447   6.326238   7.644569
    23  H    3.465733   2.495563   3.756600   4.837971   6.067756
    24  H    2.700745   3.765436   5.121840   5.965860   7.301041
    25  H    2.791613   2.798594   3.947923   4.590311   5.881978
    26  H    1.096168   4.112030   5.179814   5.404800   6.742149
    27  H    1.096312   3.817924   4.873786   5.018929   6.373080
    28  H    1.095069   4.513849   5.803178   6.264296   7.658349
    29  H    4.688676   2.740835   2.164305   1.085120   2.142703
    30  H    7.098974   4.582825   3.374280   2.128735   1.087696
    31  H    8.165195   4.507637   3.382430   3.871688   3.401047
    32  H    6.144647   2.579265   2.154299   3.396664   3.868208
    33  H    9.149655   6.349835   5.036213   4.058656   2.770474
    34  H   11.552772   8.675976   7.310988   6.408145   5.044191
    35  H   12.846407   9.634444   8.230800   7.621619   6.241653
    36  H   12.074766   8.640537   7.302650   7.069810   5.856552
    37  H    9.794584   6.298575   5.021175   5.036251   4.063771
                   11         12         13         14         15
    11  C    0.000000
    12  C    1.409612   0.000000
    13  C    2.452019   1.399358   0.000000
    14  C    1.485150   2.531177   3.819358   0.000000
    15  C    2.526832   3.764611   4.944161   1.408688   0.000000
    16  C    3.816902   4.949987   6.219669   2.452464   1.399197
    17  C    4.321255   5.214844   6.580519   2.836467   2.416452
    18  C    3.815101   4.418462   5.800849   2.450779   2.777728
    19  C    2.524697   3.036458   4.408529   1.407447   2.398582
    20  H    6.698980   5.863934   4.520969   8.128268   9.173342
    21  H    7.289758   6.737067   5.487845   8.697633   9.621380
    22  H    8.175354   7.451220   6.082748   9.637607  10.574642
    23  H    6.429972   5.605331   4.242721   7.883970   8.755467
    24  H    7.882381   7.209952   5.854924   9.353673  10.112156
    25  H    6.554621   6.064680   4.827835   7.991398   8.612612
    26  H    7.738105   7.545438   6.375566   9.138249   9.744935
    27  H    7.417824   7.274902   6.126305   8.821916   9.296064
    28  H    8.547321   8.169523   6.879007  10.005366  10.645205
    29  H    3.421064   3.869707   3.404113   4.662789   5.030574
    30  H    2.176265   3.403068   3.868407   2.754276   2.759531
    31  H    2.174605   1.087531   2.135836   2.767484   4.078888
    32  H    3.431926   2.159066   1.086642   4.688818   5.882222
    33  H    2.761730   4.075242   5.048516   2.174519   1.087734
    34  H    4.682562   5.885307   7.095476   3.430804   2.157162
    35  H    5.407575   6.279231   7.653268   3.922903   3.402809
    36  H    4.680437   5.074531   6.431522   3.428937   3.864475
    37  H    2.757350   2.778382   4.060925   2.172598   3.398422
                   16         17         18         19         20
    16  C    0.000000
    17  C    1.389979   0.000000
    18  C    2.402849   1.390397   0.000000
    19  C    2.779750   2.417959   1.399414   0.000000
    20  H   10.495238  10.893566  10.058207   8.669415   0.000000
    21  H   10.939017  11.424765  10.689933   9.334128   1.763216
    22  H   11.931884  12.438577  11.683137  10.292048   1.772650
    23  H   10.123938  10.694006  10.017915   8.634776   2.562088
    24  H   11.504031  12.179225  11.584453  10.204533   3.234289
    25  H   10.003793  10.780326  10.315611   8.973918   3.767400
    26  H   11.094373  11.853345  11.391277  10.077500   3.760311
    27  H   10.671791  11.552439  11.203362   9.899033   4.332437
    28  H   12.032856  12.800033  12.303858  10.948381   3.811342
    29  H    6.383769   7.279516   7.052624   5.852104   5.310244
    30  H    4.036422   5.011240   5.020764   4.060407   7.218436
    31  H    5.061348   5.067807   4.091112   2.793988   6.425816
    32  H    7.101035   7.340914   6.442068   5.071495   4.107712
    33  H    2.134024   3.384726   3.864655   3.398802   9.086358
    34  H    1.086897   2.151059   3.389841   3.866600  11.308609
    35  H    2.152105   1.086470   2.152709   3.404127  11.960689
    36  H    3.389352   2.150844   1.086773   2.156869  10.576663
    37  H    3.866313   3.386328   2.135141   1.087438   8.141972
                   21         22         23         24         25
    21  H    0.000000
    22  H    1.771965   0.000000
    23  H    3.764916   3.039561   0.000000
    24  H    3.821731   2.631728   1.764829   0.000000
    25  H    4.332631   3.799124   1.767118   1.774047   0.000000
    26  H    2.543370   3.100634   4.335909   3.716476   3.806205
    27  H    3.757238   3.801916   3.800739   3.063989   2.617908
    28  H    3.158255   2.619599   3.717822   2.467802   3.133585
    29  H    5.283073   6.213451   4.972316   5.804565   4.394490
    30  H    7.347501   8.393209   6.932647   8.029138   6.545980
    31  H    7.453357   8.084162   6.188237   7.876432   6.831690
    32  H    5.359862   5.735932   3.855720   5.574678   4.807032
    33  H    9.444491  10.360979   8.503656   9.735473   8.149619
    34  H   11.679087  12.674202  10.839157  12.141084  10.572113
    35  H   12.480171  13.514376  11.774653  13.263362  11.855465
    36  H   11.260801  12.254373  10.662412  12.277497  11.094787
    37  H    8.900112   9.830444   8.283095   9.910540   8.828233
                   26         27         28         29         30
    26  H    0.000000
    27  H    1.765270   0.000000
    28  H    1.768463   1.773280   0.000000
    29  H    4.785733   4.333581   5.748864   0.000000
    30  H    7.133647   6.741920   8.161534   2.420020   0.000000
    31  H    8.468393   8.223867   9.013973   4.956353   4.326361
    32  H    6.561421   6.369988   6.867490   4.306199   4.955014
    33  H    9.294479   8.720270  10.174403   4.510974   2.266433
    34  H   11.639925  11.140088  12.590404   6.882723   4.509283
    35  H   12.905089  12.609768  13.874005   8.318637   6.005491
    36  H   12.142130  12.036701  13.050519   7.964257   6.021534
    37  H    9.903573   9.839281  10.734078   6.031017   4.587135
                   31         32         33         34         35
    31  H    0.000000
    32  H    2.451199   0.000000
    33  H    4.594283   6.050856   0.000000
    34  H    6.063315   8.014002   2.445454   0.000000
    35  H    6.071915   8.389754   4.277609   2.480919   0.000000
    36  H    4.572931   6.949642   4.951414   4.289973   2.480874
    37  H    2.294938   4.546752   4.322575   4.953139   4.279140
                   36         37
    36  H    0.000000
    37  H    2.446632   0.000000
 Stoichiometry    C17H18O2
 Framework group  C1[X(C17H18O2)]
 Deg. of freedom   105
 Full point group                 C1      NOp   1
 Largest Abelian subgroup         C1      NOp   1
 Largest concise Abelian subgroup C1      NOp   1
                         Standard orientation:                         
 ---------------------------------------------------------------------
 Center     Atomic      Atomic             Coordinates (Angstroms)
 Number     Number       Type             X           Y           Z
 ---------------------------------------------------------------------
      1          8           0        2.831140   -1.280803   -1.102590
      2          6           0        3.130891   -0.381264   -0.323677
      3          6           0        4.569446    0.013778    0.009396
      4          6           0        5.017991    1.071936   -1.003863
      5          6           0        4.680012    0.563238    1.439418
      6          6           0        5.461330   -1.232197   -0.104615
      7          8           0        2.236627    0.471974    0.322353
      8          6           0        0.845458    0.302299    0.220181
      9          6           0        0.236212   -0.937978    0.090035
     10          6           0       -1.157461   -1.018106    0.029877
     11          6           0       -1.972729    0.125904    0.131660
     12          6           0       -1.318561    1.363115    0.300132
     13          6           0        0.077176    1.454960    0.341186
     14          6           0       -3.452237    0.024245    0.051705
     15          6           0       -4.139215   -1.122385    0.496341
     16          6           0       -5.528591   -1.239151    0.379066
     17          6           0       -6.270932   -0.200929   -0.171446
     18          6           0       -5.624243    0.951953   -0.602563
     19          6           0       -4.233041    1.059340   -0.495862
     20          1           0        4.376884    1.960057   -0.961330
     21          1           0        4.966752    0.687017   -2.029205
     22          1           0        6.048774    1.389527   -0.814475
     23          1           0        4.143461    1.512768    1.550589
     24          1           0        5.723860    0.744985    1.716333
     25          1           0        4.253366   -0.141084    2.163291
     26          1           0        5.456413   -1.638345   -1.122753
     27          1           0        5.112423   -2.027582    0.564358
     28          1           0        6.499843   -1.001773    0.155329
     29          1           0        0.815821   -1.853166    0.027031
     30          1           0       -1.595593   -2.003709   -0.110508
     31          1           0       -1.891334    2.280255    0.416359
     32          1           0        0.555130    2.422056    0.471866
     33          1           0       -3.599081   -1.951601    0.947809
     34          1           0       -6.026002   -2.144418    0.717324
     35          1           0       -7.349519   -0.290818   -0.266256
     36          1           0       -6.197785    1.767991   -1.034080
     37          1           0       -3.764591    1.965924   -0.871603
 ---------------------------------------------------------------------
 Rotational constants (GHZ):      1.4631648      0.1301851      0.1252508
 Leave Link  202 at Wed Sep 29 02:33:19 2021, MaxMem= 1610612736 cpu:       0.1
 (Enter /sw/target/amd/app/gaussian/Gaussian09RevA.02_gcc-4.9.2/g09/l301.exe)
 Standard basis: 6-31G(d) (6D, 7F)
 Ernie: Thresh=  0.10000D-02 Tol=  0.10000D-05 Strict=F.
 There are   321 symmetry adapted basis functions of A   symmetry.
 Integral buffers will be    131072 words long.
 Raffenetti 2 integral format.
 Two-electron integral symmetry is turned on.
   321 basis functions,   604 primitive gaussians,   321 cartesian basis functions
    68 alpha electrons       68 beta electrons
       nuclear repulsion energy      1301.5588045139 Hartrees.
 IExCor=  402 DFT=T Ex+Corr=B3LYP ExCW=0 ScaHFX=  0.200000
 ScaDFX=  0.800000  0.720000  1.000000  0.810000 ScalE2=  1.000000  1.000000
 IRadAn=      0 IRanWt=     -1 IRanGd=            0 ICorTp=0
 NAtoms=   37 NActive=   37 NUniq=   37 SFac= 7.50D-01 NAtFMM=   80 NAOKFM=F Big=F
 Leave Link  301 at Wed Sep 29 02:33:20 2021, MaxMem= 1610612736 cpu:       0.1
 (Enter /sw/target/amd/app/gaussian/Gaussian09RevA.02_gcc-4.9.2/g09/l302.exe)
 NPDir=0 NMtPBC=     1 NCelOv=     1 NCel=       1 NClECP=     1 NCelD=      1
         NCelK=      1 NCelE2=     1 NClLst=     1 CellRange=     0.0.
 One-electron integrals computed using PRISM.
 NBasis=   321 RedAO= T  NBF=   321
 NBsUse=   321 1.00D-06 NBFU=   321
 Precomputing XC quadrature grid using
 IXCGrd= 2 IRadAn=           0 IRanWt=          -1 IRanGd=           0 AccXCQ= 1.00D-10.
 NRdTot=    2373 NPtTot=      302818 NUsed=      319923 NTot=      319955
 NSgBfM=   314   314   314   314   314 NAtAll=    37    37.
 Leave Link  302 at Wed Sep 29 02:33:24 2021, MaxMem= 1610612736 cpu:       3.8
 (Enter /sw/target/amd/app/gaussian/Gaussian09RevA.02_gcc-4.9.2/g09/l303.exe)
 DipDrv:  MaxL=1.
 Leave Link  303 at Wed Sep 29 02:33:24 2021, MaxMem= 1610612736 cpu:       0.3
 (Enter /sw/target/amd/app/gaussian/Gaussian09RevA.02_gcc-4.9.2/g09/l401.exe)
 Harris functional with IExCor=  402 diagonalized for initial guess.
 ExpMin= 1.61D-01 ExpMax= 5.48D+03 ExpMxC= 8.25D+02 IAcc=1 IRadAn=         1 AccDes= 0.00D+00
 HarFok:  IExCor=  402 AccDes= 0.00D+00 IRadAn=         1 IDoV= 1
 ScaDFX=  1.000000  1.000000  1.000000  1.000000
 FoFCou: FMM=F IPFlag=           0 FMFlag=      100000 FMFlg1=           0
         NFxFlg=           0 DoJE=T BraDBF=F KetDBF=T FulRan=T
         Omega=  0.000000  0.000000  1.000000  0.000000  0.000000 ICntrl=     500 IOpCl=  0
         NMat0=    1 NMatS0=    1 NMatT0=    0 NMatD0=    1 NMtDS0=    0 NMtDT0=    0
         I1Cent=           4 NGrid=           0.
 Petite list used in FoFCou.
 Harris En= -809.250120622815    
 Initial guess orbital symmetries:
       Occupied  (A) (A) (A) (A) (A) (A) (A) (A) (A) (A) (A) (A)
                 (A) (A) (A) (A) (A) (A) (A) (A) (A) (A) (A) (A)
                 (A) (A) (A) (A) (A) (A) (A) (A) (A) (A) (A) (A)
                 (A) (A) (A) (A) (A) (A) (A) (A) (A) (A) (A) (A)
                 (A) (A) (A) (A) (A) (A) (A) (A) (A) (A) (A) (A)
                 (A) (A) (A) (A) (A) (A) (A) (A)
       Virtual   (A) (A) (A) (A) (A) (A) (A) (A) (A) (A) (A) (A)
                 (A) (A) (A) (A) (A) (A) (A) (A) (A) (A) (A) (A)
                 (A) (A) (A) (A) (A) (A) (A) (A) (A) (A) (A) (A)
                 (A) (A) (A) (A) (A) (A) (A) (A) (A) (A) (A) (A)
                 (A) (A) (A) (A) (A) (A) (A) (A) (A) (A) (A) (A)
                 (A) (A) (A) (A) (A) (A) (A) (A) (A) (A) (A) (A)
                 (A) (A) (A) (A) (A) (A) (A) (A) (A) (A) (A) (A)
                 (A) (A) (A) (A) (A) (A) (A) (A) (A) (A) (A) (A)
                 (A) (A) (A) (A) (A) (A) (A) (A) (A) (A) (A) (A)
                 (A) (A) (A) (A) (A) (A) (A) (A) (A) (A) (A) (A)
                 (A) (A) (A) (A) (A) (A) (A) (A) (A) (A) (A) (A)
                 (A) (A) (A) (A) (A) (A) (A) (A) (A) (A) (A) (A)
                 (A) (A) (A) (A) (A) (A) (A) (A) (A) (A) (A) (A)
                 (A) (A) (A) (A) (A) (A) (A) (A) (A) (A) (A) (A)
                 (A) (A) (A) (A) (A) (A) (A) (A) (A) (A) (A) (A)
                 (A) (A) (A) (A) (A) (A) (A) (A) (A) (A) (A) (A)
                 (A) (A) (A) (A) (A) (A) (A) (A) (A) (A) (A) (A)
                 (A) (A) (A) (A) (A) (A) (A) (A) (A) (A) (A) (A)
                 (A) (A) (A) (A) (A) (A) (A) (A) (A) (A) (A) (A)
                 (A) (A) (A) (A) (A) (A) (A) (A) (A) (A) (A) (A)
                 (A) (A) (A) (A) (A) (A) (A) (A) (A) (A) (A) (A)
                 (A)
 The electronic state of the initial guess is 1-A.
 Leave Link  401 at Wed Sep 29 02:33:38 2021, MaxMem= 1610612736 cpu:      15.3
 (Enter /sw/target/amd/app/gaussian/Gaussian09RevA.02_gcc-4.9.2/g09/l502.exe)
 Closed shell SCF:
 Requested convergence on RMS density matrix=1.00D-08 within  64 cycles.
 Requested convergence on MAX density matrix=1.00D-06.
 Requested convergence on             energy=1.00D-06.
 No special actions if energy rises.
 Using DIIS extrapolation, IDIIS=  1040.
 Integral symmetry usage will be decided dynamically.
       319577 words used for storage of precomputed grid.
 Keep R1 ints in memory in canonical form, NReq=1352820295.
 IEnd=      638597 IEndB=      638597 NGot=  1610612736 MDV=   274592977
 LenX=   274592977 LenY=   274489495
 Symmetry not used in FoFDir.
 MinBra= 0 MaxBra= 2 Meth= 1.
 IRaf=       0 NMat=   1 IRICut=       1 DoRegI=T DoRafI=F ISym2E= 0 JSym2E=0.
 Integral accuracy reduced to 1.0D-05 until final iterations.

 Cycle   1  Pass 0  IDiag  1:
 E= -808.581258176061    
 DIIS: error= 4.85D-02 at cycle   1 NSaved=   1.
 NSaved= 1 IEnMin= 1 EnMin= -808.581258176061     IErMin= 1 ErrMin= 4.85D-02
 ErrMax= 4.85D-02 EMaxC= 1.00D-01 BMatC= 5.24D-01 BMatP= 5.24D-01
 IDIUse=3 WtCom= 5.15D-01 WtEn= 4.85D-01
 Coeff-Com:  0.100D+01
 Coeff-En:   0.100D+01
 Coeff:      0.100D+01
 Gap=     0.208 Goal=   None    Shift=    0.000
 GapD=    0.208 DampG=1.000 DampE=0.500 DampFc=0.5000 IDamp=-1.
 Damping current iteration by 5.00D-01
 RMSDP=5.02D-03 MaxDP=1.85D-01              OVMax= 1.99D-01

 Cycle   2  Pass 0  IDiag  1:
 E= -808.778698235663     Delta-E=       -0.197440059602 Rises=F Damp=T
 DIIS: error= 1.63D-02 at cycle   2 NSaved=   2.
 NSaved= 2 IEnMin= 2 EnMin= -808.778698235663     IErMin= 2 ErrMin= 1.63D-02
 ErrMax= 1.63D-02 EMaxC= 1.00D-01 BMatC= 6.33D-02 BMatP= 5.24D-01
 IDIUse=3 WtCom= 8.37D-01 WtEn= 1.63D-01
 Coeff-Com:  0.162D+00 0.838D+00
 Coeff-En:   0.237D+00 0.763D+00
 Coeff:      0.175D+00 0.825D+00
 Gap=     0.180 Goal=   None    Shift=    0.000
 RMSDP=1.53D-03 MaxDP=7.25D-02 DE=-1.97D-01 OVMax= 1.65D-01

 Cycle   3  Pass 0  IDiag  1:
 E= -809.041534907656     Delta-E=       -0.262836671992 Rises=F Damp=F
 DIIS: error= 2.38D-02 at cycle   3 NSaved=   3.
 NSaved= 3 IEnMin= 3 EnMin= -809.041534907656     IErMin= 2 ErrMin= 1.63D-02
 ErrMax= 2.38D-02 EMaxC= 1.00D-01 BMatC= 9.35D-02 BMatP= 6.33D-02
 IDIUse=2 WtCom= 0.00D+00 WtEn= 1.00D+00
 Coeff-En:   0.000D+00 0.000D+00 0.100D+01
 Coeff:      0.000D+00 0.000D+00 0.100D+01
 Gap=     0.201 Goal=   None    Shift=    0.000
 RMSDP=2.79D-03 MaxDP=1.66D-01 DE=-2.63D-01 OVMax= 2.99D-01

 Cycle   4  Pass 0  IDiag  1:
 E= -808.605108644968     Delta-E=        0.436426262688 Rises=F Damp=F
 DIIS: error= 6.63D-02 at cycle   4 NSaved=   4.
 NSaved= 4 IEnMin= 3 EnMin= -809.041534907656     IErMin= 2 ErrMin= 1.63D-02
 ErrMax= 6.63D-02 EMaxC= 1.00D-01 BMatC= 6.47D-01 BMatP= 6.33D-02
 IDIUse=2 WtCom= 0.00D+00 WtEn= 1.00D+00
 Coeff-En:   0.000D+00 0.000D+00 0.812D+00 0.188D+00
 Coeff:      0.000D+00 0.000D+00 0.812D+00 0.188D+00
 Gap=     0.212 Goal=   None    Shift=    0.000
 RMSDP=1.50D-03 MaxDP=8.36D-02 DE= 4.36D-01 OVMax= 1.73D-01

 Cycle   5  Pass 0  IDiag  1:
 E= -809.078786363158     Delta-E=       -0.473677718190 Rises=F Damp=F
 DIIS: error= 1.77D-02 at cycle   5 NSaved=   5.
 NSaved= 5 IEnMin= 5 EnMin= -809.078786363158     IErMin= 2 ErrMin= 1.63D-02
 ErrMax= 1.77D-02 EMaxC= 1.00D-01 BMatC= 5.12D-02 BMatP= 6.33D-02
 IDIUse=3 WtCom= 8.23D-01 WtEn= 1.77D-01
 Coeff-Com: -0.338D-02 0.489D-01 0.332D+00-0.879D-01 0.710D+00
 Coeff-En:   0.000D+00 0.000D+00 0.383D+00 0.000D+00 0.617D+00
 Coeff:     -0.279D-02 0.402D-01 0.341D+00-0.724D-01 0.694D+00
 Gap=     0.186 Goal=   None    Shift=    0.000
 RMSDP=6.02D-04 MaxDP=3.35D-02 DE=-4.74D-01 OVMax= 5.86D-02

 Cycle   6  Pass 0  IDiag  1:
 E= -809.119560400500     Delta-E=       -0.040774037342 Rises=F Damp=F
 DIIS: error= 7.74D-04 at cycle   6 NSaved=   6.
 NSaved= 6 IEnMin= 6 EnMin= -809.119560400500     IErMin= 6 ErrMin= 7.74D-04
 ErrMax= 7.74D-04 EMaxC= 1.00D-01 BMatC= 4.01D-04 BMatP= 5.12D-02
 IDIUse=3 WtCom= 9.92D-01 WtEn= 7.74D-03
 Coeff-Com: -0.447D-02 0.192D-01 0.167D+00-0.609D-01 0.430D+00 0.449D+00
 Coeff-En:   0.000D+00 0.000D+00 0.000D+00 0.000D+00 0.000D+00 0.100D+01
 Coeff:     -0.443D-02 0.191D-01 0.166D+00-0.605D-01 0.426D+00 0.453D+00
 Gap=     0.186 Goal=   None    Shift=    0.000
 RMSDP=6.52D-05 MaxDP=4.26D-03 DE=-4.08D-02 OVMax= 6.11D-03

 Cycle   7  Pass 0  IDiag  1:
 E= -809.119882329722     Delta-E=       -0.000321929222 Rises=F Damp=F
 DIIS: error= 2.76D-04 at cycle   7 NSaved=   7.
 NSaved= 7 IEnMin= 7 EnMin= -809.119882329722     IErMin= 7 ErrMin= 2.76D-04
 ErrMax= 2.76D-04 EMaxC= 1.00D-01 BMatC= 2.96D-05 BMatP= 4.01D-04
 IDIUse=3 WtCom= 9.97D-01 WtEn= 2.76D-03
 Coeff-Com: -0.524D-03 0.137D-02 0.332D-01-0.136D-01 0.824D-01 0.190D+00
 Coeff-Com:  0.707D+00
 Coeff-En:   0.000D+00 0.000D+00 0.000D+00 0.000D+00 0.000D+00 0.214D-01
 Coeff-En:   0.979D+00
 Coeff:     -0.523D-03 0.137D-02 0.331D-01-0.136D-01 0.822D-01 0.189D+00
 Coeff:      0.708D+00
 Gap=     0.186 Goal=   None    Shift=    0.000
 RMSDP=1.86D-05 MaxDP=7.90D-04 DE=-3.22D-04 OVMax= 1.47D-03

 Cycle   8  Pass 0  IDiag  1:
 E= -809.119905924626     Delta-E=       -0.000023594904 Rises=F Damp=F
 DIIS: error= 8.72D-05 at cycle   8 NSaved=   8.
 NSaved= 8 IEnMin= 8 EnMin= -809.119905924626     IErMin= 8 ErrMin= 8.72D-05
 ErrMax= 8.72D-05 EMaxC= 1.00D-01 BMatC= 2.97D-06 BMatP= 2.96D-05
 IDIUse=1 WtCom= 1.00D+00 WtEn= 0.00D+00
 Coeff-Com:  0.115D-03-0.935D-03 0.108D-01-0.407D-02 0.227D-01 0.912D-01
 Coeff-Com:  0.438D+00 0.442D+00
 Coeff:      0.115D-03-0.935D-03 0.108D-01-0.407D-02 0.227D-01 0.912D-01
 Coeff:      0.438D+00 0.442D+00
 Gap=     0.186 Goal=   None    Shift=    0.000
 RMSDP=7.18D-06 MaxDP=2.72D-04 DE=-2.36D-05 OVMax= 6.71D-04

 Initial convergence to 1.0D-05 achieved.  Increase integral accuracy.
 Cycle   9  Pass 1  IDiag  1:
 E= -809.119863819576     Delta-E=        0.000042105050 Rises=F Damp=F
 DIIS: error= 2.90D-05 at cycle   1 NSaved=   1.
 NSaved= 1 IEnMin= 1 EnMin= -809.119863819576     IErMin= 1 ErrMin= 2.90D-05
 ErrMax= 2.90D-05 EMaxC= 1.00D-01 BMatC= 3.73D-07 BMatP= 3.73D-07
 IDIUse=1 WtCom= 1.00D+00 WtEn= 0.00D+00
 Coeff-Com:  0.100D+01
 Coeff:      0.100D+01
 Gap=     0.186 Goal=   None    Shift=    0.000
 RMSDP=7.18D-06 MaxDP=2.72D-04 DE= 4.21D-05 OVMax= 5.02D-04

 Cycle  10  Pass 1  IDiag  1:
 E= -809.119862918055     Delta-E=        0.000000901520 Rises=F Damp=F
 DIIS: error= 6.54D-05 at cycle   2 NSaved=   2.
 NSaved= 2 IEnMin= 1 EnMin= -809.119863819576     IErMin= 1 ErrMin= 2.90D-05
 ErrMax= 6.54D-05 EMaxC= 1.00D-01 BMatC= 1.22D-06 BMatP= 3.73D-07
 IDIUse=1 WtCom= 1.00D+00 WtEn= 0.00D+00
 Coeff-Com:  0.658D+00 0.342D+00
 Coeff:      0.658D+00 0.342D+00
 Gap=     0.186 Goal=   None    Shift=    0.000
 RMSDP=4.26D-06 MaxDP=1.55D-04 DE= 9.02D-07 OVMax= 3.89D-04

 Cycle  11  Pass 1  IDiag  1:
 E= -809.119864250237     Delta-E=       -0.000001332182 Rises=F Damp=F
 DIIS: error= 8.46D-06 at cycle   3 NSaved=   3.
 NSaved= 3 IEnMin= 3 EnMin= -809.119864250237     IErMin= 3 ErrMin= 8.46D-06
 ErrMax= 8.46D-06 EMaxC= 1.00D-01 BMatC= 2.62D-08 BMatP= 3.73D-07
 IDIUse=1 WtCom= 1.00D+00 WtEn= 0.00D+00
 Coeff-Com:  0.817D-01 0.136D+00 0.782D+00
 Coeff:      0.817D-01 0.136D+00 0.782D+00
 Gap=     0.186 Goal=   None    Shift=    0.000
 RMSDP=7.51D-07 MaxDP=2.86D-05 DE=-1.33D-06 OVMax= 4.92D-05

 Cycle  12  Pass 1  IDiag  1:
 E= -809.119864269310     Delta-E=       -0.000000019073 Rises=F Damp=F
 DIIS: error= 6.20D-06 at cycle   4 NSaved=   4.
 NSaved= 4 IEnMin= 4 EnMin= -809.119864269310     IErMin= 4 ErrMin= 6.20D-06
 ErrMax= 6.20D-06 EMaxC= 1.00D-01 BMatC= 1.07D-08 BMatP= 2.62D-08
 IDIUse=1 WtCom= 1.00D+00 WtEn= 0.00D+00
 Coeff-Com: -0.141D-02 0.597D-01 0.507D+00 0.435D+00
 Coeff:     -0.141D-02 0.597D-01 0.507D+00 0.435D+00
 Gap=     0.186 Goal=   None    Shift=    0.000
 RMSDP=3.29D-07 MaxDP=1.80D-05 DE=-1.91D-08 OVMax= 2.83D-05

 Cycle  13  Pass 1  IDiag  1:
 E= -809.119864277402     Delta-E=       -0.000000008092 Rises=F Damp=F
 DIIS: error= 1.74D-06 at cycle   5 NSaved=   5.
 NSaved= 5 IEnMin= 5 EnMin= -809.119864277402     IErMin= 5 ErrMin= 1.74D-06
 ErrMax= 1.74D-06 EMaxC= 1.00D-01 BMatC= 9.37D-10 BMatP= 1.07D-08
 IDIUse=1 WtCom= 1.00D+00 WtEn= 0.00D+00
 Coeff-Com: -0.100D-01 0.232D-01 0.242D+00 0.274D+00 0.470D+00
 Coeff:     -0.100D-01 0.232D-01 0.242D+00 0.274D+00 0.470D+00
 Gap=     0.186 Goal=   None    Shift=    0.000
 RMSDP=1.01D-07 MaxDP=5.55D-06 DE=-8.09D-09 OVMax= 7.57D-06

 Cycle  14  Pass 1  IDiag  1:
 E= -809.119864278135     Delta-E=       -0.000000000733 Rises=F Damp=F
 DIIS: error= 3.80D-07 at cycle   6 NSaved=   6.
 NSaved= 6 IEnMin= 6 EnMin= -809.119864278135     IErMin= 6 ErrMin= 3.80D-07
 ErrMax= 3.80D-07 EMaxC= 1.00D-01 BMatC= 6.01D-11 BMatP= 9.37D-10
 IDIUse=1 WtCom= 1.00D+00 WtEn= 0.00D+00
 Coeff-Com: -0.560D-02 0.901D-02 0.101D+00 0.126D+00 0.278D+00 0.491D+00
 Coeff:     -0.560D-02 0.901D-02 0.101D+00 0.126D+00 0.278D+00 0.491D+00
 Gap=     0.186 Goal=   None    Shift=    0.000
 RMSDP=2.57D-08 MaxDP=1.23D-06 DE=-7.33D-10 OVMax= 1.67D-06

 Cycle  15  Pass 1  IDiag  1:
 E= -809.119864278157     Delta-E=       -0.000000000023 Rises=F Damp=F
 DIIS: error= 7.40D-08 at cycle   7 NSaved=   7.
 NSaved= 7 IEnMin= 7 EnMin= -809.119864278157     IErMin= 7 ErrMin= 7.40D-08
 ErrMax= 7.40D-08 EMaxC= 1.00D-01 BMatC= 2.51D-12 BMatP= 6.01D-11
 IDIUse=1 WtCom= 1.00D+00 WtEn= 0.00D+00
 Coeff-Com: -0.183D-02 0.257D-02 0.294D-01 0.385D-01 0.941D-01 0.227D+00
 Coeff-Com:  0.610D+00
 Coeff:     -0.183D-02 0.257D-02 0.294D-01 0.385D-01 0.941D-01 0.227D+00
 Coeff:      0.610D+00
 Gap=     0.186 Goal=   None    Shift=    0.000
 RMSDP=6.54D-09 MaxDP=2.82D-07 DE=-2.27D-11 OVMax= 5.52D-07

 SCF Done:  E(RB3LYP) =  -809.119864278     A.U. after   15 cycles
             Convg  =    0.6543D-08             -V/T =  2.0098
 KE= 8.012299679351D+02 PE=-4.481560580741D+03 EE= 1.569651944013D+03
 Leave Link  502 at Wed Sep 29 02:46:34 2021, MaxMem= 1610612736 cpu:     486.5
 (Enter /sw/target/amd/app/gaussian/Gaussian09RevA.02_gcc-4.9.2/g09/l508.exe)
 QCSCF skips out because SCF is already converged.
 Leave Link  508 at Wed Sep 29 02:46:37 2021, MaxMem= 1610612736 cpu:       0.0
 (Enter /sw/target/amd/app/gaussian/Gaussian09RevA.02_gcc-4.9.2/g09/l601.exe)
 Copying SCF densities to generalized density rwf, IOpCl= 0 IROHF=0.

 **********************************************************************

            Population analysis using the SCF density.

 **********************************************************************

 Orbital symmetries:
       Occupied  (A) (A) (A) (A) (A) (A) (A) (A) (A) (A) (A) (A)
                 (A) (A) (A) (A) (A) (A) (A) (A) (A) (A) (A) (A)
                 (A) (A) (A) (A) (A) (A) (A) (A) (A) (A) (A) (A)
                 (A) (A) (A) (A) (A) (A) (A) (A) (A) (A) (A) (A)
                 (A) (A) (A) (A) (A) (A) (A) (A) (A) (A) (A) (A)
                 (A) (A) (A) (A) (A) (A) (A) (A)
       Virtual   (A) (A) (A) (A) (A) (A) (A) (A) (A) (A) (A) (A)
                 (A) (A) (A) (A) (A) (A) (A) (A) (A) (A) (A) (A)
                 (A) (A) (A) (A) (A) (A) (A) (A) (A) (A) (A) (A)
                 (A) (A) (A) (A) (A) (A) (A) (A) (A) (A) (A) (A)
                 (A) (A) (A) (A) (A) (A) (A) (A) (A) (A) (A) (A)
                 (A) (A) (A) (A) (A) (A) (A) (A) (A) (A) (A) (A)
                 (A) (A) (A) (A) (A) (A) (A) (A) (A) (A) (A) (A)
                 (A) (A) (A) (A) (A) (A) (A) (A) (A) (A) (A) (A)
                 (A) (A) (A) (A) (A) (A) (A) (A) (A) (A) (A) (A)
                 (A) (A) (A) (A) (A) (A) (A) (A) (A) (A) (A) (A)
                 (A) (A) (A) (A) (A) (A) (A) (A) (A) (A) (A) (A)
                 (A) (A) (A) (A) (A) (A) (A) (A) (A) (A) (A) (A)
                 (A) (A) (A) (A) (A) (A) (A) (A) (A) (A) (A) (A)
                 (A) (A) (A) (A) (A) (A) (A) (A) (A) (A) (A) (A)
                 (A) (A) (A) (A) (A) (A) (A) (A) (A) (A) (A) (A)
                 (A) (A) (A) (A) (A) (A) (A) (A) (A) (A) (A) (A)
                 (A) (A) (A) (A) (A) (A) (A) (A) (A) (A) (A) (A)
                 (A) (A) (A) (A) (A) (A) (A) (A) (A) (A) (A) (A)
                 (A) (A) (A) (A) (A) (A) (A) (A) (A) (A) (A) (A)
                 (A) (A) (A) (A) (A) (A) (A) (A) (A) (A) (A) (A)
                 (A) (A) (A) (A) (A) (A) (A) (A) (A) (A) (A) (A)
                 (A)
 The electronic state is 1-A.
 Alpha  occ. eigenvalues --  -19.20643 -19.14635 -10.32419 -10.25419 -10.21501
 Alpha  occ. eigenvalues --  -10.20255 -10.20158 -10.19677 -10.19585 -10.19462
 Alpha  occ. eigenvalues --  -10.19184 -10.19029 -10.19023 -10.18961 -10.18950
 Alpha  occ. eigenvalues --  -10.18794 -10.18490 -10.17905 -10.17682  -1.09880
 Alpha  occ. eigenvalues --   -1.02143  -0.86743  -0.84707  -0.82661  -0.77783
 Alpha  occ. eigenvalues --   -0.75239  -0.74105  -0.72682  -0.69441  -0.68745
 Alpha  occ. eigenvalues --   -0.66206  -0.62472  -0.60938  -0.59522  -0.57946
 Alpha  occ. eigenvalues --   -0.55483  -0.52512  -0.49259  -0.48698  -0.48047
 Alpha  occ. eigenvalues --   -0.47237  -0.45739  -0.44703  -0.44299  -0.43719
 Alpha  occ. eigenvalues --   -0.43333  -0.42956  -0.42666  -0.41529  -0.39977
 Alpha  occ. eigenvalues --   -0.39577  -0.38955  -0.38195  -0.37525  -0.36839
 Alpha  occ. eigenvalues --   -0.36233  -0.36033  -0.35175  -0.34147  -0.33827
 Alpha  occ. eigenvalues --   -0.33574  -0.33301  -0.32212  -0.27364  -0.26928
 Alpha  occ. eigenvalues --   -0.25291  -0.24831  -0.21856
 Alpha virt. eigenvalues --   -0.03281  -0.00867  -0.00203   0.00142   0.03889
 Alpha virt. eigenvalues --    0.08267   0.09005   0.09908   0.12383   0.12459
 Alpha virt. eigenvalues --    0.14146   0.14506   0.14698   0.14958   0.15413
 Alpha virt. eigenvalues --    0.15927   0.16137   0.17037   0.17755   0.18096
 Alpha virt. eigenvalues --    0.18521   0.18622   0.19576   0.19898   0.21571
 Alpha virt. eigenvalues --    0.22027   0.22889   0.23410   0.24019   0.24437
 Alpha virt. eigenvalues --    0.26193   0.28312   0.28956   0.30310   0.30604
 Alpha virt. eigenvalues --    0.32137   0.34103   0.36028   0.37058   0.37710
 Alpha virt. eigenvalues --    0.39146   0.46158   0.48791   0.49781   0.50246
 Alpha virt. eigenvalues --    0.50778   0.51371   0.52047   0.53265   0.53926
 Alpha virt. eigenvalues --    0.54521   0.54561   0.55494   0.56741   0.56903
 Alpha virt. eigenvalues --    0.57509   0.58178   0.58995   0.59529   0.60079
 Alpha virt. eigenvalues --    0.60208   0.60561   0.60839   0.61429   0.61855
 Alpha virt. eigenvalues --    0.62605   0.62920   0.63875   0.65130   0.65832
 Alpha virt. eigenvalues --    0.66206   0.67470   0.68557   0.69532   0.69892
 Alpha virt. eigenvalues --    0.70832   0.72202   0.72917   0.76453   0.77613
 Alpha virt. eigenvalues --    0.78494   0.79865   0.81675   0.82744   0.83202
 Alpha virt. eigenvalues --    0.84126   0.84351   0.84645   0.85404   0.86272
 Alpha virt. eigenvalues --    0.87259   0.87459   0.88011   0.88734   0.89640
 Alpha virt. eigenvalues --    0.89899   0.90897   0.91486   0.92484   0.92821
 Alpha virt. eigenvalues --    0.93146   0.93700   0.94699   0.96138   0.96762
 Alpha virt. eigenvalues --    0.97512   0.98445   0.98700   0.99294   1.00388
 Alpha virt. eigenvalues --    1.02392   1.03069   1.03737   1.07278   1.08433
 Alpha virt. eigenvalues --    1.11032   1.12054   1.13225   1.15296   1.15996
 Alpha virt. eigenvalues --    1.16950   1.18354   1.19245   1.19620   1.22914
 Alpha virt. eigenvalues --    1.25727   1.26977   1.28635   1.31815   1.33732
 Alpha virt. eigenvalues --    1.35147   1.39750   1.40686   1.42639   1.43191
 Alpha virt. eigenvalues --    1.44077   1.46661   1.47536   1.48643   1.49710
 Alpha virt. eigenvalues --    1.50034   1.50364   1.51141   1.51758   1.52121
 Alpha virt. eigenvalues --    1.53800   1.60214   1.63861   1.65053   1.67387
 Alpha virt. eigenvalues --    1.70465   1.71962   1.74722   1.75976   1.76994
 Alpha virt. eigenvalues --    1.78293   1.79071   1.82049   1.82369   1.83147
 Alpha virt. eigenvalues --    1.84684   1.86321   1.87094   1.88097   1.89903
 Alpha virt. eigenvalues --    1.90880   1.91892   1.93141   1.94904   1.95870
 Alpha virt. eigenvalues --    1.97488   1.98591   1.98977   2.00573   2.02649
 Alpha virt. eigenvalues --    2.04841   2.05286   2.06271   2.08005   2.09964
 Alpha virt. eigenvalues --    2.10255   2.11636   2.12044   2.14628   2.15284
 Alpha virt. eigenvalues --    2.15730   2.16379   2.19681   2.21203   2.23314
 Alpha virt. eigenvalues --    2.24736   2.25752   2.26283   2.26558   2.27891
 Alpha virt. eigenvalues --    2.28439   2.30371   2.30896   2.31176   2.33675
 Alpha virt. eigenvalues --    2.35056   2.38843   2.39267   2.44293   2.47540
 Alpha virt. eigenvalues --    2.52715   2.54286   2.56491   2.57834   2.59079
 Alpha virt. eigenvalues --    2.60724   2.61782   2.62221   2.64702   2.66185
 Alpha virt. eigenvalues --    2.67585   2.70408   2.72092   2.73747   2.74688
 Alpha virt. eigenvalues --    2.76093   2.77381   2.79380   2.81421   2.83716
 Alpha virt. eigenvalues --    2.88783   2.96658   2.97175   2.98408   3.07267
 Alpha virt. eigenvalues --    3.17252   3.28657   3.36764   3.46702   4.07122
 Alpha virt. eigenvalues --    4.08424   4.09668   4.11576   4.12039   4.12527
 Alpha virt. eigenvalues --    4.17513   4.17771   4.29257   4.31409   4.32535
 Alpha virt. eigenvalues --    4.33202   4.33637   4.35700   4.45476   4.49473
 Alpha virt. eigenvalues --    4.66366   4.72546   4.80363
          Condensed to atoms (all electrons):
              1          2          3          4          5          6
     1  O    8.069974   0.522507  -0.076209  -0.002496   0.002660   0.000066
     2  C    0.522507   4.403432   0.356415  -0.037555  -0.044276  -0.047064
     3  C   -0.076209   0.356415   4.975999   0.372501   0.351881   0.371692
     4  C   -0.002496  -0.037555   0.372501   5.127007  -0.054547  -0.053632
     5  C    0.002660  -0.044276   0.351881  -0.054547   5.159363  -0.066581
     6  C    0.000066  -0.047064   0.371692  -0.053632  -0.066581   5.134706
     7  O   -0.064683   0.229240  -0.092371  -0.001266   0.000226   0.002820
     8  C   -0.001708  -0.009236   0.004195  -0.000181  -0.000084  -0.000056
     9  C   -0.001629  -0.002023   0.000393  -0.000007  -0.000078  -0.000009
    10  C    0.000106   0.000340   0.000004   0.000000  -0.000001  -0.000000
    11  C    0.000002   0.000018   0.000000   0.000000   0.000000   0.000000
    12  C   -0.000000  -0.000045   0.000004  -0.000000  -0.000000  -0.000000
    13  C    0.000213   0.001111  -0.000459   0.000023  -0.000003   0.000002
    14  C    0.000000   0.000000   0.000000  -0.000000   0.000000   0.000000
    15  C   -0.000000   0.000000   0.000000   0.000000  -0.000000  -0.000000
    16  C   -0.000000  -0.000000   0.000000   0.000000   0.000000  -0.000000
    17  C    0.000000   0.000000  -0.000000  -0.000000   0.000000   0.000000
    18  C   -0.000000   0.000000   0.000000  -0.000000  -0.000000   0.000000
    19  C    0.000000  -0.000000  -0.000000   0.000000  -0.000000  -0.000000
    20  H   -0.000102  -0.005132  -0.030810   0.366861  -0.004893   0.005791
    21  H    0.002608  -0.003354  -0.031186   0.368266   0.005909  -0.005205
    22  H   -0.000048   0.004384  -0.030305   0.372983  -0.005433  -0.004642
    23  H   -0.000002  -0.007118  -0.023392  -0.004567   0.364912   0.005561
    24  H   -0.000055   0.004025  -0.026066  -0.004509   0.363002  -0.005832
    25  H    0.000088  -0.003068  -0.033096   0.005293   0.372025  -0.002887
    26  H    0.006363  -0.006089  -0.025302  -0.004541   0.005752   0.366874
    27  H    0.000971  -0.003787  -0.031097   0.005336  -0.003381   0.371259
    28  H    0.000396   0.005119  -0.029404  -0.004466  -0.005319   0.365104
    29  H    0.010607   0.001985  -0.000042   0.000006  -0.000029   0.000017
    30  H   -0.000008  -0.000012  -0.000000  -0.000000   0.000000   0.000000
    31  H   -0.000000   0.000000  -0.000000   0.000000   0.000000   0.000000
    32  H    0.000010  -0.000061  -0.000006  -0.000004  -0.000022   0.000001
    33  H   -0.000000  -0.000000  -0.000000   0.000000   0.000000  -0.000000
    34  H   -0.000000   0.000000  -0.000000  -0.000000  -0.000000   0.000000
    35  H    0.000000  -0.000000  -0.000000  -0.000000   0.000000   0.000000
    36  H   -0.000000  -0.000000  -0.000000   0.000000   0.000000  -0.000000
    37  H    0.000000   0.000000  -0.000000  -0.000000  -0.000000   0.000000
              7          8          9         10         11         12
     1  O   -0.064683  -0.001708  -0.001629   0.000106   0.000002  -0.000000
     2  C    0.229240  -0.009236  -0.002023   0.000340   0.000018  -0.000045
     3  C   -0.092371   0.004195   0.000393   0.000004   0.000000   0.000004
     4  C   -0.001266  -0.000181  -0.000007   0.000000   0.000000  -0.000000
     5  C    0.000226  -0.000084  -0.000078  -0.000001   0.000000  -0.000000
     6  C    0.002820  -0.000056  -0.000009  -0.000000   0.000000  -0.000000
     7  O    8.353813   0.201409  -0.048576   0.003511   0.000108   0.003221
     8  C    0.201409   4.525955   0.510826  -0.011819  -0.030518  -0.018061
     9  C   -0.048576   0.510826   5.019545   0.473672  -0.019231  -0.041234
    10  C    0.003511  -0.011819   0.473672   5.041846   0.512680  -0.057994
    11  C    0.000108  -0.030518  -0.019231   0.512680   4.767379   0.513323
    12  C    0.003221  -0.018061  -0.041234  -0.057994   0.513323   5.025120
    13  C   -0.048532   0.539240  -0.066366  -0.041523  -0.019774   0.490991
    14  C   -0.000000   0.000527   0.005777  -0.045319   0.347207  -0.045792
    15  C    0.000000  -0.000003   0.000395  -0.014660  -0.047082   0.006503
    16  C    0.000000   0.000000  -0.000004   0.000367   0.005619  -0.000160
    17  C   -0.000000   0.000000  -0.000000   0.000000   0.000612   0.000001
    18  C    0.000000   0.000000   0.000001  -0.000163   0.005779   0.000333
    19  C   -0.000000  -0.000003  -0.000156   0.006249  -0.047253  -0.014299
    20  H    0.003752  -0.000014   0.000005  -0.000000   0.000000   0.000000
    21  H    0.000030  -0.000006  -0.000001  -0.000000  -0.000000  -0.000000
    22  H   -0.000059   0.000005   0.000000  -0.000000   0.000000   0.000000
    23  H    0.005270   0.000205   0.000023  -0.000001   0.000000   0.000000
    24  H    0.000435  -0.000003   0.000001   0.000000  -0.000000   0.000000
    25  H    0.001121  -0.000035  -0.000001   0.000000   0.000000  -0.000000
    26  H    0.000078  -0.000005   0.000001   0.000000  -0.000000   0.000000
    27  H    0.000050  -0.000007  -0.000005   0.000000   0.000000  -0.000000
    28  H   -0.000041   0.000001   0.000000   0.000000  -0.000000   0.000000
    29  H   -0.006960  -0.033858   0.350359  -0.035882   0.003302   0.000479
    30  H   -0.000050   0.003418  -0.039406   0.349732  -0.038086   0.005974
    31  H   -0.000057   0.003948   0.000198   0.006267  -0.037803   0.350283
    32  H   -0.000956  -0.037501   0.006664   0.000276   0.003443  -0.037166
    33  H   -0.000000  -0.000008   0.000049   0.005211  -0.010582  -0.000071
    34  H   -0.000000  -0.000000  -0.000000   0.000000  -0.000167   0.000001
    35  H   -0.000000  -0.000000   0.000000  -0.000000   0.000006  -0.000000
    36  H   -0.000000  -0.000000  -0.000000   0.000001  -0.000171  -0.000001
    37  H   -0.000000  -0.000008  -0.000002  -0.000079  -0.010783   0.005544
             13         14         15         16         17         18
     1  O    0.000213   0.000000  -0.000000  -0.000000   0.000000  -0.000000
     2  C    0.001111   0.000000   0.000000  -0.000000   0.000000   0.000000
     3  C   -0.000459   0.000000   0.000000   0.000000  -0.000000   0.000000
     4  C    0.000023  -0.000000   0.000000   0.000000  -0.000000  -0.000000
     5  C   -0.000003   0.000000  -0.000000   0.000000   0.000000  -0.000000
     6  C    0.000002   0.000000  -0.000000  -0.000000   0.000000   0.000000
     7  O   -0.048532  -0.000000   0.000000   0.000000  -0.000000   0.000000
     8  C    0.539240   0.000527  -0.000003   0.000000   0.000000   0.000000
     9  C   -0.066366   0.005777   0.000395  -0.000004  -0.000000   0.000001
    10  C   -0.041523  -0.045319  -0.014660   0.000367   0.000000  -0.000163
    11  C   -0.019774   0.347207  -0.047082   0.005619   0.000612   0.005779
    12  C    0.490991  -0.045792   0.006503  -0.000160   0.000001   0.000333
    13  C    5.005959   0.005380  -0.000158   0.000002  -0.000000  -0.000003
    14  C    0.005380   4.754127   0.516225  -0.014085  -0.032896  -0.014498
    15  C   -0.000158   0.516225   5.020991   0.514868  -0.036428  -0.043806
    16  C    0.000002  -0.014085   0.514868   4.869217   0.551409  -0.028015
    17  C   -0.000000  -0.032896  -0.036428   0.551409   4.846334   0.551896
    18  C   -0.000003  -0.014498  -0.043806  -0.028015   0.551896   4.868428
    19  C    0.000370   0.518921  -0.063390  -0.043429  -0.036452   0.515913
    20  H   -0.000003   0.000000  -0.000000  -0.000000   0.000000   0.000000
    21  H   -0.000000  -0.000000   0.000000  -0.000000  -0.000000  -0.000000
    22  H   -0.000000  -0.000000  -0.000000  -0.000000   0.000000   0.000000
    23  H    0.000005   0.000000   0.000000  -0.000000  -0.000000   0.000000
    24  H   -0.000001  -0.000000   0.000000   0.000000   0.000000  -0.000000
    25  H   -0.000001   0.000000   0.000000   0.000000   0.000000  -0.000000
    26  H   -0.000000  -0.000000   0.000000  -0.000000   0.000000  -0.000000
    27  H    0.000000  -0.000000   0.000000   0.000000  -0.000000  -0.000000
    28  H   -0.000000  -0.000000   0.000000   0.000000   0.000000  -0.000000
    29  H    0.005151  -0.000148  -0.000001  -0.000000  -0.000000  -0.000000
    30  H    0.000506  -0.010276   0.005648   0.000030  -0.000005  -0.000005
    31  H   -0.041572  -0.010043  -0.000085  -0.000003  -0.000004   0.000014
    32  H    0.346745  -0.000137   0.000001  -0.000000  -0.000000  -0.000000
    33  H   -0.000003  -0.040477   0.349839  -0.044902   0.004936   0.000382
    34  H   -0.000000   0.003293  -0.038424   0.357660  -0.043239   0.004718
    35  H    0.000000   0.000661   0.004911  -0.043655   0.358099  -0.043634
    36  H   -0.000000   0.003347   0.000803   0.004726  -0.043274   0.357592
    37  H    0.000035  -0.040660   0.006221   0.000371   0.004924  -0.044928
             19         20         21         22         23         24
     1  O    0.000000  -0.000102   0.002608  -0.000048  -0.000002  -0.000055
     2  C   -0.000000  -0.005132  -0.003354   0.004384  -0.007118   0.004025
     3  C   -0.000000  -0.030810  -0.031186  -0.030305  -0.023392  -0.026066
     4  C    0.000000   0.366861   0.368266   0.372983  -0.004567  -0.004509
     5  C   -0.000000  -0.004893   0.005909  -0.005433   0.364912   0.363002
     6  C   -0.000000   0.005791  -0.005205  -0.004642   0.005561  -0.005832
     7  O   -0.000000   0.003752   0.000030  -0.000059   0.005270   0.000435
     8  C   -0.000003  -0.000014  -0.000006   0.000005   0.000205  -0.000003
     9  C   -0.000156   0.000005  -0.000001   0.000000   0.000023   0.000001
    10  C    0.006249  -0.000000  -0.000000  -0.000000  -0.000001   0.000000
    11  C   -0.047253   0.000000  -0.000000   0.000000   0.000000  -0.000000
    12  C   -0.014299   0.000000  -0.000000   0.000000   0.000000   0.000000
    13  C    0.000370  -0.000003  -0.000000  -0.000000   0.000005  -0.000001
    14  C    0.518921   0.000000  -0.000000  -0.000000   0.000000  -0.000000
    15  C   -0.063390  -0.000000   0.000000  -0.000000   0.000000   0.000000
    16  C   -0.043429  -0.000000  -0.000000  -0.000000  -0.000000   0.000000
    17  C   -0.036452   0.000000  -0.000000   0.000000  -0.000000   0.000000
    18  C    0.515913   0.000000  -0.000000   0.000000   0.000000  -0.000000
    19  C    5.016348   0.000000  -0.000000  -0.000000   0.000000  -0.000000
    20  H    0.000000   0.564469  -0.029675  -0.028618   0.004228  -0.000162
    21  H   -0.000000  -0.029675   0.556001  -0.028626  -0.000051  -0.000084
    22  H   -0.000000  -0.028618  -0.028626   0.560932  -0.000131   0.003472
    23  H    0.000000   0.004228  -0.000051  -0.000131   0.555346  -0.030121
    24  H   -0.000000  -0.000162  -0.000084   0.003472  -0.030121   0.579362
    25  H   -0.000000  -0.000055  -0.000187  -0.000005  -0.028157  -0.029615
    26  H   -0.000000  -0.000040   0.004459  -0.000251  -0.000196   0.000006
    27  H   -0.000000  -0.000193  -0.000042  -0.000013  -0.000056  -0.000176
    28  H    0.000000  -0.000044  -0.000145   0.003087   0.000008   0.003407
    29  H    0.000001   0.000000  -0.000001  -0.000000   0.000000   0.000000
    30  H   -0.000065   0.000000   0.000000   0.000000   0.000000   0.000000
    31  H    0.005282  -0.000000   0.000000  -0.000000  -0.000000  -0.000000
    32  H   -0.000001   0.000077  -0.000001  -0.000000   0.000153   0.000000
    33  H    0.006150   0.000000   0.000000  -0.000000  -0.000000   0.000000
    34  H    0.000797   0.000000  -0.000000   0.000000   0.000000  -0.000000
    35  H    0.004895   0.000000  -0.000000   0.000000  -0.000000   0.000000
    36  H   -0.038627  -0.000000   0.000000  -0.000000  -0.000000   0.000000
    37  H    0.349795   0.000000  -0.000000   0.000000   0.000000  -0.000000
             25         26         27         28         29         30
     1  O    0.000088   0.006363   0.000971   0.000396   0.010607  -0.000008
     2  C   -0.003068  -0.006089  -0.003787   0.005119   0.001985  -0.000012
     3  C   -0.033096  -0.025302  -0.031097  -0.029404  -0.000042  -0.000000
     4  C    0.005293  -0.004541   0.005336  -0.004466   0.000006  -0.000000
     5  C    0.372025   0.005752  -0.003381  -0.005319  -0.000029   0.000000
     6  C   -0.002887   0.366874   0.371259   0.365104   0.000017   0.000000
     7  O    0.001121   0.000078   0.000050  -0.000041  -0.006960  -0.000050
     8  C   -0.000035  -0.000005  -0.000007   0.000001  -0.033858   0.003418
     9  C   -0.000001   0.000001  -0.000005   0.000000   0.350359  -0.039406
    10  C    0.000000   0.000000   0.000000   0.000000  -0.035882   0.349732
    11  C    0.000000  -0.000000   0.000000  -0.000000   0.003302  -0.038086
    12  C   -0.000000   0.000000  -0.000000   0.000000   0.000479   0.005974
    13  C   -0.000001  -0.000000   0.000000  -0.000000   0.005151   0.000506
    14  C    0.000000  -0.000000  -0.000000  -0.000000  -0.000148  -0.010276
    15  C    0.000000   0.000000   0.000000   0.000000  -0.000001   0.005648
    16  C    0.000000  -0.000000   0.000000   0.000000  -0.000000   0.000030
    17  C    0.000000   0.000000  -0.000000   0.000000  -0.000000  -0.000005
    18  C   -0.000000  -0.000000  -0.000000  -0.000000  -0.000000  -0.000005
    19  C   -0.000000  -0.000000  -0.000000   0.000000   0.000001  -0.000065
    20  H   -0.000055  -0.000040  -0.000193  -0.000044   0.000000   0.000000
    21  H   -0.000187   0.004459  -0.000042  -0.000145  -0.000001   0.000000
    22  H   -0.000005  -0.000251  -0.000013   0.003087  -0.000000   0.000000
    23  H   -0.028157  -0.000196  -0.000056   0.000008   0.000000   0.000000
    24  H   -0.029615   0.000006  -0.000176   0.003407   0.000000   0.000000
    25  H    0.567988  -0.000066   0.003514  -0.000140   0.000012  -0.000000
    26  H   -0.000066   0.546114  -0.027347  -0.029813  -0.000003   0.000000
    27  H    0.003514  -0.027347   0.567904  -0.029985   0.000016  -0.000000
    28  H   -0.000140  -0.029813  -0.029985   0.581036   0.000000  -0.000000
    29  H    0.000012  -0.000003   0.000016   0.000000   0.545414  -0.005681
    30  H   -0.000000   0.000000  -0.000000  -0.000000  -0.005681   0.585523
    31  H    0.000000   0.000000   0.000000  -0.000000   0.000012  -0.000169
    32  H    0.000000  -0.000000  -0.000000  -0.000000  -0.000149   0.000016
    33  H    0.000000   0.000000   0.000000  -0.000000   0.000005   0.003240
    34  H   -0.000000   0.000000  -0.000000  -0.000000   0.000000   0.000005
    35  H    0.000000   0.000000  -0.000000   0.000000  -0.000000  -0.000000
[...]
    63    C    5  S      Ryd( 3S)     0.00059
    64    C    5  S      Ryd( 4S)     0.00002
    65    C    5  px     Val( 2p)     1.24352
    66    C    5  px     Ryd( 3p)     0.00192
    67    C    5  py     Val( 2p)     1.22250
    68    C    5  py     Ryd( 3p)     0.00222
    69    C    5  pz     Val( 2p)     1.09829
    70    C    5  pz     Ryd( 3p)     0.00163
    71    C    5  dxy    Ryd( 3d)     0.00028
    72    C    5  dxz    Ryd( 3d)     0.00080
    73    C    5  dyz    Ryd( 3d)     0.00048
    74    C    5  dx2y2  Ryd( 3d)     0.00111
    75    C    5  dz2    Ryd( 3d)     0.00071

    76    C    6  S      Cor( 1S)     1.99939
    77    C    6  S      Val( 2S)     1.09033
    78    C    6  S      Ryd( 3S)     0.00058
    79    C    6  S      Ryd( 4S)     0.00002
    80    C    6  px     Val( 2p)     1.16878
    81    C    6  px     Ryd( 3p)     0.00252
    82    C    6  py     Val( 2p)     1.22280
    83    C    6  py     Ryd( 3p)     0.00244
    84    C    6  pz     Val( 2p)     1.17583
    85    C    6  pz     Ryd( 3p)     0.00217
    86    C    6  dxy    Ryd( 3d)     0.00026
    87    C    6  dxz    Ryd( 3d)     0.00047
    88    C    6  dyz    Ryd( 3d)     0.00046
    89    C    6  dx2y2  Ryd( 3d)     0.00118
    90    C    6  dz2    Ryd( 3d)     0.00096

    91    O    7  S      Cor( 1S)     1.99970
    92    O    7  S      Val( 2S)     1.59748
    93    O    7  S      Ryd( 3S)     0.00141
    94    O    7  S      Ryd( 4S)     0.00009
    95    O    7  px     Val( 2p)     1.43521
    96    O    7  px     Ryd( 3p)     0.00094
    97    O    7  py     Val( 2p)     1.78877
    98    O    7  py     Ryd( 3p)     0.00238
    99    O    7  pz     Val( 2p)     1.68996
   100    O    7  pz     Ryd( 3p)     0.00130
   101    O    7  dxy    Ryd( 3d)     0.00063
   102    O    7  dxz    Ryd( 3d)     0.00121
   103    O    7  dyz    Ryd( 3d)     0.00107
   104    O    7  dx2y2  Ryd( 3d)     0.00092
   105    O    7  dz2    Ryd( 3d)     0.00135

   106    C    8  S      Cor( 1S)     1.99870
   107    C    8  S      Val( 2S)     0.83996
   108    C    8  S      Ryd( 3S)     0.00126
   109    C    8  S      Ryd( 4S)     0.00012
   110    C    8  px     Val( 2p)     0.74211
   111    C    8  px     Ryd( 3p)     0.00669
   112    C    8  py     Val( 2p)     1.07521
   113    C    8  py     Ryd( 3p)     0.00498
   114    C    8  pz     Val( 2p)     1.00587
   115    C    8  pz     Ryd( 3p)     0.00512
   116    C    8  dxy    Ryd( 3d)     0.00148
   117    C    8  dxz    Ryd( 3d)     0.00137
   118    C    8  dyz    Ryd( 3d)     0.00067
   119    C    8  dx2y2  Ryd( 3d)     0.00166
   120    C    8  dz2    Ryd( 3d)     0.00055

   121    C    9  S      Cor( 1S)     1.99902
   122    C    9  S      Val( 2S)     0.96773
   123    C    9  S      Ryd( 3S)     0.00082
   124    C    9  S      Ryd( 4S)     0.00005
   125    C    9  px     Val( 2p)     1.10999
   126    C    9  px     Ryd( 3p)     0.00463
   127    C    9  py     Val( 2p)     1.16366
   128    C    9  py     Ryd( 3p)     0.00468
   129    C    9  pz     Val( 2p)     1.00438
   130    C    9  pz     Ryd( 3p)     0.00213
   131    C    9  dxy    Ryd( 3d)     0.00085
   132    C    9  dxz    Ryd( 3d)     0.00060
   133    C    9  dyz    Ryd( 3d)     0.00052
   134    C    9  dx2y2  Ryd( 3d)     0.00058
   135    C    9  dz2    Ryd( 3d)     0.00047

   136    C   10  S      Cor( 1S)     1.99907
   137    C   10  S      Val( 2S)     0.95524
   138    C   10  S      Ryd( 3S)     0.00067
   139    C   10  S      Ryd( 4S)     0.00006
   140    C   10  px     Val( 2p)     1.08391
   141    C   10  px     Ryd( 3p)     0.00379
   142    C   10  py     Val( 2p)     1.15857
   143    C   10  py     Ryd( 3p)     0.00478
   144    C   10  pz     Val( 2p)     0.98673
   145    C   10  pz     Ryd( 3p)     0.00184
   146    C   10  dxy    Ryd( 3d)     0.00081
   147    C   10  dxz    Ryd( 3d)     0.00072
   148    C   10  dyz    Ryd( 3d)     0.00045
   149    C   10  dx2y2  Ryd( 3d)     0.00065
   150    C   10  dz2    Ryd( 3d)     0.00040

   151    C   11  S      Cor( 1S)     1.99901
   152    C   11  S      Val( 2S)     0.87649
   153    C   11  S      Ryd( 3S)     0.00057
   154    C   11  S      Ryd( 4S)     0.00006
   155    C   11  px     Val( 2p)     1.06753
   156    C   11  px     Ryd( 3p)     0.00461
   157    C   11  py     Val( 2p)     1.08572
   158    C   11  py     Ryd( 3p)     0.00523
   159    C   11  pz     Val( 2p)     0.99241
   160    C   11  pz     Ryd( 3p)     0.00306
   161    C   11  dxy    Ryd( 3d)     0.00081
   162    C   11  dxz    Ryd( 3d)     0.00075
   163    C   11  dyz    Ryd( 3d)     0.00054
   164    C   11  dx2y2  Ryd( 3d)     0.00067
   165    C   11  dz2    Ryd( 3d)     0.00037

   166    C   12  S      Cor( 1S)     1.99906
   167    C   12  S      Val( 2S)     0.95315
   168    C   12  S      Ryd( 3S)     0.00063
   169    C   12  S      Ryd( 4S)     0.00006
   170    C   12  px     Val( 2p)     1.09432
   171    C   12  px     Ryd( 3p)     0.00377
   172    C   12  py     Val( 2p)     1.14996
   173    C   12  py     Ryd( 3p)     0.00481
   174    C   12  pz     Val( 2p)     1.01021
   175    C   12  pz     Ryd( 3p)     0.00240
   176    C   12  dxy    Ryd( 3d)     0.00084
   177    C   12  dxz    Ryd( 3d)     0.00063
   178    C   12  dyz    Ryd( 3d)     0.00045
   179    C   12  dx2y2  Ryd( 3d)     0.00062
   180    C   12  dz2    Ryd( 3d)     0.00042

   181    C   13  S      Cor( 1S)     1.99902
   182    C   13  S      Val( 2S)     0.96775
   183    C   13  S      Ryd( 3S)     0.00079
   184    C   13  S      Ryd( 4S)     0.00005
   185    C   13  px     Val( 2p)     1.09707
   186    C   13  px     Ryd( 3p)     0.00509
   187    C   13  py     Val( 2p)     1.16024
   188    C   13  py     Ryd( 3p)     0.00469
   189    C   13  pz     Val( 2p)     1.00587
   190    C   13  pz     Ryd( 3p)     0.00155
   191    C   13  dxy    Ryd( 3d)     0.00086
   192    C   13  dxz    Ryd( 3d)     0.00069
   193    C   13  dyz    Ryd( 3d)     0.00052
   194    C   13  dx2y2  Ryd( 3d)     0.00055
   195    C   13  dz2    Ryd( 3d)     0.00042

   196    C   14  S      Cor( 1S)     1.99902
   197    C   14  S      Val( 2S)     0.87589
   198    C   14  S      Ryd( 3S)     0.00057
   199    C   14  S      Ryd( 4S)     0.00006
   200    C   14  px     Val( 2p)     1.06377
   201    C   14  px     Ryd( 3p)     0.00486
   202    C   14  py     Val( 2p)     1.07762
   203    C   14  py     Ryd( 3p)     0.00553
   204    C   14  pz     Val( 2p)     1.01689
   205    C   14  pz     Ryd( 3p)     0.00252
   206    C   14  dxy    Ryd( 3d)     0.00069
   207    C   14  dxz    Ryd( 3d)     0.00081
   208    C   14  dyz    Ryd( 3d)     0.00045
   209    C   14  dx2y2  Ryd( 3d)     0.00067
   210    C   14  dz2    Ryd( 3d)     0.00046

   211    C   15  S      Cor( 1S)     1.99905
   212    C   15  S      Val( 2S)     0.95418
   213    C   15  S      Ryd( 3S)     0.00062
   214    C   15  S      Ryd( 4S)     0.00005
   215    C   15  px     Val( 2p)     1.09804
   216    C   15  px     Ryd( 3p)     0.00378
   217    C   15  py     Val( 2p)     1.11423
   218    C   15  py     Ryd( 3p)     0.00415
   219    C   15  pz     Val( 2p)     1.03387
   220    C   15  pz     Ryd( 3p)     0.00254
   221    C   15  dxy    Ryd( 3d)     0.00078
   222    C   15  dxz    Ryd( 3d)     0.00068
   223    C   15  dyz    Ryd( 3d)     0.00055
   224    C   15  dx2y2  Ryd( 3d)     0.00056
   225    C   15  dz2    Ryd( 3d)     0.00035

   226    C   16  S      Cor( 1S)     1.99911
   227    C   16  S      Val( 2S)     0.96420
   228    C   16  S      Ryd( 3S)     0.00063
   229    C   16  S      Ryd( 4S)     0.00003
   230    C   16  px     Val( 2p)     1.09498
   231    C   16  px     Ryd( 3p)     0.00488
   232    C   16  py     Val( 2p)     1.13252
   233    C   16  py     Ryd( 3p)     0.00432
   234    C   16  pz     Val( 2p)     1.02695
   235    C   16  pz     Ryd( 3p)     0.00196
   236    C   16  dxy    Ryd( 3d)     0.00080
   237    C   16  dxz    Ryd( 3d)     0.00062
   238    C   16  dyz    Ryd( 3d)     0.00051
   239    C   16  dx2y2  Ryd( 3d)     0.00059
   240    C   16  dz2    Ryd( 3d)     0.00044

   241    C   17  S      Cor( 1S)     1.99909
   242    C   17  S      Val( 2S)     0.96493
   243    C   17  S      Ryd( 3S)     0.00053
   244    C   17  S      Ryd( 4S)     0.00003
   245    C   17  px     Val( 2p)     1.19310
   246    C   17  px     Ryd( 3p)     0.00472
   247    C   17  py     Val( 2p)     1.04415
   248    C   17  py     Ryd( 3p)     0.00441
   249    C   17  pz     Val( 2p)     1.01011
   250    C   17  pz     Ryd( 3p)     0.00359
   251    C   17  dxy    Ryd( 3d)     0.00058
   252    C   17  dxz    Ryd( 3d)     0.00041
   253    C   17  dyz    Ryd( 3d)     0.00044
   254    C   17  dx2y2  Ryd( 3d)     0.00086
   255    C   17  dz2    Ryd( 3d)     0.00053

   256    C   18  S      Cor( 1S)     1.99911
   257    C   18  S      Val( 2S)     0.96435
   258    C   18  S      Ryd( 3S)     0.00063
   259    C   18  S      Ryd( 4S)     0.00003
   260    C   18  px     Val( 2p)     1.09548
   261    C   18  px     Ryd( 3p)     0.00488
   262    C   18  py     Val( 2p)     1.12413
   263    C   18  py     Ryd( 3p)     0.00427
   264    C   18  pz     Val( 2p)     1.03292
   265    C   18  pz     Ryd( 3p)     0.00195
   266    C   18  dxy    Ryd( 3d)     0.00077
   267    C   18  dxz    Ryd( 3d)     0.00066
   268    C   18  dyz    Ryd( 3d)     0.00056
   269    C   18  dx2y2  Ryd( 3d)     0.00060
   270    C   18  dz2    Ryd( 3d)     0.00038

   271    C   19  S      Cor( 1S)     1.99905
   272    C   19  S      Val( 2S)     0.95393
   273    C   19  S      Ryd( 3S)     0.00063
   274    C   19  S      Ryd( 4S)     0.00005
   275    C   19  px     Val( 2p)     1.09450
   276    C   19  px     Ryd( 3p)     0.00373
   277    C   19  py     Val( 2p)     1.12526
   278    C   19  py     Ryd( 3p)     0.00425
   279    C   19  pz     Val( 2p)     1.02911
   280    C   19  pz     Ryd( 3p)     0.00262
   281    C   19  dxy    Ryd( 3d)     0.00081
   282    C   19  dxz    Ryd( 3d)     0.00064
   283    C   19  dyz    Ryd( 3d)     0.00051
   284    C   19  dx2y2  Ryd( 3d)     0.00055
   285    C   19  dz2    Ryd( 3d)     0.00040

   286    H   20  S      Val( 1S)     0.75973
   287    H   20  S      Ryd( 2S)     0.00119

   288    H   21  S      Val( 1S)     0.76375
   289    H   21  S      Ryd( 2S)     0.00096

   290    H   22  S      Val( 1S)     0.76729
   291    H   22  S      Ryd( 2S)     0.00122

   292    H   23  S      Val( 1S)     0.75798
   293    H   23  S      Ryd( 2S)     0.00107

   294    H   24  S      Val( 1S)     0.76708
   295    H   24  S      Ryd( 2S)     0.00145

   296    H   25  S      Val( 1S)     0.76479
   297    H   25  S      Ryd( 2S)     0.00098

   298    H   26  S      Val( 1S)     0.75625
   299    H   26  S      Ryd( 2S)     0.00107

   300    H   27  S      Val( 1S)     0.75733
   301    H   27  S      Ryd( 2S)     0.00107

   302    H   28  S      Val( 1S)     0.77146
   303    H   28  S      Ryd( 2S)     0.00097

   304    H   29  S      Val( 1S)     0.73693
   305    H   29  S      Ryd( 2S)     0.00126

   306    H   30  S      Val( 1S)     0.75689
   307    H   30  S      Ryd( 2S)     0.00126

   308    H   31  S      Val( 1S)     0.75811
   309    H   31  S      Ryd( 2S)     0.00127

   310    H   32  S      Val( 1S)     0.74813
   311    H   32  S      Ryd( 2S)     0.00120

   312    H   33  S      Val( 1S)     0.76288
   313    H   33  S      Ryd( 2S)     0.00132

   314    H   34  S      Val( 1S)     0.76047
   315    H   34  S      Ryd( 2S)     0.00089

   316    H   35  S      Val( 1S)     0.76405
   317    H   35  S      Ryd( 2S)     0.00106

   318    H   36  S      Val( 1S)     0.76046
   319    H   36  S      Ryd( 2S)     0.00089

   320    H   37  S      Val( 1S)     0.76251
   321    H   37  S      Ryd( 2S)     0.00137

 WARNING:  1 low occupancy (<1.9990e) core orbital  found on  C    8


 Summary of Natural Population Analysis:                  
                                                          
                                       Natural Population 
                Natural  -----------------------------------------------
    Atom  No    Charge         Core      Valence    Rydberg      Total
 -----------------------------------------------------------------------
      O    1   -0.59550      1.99977     6.57538    0.02035     8.59550
      C    2    0.78711      1.99928     3.16447    0.04915     5.21289
      C    3   -0.14805      1.99906     4.13630    0.01269     6.14805
      C    4   -0.66894      1.99938     4.65973    0.00983     6.66894
      C    5   -0.66952      1.99938     4.66038    0.00975     6.66952
      C    6   -0.66820      1.99939     4.65774    0.01107     6.66820
      O    7   -0.52242      1.99970     6.51142    0.01130     8.52242
      C    8    0.31426      1.99870     3.66315    0.02390     5.68574
      C    9   -0.26012      1.99902     4.24576    0.01534     6.26012
      C   10   -0.19771      1.99907     4.18446    0.01419     6.19771
      C   11   -0.03783      1.99901     4.02215    0.01666     6.03783
      C   12   -0.22132      1.99906     4.20764    0.01462     6.22132
      C   13   -0.24516      1.99902     4.23093    0.01520     6.24516
      C   14   -0.04981      1.99902     4.03417    0.01662     6.04981
      C   15   -0.21342      1.99905     4.20031    0.01406     6.21342
      C   16   -0.23255      1.99911     4.21865    0.01479     6.23255
      C   17   -0.22750      1.99909     4.21229    0.01611     6.22750
      C   18   -0.23073      1.99911     4.21687    0.01474     6.23073
      C   19   -0.21604      1.99905     4.20281    0.01418     6.21604
      H   20    0.23908      0.00000     0.75973    0.00119     0.76092
      H   21    0.23529      0.00000     0.76375    0.00096     0.76471
      H   22    0.23149      0.00000     0.76729    0.00122     0.76851
      H   23    0.24094      0.00000     0.75798    0.00107     0.75906
      H   24    0.23147      0.00000     0.76708    0.00145     0.76853
      H   25    0.23423      0.00000     0.76479    0.00098     0.76577
      H   26    0.24268      0.00000     0.75625    0.00107     0.75732
      H   27    0.24160      0.00000     0.75733    0.00107     0.75840
      H   28    0.22757      0.00000     0.77146    0.00097     0.77243
      H   29    0.26181      0.00000     0.73693    0.00126     0.73819
      H   30    0.24185      0.00000     0.75689    0.00126     0.75815
      H   31    0.24062      0.00000     0.75811    0.00127     0.75938
      H   32    0.25067      0.00000     0.74813    0.00120     0.74933
      H   33    0.23580      0.00000     0.76288    0.00132     0.76420
      H   34    0.23865      0.00000     0.76047    0.00089     0.76135
      H   35    0.23490      0.00000     0.76405    0.00106     0.76510
      H   36    0.23865      0.00000     0.76046    0.00089     0.76135
      H   37    0.23612      0.00000     0.76251    0.00137     0.76388
 =======================================================================
   * Total *    0.00000     37.98428    97.68069    0.33503   136.00000

                                 Natural Population      
 --------------------------------------------------------
   Core                      37.98428 ( 99.9586% of  38)
   Valence                   97.68069 ( 99.6742% of  98)
   Natural Minimal Basis    135.66497 ( 99.7537% of 136)
   Natural Rydberg Basis      0.33503 (  0.2463% of 136)
 --------------------------------------------------------

    Atom  No          Natural Electron Configuration
 ----------------------------------------------------------------------------
      O    1      [core]2S( 1.69)2p( 4.88)3d( 0.02)
      C    2      [core]2S( 0.77)2p( 2.39)3S( 0.01)3p( 0.03)3d( 0.01)
      C    3      [core]2S( 0.94)2p( 3.20)3p( 0.01)
      C    4      [core]2S( 1.10)2p( 3.56)3p( 0.01)
      C    5      [core]2S( 1.10)2p( 3.56)3p( 0.01)
      C    6      [core]2S( 1.09)2p( 3.57)3p( 0.01)
      O    7      [core]2S( 1.60)2p( 4.91)3d( 0.01)
      C    8      [core]2S( 0.84)2p( 2.82)3p( 0.02)3d( 0.01)
      C    9      [core]2S( 0.97)2p( 3.28)3p( 0.01)
      C   10      [core]2S( 0.96)2p( 3.23)3p( 0.01)
      C   11      [core]2S( 0.88)2p( 3.15)3p( 0.01)
      C   12      [core]2S( 0.95)2p( 3.25)3p( 0.01)
      C   13      [core]2S( 0.97)2p( 3.26)3p( 0.01)
      C   14      [core]2S( 0.88)2p( 3.16)3p( 0.01)
      C   15      [core]2S( 0.95)2p( 3.25)3p( 0.01)
      C   16      [core]2S( 0.96)2p( 3.25)3p( 0.01)
      C   17      [core]2S( 0.96)2p( 3.25)3p( 0.01)
      C   18      [core]2S( 0.96)2p( 3.25)3p( 0.01)
      C   19      [core]2S( 0.95)2p( 3.25)3p( 0.01)
      H   20            1S( 0.76)
      H   21            1S( 0.76)
      H   22            1S( 0.77)
      H   23            1S( 0.76)
      H   24            1S( 0.77)
      H   25            1S( 0.76)
      H   26            1S( 0.76)
      H   27            1S( 0.76)
      H   28            1S( 0.77)
      H   29            1S( 0.74)
      H   30            1S( 0.76)
      H   31            1S( 0.76)
      H   32            1S( 0.75)
      H   33            1S( 0.76)
      H   34            1S( 0.76)
      H   35            1S( 0.76)
      H   36            1S( 0.76)
      H   37            1S( 0.76)


 NBO analysis skipped by request.
 Leave Link  607 at Wed Sep 29 17:29:20 2021, MaxMem= 1610612736 cpu:      28.3
 (Enter /sw/target/amd/app/gaussian/Gaussian09RevA.02_gcc-4.9.2/g09/l9999.exe)
 1\1\GINC-HERMITE\SP\RTD-B3LYP-FC\6-31G(d)\C17H18O2\JSCHLEINITZ\29-Sep-
 2021\0\\#p TD(NStates=10, Root=1) b3lyp/6-31G* volume pop=NPA density=
 current Geom=AllCheck Guess=Read\\O=C(C(C)(C)C)Oc1ccc(cc1)c1ccccc1_con
 f_0\\0,1\O,0,3.1862449383,-0.7429321128,1.2898284772\C,0,2.667309479,-
 0.8986227847,0.2113303678\C,0,1.1605130537,-0.9532178943,-0.0624219358
 \C,0,0.7802168899,0.1841450231,-1.0369755314\C,0,0.8128345467,-2.32001
 99818,-0.6942888649\C,0,0.4156765334,-0.7794935383,1.2705345634\O,0,3.
 3736026415,-1.0513705871,-0.9569977657\C,0,4.768895363,-1.0354540363,-
 0.9653550495\C,0,5.5417845206,-1.7932723081,-0.0861331448\C,0,6.928298
 5633,-1.7774648161,-0.2199682138\C,0,7.5657316602,-1.0250625645,-1.220
 9556977\C,0,6.7569163346,-0.279326955,-2.0945118625\C,0,5.3702535709,-
 0.2802612462,-1.9698577449\C,0,9.0448790377,-1.0194373298,-1.352847293
 4\C,0,9.795312149,-2.186990303,-1.1322230871\C,0,11.1838324668,-2.1812
 892318,-1.2560688211\C,0,11.8542120216,-1.007788684,-1.6059646954\C,0,
 11.1225261923,0.1599929138,-1.8292662995\C,0,9.7342432881,0.1540795661
 ,-1.7029202841\H,0,1.2941988532,0.0766770212,-1.9960833599\H,0,1.03168
 18427,1.1656054348,-0.6186446034\H,0,-0.3001523026,0.1640532522,-1.220
 6400155\H,0,1.3327941988,-2.4646948783,-1.645332334\H,0,-0.2661920578,
 -2.3752173002,-0.8788672928\H,0,1.0809714086,-3.1463970765,-0.02574822
 97\H,0,0.658668124,0.1790931364,1.7386955332\H,0,0.6810821488,-1.56952
 66402,1.9794789958\H,0,-0.6657736168,-0.8173248507,1.0979578214\H,0,5.
 0711702208,-2.3681804971,0.7012879471\H,0,7.5289538665,-2.3439273402,0
 .4856636695\H,0,7.2164646428,0.2895822278,-2.8974696015\H,0,4.74522700
 61,0.2874346361,-2.6521069963\H,0,9.2821569179,-3.1126639374,-0.886393
 5807\H,0,11.742153876,-3.0985404249,-1.0877274491\H,0,12.9364656671,-1
 .0033117414,-1.703313497\H,0,11.6342598636,1.081868249,-2.0932659397\H
 ,0,9.1777845479,1.0754893067,-1.851117129\\Version=AM64L-G09RevA.02\St
 ate=1-A\HF=-809.1244533\RMSD=5.705e-09\Dipole=0.4182751,-0.1473805,-0.
 7710317\Quadrupole=7.9895079,0.2376004,-8.2271084,0.0449316,1.639395,-
 4.4302308\PG=C01 [X(C17H18O2)]\\@


 When cryptography is outlawed, bayl bhgynjf jvyy unir cevinpl.
 Job cpu time:  0 days  6 hours 22 minutes 55.6 seconds.
 File lengths (MBytes):  RWF=    336 Int=      0 D2E=      0 Chk=     46 Scr=      1
 Normal termination of Gaussian 09 at Wed Sep 29 17:29:26 2021.
