 Entering Gaussian System, Link 0=g09
 Input=C17H14O_cbb6_conf_0.com
 Output=C17H14O_cbb6_conf_0.log
 Initial command:
 /sw/target/amd/app/gaussian/Gaussian09RevA.02_gcc-4.9.2/g09/l1.exe /home/jschleinitz/gaussian/Gau-3301073.inp -scrdir=/home/jschleinitz/gaussian/
 Entering Link 1 = /sw/target/amd/app/gaussian/Gaussian09RevA.02_gcc-4.9.2/g09/l1.exe PID=   3301076.
  
 Copyright (c) 1988,1990,1992,1993,1995,1998,2003,2009, Gaussian, Inc.
                  All Rights Reserved.
  
 This is part of the Gaussian(R) 09 program.  It is based on
 the Gaussian(R) 03 system (copyright 2003, Gaussian, Inc.),
 the Gaussian(R) 98 system (copyright 1998, Gaussian, Inc.),
 the Gaussian(R) 94 system (copyright 1995, Gaussian, Inc.),
 the Gaussian 92(TM) system (copyright 1992, Gaussian, Inc.),
 the Gaussian 90(TM) system (copyright 1990, Gaussian, Inc.),
 the Gaussian 88(TM) system (copyright 1988, Gaussian, Inc.),
 the Gaussian 86(TM) system (copyright 1986, Carnegie Mellon
 University), and the Gaussian 82(TM) system (copyright 1983,
 Carnegie Mellon University). Gaussian is a federally registered
 trademark of Gaussian, Inc.
  
 This software contains proprietary and confidential information,
 including trade secrets, belonging to Gaussian, Inc.
  
 This software is provided under written license and may be
 used, copied, transmitted, or stored only in accord with that
 written license.
  
 The following legend is applicable only to US Government
 contracts under FAR:
  
                    RESTRICTED RIGHTS LEGEND
  
 Use, reproduction and disclosure by the US Government is
 subject to restrictions as set forth in subparagraphs (a)
 and (c) of the Commercial Computer Software - Restricted
 Rights clause in FAR 52.227-19.
  
 Gaussian, Inc.
 340 Quinnipiac St., Bldg. 40, Wallingford CT 06492
  
  
 ---------------------------------------------------------------
 Warning -- This program may not be used in any manner that
 competes with the business of Gaussian, Inc. or will provide
 assistance to any competitor of Gaussian, Inc.  The licensee
 of this program is prohibited from giving any competitor of
 Gaussian, Inc. access to this program.  By using this program,
 the user acknowledges that Gaussian, Inc. is engaged in the
 business of creating and licensing software in the field of
 computational chemistry and represents and warrants to the
 licensee that it is not a competitor of Gaussian, Inc. and that
 it will not use this program in any manner prohibited above.
 ---------------------------------------------------------------
  

 Cite this work as:
 Gaussian 09, Revision A.02,
 M. J. Frisch, G. W. Trucks, H. B. Schlegel, G. E. Scuseria, 
 M. A. Robb, J. R. Cheeseman, G. Scalmani, V. Barone, B. Mennucci, 
 G. A. Petersson, H. Nakatsuji, M. Caricato, X. Li, H. P. Hratchian, 
 A. F. Izmaylov, J. Bloino, G. Zheng, J. L. Sonnenberg, M. Hada, 
 M. Ehara, K. Toyota, R. Fukuda, J. Hasegawa, M. Ishida, T. Nakajima, 
 Y. Honda, O. Kitao, H. Nakai, T. Vreven, J. A. Montgomery, Jr., 
 J. E. Peralta, F. Ogliaro, M. Bearpark, J. J. Heyd, E. Brothers, 
 K. N. Kudin, V. N. Staroverov, R. Kobayashi, J. Normand, 
 K. Raghavachari, A. Rendell, J. C. Burant, S. S. Iyengar, J. Tomasi, 
 M. Cossi, N. Rega, J. M. Millam, M. Klene, J. E. Knox, J. B. Cross, 
 V. Bakken, C. Adamo, J. Jaramillo, R. Gomperts, R. E. Stratmann, 
 O. Yazyev, A. J. Austin, R. Cammi, C. Pomelli, J. W. Ochterski, 
 R. L. Martin, K. Morokuma, V. G. Zakrzewski, G. A. Voth, 
 P. Salvador, J. J. Dannenberg, S. Dapprich, A. D. Daniels, 
 O. Farkas, J. B. Foresman, J. V. Ortiz, J. Cioslowski, 
 and D. J. Fox, Gaussian, Inc., Wallingford CT, 2009.
 
 ******************************************
 Gaussian 09:  AM64L-G09RevA.02 11-Jun-2009
                28-Sep-2021 
 ******************************************
 %nproc=5
 Will use up to    5 processors via shared memory.
 %mem=10gb
 %chk=C17H14O_cbb6_conf_0.chk
 -----------------------------------
 #p opt b3lyp/6-31G* scf=(xqc,tight)
 -----------------------------------
 1/14=-1,18=20,19=15,26=3,38=1/1,3;
 2/9=110,12=2,17=6,18=5,40=1/2;
 3/5=1,6=6,7=1,11=2,16=1,25=1,30=1,71=1,74=-5/1,2,3;
 4//1;
 5/5=2,8=3,13=1,32=2,38=5/2,8;
 6/7=2,8=2,9=2,10=2,28=1/1;
 7//1,2,3,16;
 1/14=-1,18=20,19=15/3(2);
 2/9=110/2;
 99//99;
 2/9=110/2;
 3/5=1,6=6,7=1,11=2,16=1,25=1,30=1,71=1,74=-5/1,2,3;
 4/5=5,16=3/1;
 5/5=2,8=3,13=1,32=2,38=5/2,8;
 7//1,2,3,16;
 1/14=-1,18=20,19=15/3(-5);
 2/9=110/2;
 6/7=2,8=2,9=2,10=2,19=2,28=1/1;
 99/9=1/99;
 Leave Link    1 at Tue Sep 28 15:18:34 2021, MaxMem= 1342177280 cpu:       0.1
 (Enter /sw/target/amd/app/gaussian/Gaussian09RevA.02_gcc-4.9.2/g09/l101.exe)
 ---------------------------------
 COc1ccc2c(c1c1ccccc1)cccc2_conf_0
 ---------------------------------
 Symbolic Z-matrix:
 Charge =  0 Multiplicity = 1
 C                     1.40673  -0.63395   0.50481 
 O                     2.53862   0.10719   0.07027 
 C                     3.19689   0.88852   0.99155 
 C                     2.85659   0.91781   2.34494 
 C                     3.58847   1.69058   3.24029 
 C                     4.66723   2.46676   2.80717 
 C                     5.01995   2.4908    1.43321 
 C                     4.28157   1.67092   0.50566 
 C                     4.64588   1.61356  -0.93961 
 C                     5.93232   1.22594  -1.35696 
 C                     6.27464   1.17888  -2.71145 
 C                     5.32455   1.48374  -3.682 
 C                     4.03615   1.84454  -3.29681 
 C                     3.70631   1.92049  -1.94085 
 C                     6.09166   3.34825   1.07479 
 C                     6.81051   4.08603   2.01929 
 C                     6.46656   4.01343   3.36028 
 C                     5.39189   3.21761   3.74761 
 H                     0.99796  -1.15962  -0.36426 
 H                     0.62441   0.02621   0.89002 
 H                     1.69154  -1.39011   1.24426 
 H                     2.03253   0.33609   2.74378 
 H                     3.30443   1.67987   4.29025 
 H                     6.68598   0.96029  -0.617 
 H                     7.28215   0.89759  -3.00637 
 H                     5.58409   1.43232  -4.7357 
 H                     3.28337   2.06369  -4.04988 
 H                     2.69215   2.20273  -1.66259 
 H                     6.3856    3.45801   0.0325 
 H                     7.63871   4.71466   1.70146 
 H                     7.02255   4.57932   4.10099 
 H                     5.125     3.18533   4.8027 
 
 NAtoms=     32 NQM=     32 NQMF=      0 NMic=      0 NMicF=      0 NTot=     32.
                    Isotopes and Nuclear Properties:
 (Nuclear quadrupole moments (NQMom) in fm**2, nuclear magnetic moments (NMagM)
  in nuclear magnetons)

  Atom         1           2           3           4           5           6           7           8           9          10
 IAtWgt=          12          16          12          12          12          12          12          12          12          12
 AtmWgt=  12.0000000  15.9949146  12.0000000  12.0000000  12.0000000  12.0000000  12.0000000  12.0000000  12.0000000  12.0000000
 NucSpn=           0           0           0           0           0           0           0           0           0           0
 AtZEff=   0.0000000   0.0000000   0.0000000   0.0000000   0.0000000   0.0000000   0.0000000   0.0000000   0.0000000   0.0000000
 NQMom=    0.0000000   0.0000000   0.0000000   0.0000000   0.0000000   0.0000000   0.0000000   0.0000000   0.0000000   0.0000000
 NMagM=    0.0000000   0.0000000   0.0000000   0.0000000   0.0000000   0.0000000   0.0000000   0.0000000   0.0000000   0.0000000

  Atom        11          12          13          14          15          16          17          18          19          20
 IAtWgt=          12          12          12          12          12          12          12          12           1           1
 AtmWgt=  12.0000000  12.0000000  12.0000000  12.0000000  12.0000000  12.0000000  12.0000000  12.0000000   1.0078250   1.0078250
 NucSpn=           0           0           0           0           0           0           0           0           1           1
 AtZEff=   0.0000000   0.0000000   0.0000000   0.0000000   0.0000000   0.0000000   0.0000000   0.0000000   0.0000000   0.0000000
 NQMom=    0.0000000   0.0000000   0.0000000   0.0000000   0.0000000   0.0000000   0.0000000   0.0000000   0.0000000   0.0000000
 NMagM=    0.0000000   0.0000000   0.0000000   0.0000000   0.0000000   0.0000000   0.0000000   0.0000000   2.7928460   2.7928460

  Atom        21          22          23          24          25          26          27          28          29          30
 IAtWgt=           1           1           1           1           1           1           1           1           1           1
 AtmWgt=   1.0078250   1.0078250   1.0078250   1.0078250   1.0078250   1.0078250   1.0078250   1.0078250   1.0078250   1.0078250
 NucSpn=           1           1           1           1           1           1           1           1           1           1
 AtZEff=   0.0000000   0.0000000   0.0000000   0.0000000   0.0000000   0.0000000   0.0000000   0.0000000   0.0000000   0.0000000
 NQMom=    0.0000000   0.0000000   0.0000000   0.0000000   0.0000000   0.0000000   0.0000000   0.0000000   0.0000000   0.0000000
 NMagM=    2.7928460   2.7928460   2.7928460   2.7928460   2.7928460   2.7928460   2.7928460   2.7928460   2.7928460   2.7928460

  Atom        31          32
 IAtWgt=           1           1
 AtmWgt=   1.0078250   1.0078250
 NucSpn=           1           1
 AtZEff=   0.0000000   0.0000000
 NQMom=    0.0000000   0.0000000
 NMagM=    2.7928460   2.7928460
 Leave Link  101 at Tue Sep 28 15:18:35 2021, MaxMem= 1342177280 cpu:       0.2
 (Enter /sw/target/amd/app/gaussian/Gaussian09RevA.02_gcc-4.9.2/g09/l103.exe)

 GradGradGradGradGradGradGradGradGradGradGradGradGradGradGradGradGradGrad
 Berny optimization.
 Initialization pass.
                           ----------------------------
                           !    Initial Parameters    !
                           ! (Angstroms and Degrees)  !
 --------------------------                            --------------------------
 ! Name  Definition              Value          Derivative Info.                !
 --------------------------------------------------------------------------------
 ! R1    R(1,2)                  1.421          estimate D2E/DX2                !
 ! R2    R(1,19)                 1.0949         estimate D2E/DX2                !
 ! R3    R(1,20)                 1.0937         estimate D2E/DX2                !
 ! R4    R(1,21)                 1.0953         estimate D2E/DX2                !
 ! R5    R(2,3)                  1.3757         estimate D2E/DX2                !
 ! R6    R(3,4)                  1.3958         estimate D2E/DX2                !
 ! R7    R(3,8)                  1.4229         estimate D2E/DX2                !
 ! R8    R(4,5)                  1.3908         estimate D2E/DX2                !
 ! R9    R(4,22)                 1.0847         estimate D2E/DX2                !
 ! R10   R(5,6)                  1.3978         estimate D2E/DX2                !
 ! R11   R(5,23)                 1.0878         estimate D2E/DX2                !
 ! R12   R(6,7)                  1.4187         estimate D2E/DX2                !
 ! R13   R(6,18)                 1.4048         estimate D2E/DX2                !
 ! R14   R(7,8)                  1.4414         estimate D2E/DX2                !
 ! R15   R(7,15)                 1.4185         estimate D2E/DX2                !
 ! R16   R(8,9)                  1.4916         estimate D2E/DX2                !
 ! R17   R(9,10)                 1.4069         estimate D2E/DX2                !
 ! R18   R(9,14)                 1.4069         estimate D2E/DX2                !
 ! R19   R(10,11)                1.3979         estimate D2E/DX2                !
 ! R20   R(10,24)                1.0891         estimate D2E/DX2                !
 ! R21   R(11,12)                1.392          estimate D2E/DX2                !
 ! R22   R(11,25)                1.0868         estimate D2E/DX2                !
 ! R23   R(12,13)                1.3923         estimate D2E/DX2                !
 ! R24   R(12,26)                1.0864         estimate D2E/DX2                !
 ! R25   R(13,14)                1.3976         estimate D2E/DX2                !
 ! R26   R(13,27)                1.0871         estimate D2E/DX2                !
 ! R27   R(14,28)                1.0889         estimate D2E/DX2                !
 ! R28   R(15,16)                1.3976         estimate D2E/DX2                !
 ! R29   R(15,29)                1.0885         estimate D2E/DX2                !
 ! R30   R(16,17)                1.3863         estimate D2E/DX2                !
 ! R31   R(16,30)                1.0873         estimate D2E/DX2                !
 ! R32   R(17,18)                1.3922         estimate D2E/DX2                !
 ! R33   R(17,31)                1.0854         estimate D2E/DX2                !
 ! R34   R(18,32)                1.0888         estimate D2E/DX2                !
 ! A1    A(2,1,19)             107.762          estimate D2E/DX2                !
 ! A2    A(2,1,20)             111.2629         estimate D2E/DX2                !
 ! A3    A(2,1,21)             111.0626         estimate D2E/DX2                !
 ! A4    A(19,1,20)            107.5966         estimate D2E/DX2                !
 ! A5    A(19,1,21)            107.5478         estimate D2E/DX2                !
 ! A6    A(20,1,21)            111.4034         estimate D2E/DX2                !
 ! A7    A(1,2,3)              118.2013         estimate D2E/DX2                !
 ! A8    A(2,3,4)              122.9959         estimate D2E/DX2                !
 ! A9    A(2,3,8)              116.6388         estimate D2E/DX2                !
 ! A10   A(4,3,8)              120.3573         estimate D2E/DX2                !
 ! A11   A(3,4,5)              120.4999         estimate D2E/DX2                !
 ! A12   A(3,4,22)             122.0385         estimate D2E/DX2                !
 ! A13   A(5,4,22)             117.4545         estimate D2E/DX2                !
 ! A14   A(4,5,6)              121.0086         estimate D2E/DX2                !
 ! A15   A(4,5,23)             118.5874         estimate D2E/DX2                !
 ! A16   A(6,5,23)             120.404          estimate D2E/DX2                !
 ! A17   A(5,6,7)              120.0913         estimate D2E/DX2                !
 ! A18   A(5,6,18)             119.1756         estimate D2E/DX2                !
 ! A19   A(7,6,18)             120.7331         estimate D2E/DX2                !
 ! A20   A(6,7,8)              119.0902         estimate D2E/DX2                !
 ! A21   A(6,7,15)             116.2812         estimate D2E/DX2                !
 ! A22   A(8,7,15)             124.6271         estimate D2E/DX2                !
 ! A23   A(3,8,7)              118.9145         estimate D2E/DX2                !
 ! A24   A(3,8,9)              119.729          estimate D2E/DX2                !
 ! A25   A(7,8,9)              121.3499         estimate D2E/DX2                !
 ! A26   A(8,9,10)             121.4238         estimate D2E/DX2                !
 ! A27   A(8,9,14)             121.2016         estimate D2E/DX2                !
 ! A28   A(10,9,14)            117.3633         estimate D2E/DX2                !
 ! A29   A(9,10,11)            121.375          estimate D2E/DX2                !
 ! A30   A(9,10,24)            119.8953         estimate D2E/DX2                !
 ! A31   A(11,10,24)           118.7289         estimate D2E/DX2                !
 ! A32   A(10,11,12)           120.0723         estimate D2E/DX2                !
 ! A33   A(10,11,25)           119.9122         estimate D2E/DX2                !
 ! A34   A(12,11,25)           120.0143         estimate D2E/DX2                !
 ! A35   A(11,12,13)           119.7004         estimate D2E/DX2                !
 ! A36   A(11,12,26)           120.1876         estimate D2E/DX2                !
 ! A37   A(13,12,26)           120.1099         estimate D2E/DX2                !
 ! A38   A(12,13,14)           120.0597         estimate D2E/DX2                !
 ! A39   A(12,13,27)           120.091          estimate D2E/DX2                !
 ! A40   A(14,13,27)           119.8488         estimate D2E/DX2                !
 ! A41   A(9,14,13)            121.3989         estimate D2E/DX2                !
 ! A42   A(9,14,28)            119.7808         estimate D2E/DX2                !
 ! A43   A(13,14,28)           118.8063         estimate D2E/DX2                !
 ! A44   A(7,15,16)            122.4755         estimate D2E/DX2                !
 ! A45   A(7,15,29)            120.4588         estimate D2E/DX2                !
 ! A46   A(16,15,29)           117.0655         estimate D2E/DX2                !
 ! A47   A(15,16,17)           119.8996         estimate D2E/DX2                !
 ! A48   A(15,16,30)           119.9652         estimate D2E/DX2                !
 ! A49   A(17,16,30)           120.1352         estimate D2E/DX2                !
 ! A50   A(16,17,18)           119.3776         estimate D2E/DX2                !
 ! A51   A(16,17,31)           120.3815         estimate D2E/DX2                !
 ! A52   A(18,17,31)           120.2379         estimate D2E/DX2                !
 ! A53   A(6,18,17)            121.1635         estimate D2E/DX2                !
 ! A54   A(6,18,32)            120.4276         estimate D2E/DX2                !
 ! A55   A(17,18,32)           118.4084         estimate D2E/DX2                !
 ! D1    D(19,1,2,3)           177.9593         estimate D2E/DX2                !
 ! D2    D(20,1,2,3)            60.2305         estimate D2E/DX2                !
 ! D3    D(21,1,2,3)           -64.4841         estimate D2E/DX2                !
 ! D4    D(1,2,3,4)              4.26           estimate D2E/DX2                !
 ! D5    D(1,2,3,8)           -176.77           estimate D2E/DX2                !
 ! D6    D(2,3,4,5)            177.6609         estimate D2E/DX2                !
 ! D7    D(2,3,4,22)            -1.3462         estimate D2E/DX2                !
 ! D8    D(8,3,4,5)             -1.2721         estimate D2E/DX2                !
 ! D9    D(8,3,4,22)           179.7208         estimate D2E/DX2                !
 ! D10   D(2,3,8,7)           -178.9774         estimate D2E/DX2                !
 ! D11   D(2,3,8,9)              0.099          estimate D2E/DX2                !
 ! D12   D(4,3,8,7)              0.0215         estimate D2E/DX2                !
 ! D13   D(4,3,8,9)            179.0979         estimate D2E/DX2                !
 ! D14   D(3,4,5,6)              0.8164         estimate D2E/DX2                !
 ! D15   D(3,4,5,23)          -179.1796         estimate D2E/DX2                !
 ! D16   D(22,4,5,6)           179.8679         estimate D2E/DX2                !
 ! D17   D(22,4,5,23)           -0.1281         estimate D2E/DX2                !
 ! D18   D(4,5,6,7)              0.9116         estimate D2E/DX2                !
 ! D19   D(4,5,6,18)          -179.0848         estimate D2E/DX2                !
 ! D20   D(23,5,6,7)          -179.0924         estimate D2E/DX2                !
 ! D21   D(23,5,6,18)            0.9111         estimate D2E/DX2                !
 ! D22   D(5,6,7,8)             -2.1297         estimate D2E/DX2                !
 ! D23   D(5,6,7,15)           177.4529         estimate D2E/DX2                !
 ! D24   D(18,6,7,8)           177.8667         estimate D2E/DX2                !
 ! D25   D(18,6,7,15)           -2.5507         estimate D2E/DX2                !
 ! D26   D(5,6,18,17)         -179.4652         estimate D2E/DX2                !
 ! D27   D(5,6,18,32)            0.7991         estimate D2E/DX2                !
 ! D28   D(7,6,18,17)            0.5383         estimate D2E/DX2                !
 ! D29   D(7,6,18,32)         -179.1974         estimate D2E/DX2                !
 ! D30   D(6,7,8,3)              1.6588         estimate D2E/DX2                !
 ! D31   D(6,7,8,9)           -177.4021         estimate D2E/DX2                !
 ! D32   D(15,7,8,3)          -177.8865         estimate D2E/DX2                !
 ! D33   D(15,7,8,9)             3.0527         estimate D2E/DX2                !
 ! D34   D(6,7,15,16)            2.9341         estimate D2E/DX2                !
 ! D35   D(6,7,15,29)         -176.8726         estimate D2E/DX2                !
 ! D36   D(8,7,15,16)         -177.5091         estimate D2E/DX2                !
 ! D37   D(8,7,15,29)            2.6842         estimate D2E/DX2                !
 ! D38   D(3,8,9,10)          -121.5992         estimate D2E/DX2                !
 ! D39   D(3,8,9,14)            57.1413         estimate D2E/DX2                !
 ! D40   D(7,8,9,10)            57.4541         estimate D2E/DX2                !
 ! D41   D(7,8,9,14)          -123.8053         estimate D2E/DX2                !
 ! D42   D(8,9,10,11)         -179.6808         estimate D2E/DX2                !
 ! D43   D(8,9,10,24)           -0.0177         estimate D2E/DX2                !
 ! D44   D(14,9,10,11)           1.5322         estimate D2E/DX2                !
 ! D45   D(14,9,10,24)        -178.8048         estimate D2E/DX2                !
 ! D46   D(8,9,14,13)         -178.8197         estimate D2E/DX2                !
 ! D47   D(8,9,14,28)           -0.1956         estimate D2E/DX2                !
 ! D48   D(10,9,14,13)          -0.0299         estimate D2E/DX2                !
 ! D49   D(10,9,14,28)         178.5943         estimate D2E/DX2                !
 ! D50   D(9,10,11,12)          -1.7708         estimate D2E/DX2                !
 ! D51   D(9,10,11,25)         178.625          estimate D2E/DX2                !
 ! D52   D(24,10,11,12)        178.5623         estimate D2E/DX2                !
 ! D53   D(24,10,11,25)         -1.0419         estimate D2E/DX2                !
 ! D54   D(10,11,12,13)          0.4577         estimate D2E/DX2                !
 ! D55   D(10,11,12,26)       -179.0187         estimate D2E/DX2                !
 ! D56   D(25,11,12,13)       -179.9385         estimate D2E/DX2                !
 ! D57   D(25,11,12,26)          0.5851         estimate D2E/DX2                !
 ! D58   D(11,12,13,14)          1.0219         estimate D2E/DX2                !
 ! D59   D(11,12,13,27)       -178.7183         estimate D2E/DX2                !
 ! D60   D(26,12,13,14)       -179.5013         estimate D2E/DX2                !
 ! D61   D(26,12,13,27)          0.7585         estimate D2E/DX2                !
 ! D62   D(12,13,14,9)          -1.2423         estimate D2E/DX2                !
 ! D63   D(12,13,14,28)       -179.8795         estimate D2E/DX2                !
 ! D64   D(27,13,14,9)         178.4986         estimate D2E/DX2                !
 ! D65   D(27,13,14,28)         -0.1386         estimate D2E/DX2                !
 ! D66   D(7,15,16,17)          -1.2416         estimate D2E/DX2                !
 ! D67   D(7,15,16,30)         178.6888         estimate D2E/DX2                !
 ! D68   D(29,15,16,17)        178.5712         estimate D2E/DX2                !
 ! D69   D(29,15,16,30)         -1.4983         estimate D2E/DX2                !
 ! D70   D(15,16,17,18)         -0.9336         estimate D2E/DX2                !
 ! D71   D(15,16,17,31)        179.7027         estimate D2E/DX2                !
 ! D72   D(30,16,17,18)        179.1361         estimate D2E/DX2                !
 ! D73   D(30,16,17,31)         -0.2276         estimate D2E/DX2                !
 ! D74   D(16,17,18,6)           1.2772         estimate D2E/DX2                !
 ! D75   D(16,17,18,32)       -178.9819         estimate D2E/DX2                !
 ! D76   D(31,17,18,6)        -179.3581         estimate D2E/DX2                !
 ! D77   D(31,17,18,32)          0.3828         estimate D2E/DX2                !
 --------------------------------------------------------------------------------
 Trust Radius=3.00D-01 FncErr=1.00D-07 GrdErr=1.00D-06
 Number of steps in this run= 176 maximum allowed number of steps= 192.
 GradGradGradGradGradGradGradGradGradGradGradGradGradGradGradGradGradGrad

 Leave Link  103 at Tue Sep 28 15:18:35 2021, MaxMem= 1342177280 cpu:       0.0
 (Enter /sw/target/amd/app/gaussian/Gaussian09RevA.02_gcc-4.9.2/g09/l202.exe)
                          Input orientation:                          
 ---------------------------------------------------------------------
 Center     Atomic      Atomic             Coordinates (Angstroms)
 Number     Number       Type             X           Y           Z
 ---------------------------------------------------------------------
      1          6           0        1.406726   -0.633946    0.504815
      2          8           0        2.538625    0.107193    0.070268
      3          6           0        3.196895    0.888523    0.991546
      4          6           0        2.856588    0.917812    2.344944
      5          6           0        3.588466    1.690578    3.240289
      6          6           0        4.667233    2.466755    2.807166
      7          6           0        5.019955    2.490799    1.433208
      8          6           0        4.281566    1.670923    0.505664
      9          6           0        4.645877    1.613558   -0.939606
     10          6           0        5.932317    1.225943   -1.356956
     11          6           0        6.274636    1.178876   -2.711448
     12          6           0        5.324548    1.483742   -3.682003
     13          6           0        4.036153    1.844543   -3.296812
     14          6           0        3.706309    1.920488   -1.940848
     15          6           0        6.091661    3.348245    1.074786
     16          6           0        6.810507    4.086027    2.019293
     17          6           0        6.466564    4.013427    3.360284
     18          6           0        5.391886    3.217612    3.747609
     19          1           0        0.997957   -1.159615   -0.364264
     20          1           0        0.624414    0.026207    0.890016
     21          1           0        1.691538   -1.390114    1.244255
     22          1           0        2.032526    0.336087    2.743785
     23          1           0        3.304426    1.679870    4.290254
     24          1           0        6.685979    0.960290   -0.617000
     25          1           0        7.282151    0.897591   -3.006372
     26          1           0        5.584085    1.432316   -4.735700
     27          1           0        3.283366    2.063695   -4.049880
     28          1           0        2.692153    2.202731   -1.662590
     29          1           0        6.385598    3.458010    0.032498
     30          1           0        7.638710    4.714660    1.701457
     31          1           0        7.022545    4.579316    4.100989
     32          1           0        5.124998    3.185333    4.802696
 ---------------------------------------------------------------------
                    Distance matrix (angstroms):
                    1          2          3          4          5
     1  C    0.000000
     2  O    1.421024   0.000000
     3  C    2.399900   1.375700   0.000000
     4  C    2.810005   2.435643   1.395834   0.000000
     5  C    4.200740   3.695715   2.419394   1.390847   0.000000
     6  C    5.054312   4.193938   2.819430   2.427202   1.397779
     7  C    4.866350   3.700835   2.466962   2.825899   2.440298
     8  C    3.684715   2.381736   1.422934   2.445545   2.821161
     9  C    4.198777   2.780198   2.520828   3.804457   4.312259
    10  C    5.235107   3.847820   3.621028   4.822771   5.181138
    11  C    6.109600   4.779564   4.823791   6.108872   6.549850
    12  C    6.112559   4.871940   5.169454   6.537216   7.139670
    13  C    5.244917   4.074089   4.473068   5.837774   6.554221
    14  C    4.218351   2.948918   3.150141   4.482789   5.187574
    15  C    6.175056   4.912997   3.799583   4.240991   3.701790
    16  C    7.332982   6.154575   4.933405   5.077116   4.196494
    17  C    7.440009   6.442948   5.105554   4.862682   3.700470
    18  C    6.421192   5.598093   4.223568   3.699227   2.416926
    19  H    1.094860   2.041391   3.296729   3.887161   5.275144
    20  H    1.093706   2.083926   2.715060   2.809693   4.132737
    21  H    1.095299   2.082721   2.742653   2.809872   4.131966
    22  H    2.519043   2.730608   2.175151   1.084691   2.121817
    23  H    4.825407   4.568155   3.394004   2.136708   1.087758
    24  H    5.627661   4.289599   3.842692   4.841400   5.000659
    25  H    7.013890   5.708896   5.716008   6.944250   7.300200
    26  H    7.013042   5.841927   6.228622   7.605227   8.225910
    27  H    5.616430   4.621489   5.177304   6.510681   7.306084
    28  H    3.794299   2.723537   3.004388   4.211696   5.010380
    29  H    6.461916   5.101824   4.205932   4.924828   4.608437
    30  H    8.299226   7.064022   5.905338   6.139937   5.283707
    31  H    8.464514   7.506806   6.158424   5.817689   4.569301
    32  H    6.847205   6.209682   4.849514   4.040777   2.652610
                    6          7          8          9         10
     6  C    0.000000
     7  C    1.418715   0.000000
     8  C    2.465562   1.441441   0.000000
     9  C    3.842747   2.557290   1.491583   0.000000
    10  C    4.525479   3.196448   2.528307   1.406894   0.000000
    11  C    5.890457   4.524770   3.816314   2.445655   1.397872
    12  C    6.596036   5.222291   4.319653   2.828106   2.416958
    13  C    6.167978   4.874279   3.814341   2.445717   2.782290
    14  C    4.874979   3.665402   2.525594   1.406939   2.403837
    15  C    2.409805   1.418532   2.532538   3.026087   3.231551
    16  C    2.799359   2.468669   3.810425   4.421968   4.511136
    17  C    2.436335   2.850386   4.290734   5.250079   5.505256
    18  C    1.404756   2.454189   3.759689   5.009940   5.505942
    19  H    6.055751   5.721267   4.421630   4.618315   5.569940
    20  H    5.096677   5.068535   4.028347   4.694610   5.887451
    21  H    5.115944   5.116204   4.077218   4.745463   5.620877
    22  H    3.389018   3.909619   3.442260   4.693496   5.728550
    23  H    2.162401   3.429774   3.908708   5.399567   6.245225
    24  H    4.250845   3.053104   2.747103   2.166299   1.089089
    25  H    6.564853   5.231225   4.683583   3.425503   2.156488
    26  H    7.668475   6.284429   5.406051   3.914512   3.402905
    27  H    7.006898   5.767357   4.680134   3.425327   3.869187
    28  H    4.893809   3.884020   2.740508   2.164918   3.397968
    29  H    3.410887   2.182308   2.800807   2.715441   2.667990
    30  H    3.886560   3.446070   4.686648   5.054611   4.943360
    31  H    3.418243   3.935648   5.375693   6.312834   6.497913
    32  H    2.169803   3.441927   4.633497   5.972778   6.514007
                   11         12         13         14         15
    11  C    0.000000
    12  C    1.391972   0.000000
    13  C    2.407607   1.392305   0.000000
    14  C    2.782107   2.416830   1.397570   0.000000
    15  C    4.367518   5.166418   5.059358   4.101517   0.000000
    16  C    5.578404   6.440864   6.401738   5.477984   1.397553
    17  C    6.703541   7.569499   7.411335   6.332567   2.409673
    18  C    6.830455   7.629546   7.303916   6.073075   2.765996
    19  H    6.230663   6.059218   5.182223   4.394067   6.952517
    20  H    6.798838   6.717070   5.698757   4.593492   6.400067
    21  H    6.576632   6.762088   6.048265   5.016400   6.468527
    22  H    6.961707   7.310627   6.540548   5.220887   5.323084
    23  H    7.622137   8.226557   7.624047   6.248682   4.570709
    24  H    2.145623   3.394369   3.871030   3.398969   2.986249
    25  H    1.086824   2.152268   3.393756   3.868890   4.907018
    26  H    2.153761   1.086407   2.153236   3.402286   6.139231
    27  H    3.394407   2.153626   1.087119   2.155784   5.983209
    28  H    3.870733   3.394772   2.146000   1.088853   4.512437
    29  H    3.568754   4.338327   4.382633   3.665605   1.088491
    30  H    5.816889   6.691473   6.796961   6.044630   2.157120
    31  H    7.650599   8.546387   8.433563   7.387190   3.397056
    32  H    7.861928   8.655943   8.281626   7.006276   3.854645
                   16         17         18         19         20
    16  C    0.000000
    17  C    1.386299   0.000000
    18  C    2.398689   1.392220   0.000000
    19  H    8.184366   8.398708   7.441386   0.000000
    20  H    7.484995   7.492053   6.409344   1.766048   0.000000
    21  H    7.536089   7.515099   6.417982   1.766782   1.808371
    22  H    6.116865   5.793409   4.538297   3.601031   2.348460
    23  H    4.820732   4.038496   2.648887   5.920052   4.634510
    24  H    4.090938   5.018822   5.081337   6.075481   6.315550
    25  H    5.970417   7.134979   7.387277   7.120669   7.763157
    26  H    7.360449   8.543176   8.671260   6.845446   7.630476
    27  H    7.305163   8.297273   8.159547   5.403387   5.968581
    28  H    5.836429   6.538660   6.130970   3.982628   3.940634
    29  H    2.126571   3.374790   3.853220   7.106797   6.760462
    30  H    1.087253   2.148805   3.387641   9.103511   8.475870
    31  H    2.149827   1.085352   2.153640   9.442959   8.483939
    32  H    3.376318   2.136842   1.088798   7.912555   6.748659
                   21         22         23         24         25
    21  H    0.000000
    22  H    2.311846   0.000000
    23  H    4.615660   2.411441   0.000000
    24  H    5.825213   5.774004   6.002818   0.000000
    25  H    7.386229   7.806289   8.347155   2.463423   0.000000
    26  H    7.673193   8.352124   9.312677   4.289600   2.481921
    27  H    6.518480   7.120612   8.348988   4.957817   4.294065
    28  H    4.728585   4.830694   6.007047   4.311330   4.957542
    29  H    6.856155   6.003892   5.548323   2.598208   4.073608
    30  H    8.534996   7.189412   5.890487   4.514226   6.071310
    31  H    8.497921   6.689341   4.718794   5.955673   8.008563
    32  H    6.736903   4.681955   2.417333   6.063051   8.418350
                   26         27         28         29         30
    26  H    0.000000
    27  H    2.482397   0.000000
    28  H    4.289617   2.463334   0.000000
    29  H    5.242287   5.313546   4.253303   0.000000
    30  H    7.512140   7.685995   6.488068   2.436161   0.000000
    31  H    9.489987   9.313779   7.590738   4.267980   2.481075
    32  H    9.709008   9.111410   6.977404   4.941483   4.274959
                   31         32
    31  H    0.000000
    32  H    2.456881   0.000000
 Stoichiometry    C17H14O
 Framework group  C1[X(C17H14O)]
 Deg. of freedom    90
 Full point group                 C1      NOp   1
 Largest Abelian subgroup         C1      NOp   1
 Largest concise Abelian subgroup C1      NOp   1
                         Standard orientation:                         
 ---------------------------------------------------------------------
 Center     Atomic      Atomic             Coordinates (Angstroms)
 Number     Number       Type             X           Y           Z
 ---------------------------------------------------------------------
      1          6           0       -1.194926    3.758162    0.184438
      2          8           0       -1.190969    2.337274    0.165177
      3          6           0        0.020916    1.691604    0.081546
      4          6           0        1.243703    2.364453    0.102025
      5          6           0        2.439976    1.656036    0.062926
      6          6           0        2.448197    0.260433   -0.014603
      7          6           0        1.225050   -0.455883   -0.074218
      8          6           0       -0.017327    0.271935   -0.006894
      9          6           0       -1.331274   -0.434014   -0.007390
     10          6           0       -1.646196   -1.398355    0.967403
     11          6           0       -2.875348   -2.064092    0.962099
     12          6           0       -3.833097   -1.752722    0.001187
     13          6           0       -3.557084   -0.782978   -0.958982
     14          6           0       -2.315448   -0.141545   -0.969337
     15          6           0        1.327894   -1.864385   -0.207555
     16          6           0        2.557022   -2.529443   -0.217481
     17          6           0        3.735250   -1.805516   -0.119839
     18          6           0        3.678576   -0.417204   -0.032365
     19          1           0       -2.238165    4.088860    0.216214
     20          1           0       -0.745563    4.168401   -0.724392
     21          1           0       -0.699609    4.141034    1.083187
     22          1           0        1.304575    3.445642    0.164323
     23          1           0        3.374891    2.211180    0.094032
     24          1           0       -0.922036   -1.642370    1.743395
     25          1           0       -3.085028   -2.820936    1.713370
     26          1           0       -4.795041   -2.257628    0.005016
     27          1           0       -4.308157   -0.519969   -1.699619
     28          1           0       -2.122080    0.615050   -1.728135
     29          1           0        0.433180   -2.475646   -0.310801
     30          1           0        2.587479   -3.613089   -0.300573
     31          1           0        4.693927   -2.314361   -0.121927
     32          1           0        4.614075    0.136718    0.026741
 ---------------------------------------------------------------------
 Rotational constants (GHZ):      0.5965355      0.3655695      0.2397879
 Leave Link  202 at Tue Sep 28 15:18:35 2021, MaxMem= 1342177280 cpu:       0.1
 (Enter /sw/target/amd/app/gaussian/Gaussian09RevA.02_gcc-4.9.2/g09/l301.exe)
 Standard basis: 6-31G(d) (6D, 7F)
 Ernie: Thresh=  0.10000D-02 Tol=  0.10000D-05 Strict=F.
 There are   298 symmetry adapted basis functions of A   symmetry.
 Integral buffers will be    131072 words long.
 Raffenetti 2 integral format.
 Two-electron integral symmetry is turned on.
   298 basis functions,   560 primitive gaussians,   298 cartesian basis functions
    62 alpha electrons       62 beta electrons
       nuclear repulsion energy      1201.6416947133 Hartrees.
 IExCor=  402 DFT=T Ex+Corr=B3LYP ExCW=0 ScaHFX=  0.200000
 ScaDFX=  0.800000  0.720000  1.000000  0.810000 ScalE2=  1.000000  1.000000
 IRadAn=      0 IRanWt=     -1 IRanGd=            0 ICorTp=0
 NAtoms=   32 NActive=   32 NUniq=   32 SFac= 7.50D-01 NAtFMM=   80 NAOKFM=F Big=F
 Leave Link  301 at Tue Sep 28 15:18:36 2021, MaxMem= 1342177280 cpu:       0.1
 (Enter /sw/target/amd/app/gaussian/Gaussian09RevA.02_gcc-4.9.2/g09/l302.exe)
 NPDir=0 NMtPBC=     1 NCelOv=     1 NCel=       1 NClECP=     1 NCelD=      1
         NCelK=      1 NCelE2=     1 NClLst=     1 CellRange=     0.0.
 One-electron integrals computed using PRISM.
 NBasis=   298 RedAO= T  NBF=   298
 NBsUse=   298 1.00D-06 NBFU=   298
 Precomputing XC quadrature grid using
 IXCGrd= 2 IRadAn=           0 IRanWt=          -1 IRanGd=           0 AccXCQ= 1.00D-10.
 NRdTot=    2022 NPtTot=      257574 NUsed=      272157 NTot=      272189
 NSgBfM=   297   297   297   297   297 NAtAll=    32    32.
 Leave Link  302 at Tue Sep 28 15:18:42 2021, MaxMem= 1342177280 cpu:       3.2
 (Enter /sw/target/amd/app/gaussian/Gaussian09RevA.02_gcc-4.9.2/g09/l303.exe)
 DipDrv:  MaxL=1.
 Leave Link  303 at Tue Sep 28 15:18:43 2021, MaxMem= 1342177280 cpu:       0.3
 (Enter /sw/target/amd/app/gaussian/Gaussian09RevA.02_gcc-4.9.2/g09/l401.exe)
 Harris functional with IExCor=  402 diagonalized for initial guess.
 ExpMin= 1.61D-01 ExpMax= 5.48D+03 ExpMxC= 8.25D+02 IAcc=1 IRadAn=         1 AccDes= 0.00D+00
 HarFok:  IExCor=  402 AccDes= 0.00D+00 IRadAn=         1 IDoV= 1
 ScaDFX=  1.000000  1.000000  1.000000  1.000000
 FoFCou: FMM=F IPFlag=           0 FMFlag=      100000 FMFlg1=           0
         NFxFlg=           0 DoJE=T BraDBF=F KetDBF=T FulRan=T
         Omega=  0.000000  0.000000  1.000000  0.000000  0.000000 ICntrl=     500 IOpCl=  0
         NMat0=    1 NMatS0=    1 NMatT0=    0 NMatD0=    1 NMtDS0=    0 NMtDT0=    0
         I1Cent=           4 NGrid=           0.
 Petite list used in FoFCou.
 Harris En= -731.541083344907    
 Initial guess orbital symmetries:
       Occupied  (A) (A) (A) (A) (A) (A) (A) (A) (A) (A) (A) (A)
                 (A) (A) (A) (A) (A) (A) (A) (A) (A) (A) (A) (A)
                 (A) (A) (A) (A) (A) (A) (A) (A) (A) (A) (A) (A)
                 (A) (A) (A) (A) (A) (A) (A) (A) (A) (A) (A) (A)
                 (A) (A) (A) (A) (A) (A) (A) (A) (A) (A) (A) (A)
                 (A) (A)
       Virtual   (A) (A) (A) (A) (A) (A) (A) (A) (A) (A) (A) (A)
                 (A) (A) (A) (A) (A) (A) (A) (A) (A) (A) (A) (A)
                 (A) (A) (A) (A) (A) (A) (A) (A) (A) (A) (A) (A)
                 (A) (A) (A) (A) (A) (A) (A) (A) (A) (A) (A) (A)
                 (A) (A) (A) (A) (A) (A) (A) (A) (A) (A) (A) (A)
                 (A) (A) (A) (A) (A) (A) (A) (A) (A) (A) (A) (A)
                 (A) (A) (A) (A) (A) (A) (A) (A) (A) (A) (A) (A)
                 (A) (A) (A) (A) (A) (A) (A) (A) (A) (A) (A) (A)
                 (A) (A) (A) (A) (A) (A) (A) (A) (A) (A) (A) (A)
                 (A) (A) (A) (A) (A) (A) (A) (A) (A) (A) (A) (A)
                 (A) (A) (A) (A) (A) (A) (A) (A) (A) (A) (A) (A)
                 (A) (A) (A) (A) (A) (A) (A) (A) (A) (A) (A) (A)
                 (A) (A) (A) (A) (A) (A) (A) (A) (A) (A) (A) (A)
                 (A) (A) (A) (A) (A) (A) (A) (A) (A) (A) (A) (A)
                 (A) (A) (A) (A) (A) (A) (A) (A) (A) (A) (A) (A)
                 (A) (A) (A) (A) (A) (A) (A) (A) (A) (A) (A) (A)
                 (A) (A) (A) (A) (A) (A) (A) (A) (A) (A) (A) (A)
                 (A) (A) (A) (A) (A) (A) (A) (A) (A) (A) (A) (A)
                 (A) (A) (A) (A) (A) (A) (A) (A) (A) (A) (A) (A)
                 (A) (A) (A) (A) (A) (A) (A) (A)
 The electronic state of the initial guess is 1-A.
 Leave Link  401 at Tue Sep 28 15:18:59 2021, MaxMem= 1342177280 cpu:      14.3
 (Enter /sw/target/amd/app/gaussian/Gaussian09RevA.02_gcc-4.9.2/g09/l502.exe)
 Closed shell SCF:
 Requested convergence on RMS density matrix=1.00D-08 within  64 cycles.
 Requested convergence on MAX density matrix=1.00D-06.
 Requested convergence on             energy=1.00D-06.
 No special actions if energy rises.
 Using DIIS extrapolation, IDIIS=  1040.
 Integral symmetry usage will be decided dynamically.
       271856 words used for storage of precomputed grid.
 Keep R1 ints in memory in canonical form, NReq=1006331234.
 IEnd=      547844 IEndB=      547844 NGot=  1342177280 MDV=   349304659
 LenX=   349304659 LenY=   349215414
 Symmetry not used in FoFDir.
 MinBra= 0 MaxBra= 2 Meth= 1.
 IRaf=       0 NMat=   1 IRICut=       1 DoRegI=T DoRafI=F ISym2E= 0 JSym2E=0.
 Integral accuracy reduced to 1.0D-05 until final iterations.

 Cycle   1  Pass 0  IDiag  1:
 E= -731.068892584618    
 DIIS: error= 3.19D-02 at cycle   1 NSaved=   1.
 NSaved= 1 IEnMin= 1 EnMin= -731.068892584618     IErMin= 1 ErrMin= 3.19D-02
 ErrMax= 3.19D-02 EMaxC= 1.00D-01 BMatC= 3.48D-01 BMatP= 3.48D-01
 IDIUse=3 WtCom= 6.81D-01 WtEn= 3.19D-01
 Coeff-Com:  0.100D+01
 Coeff-En:   0.100D+01
 Coeff:      0.100D+01
 Gap=     0.173 Goal=   None    Shift=    0.000
 GapD=    0.173 DampG=1.000 DampE=0.500 DampFc=0.5000 IDamp=-1.
 Damping current iteration by 5.00D-01
 RMSDP=4.98D-03 MaxDP=1.30D-01              OVMax= 1.91D-01

 Cycle   2  Pass 0  IDiag  1:
 E= -731.252401143433     Delta-E=       -0.183508558815 Rises=F Damp=T
 DIIS: error= 5.71D-03 at cycle   2 NSaved=   2.
 NSaved= 2 IEnMin= 2 EnMin= -731.252401143433     IErMin= 2 ErrMin= 5.71D-03
 ErrMax= 5.71D-03 EMaxC= 1.00D-01 BMatC= 2.19D-02 BMatP= 3.48D-01
 IDIUse=3 WtCom= 9.43D-01 WtEn= 5.71D-02
 Coeff-Com:  0.635D-02 0.994D+00
 Coeff-En:   0.522D-02 0.995D+00
 Coeff:      0.628D-02 0.994D+00
 Gap=     0.167 Goal=   None    Shift=    0.000
 RMSDP=1.66D-03 MaxDP=5.18D-02 DE=-1.84D-01 OVMax= 1.79D-01

 Cycle   3  Pass 0  IDiag  1:
 E= -731.431558374134     Delta-E=       -0.179157230701 Rises=F Damp=F
 DIIS: error= 9.33D-03 at cycle   3 NSaved=   3.
 NSaved= 3 IEnMin= 3 EnMin= -731.431558374134     IErMin= 2 ErrMin= 5.71D-03
 ErrMax= 9.33D-03 EMaxC= 1.00D-01 BMatC= 2.43D-02 BMatP= 2.19D-02
 IDIUse=3 WtCom= 9.38D-02 WtEn= 9.06D-01
 Coeff-Com: -0.456D-01 0.541D+00 0.505D+00
 Coeff-En:   0.000D+00 0.000D+00 0.100D+01
 Coeff:     -0.427D-02 0.507D-01 0.954D+00
 Gap=     0.176 Goal=   None    Shift=    0.000
 RMSDP=1.89D-03 MaxDP=7.95D-02 DE=-1.79D-01 OVMax= 1.68D-01

 Cycle   4  Pass 0  IDiag  1:
 E= -731.350438870552     Delta-E=        0.081119503582 Rises=F Damp=F
 DIIS: error= 2.01D-02 at cycle   4 NSaved=   4.
 NSaved= 4 IEnMin= 3 EnMin= -731.431558374134     IErMin= 2 ErrMin= 5.71D-03
 ErrMax= 2.01D-02 EMaxC= 1.00D-01 BMatC= 9.31D-02 BMatP= 2.19D-02
 IDIUse=2 WtCom= 0.00D+00 WtEn= 1.00D+00
 Coeff-En:   0.000D+00 0.000D+00 0.743D+00 0.257D+00
 Coeff:      0.000D+00 0.000D+00 0.743D+00 0.257D+00
 Gap=     0.159 Goal=   None    Shift=    0.000
 RMSDP=9.60D-04 MaxDP=3.81D-02 DE= 8.11D-02 OVMax= 9.80D-02

 Cycle   5  Pass 0  IDiag  1:
 E= -731.453284733348     Delta-E=       -0.102845862796 Rises=F Damp=F
 DIIS: error= 4.21D-03 at cycle   5 NSaved=   5.
 NSaved= 5 IEnMin= 5 EnMin= -731.453284733348     IErMin= 5 ErrMin= 4.21D-03
 ErrMax= 4.21D-03 EMaxC= 1.00D-01 BMatC= 5.45D-03 BMatP= 2.19D-02
 IDIUse=3 WtCom= 9.58D-01 WtEn= 4.21D-02
 Coeff-Com:  0.398D-02 0.761D-02 0.331D+00 0.141D-01 0.644D+00
 Coeff-En:   0.000D+00 0.000D+00 0.230D+00 0.000D+00 0.770D+00
 Coeff:      0.381D-02 0.729D-02 0.326D+00 0.135D-01 0.649D+00
 Gap=     0.151 Goal=   None    Shift=    0.000
 RMSDP=3.29D-04 MaxDP=1.60D-02 DE=-1.03D-01 OVMax= 3.26D-02

 Cycle   6  Pass 0  IDiag  1:
 E= -731.459325389087     Delta-E=       -0.006040655739 Rises=F Damp=F
 DIIS: error= 7.39D-04 at cycle   6 NSaved=   6.
 NSaved= 6 IEnMin= 6 EnMin= -731.459325389087     IErMin= 6 ErrMin= 7.39D-04
 ErrMax= 7.39D-04 EMaxC= 1.00D-01 BMatC= 1.71D-04 BMatP= 5.45D-03
 IDIUse=3 WtCom= 9.93D-01 WtEn= 7.39D-03
 Coeff-Com:  0.294D-02-0.740D-02 0.124D+00-0.429D-01 0.460D+00 0.463D+00
 Coeff-En:   0.000D+00 0.000D+00 0.000D+00 0.000D+00 0.000D+00 0.100D+01
 Coeff:      0.292D-02-0.734D-02 0.123D+00-0.426D-01 0.457D+00 0.467D+00
 Gap=     0.150 Goal=   None    Shift=    0.000
 RMSDP=5.79D-05 MaxDP=1.87D-03 DE=-6.04D-03 OVMax= 7.29D-03

 Cycle   7  Pass 0  IDiag  1:
 E= -731.459511769469     Delta-E=       -0.000186380382 Rises=F Damp=F
 DIIS: error= 1.35D-04 at cycle   7 NSaved=   7.
 NSaved= 7 IEnMin= 7 EnMin= -731.459511769469     IErMin= 7 ErrMin= 1.35D-04
 ErrMax= 1.35D-04 EMaxC= 1.00D-01 BMatC= 7.18D-06 BMatP= 1.71D-04
 IDIUse=3 WtCom= 9.99D-01 WtEn= 1.35D-03
 Coeff-Com:  0.145D-02-0.405D-02 0.541D-01-0.269D-01 0.234D+00 0.278D+00
 Coeff-Com:  0.464D+00
 Coeff-En:   0.000D+00 0.000D+00 0.000D+00 0.000D+00 0.000D+00 0.000D+00
 Coeff-En:   0.100D+01
 Coeff:      0.144D-02-0.405D-02 0.540D-01-0.268D-01 0.233D+00 0.278D+00
 Coeff:      0.464D+00
 Gap=     0.150 Goal=   None    Shift=    0.000
 RMSDP=1.20D-05 MaxDP=4.33D-04 DE=-1.86D-04 OVMax= 1.11D-03

 Cycle   8  Pass 0  IDiag  1:
 E= -731.459519498952     Delta-E=       -0.000007729483 Rises=F Damp=F
 DIIS: error= 2.46D-05 at cycle   8 NSaved=   8.
 NSaved= 8 IEnMin= 8 EnMin= -731.459519498952     IErMin= 8 ErrMin= 2.46D-05
 ErrMax= 2.46D-05 EMaxC= 1.00D-01 BMatC= 3.23D-07 BMatP= 7.18D-06
 IDIUse=1 WtCom= 1.00D+00 WtEn= 0.00D+00
 Coeff-Com:  0.430D-03-0.118D-02 0.132D-01-0.909D-02 0.657D-01 0.877D-01
 Coeff-Com:  0.220D+00 0.623D+00
 Coeff:      0.430D-03-0.118D-02 0.132D-01-0.909D-02 0.657D-01 0.877D-01
 Coeff:      0.220D+00 0.623D+00
 Gap=     0.150 Goal=   None    Shift=    0.000
 RMSDP=2.79D-06 MaxDP=1.05D-04 DE=-7.73D-06 OVMax= 2.66D-04

 Initial convergence to 1.0D-05 achieved.  Increase integral accuracy.
 Cycle   9  Pass 1  IDiag  1:
 E= -731.459404310386     Delta-E=        0.000115188566 Rises=F Damp=F
 DIIS: error= 3.91D-05 at cycle   1 NSaved=   1.
 NSaved= 1 IEnMin= 1 EnMin= -731.459404310386     IErMin= 1 ErrMin= 3.91D-05
 ErrMax= 3.91D-05 EMaxC= 1.00D-01 BMatC= 2.80D-07 BMatP= 2.80D-07
 IDIUse=1 WtCom= 1.00D+00 WtEn= 0.00D+00
 Coeff-Com:  0.100D+01
 Coeff:      0.100D+01
 Gap=     0.150 Goal=   None    Shift=    0.000
 RMSDP=2.79D-06 MaxDP=1.05D-04 DE= 1.15D-04 OVMax= 2.96D-04

 Cycle  10  Pass 1  IDiag  1:
 E= -731.459404432915     Delta-E=       -0.000000122529 Rises=F Damp=F
 DIIS: error= 2.60D-05 at cycle   2 NSaved=   2.
 NSaved= 2 IEnMin= 2 EnMin= -731.459404432915     IErMin= 2 ErrMin= 2.60D-05
 ErrMax= 2.60D-05 EMaxC= 1.00D-01 BMatC= 2.30D-07 BMatP= 2.80D-07
 IDIUse=1 WtCom= 1.00D+00 WtEn= 0.00D+00
 Coeff-Com:  0.466D+00 0.534D+00
 Coeff:      0.466D+00 0.534D+00
 Gap=     0.150 Goal=   None    Shift=    0.000
 RMSDP=2.90D-06 MaxDP=8.38D-05 DE=-1.23D-07 OVMax= 3.03D-04

 Cycle  11  Pass 1  IDiag  1:
 E= -731.459404604363     Delta-E=       -0.000000171448 Rises=F Damp=F
 DIIS: error= 1.52D-05 at cycle   3 NSaved=   3.
 NSaved= 3 IEnMin= 3 EnMin= -731.459404604363     IErMin= 3 ErrMin= 1.52D-05
 ErrMax= 1.52D-05 EMaxC= 1.00D-01 BMatC= 7.45D-08 BMatP= 2.30D-07
 IDIUse=1 WtCom= 1.00D+00 WtEn= 0.00D+00
 Coeff-Com: -0.444D-02 0.360D+00 0.644D+00
 Coeff:     -0.444D-02 0.360D+00 0.644D+00
 Gap=     0.150 Goal=   None    Shift=    0.000
 RMSDP=1.18D-06 MaxDP=3.43D-05 DE=-1.71D-07 OVMax= 1.18D-04

 Cycle  12  Pass 1  IDiag  1:
 E= -731.459404683309     Delta-E=       -0.000000078946 Rises=F Damp=F
 DIIS: error= 2.73D-06 at cycle   4 NSaved=   4.
 NSaved= 4 IEnMin= 4 EnMin= -731.459404683309     IErMin= 4 ErrMin= 2.73D-06
 ErrMax= 2.73D-06 EMaxC= 1.00D-01 BMatC= 3.78D-09 BMatP= 7.45D-08
 IDIUse=1 WtCom= 1.00D+00 WtEn= 0.00D+00
 Coeff-Com: -0.176D-01 0.192D+00 0.373D+00 0.452D+00
 Coeff:     -0.176D-01 0.192D+00 0.373D+00 0.452D+00
 Gap=     0.150 Goal=   None    Shift=    0.000
 RMSDP=2.76D-07 MaxDP=1.02D-05 DE=-7.89D-08 OVMax= 2.14D-05

 Cycle  13  Pass 1  IDiag  1:
 E= -731.459404687272     Delta-E=       -0.000000003964 Rises=F Damp=F
 DIIS: error= 7.68D-07 at cycle   5 NSaved=   5.
 NSaved= 5 IEnMin= 5 EnMin= -731.459404687272     IErMin= 5 ErrMin= 7.68D-07
 ErrMax= 7.68D-07 EMaxC= 1.00D-01 BMatC= 1.53D-10 BMatP= 3.78D-09
 IDIUse=1 WtCom= 1.00D+00 WtEn= 0.00D+00
 Coeff-Com: -0.867D-02 0.845D-01 0.165D+00 0.242D+00 0.517D+00
 Coeff:     -0.867D-02 0.845D-01 0.165D+00 0.242D+00 0.517D+00
 Gap=     0.150 Goal=   None    Shift=    0.000
 RMSDP=7.07D-08 MaxDP=2.48D-06 DE=-3.96D-09 OVMax= 7.25D-06

 Cycle  14  Pass 1  IDiag  1:
 E= -731.459404687400     Delta-E=       -0.000000000128 Rises=F Damp=F
 DIIS: error= 2.87D-07 at cycle   6 NSaved=   6.
 NSaved= 6 IEnMin= 6 EnMin= -731.459404687400     IErMin= 6 ErrMin= 2.87D-07
 ErrMax= 2.87D-07 EMaxC= 1.00D-01 BMatC= 2.94D-11 BMatP= 1.53D-10
 IDIUse=1 WtCom= 1.00D+00 WtEn= 0.00D+00
 Coeff-Com: -0.259D-02 0.208D-01 0.408D-01 0.758D-01 0.324D+00 0.541D+00
 Coeff:     -0.259D-02 0.208D-01 0.408D-01 0.758D-01 0.324D+00 0.541D+00
 Gap=     0.150 Goal=   None    Shift=    0.000
 RMSDP=2.78D-08 MaxDP=9.31D-07 DE=-1.28D-10 OVMax= 3.17D-06

 Cycle  15  Pass 1  IDiag  1:
 E= -731.459404687428     Delta-E=       -0.000000000027 Rises=F Damp=F
 DIIS: error= 8.04D-08 at cycle   7 NSaved=   7.
 NSaved= 7 IEnMin= 7 EnMin= -731.459404687428     IErMin= 7 ErrMin= 8.04D-08
 ErrMax= 8.04D-08 EMaxC= 1.00D-01 BMatC= 3.17D-12 BMatP= 2.94D-11
 IDIUse=1 WtCom= 1.00D+00 WtEn= 0.00D+00
 Coeff-Com: -0.980D-03 0.676D-02 0.132D-01 0.281D-01 0.154D+00 0.327D+00
 Coeff-Com:  0.471D+00
 Coeff:     -0.980D-03 0.676D-02 0.132D-01 0.281D-01 0.154D+00 0.327D+00
 Coeff:      0.471D+00
 Gap=     0.150 Goal=   None    Shift=    0.000
 RMSDP=9.43D-09 MaxDP=5.02D-07 DE=-2.73D-11 OVMax= 1.16D-06

 SCF Done:  E(RB3LYP) =  -731.459404687     A.U. after   15 cycles
             Convg  =    0.9431D-08             -V/T =  2.0097
 KE= 7.244261790861D+02 PE=-4.100050506952D+03 EE= 1.442523228465D+03
 Leave Link  502 at Tue Sep 28 15:41:49 2021, MaxMem= 1342177280 cpu:     636.4
 (Enter /sw/target/amd/app/gaussian/Gaussian09RevA.02_gcc-4.9.2/g09/l508.exe)
 QCSCF skips out because SCF is already converged.
 Leave Link  508 at Tue Sep 28 15:41:55 2021, MaxMem= 1342177280 cpu:       0.0
 (Enter /sw/target/amd/app/gaussian/Gaussian09RevA.02_gcc-4.9.2/g09/l601.exe)
 Copying SCF densities to generalized density rwf, IOpCl= 0 IROHF=0.

 **********************************************************************

            Population analysis using the SCF density.

 **********************************************************************

 Orbital symmetries:
       Occupied  (A) (A) (A) (A) (A) (A) (A) (A) (A) (A) (A) (A)
                 (A) (A) (A) (A) (A) (A) (A) (A) (A) (A) (A) (A)
                 (A) (A) (A) (A) (A) (A) (A) (A) (A) (A) (A) (A)
                 (A) (A) (A) (A) (A) (A) (A) (A) (A) (A) (A) (A)
                 (A) (A) (A) (A) (A) (A) (A) (A) (A) (A) (A) (A)
                 (A) (A)
       Virtual   (A) (A) (A) (A) (A) (A) (A) (A) (A) (A) (A) (A)
                 (A) (A) (A) (A) (A) (A) (A) (A) (A) (A) (A) (A)
                 (A) (A) (A) (A) (A) (A) (A) (A) (A) (A) (A) (A)
                 (A) (A) (A) (A) (A) (A) (A) (A) (A) (A) (A) (A)
                 (A) (A) (A) (A) (A) (A) (A) (A) (A) (A) (A) (A)
                 (A) (A) (A) (A) (A) (A) (A) (A) (A) (A) (A) (A)
                 (A) (A) (A) (A) (A) (A) (A) (A) (A) (A) (A) (A)
                 (A) (A) (A) (A) (A) (A) (A) (A) (A) (A) (A) (A)
                 (A) (A) (A) (A) (A) (A) (A) (A) (A) (A) (A) (A)
                 (A) (A) (A) (A) (A) (A) (A) (A) (A) (A) (A) (A)
                 (A) (A) (A) (A) (A) (A) (A) (A) (A) (A) (A) (A)
                 (A) (A) (A) (A) (A) (A) (A) (A) (A) (A) (A) (A)
                 (A) (A) (A) (A) (A) (A) (A) (A) (A) (A) (A) (A)
                 (A) (A) (A) (A) (A) (A) (A) (A) (A) (A) (A) (A)
                 (A) (A) (A) (A) (A) (A) (A) (A) (A) (A) (A) (A)
                 (A) (A) (A) (A) (A) (A) (A) (A) (A) (A) (A) (A)
                 (A) (A) (A) (A) (A) (A) (A) (A) (A) (A) (A) (A)
                 (A) (A) (A) (A) (A) (A) (A) (A) (A) (A) (A) (A)
                 (A) (A) (A) (A) (A) (A) (A) (A) (A) (A) (A) (A)
                 (A) (A) (A) (A) (A) (A) (A) (A)
 The electronic state is 1-A.
 Alpha  occ. eigenvalues --  -19.17681 -10.24981 -10.24156 -10.19664 -10.19541
 Alpha  occ. eigenvalues --  -10.19219 -10.19064 -10.18961 -10.18703 -10.18443
 Alpha  occ. eigenvalues --  -10.18389 -10.18208 -10.18195 -10.18163 -10.18135
 Alpha  occ. eigenvalues --  -10.18114 -10.18092 -10.18053  -1.05998  -0.87169
 Alpha  occ. eigenvalues --   -0.84452  -0.81482  -0.78036  -0.74530  -0.73651
 Alpha  occ. eigenvalues --   -0.73280  -0.71878  -0.68335  -0.63135  -0.60549
 Alpha  occ. eigenvalues --   -0.60004  -0.59016  -0.56876  -0.52788  -0.51642
 Alpha  occ. eigenvalues --   -0.50636  -0.49297  -0.47085  -0.46448  -0.44985
 Alpha  occ. eigenvalues --   -0.44448  -0.43923  -0.42965  -0.41610  -0.40961
 Alpha  occ. eigenvalues --   -0.40711  -0.39867  -0.38819  -0.38672  -0.35525
 Alpha  occ. eigenvalues --   -0.35069  -0.34734  -0.33969  -0.33685  -0.33249
 Alpha  occ. eigenvalues --   -0.31486  -0.29902  -0.27317  -0.24141  -0.23809
 Alpha  occ. eigenvalues --   -0.23178  -0.19124
 Alpha virt. eigenvalues --   -0.04125   0.00291   0.00524   0.01070   0.04314
 Alpha virt. eigenvalues --    0.09312   0.09912   0.10693   0.10936   0.11739
 Alpha virt. eigenvalues --    0.13116   0.15079   0.15202   0.15990   0.16485
 Alpha virt. eigenvalues --    0.16603   0.16800   0.17844   0.19110   0.19234
 Alpha virt. eigenvalues --    0.19487   0.20874   0.21654   0.23523   0.26675
 Alpha virt. eigenvalues --    0.27241   0.28890   0.30773   0.31517   0.31938
 Alpha virt. eigenvalues --    0.32510   0.33559   0.34483   0.36130   0.38454
 Alpha virt. eigenvalues --    0.40487   0.47005   0.48471   0.49353   0.50493
 Alpha virt. eigenvalues --    0.51348   0.52365   0.53407   0.53613   0.54131
 Alpha virt. eigenvalues --    0.55071   0.55907   0.56280   0.56385   0.56538
 Alpha virt. eigenvalues --    0.56891   0.57776   0.58145   0.59869   0.60425
 Alpha virt. eigenvalues --    0.60709   0.60917   0.61410   0.61517   0.62113
 Alpha virt. eigenvalues --    0.62544   0.62855   0.63372   0.63810   0.65212
 Alpha virt. eigenvalues --    0.65379   0.66390   0.67131   0.67996   0.69680
 Alpha virt. eigenvalues --    0.70175   0.73101   0.73943   0.78164   0.80896
 Alpha virt. eigenvalues --    0.82192   0.82573   0.82932   0.83983   0.84393
 Alpha virt. eigenvalues --    0.84598   0.84609   0.85203   0.86349   0.86608
 Alpha virt. eigenvalues --    0.87130   0.87497   0.89623   0.90175   0.91242
 Alpha virt. eigenvalues --    0.92175   0.93258   0.93666   0.95063   0.95908
 Alpha virt. eigenvalues --    0.97002   0.98825   1.01217   1.02142   1.03095
 Alpha virt. eigenvalues --    1.05062   1.05825   1.06090   1.07479   1.09642
 Alpha virt. eigenvalues --    1.12251   1.12884   1.15450   1.16145   1.18049
 Alpha virt. eigenvalues --    1.19337   1.20638   1.22585   1.25119   1.26617
 Alpha virt. eigenvalues --    1.26866   1.28939   1.29955   1.30812   1.37796
 Alpha virt. eigenvalues --    1.39051   1.40780   1.40856   1.43679   1.44212
 Alpha virt. eigenvalues --    1.45407   1.46248   1.47265   1.47922   1.49365
 Alpha virt. eigenvalues --    1.49802   1.50024   1.50504   1.51489   1.52364
 Alpha virt. eigenvalues --    1.52606   1.54739   1.59666   1.66047   1.70279
 Alpha virt. eigenvalues --    1.72300   1.75499   1.75978   1.80555   1.82033
 Alpha virt. eigenvalues --    1.83585   1.84392   1.86431   1.87643   1.88684
 Alpha virt. eigenvalues --    1.91462   1.92044   1.92216   1.92841   1.93684
 Alpha virt. eigenvalues --    1.95135   1.96831   1.97491   1.99058   2.02047
 Alpha virt. eigenvalues --    2.02681   2.03716   2.06254   2.07501   2.09946
 Alpha virt. eigenvalues --    2.12256   2.12795   2.14011   2.15037   2.16439
 Alpha virt. eigenvalues --    2.16879   2.17721   2.20539   2.21499   2.22483
 Alpha virt. eigenvalues --    2.25817   2.27058   2.28061   2.28791   2.30677
 Alpha virt. eigenvalues --    2.30887   2.33485   2.34130   2.34962   2.37128
 Alpha virt. eigenvalues --    2.38095   2.42052   2.44430   2.45614   2.51808
 Alpha virt. eigenvalues --    2.56180   2.57560   2.59159   2.61406   2.63138
 Alpha virt. eigenvalues --    2.65167   2.65791   2.67064   2.67894   2.70650
 Alpha virt. eigenvalues --    2.73123   2.75368   2.76235   2.76483   2.79083
 Alpha virt. eigenvalues --    2.79901   2.80920   2.86014   2.90367   2.90751
 Alpha virt. eigenvalues --    2.93007   3.03080   3.07181   3.09599   3.20580
 Alpha virt. eigenvalues --    3.38267   3.42406   3.50455   4.06421   4.09596
 Alpha virt. eigenvalues --    4.10304   4.11589   4.12744   4.13579   4.14869
 Alpha virt. eigenvalues --    4.18466   4.23029   4.29468   4.32846   4.37118
 Alpha virt. eigenvalues --    4.38281   4.44076   4.49584   4.64457   4.70470
 Alpha virt. eigenvalues --    4.88650
          Condensed to atoms (all electrons):
              1          2          3          4          5          6
     1  C    4.891441   0.249678  -0.043095  -0.007362   0.000412  -0.000043
     2  O    0.249678   8.208081   0.290305  -0.068957   0.004104   0.000023
     3  C   -0.043095   0.290305   4.721270   0.371466   0.019687  -0.057958
     4  C   -0.007362  -0.068957   0.371466   5.205768   0.438739   0.014160
     5  C    0.000412   0.004104   0.019687   0.438739   5.166421   0.429981
     6  C   -0.000043   0.000023  -0.057958   0.014160   0.429981   4.729780
     7  C    0.000046   0.002528   0.016054  -0.059696  -0.021291   0.451665
     8  C    0.005087  -0.062405   0.448303  -0.030921  -0.073961  -0.006680
     9  C   -0.000090  -0.004380  -0.074829   0.010707  -0.000819   0.008031
    10  C    0.000006  -0.000395   0.002124  -0.000133   0.000020  -0.000050
    11  C   -0.000000  -0.000015  -0.000077   0.000001  -0.000000   0.000007
    12  C   -0.000000   0.000015   0.000027   0.000000   0.000000   0.000000
    13  C    0.000006  -0.000351   0.000318   0.000000   0.000000   0.000001
    14  C    0.000015   0.001005  -0.006031   0.000220   0.000003  -0.000156
    15  C    0.000003  -0.000031   0.012254  -0.002040   0.019233  -0.044393
    16  C   -0.000000   0.000000  -0.000220   0.000080  -0.000653  -0.038359
    17  C    0.000000  -0.000000   0.000060  -0.000452   0.008940  -0.001281
    18  C   -0.000000  -0.000000  -0.001018   0.010464  -0.097902   0.445965
    19  H    0.385032  -0.031590   0.003047   0.000089   0.000001  -0.000000
    20  H    0.363208  -0.035637  -0.005238   0.005381  -0.000125   0.000009
    21  H    0.364863  -0.035622  -0.005754   0.004645  -0.000129   0.000004
    22  H    0.006601  -0.007870  -0.041646   0.349908  -0.032367   0.002359
    23  H   -0.000009  -0.000050   0.003019  -0.041909   0.353706  -0.037713
    24  H   -0.000000  -0.000003   0.000106   0.000006  -0.000011  -0.000199
    25  H    0.000000   0.000000   0.000000  -0.000000   0.000000  -0.000000
    26  H   -0.000000   0.000000   0.000000   0.000000  -0.000000   0.000000
    27  H    0.000000  -0.000005  -0.000009  -0.000000   0.000000  -0.000000
    28  H    0.000006   0.003084   0.002665  -0.000096  -0.000016   0.000008
    29  H    0.000000  -0.000000  -0.000008   0.000009  -0.000199   0.005290
    30  H    0.000000  -0.000000   0.000002  -0.000001   0.000007   0.000931
    31  H   -0.000000   0.000000  -0.000000   0.000004  -0.000218   0.002724
    32  H    0.000000  -0.000000  -0.000001   0.000420  -0.009087  -0.044388
              7          8          9         10         11         12
     1  C    0.000046   0.005087  -0.000090   0.000006  -0.000000  -0.000000
     2  O    0.002528  -0.062405  -0.004380  -0.000395  -0.000015   0.000015
     3  C    0.016054   0.448303  -0.074829   0.002124  -0.000077   0.000027
     4  C   -0.059696  -0.030921   0.010707  -0.000133   0.000001   0.000000
     5  C   -0.021291  -0.073961  -0.000819   0.000020  -0.000000   0.000000
     6  C    0.451665  -0.006680   0.008031  -0.000050   0.000007   0.000000
     7  C    4.790206   0.405992  -0.057659  -0.010747   0.000492   0.000021
     8  C    0.405992   5.276305   0.300300  -0.040836   0.005296   0.000486
     9  C   -0.057659   0.300300   4.822966   0.526108  -0.019588  -0.033428
    10  C   -0.010747  -0.040836   0.526108   4.970061   0.515716  -0.035619
    11  C    0.000492   0.005296  -0.019588   0.515716   4.879913   0.551921
    12  C    0.000021   0.000486  -0.033428  -0.035619   0.551921   4.850409
    13  C   -0.000082   0.006063  -0.015425  -0.046372  -0.028301   0.548241
    14  C    0.002602  -0.044221   0.535138  -0.045501  -0.044875  -0.035045
    15  C    0.440225  -0.107117  -0.017414  -0.002124  -0.000694  -0.000008
    16  C   -0.005311   0.007511   0.000659   0.000123  -0.000012  -0.000000
    17  C   -0.038764  -0.000821  -0.000013   0.000000   0.000000   0.000000
    18  C   -0.027377   0.015910  -0.000073  -0.000010  -0.000000  -0.000000
    19  H    0.000005   0.000099  -0.000033   0.000001  -0.000000  -0.000000
    20  H   -0.000030  -0.000244   0.000050  -0.000001  -0.000000   0.000000
    21  H   -0.000013  -0.000274   0.000007  -0.000000   0.000000   0.000000
    22  H    0.001338   0.002451  -0.000143   0.000001  -0.000000   0.000000
    23  H    0.004223   0.000781   0.000012  -0.000000   0.000000   0.000000
    24  H    0.001943  -0.005606  -0.044744   0.355792  -0.044605   0.004803
    25  H   -0.000006  -0.000173   0.003680  -0.039549   0.356834  -0.043828
    26  H    0.000000   0.000004   0.000597   0.004959  -0.044086   0.357559
    27  H    0.000001  -0.000173   0.003639   0.000766   0.004690  -0.044347
    28  H   -0.000087  -0.009042  -0.040593   0.006204   0.000375   0.005000
    29  H   -0.031415  -0.012184   0.007945   0.007566   0.000859  -0.000012
    30  H    0.002648  -0.000158  -0.000004  -0.000001  -0.000000  -0.000000
    31  H    0.001099   0.000015   0.000000   0.000000   0.000000  -0.000000
    32  H    0.004127  -0.000142   0.000002   0.000000   0.000000  -0.000000
             13         14         15         16         17         18
     1  C    0.000006   0.000015   0.000003  -0.000000   0.000000  -0.000000
     2  O   -0.000351   0.001005  -0.000031   0.000000  -0.000000  -0.000000
     3  C    0.000318  -0.006031   0.012254  -0.000220   0.000060  -0.001018
     4  C    0.000000   0.000220  -0.002040   0.000080  -0.000452   0.010464
     5  C    0.000000   0.000003   0.019233  -0.000653   0.008940  -0.097902
     6  C    0.000001  -0.000156  -0.044393  -0.038359  -0.001281   0.445965
     7  C   -0.000082   0.002602   0.440225  -0.005311  -0.038764  -0.027377
     8  C    0.006063  -0.044221  -0.107117   0.007511  -0.000821   0.015910
     9  C   -0.015425   0.535138  -0.017414   0.000659  -0.000013  -0.000073
    10  C   -0.046372  -0.045501  -0.002124   0.000123   0.000000  -0.000010
    11  C   -0.028301  -0.044875  -0.000694  -0.000012   0.000000  -0.000000
    12  C    0.548241  -0.035045  -0.000008  -0.000000   0.000000  -0.000000
    13  C    4.882433   0.518114  -0.000001  -0.000000   0.000000  -0.000000
    14  C    0.518114   4.933172   0.000551   0.000005   0.000000  -0.000000
    15  C   -0.000001   0.000551   5.201737   0.511321  -0.017898  -0.079511
    16  C   -0.000000   0.000005   0.511321   4.886460   0.506100  -0.021192
    17  C    0.000000   0.000000  -0.017898   0.506100   4.904855   0.506741
    18  C   -0.000000  -0.000000  -0.079511  -0.021192   0.506741   5.131530
    19  H    0.000004   0.000048  -0.000000   0.000000   0.000000  -0.000000
    20  H    0.000000   0.000008  -0.000000   0.000000  -0.000000   0.000000
    21  H   -0.000000  -0.000000  -0.000000   0.000000   0.000000   0.000000
    22  H   -0.000000  -0.000003   0.000018  -0.000000   0.000004  -0.000249
    23  H    0.000000   0.000000  -0.000220   0.000014   0.000284  -0.008725
    24  H    0.000430   0.005741   0.002449   0.000081  -0.000008   0.000001
    25  H    0.004662   0.000769   0.000002   0.000000  -0.000000   0.000000
    26  H   -0.043935   0.004879  -0.000000  -0.000000  -0.000000  -0.000000
    27  H    0.356670  -0.039175   0.000000  -0.000000  -0.000000   0.000000
    28  H   -0.046493   0.354489   0.000004   0.000001  -0.000000   0.000000
    29  H   -0.000064   0.000017   0.345207  -0.044981   0.004649   0.000651
    30  H   -0.000000   0.000000  -0.036836   0.358826  -0.043201   0.004610
    31  H   -0.000000   0.000000   0.004520  -0.042583   0.355112  -0.036570
    32  H    0.000000  -0.000000   0.000418   0.004963  -0.046227   0.357313
             19         20         21         22         23         24
     1  C    0.385032   0.363208   0.364863   0.006601  -0.000009  -0.000000
     2  O   -0.031590  -0.035637  -0.035622  -0.007870  -0.000050  -0.000003
     3  C    0.003047  -0.005238  -0.005754  -0.041646   0.003019   0.000106
     4  C    0.000089   0.005381   0.004645   0.349908  -0.041909   0.000006
     5  C    0.000001  -0.000125  -0.000129  -0.032367   0.353706  -0.000011
     6  C   -0.000000   0.000009   0.000004   0.002359  -0.037713  -0.000199
     7  C    0.000005  -0.000030  -0.000013   0.001338   0.004223   0.001943
     8  C    0.000099  -0.000244  -0.000274   0.002451   0.000781  -0.005606
     9  C   -0.000033   0.000050   0.000007  -0.000143   0.000012  -0.044744
    10  C    0.000001  -0.000001  -0.000000   0.000001  -0.000000   0.355792
    11  C   -0.000000  -0.000000   0.000000  -0.000000   0.000000  -0.044605
    12  C   -0.000000   0.000000   0.000000   0.000000   0.000000   0.004803
    13  C    0.000004   0.000000  -0.000000  -0.000000   0.000000   0.000430
    14  C    0.000048   0.000008  -0.000000  -0.000003   0.000000   0.005741
    15  C   -0.000000  -0.000000  -0.000000   0.000018  -0.000220   0.002449
    16  C    0.000000   0.000000   0.000000  -0.000000   0.000014   0.000081
    17  C    0.000000  -0.000000   0.000000   0.000004   0.000284  -0.000008
    18  C   -0.000000   0.000000   0.000000  -0.000249  -0.008725   0.000001
    19  H    0.540796  -0.033828  -0.034599  -0.000092  -0.000000  -0.000000
    20  H   -0.033828   0.598352  -0.045949   0.001658   0.000002  -0.000000
    21  H   -0.034599  -0.045949   0.597679   0.001962   0.000003   0.000000
    22  H   -0.000092   0.001658   0.001962   0.587405  -0.005177   0.000000
    23  H   -0.000000   0.000002   0.000003  -0.005177   0.593536  -0.000000
    24  H   -0.000000  -0.000000   0.000000   0.000000  -0.000000   0.595268
    25  H    0.000000   0.000000  -0.000000   0.000000  -0.000000  -0.005699
    26  H   -0.000000  -0.000000   0.000000  -0.000000  -0.000000  -0.000184
    27  H    0.000000  -0.000000   0.000000   0.000000  -0.000000   0.000017
    28  H   -0.000009  -0.000026   0.000014   0.000006  -0.000000  -0.000170
    29  H   -0.000000  -0.000000   0.000000   0.000000   0.000002  -0.000645
    30  H   -0.000000   0.000000  -0.000000  -0.000000  -0.000000   0.000001
    31  H   -0.000000  -0.000000   0.000000  -0.000000  -0.000015   0.000000
    32  H   -0.000000   0.000000   0.000000  -0.000015   0.006561  -0.000000
             25         26         27         28         29         30
     1  C    0.000000  -0.000000   0.000000   0.000006   0.000000   0.000000
     2  O    0.000000   0.000000  -0.000005   0.003084  -0.000000  -0.000000
     3  C    0.000000   0.000000  -0.000009   0.002665  -0.000008   0.000002
     4  C   -0.000000   0.000000  -0.000000  -0.000096   0.000009  -0.000001
     5  C    0.000000  -0.000000   0.000000  -0.000016  -0.000199   0.000007
     6  C   -0.000000   0.000000  -0.000000   0.000008   0.005290   0.000931
     7  C   -0.000006   0.000000   0.000001  -0.000087  -0.031415   0.002648
     8  C   -0.000173   0.000004  -0.000173  -0.009042  -0.012184  -0.000158
     9  C    0.003680   0.000597   0.003639  -0.040593   0.007945  -0.000004
    10  C   -0.039549   0.004959   0.000766   0.006204   0.007566  -0.000001
    11  C    0.356834  -0.044086   0.004690   0.000375   0.000859  -0.000000
    12  C   -0.043828   0.357559  -0.044347   0.005000  -0.000012  -0.000000
    13  C    0.004662  -0.043935   0.356670  -0.046493  -0.000064  -0.000000
    14  C    0.000769   0.004879  -0.039175   0.354489   0.000017   0.000000
    15  C    0.000002  -0.000000   0.000000   0.000004   0.345207  -0.036836
    16  C    0.000000  -0.000000  -0.000000   0.000001  -0.044981   0.358826
    17  C   -0.000000  -0.000000  -0.000000  -0.000000   0.004649  -0.043201
    18  C    0.000000  -0.000000   0.000000   0.000000   0.000651   0.004610
    19  H    0.000000  -0.000000   0.000000  -0.000009  -0.000000  -0.000000
    20  H    0.000000  -0.000000  -0.000000  -0.000026  -0.000000   0.000000
    21  H   -0.000000   0.000000   0.000000   0.000014   0.000000  -0.000000
    22  H    0.000000  -0.000000   0.000000   0.000006   0.000000  -0.000000
    23  H   -0.000000  -0.000000  -0.000000  -0.000000   0.000002  -0.000000
    24  H   -0.005699  -0.000184   0.000017  -0.000170  -0.000645   0.000001
    25  H    0.602168  -0.005775  -0.000199   0.000016  -0.000007   0.000000
    26  H   -0.005775   0.607077  -0.005757  -0.000184   0.000000   0.000000
    27  H   -0.000199  -0.005757   0.603689  -0.005831  -0.000001   0.000000
    28  H    0.000016  -0.000184  -0.005831   0.601816  -0.000006   0.000000
    29  H   -0.000007   0.000000  -0.000001  -0.000006   0.580268  -0.005384
    30  H    0.000000   0.000000   0.000000   0.000000  -0.005384   0.595288
    31  H    0.000000  -0.000000   0.000000  -0.000000  -0.000204  -0.005174
    32  H   -0.000000   0.000000  -0.000000  -0.000000   0.000018  -0.000212
             31         32
     1  C   -0.000000   0.000000
     2  O    0.000000  -0.000000
     3  C   -0.000000  -0.000001
     4  C    0.000004   0.000420
     5  C   -0.000218  -0.009087
     6  C    0.002724  -0.044388
     7  C    0.001099   0.004127
     8  C    0.000015  -0.000142
     9  C    0.000000   0.000002
    10  C    0.000000   0.000000
    11  C    0.000000   0.000000
    12  C   -0.000000  -0.000000
    13  C   -0.000000   0.000000
    14  C    0.000000  -0.000000
    15  C    0.004520   0.000418
    16  C   -0.042583   0.004963
    17  C    0.355112  -0.046227
    18  C   -0.036570   0.357313
    19  H   -0.000000  -0.000000
    20  H   -0.000000   0.000000
    21  H    0.000000   0.000000
    22  H   -0.000000  -0.000015
    23  H   -0.000015   0.006561
    24  H    0.000000  -0.000000
    25  H    0.000000  -0.000000
    26  H   -0.000000   0.000000
    27  H    0.000000  -0.000000
    28  H   -0.000000  -0.000000
    29  H   -0.000204   0.000018
    30  H   -0.005174  -0.000212
    31  H    0.601684  -0.005414
    32  H   -0.005414   0.605403
 Mulliken atomic charges:
              1
     1  C   -0.215805
     2  O   -0.511510
     3  C    0.345177
     4  C   -0.200501
     5  C   -0.204479
     6  C    0.140284
     7  C    0.127261
     8  C   -0.079646
     9  C    0.089396
    10  C   -0.168110
    11  C   -0.133847
    12  C   -0.126194
    13  C   -0.135917
    14  C   -0.141769
    15  C   -0.229654
    16  C   -0.122831
    17  C   -0.138080
    18  C   -0.200556
    19  H    0.171030
    20  H    0.152409
    21  H    0.153165
    22  H    0.133851
    23  H    0.131677
    24  H    0.135236
    25  H    0.127105
    26  H    0.124846
    27  H    0.126023
    28  H    0.128869
    29  H    0.142629
    30  H    0.128658
    31  H    0.125022
    32  H    0.126261
 Sum of Mulliken atomic charges =  -0.00000
 Mulliken charges with hydrogens summed into heavy atoms:
              1
     1  C    0.260799
     2  O   -0.511510
     3  C    0.345177
     4  C   -0.066650
     5  C   -0.072802
     6  C    0.140284
     7  C    0.127261
     8  C   -0.079646
     9  C    0.089396
    10  C   -0.032874
    11  C   -0.006742
    12  C   -0.001348
    13  C   -0.009894
    14  C   -0.012900
    15  C   -0.087025
    16  C    0.005827
    17  C   -0.013058
    18  C   -0.074295
 Sum of Mulliken charges with hydrogens summed into heavy atoms =  -0.00000
 Electronic spatial extent (au):  <R**2>=           4526.8293
 Charge=             -0.0000 electrons
 Dipole moment (field-independent basis, Debye):
    X=              0.2323    Y=              1.7601    Z=              0.0195  Tot=              1.7755
 Quadrupole moment (field-independent basis, Debye-Ang):
   XX=            -95.3546   YY=            -87.2411   ZZ=           -105.4579
   XY=              0.3501   XZ=              1.6968   YZ=             -1.8463
 Traceless Quadrupole moment (field-independent basis, Debye-Ang):
   XX=              0.6633   YY=              8.7768   ZZ=             -9.4400
   XY=              0.3501   XZ=              1.6968   YZ=             -1.8463
 Octapole moment (field-independent basis, Debye-Ang**2):
  XXX=              3.5662  YYY=             53.3970  ZZZ=              1.9915  XYY=             -5.2506
  XXY=             -3.8574  XXZ=             -7.2206  XZZ=            -14.9739  YZZ=              5.3905
  YYZ=              7.7482  XYZ=              7.1173
 Hexadecapole moment (field-independent basis, Debye-Ang**3):
 XXXX=          -3398.5529 YYYY=          -1982.2789 ZZZZ=           -286.1496 XXXY=             25.2375
 XXXZ=             41.3187 YYYX=            -83.1717 YYYZ=              2.8401 ZZZX=              6.4238
 ZZZY=            -10.9043 XXYY=           -895.1255 XXZZ=           -683.5811 YYZZ=           -425.3959
 XXYZ=             -9.3219 YYXZ=            -22.9382 ZZXY=              1.5357
 N-N= 1.201641694713D+03 E-N=-4.100050527242D+03  KE= 7.244261790861D+02
 No NMR shielding tensors so no spin-rotation constants.
 Leave Link  601 at Tue Sep 28 15:41:58 2021, MaxMem= 1342177280 cpu:       1.8
 (Enter /sw/target/amd/app/gaussian/Gaussian09RevA.02_gcc-4.9.2/g09/l701.exe)
 Compute integral first derivatives.
 ... and contract with generalized density number  0.
 Leave Link  701 at Tue Sep 28 15:42:00 2021, MaxMem= 1342177280 cpu:       1.5
 (Enter /sw/target/amd/app/gaussian/Gaussian09RevA.02_gcc-4.9.2/g09/l702.exe)
 L702 exits ... SP integral derivatives will be done elsewhere.
 Leave Link  702 at Tue Sep 28 15:42:00 2021, MaxMem= 1342177280 cpu:       0.1
 (Enter /sw/target/amd/app/gaussian/Gaussian09RevA.02_gcc-4.9.2/g09/l703.exe)
 Compute integral first derivatives, UseDBF=F ICtDFT=           0.
 Integral derivatives from FoFDir, PRISM(SPDF).
 Calling FoFJK, ICntrl=      2127 FMM=F ISym2X=0 I1Cent= 0 IOpClX= 0 NMat=1 NMatS=1 NMatT=0.
 FoFCou: FMM=F IPFlag=           0 FMFlag=      100000 FMFlg1=         800
         NFxFlg=           0 DoJE=F BraDBF=F KetDBF=F FulRan=T
         Omega=  0.000000  0.000000  1.000000  0.000000  0.000000 ICntrl=    2127 IOpCl=  0
         NMat0=    1 NMatS0=    1 NMatT0=    0 NMatD0=    1 NMtDS0=    0 NMtDT0=    0
         I1Cent=           0 NGrid=           0.
 Symmetry not used in FoFCou.
 Leave Link  703 at Tue Sep 28 15:43:36 2021, MaxMem= 1342177280 cpu:     186.4
 (Enter /sw/target/amd/app/gaussian/Gaussian09RevA.02_gcc-4.9.2/g09/l716.exe)
 Dipole        = 9.14053999D-02 6.92496114D-01 7.67714016D-03
 ***** Axes restored to original set *****
 -------------------------------------------------------------------
 Center     Atomic                   Forces (Hartrees/Bohr)
 Number     Number              X              Y              Z
 -------------------------------------------------------------------
      1        6           0.001099282   -0.002052353   -0.003682107
      2        8           0.000723760    0.002507667    0.002185714
      3        6           0.015893588    0.008830228   -0.021531663
      4        6           0.001075094    0.005885579    0.024483870
      5        6          -0.018765864   -0.016797724   -0.008290934
      6        6          -0.002201150    0.000702847    0.013667267
      7        6          -0.001230639   -0.004585412   -0.012036144
      8        6          -0.008410282   -0.005587728    0.004149729
      9        6          -0.000317524   -0.001192420   -0.004168429
     10        6           0.003718908    0.001030321    0.000874402
     11        6          -0.000621661   -0.000283202    0.003393909
     12        6           0.001102231   -0.000501235   -0.003682506
     13        6          -0.001699148    0.000716383    0.004744823
     14        6          -0.003529380   -0.000236458   -0.001999316
     15        6           0.015175467    0.011453050   -0.003693610
     16        6          -0.006471792   -0.009227873   -0.025729640
     17        6          -0.013898273   -0.007749320    0.021850605
     18        6           0.021167965    0.018033439    0.005711733
     19        1           0.004422880    0.002694399   -0.001926937
     20        1          -0.001058476    0.000220966    0.004336391
     21        1          -0.001718366    0.000815601    0.003576677
     22        1          -0.000180351   -0.001036508   -0.003220995
     23        1           0.001763543    0.001131360   -0.000335352
     24        1          -0.002307223    0.000682217    0.000269166
     25        1           0.000038875   -0.000706315    0.000652744
     26        1           0.000303611    0.000086438   -0.000529875
     27        1          -0.000018378    0.000866645    0.000515183
     28        1           0.002622623   -0.000246197    0.001139405
     29        1          -0.002936210   -0.003218090    0.001330149
     30        1          -0.001095931   -0.000275451   -0.001566518
     31        1           0.000035643    0.000305661    0.001305298
     32        1          -0.002682824   -0.002266518   -0.001793040
 -------------------------------------------------------------------
 Cartesian Forces:  Max     0.025729640 RMS     0.007629215
 Leave Link  716 at Tue Sep 28 15:43:39 2021, MaxMem= 1342177280 cpu:       0.1
[...]
    27    O    2  dxz    Ryd( 3d)     0.00151
    28    O    2  dyz    Ryd( 3d)     0.00048
    29    O    2  dx2y2  Ryd( 3d)     0.00128
    30    O    2  dz2    Ryd( 3d)     0.00075

    31    C    3  S      Cor( 1S)     1.99872
    32    C    3  S      Val( 2S)     0.83317
    33    C    3  S      Ryd( 3S)     0.00177
    34    C    3  S      Ryd( 4S)     0.00013
    35    C    3  px     Val( 2p)     0.83105
    36    C    3  px     Ryd( 3p)     0.00817
    37    C    3  py     Val( 2p)     0.99554
    38    C    3  py     Ryd( 3p)     0.00402
    39    C    3  pz     Val( 2p)     0.93720
    40    C    3  pz     Ryd( 3p)     0.00095
    41    C    3  dxy    Ryd( 3d)     0.00158
    42    C    3  dxz    Ryd( 3d)     0.00171
    43    C    3  dyz    Ryd( 3d)     0.00134
    44    C    3  dx2y2  Ryd( 3d)     0.00155
    45    C    3  dz2    Ryd( 3d)     0.00047

    46    C    4  S      Cor( 1S)     1.99904
    47    C    4  S      Val( 2S)     0.94711
    48    C    4  S      Ryd( 3S)     0.00075
    49    C    4  S      Ryd( 4S)     0.00005
    50    C    4  px     Val( 2p)     1.06433
    51    C    4  px     Ryd( 3p)     0.00466
    52    C    4  py     Val( 2p)     1.19768
    53    C    4  py     Ryd( 3p)     0.00362
    54    C    4  pz     Val( 2p)     1.15467
    55    C    4  pz     Ryd( 3p)     0.00321
    56    C    4  dxy    Ryd( 3d)     0.00059
    57    C    4  dxz    Ryd( 3d)     0.00058
    58    C    4  dyz    Ryd( 3d)     0.00038
    59    C    4  dx2y2  Ryd( 3d)     0.00072
    60    C    4  dz2    Ryd( 3d)     0.00046

    61    C    5  S      Cor( 1S)     1.99906
    62    C    5  S      Val( 2S)     0.94144
    63    C    5  S      Ryd( 3S)     0.00074
    64    C    5  S      Ryd( 4S)     0.00006
    65    C    5  px     Val( 2p)     1.16227
    66    C    5  px     Ryd( 3p)     0.00454
    67    C    5  py     Val( 2p)     1.07595
    68    C    5  py     Ryd( 3p)     0.00465
    69    C    5  pz     Val( 2p)     1.01466
    70    C    5  pz     Ryd( 3p)     0.00333
    71    C    5  dxy    Ryd( 3d)     0.00077
    72    C    5  dxz    Ryd( 3d)     0.00046
    73    C    5  dyz    Ryd( 3d)     0.00056
    74    C    5  dx2y2  Ryd( 3d)     0.00070
    75    C    5  dz2    Ryd( 3d)     0.00043

    76    C    6  S      Cor( 1S)     1.99902
    77    C    6  S      Val( 2S)     0.86878
    78    C    6  S      Ryd( 3S)     0.00047
    79    C    6  S      Ryd( 4S)     0.00006
    80    C    6  px     Val( 2p)     1.08435
    81    C    6  px     Ryd( 3p)     0.00519
    82    C    6  py     Val( 2p)     1.09053
    83    C    6  py     Ryd( 3p)     0.00524
    84    C    6  pz     Val( 2p)     0.99450
    85    C    6  pz     Ryd( 3p)     0.00083
    86    C    6  dxy    Ryd( 3d)     0.00071
    87    C    6  dxz    Ryd( 3d)     0.00054
    88    C    6  dyz    Ryd( 3d)     0.00092
    89    C    6  dx2y2  Ryd( 3d)     0.00071
    90    C    6  dz2    Ryd( 3d)     0.00034

    91    C    7  S      Cor( 1S)     1.99899
    92    C    7  S      Val( 2S)     0.86286
    93    C    7  S      Ryd( 3S)     0.00053
    94    C    7  S      Ryd( 4S)     0.00006
    95    C    7  px     Val( 2p)     1.06675
    96    C    7  px     Ryd( 3p)     0.00485
    97    C    7  py     Val( 2p)     1.09596
    98    C    7  py     Ryd( 3p)     0.00517
    99    C    7  pz     Val( 2p)     1.00921
   100    C    7  pz     Ryd( 3p)     0.00103
   101    C    7  dxy    Ryd( 3d)     0.00075
   102    C    7  dxz    Ryd( 3d)     0.00050
   103    C    7  dyz    Ryd( 3d)     0.00090
   104    C    7  dx2y2  Ryd( 3d)     0.00064
   105    C    7  dz2    Ryd( 3d)     0.00034

   106    C    8  S      Cor( 1S)     1.99892
   107    C    8  S      Val( 2S)     0.86490
   108    C    8  S      Ryd( 3S)     0.00079
   109    C    8  S      Ryd( 4S)     0.00007
   110    C    8  px     Val( 2p)     1.07058
   111    C    8  px     Ryd( 3p)     0.00486
   112    C    8  py     Val( 2p)     1.07066
   113    C    8  py     Ryd( 3p)     0.00392
   114    C    8  pz     Val( 2p)     1.02518
   115    C    8  pz     Ryd( 3p)     0.00629
   116    C    8  dxy    Ryd( 3d)     0.00059
   117    C    8  dxz    Ryd( 3d)     0.00049
   118    C    8  dyz    Ryd( 3d)     0.00061
   119    C    8  dx2y2  Ryd( 3d)     0.00094
   120    C    8  dz2    Ryd( 3d)     0.00037

   121    C    9  S      Cor( 1S)     1.99902
   122    C    9  S      Val( 2S)     0.87482
   123    C    9  S      Ryd( 3S)     0.00125
   124    C    9  S      Ryd( 4S)     0.00006
   125    C    9  px     Val( 2p)     1.05409
   126    C    9  px     Ryd( 3p)     0.00516
   127    C    9  py     Val( 2p)     1.03043
   128    C    9  py     Ryd( 3p)     0.00484
   129    C    9  pz     Val( 2p)     1.07867
   130    C    9  pz     Ryd( 3p)     0.00326
   131    C    9  dxy    Ryd( 3d)     0.00049
   132    C    9  dxz    Ryd( 3d)     0.00079
   133    C    9  dyz    Ryd( 3d)     0.00059
   134    C    9  dx2y2  Ryd( 3d)     0.00052
   135    C    9  dz2    Ryd( 3d)     0.00062

   136    C   10  S      Cor( 1S)     1.99901
   137    C   10  S      Val( 2S)     0.95492
   138    C   10  S      Ryd( 3S)     0.00071
   139    C   10  S      Ryd( 4S)     0.00005
   140    C   10  px     Val( 2p)     1.10486
   141    C   10  px     Ryd( 3p)     0.00333
   142    C   10  py     Val( 2p)     1.00624
   143    C   10  py     Ryd( 3p)     0.00168
   144    C   10  pz     Val( 2p)     1.13270
   145    C   10  pz     Ryd( 3p)     0.00437
   146    C   10  dxy    Ryd( 3d)     0.00044
   147    C   10  dxz    Ryd( 3d)     0.00085
   148    C   10  dyz    Ryd( 3d)     0.00040
   149    C   10  dx2y2  Ryd( 3d)     0.00057
   150    C   10  dz2    Ryd( 3d)     0.00057

   151    C   11  S      Cor( 1S)     1.99909
   152    C   11  S      Val( 2S)     0.96030
   153    C   11  S      Ryd( 3S)     0.00058
   154    C   11  S      Ryd( 4S)     0.00003
   155    C   11  px     Val( 2p)     1.06418
   156    C   11  px     Ryd( 3p)     0.00399
   157    C   11  py     Val( 2p)     1.06442
   158    C   11  py     Ryd( 3p)     0.00235
   159    C   11  pz     Val( 2p)     1.13801
   160    C   11  pz     Ryd( 3p)     0.00444
   161    C   11  dxy    Ryd( 3d)     0.00052
   162    C   11  dxz    Ryd( 3d)     0.00057
   163    C   11  dyz    Ryd( 3d)     0.00066
   164    C   11  dx2y2  Ryd( 3d)     0.00046
   165    C   11  dz2    Ryd( 3d)     0.00057

   166    C   12  S      Cor( 1S)     1.99909
   167    C   12  S      Val( 2S)     0.96288
   168    C   12  S      Ryd( 3S)     0.00052
   169    C   12  S      Ryd( 4S)     0.00003
   170    C   12  px     Val( 2p)     1.15704
   171    C   12  px     Ryd( 3p)     0.00432
   172    C   12  py     Val( 2p)     1.04879
   173    C   12  py     Ryd( 3p)     0.00234
   174    C   12  pz     Val( 2p)     1.05053
   175    C   12  pz     Ryd( 3p)     0.00384
   176    C   12  dxy    Ryd( 3d)     0.00063
   177    C   12  dxz    Ryd( 3d)     0.00054
   178    C   12  dyz    Ryd( 3d)     0.00047
   179    C   12  dx2y2  Ryd( 3d)     0.00050
   180    C   12  dz2    Ryd( 3d)     0.00065

   181    C   13  S      Cor( 1S)     1.99909
   182    C   13  S      Val( 2S)     0.96119
   183    C   13  S      Ryd( 3S)     0.00057
   184    C   13  S      Ryd( 4S)     0.00004
   185    C   13  px     Val( 2p)     1.09958
   186    C   13  px     Ryd( 3p)     0.00414
   187    C   13  py     Val( 2p)     1.02202
   188    C   13  py     Ryd( 3p)     0.00196
   189    C   13  pz     Val( 2p)     1.13482
   190    C   13  pz     Ryd( 3p)     0.00430
   191    C   13  dxy    Ryd( 3d)     0.00043
   192    C   13  dxz    Ryd( 3d)     0.00083
   193    C   13  dyz    Ryd( 3d)     0.00041
   194    C   13  dx2y2  Ryd( 3d)     0.00057
   195    C   13  dz2    Ryd( 3d)     0.00057

   196    C   14  S      Cor( 1S)     1.99901
   197    C   14  S      Val( 2S)     0.95231
   198    C   14  S      Ryd( 3S)     0.00069
   199    C   14  S      Ryd( 4S)     0.00005
   200    C   14  px     Val( 2p)     1.05661
   201    C   14  px     Ryd( 3p)     0.00304
   202    C   14  py     Val( 2p)     1.06224
   203    C   14  py     Ryd( 3p)     0.00258
   204    C   14  pz     Val( 2p)     1.12995
   205    C   14  pz     Ryd( 3p)     0.00449
   206    C   14  dxy    Ryd( 3d)     0.00051
   207    C   14  dxz    Ryd( 3d)     0.00058
   208    C   14  dyz    Ryd( 3d)     0.00065
   209    C   14  dx2y2  Ryd( 3d)     0.00047
   210    C   14  dz2    Ryd( 3d)     0.00057

   211    C   15  S      Cor( 1S)     1.99907
   212    C   15  S      Val( 2S)     0.94658
   213    C   15  S      Ryd( 3S)     0.00071
   214    C   15  S      Ryd( 4S)     0.00005
   215    C   15  px     Val( 2p)     1.17367
   216    C   15  px     Ryd( 3p)     0.00399
   217    C   15  py     Val( 2p)     1.07290
   218    C   15  py     Ryd( 3p)     0.00429
   219    C   15  pz     Val( 2p)     1.01629
   220    C   15  pz     Ryd( 3p)     0.00274
   221    C   15  dxy    Ryd( 3d)     0.00077
   222    C   15  dxz    Ryd( 3d)     0.00044
   223    C   15  dyz    Ryd( 3d)     0.00052
   224    C   15  dx2y2  Ryd( 3d)     0.00072
   225    C   15  dz2    Ryd( 3d)     0.00042

   226    C   16  S      Cor( 1S)     1.99911
   227    C   16  S      Val( 2S)     0.95605
   228    C   16  S      Ryd( 3S)     0.00065
   229    C   16  S      Ryd( 4S)     0.00003
   230    C   16  px     Val( 2p)     1.05687
   231    C   16  px     Ryd( 3p)     0.00487
   232    C   16  py     Val( 2p)     1.19192
   233    C   16  py     Ryd( 3p)     0.00506
   234    C   16  pz     Val( 2p)     1.06416
   235    C   16  pz     Ryd( 3p)     0.00267
   236    C   16  dxy    Ryd( 3d)     0.00062
   237    C   16  dxz    Ryd( 3d)     0.00061
   238    C   16  dyz    Ryd( 3d)     0.00034
   239    C   16  dx2y2  Ryd( 3d)     0.00083
   240    C   16  dz2    Ryd( 3d)     0.00043

   241    C   17  S      Cor( 1S)     1.99910
   242    C   17  S      Val( 2S)     0.96580
   243    C   17  S      Ryd( 3S)     0.00056
   244    C   17  S      Ryd( 4S)     0.00004
   245    C   17  px     Val( 2p)     1.15755
   246    C   17  px     Ryd( 3p)     0.00497
   247    C   17  py     Val( 2p)     1.09892
   248    C   17  py     Ryd( 3p)     0.00461
   249    C   17  pz     Val( 2p)     0.94866
   250    C   17  pz     Ryd( 3p)     0.00114
   251    C   17  dxy    Ryd( 3d)     0.00081
   252    C   17  dxz    Ryd( 3d)     0.00040
   253    C   17  dyz    Ryd( 3d)     0.00078
   254    C   17  dx2y2  Ryd( 3d)     0.00073
   255    C   17  dz2    Ryd( 3d)     0.00043

   256    C   18  S      Cor( 1S)     1.99906
   257    C   18  S      Val( 2S)     0.94753
   258    C   18  S      Ryd( 3S)     0.00068
   259    C   18  S      Ryd( 4S)     0.00005
   260    C   18  px     Val( 2p)     1.14466
   261    C   18  px     Ryd( 3p)     0.00462
   262    C   18  py     Val( 2p)     1.09580
   263    C   18  py     Ryd( 3p)     0.00425
   264    C   18  pz     Val( 2p)     1.04038
   265    C   18  pz     Ryd( 3p)     0.00279
   266    C   18  dxy    Ryd( 3d)     0.00082
   267    C   18  dxz    Ryd( 3d)     0.00028
   268    C   18  dyz    Ryd( 3d)     0.00055
   269    C   18  dx2y2  Ryd( 3d)     0.00067
   270    C   18  dz2    Ryd( 3d)     0.00042

   271    H   19  S      Val( 1S)     0.76622
   272    H   19  S      Ryd( 2S)     0.00055

   273    H   20  S      Val( 1S)     0.78345
   274    H   20  S      Ryd( 2S)     0.00195

   275    H   21  S      Val( 1S)     0.78176
   276    H   21  S      Ryd( 2S)     0.00203

   277    H   22  S      Val( 1S)     0.76634
   278    H   22  S      Ryd( 2S)     0.00089

   279    H   23  S      Val( 1S)     0.76768
   280    H   23  S      Ryd( 2S)     0.00115

   281    H   24  S      Val( 1S)     0.75531
   282    H   24  S      Ryd( 2S)     0.00097

   283    H   25  S      Val( 1S)     0.76223
   284    H   25  S      Ryd( 2S)     0.00091

   285    H   26  S      Val( 1S)     0.76415
   286    H   26  S      Ryd( 2S)     0.00087

   287    H   27  S      Val( 1S)     0.76287
   288    H   27  S      Ryd( 2S)     0.00091

   289    H   28  S      Val( 1S)     0.75979
   290    H   28  S      Ryd( 2S)     0.00107

   291    H   29  S      Val( 1S)     0.76058
   292    H   29  S      Ryd( 2S)     0.00109

   293    H   30  S      Val( 1S)     0.76815
   294    H   30  S      Ryd( 2S)     0.00082

   295    H   31  S      Val( 1S)     0.76679
   296    H   31  S      Ryd( 2S)     0.00085

   297    H   32  S      Val( 1S)     0.77096
   298    H   32  S      Ryd( 2S)     0.00116

 WARNING:  1 low occupancy (<1.9990e) core orbital  found on  C    3
           1 low occupancy (<1.9990e) core orbital  found on  C    7
           1 low occupancy (<1.9990e) core orbital  found on  C    8


 Summary of Natural Population Analysis:                  
                                                          
                                       Natural Population 
                Natural  -----------------------------------------------
    Atom  No    Charge         Core      Valence    Rydberg      Total
 -----------------------------------------------------------------------
      C    1   -0.32133      1.99942     4.30788    0.01403     6.32133
      O    2   -0.45611      1.99974     6.44489    0.01148     8.45611
      C    3    0.38263      1.99872     3.59696    0.02169     5.61737
      C    4   -0.37786      1.99904     4.36379    0.01502     6.37786
      C    5   -0.20962      1.99906     4.19431    0.01624     6.20962
      C    6   -0.05220      1.99902     4.03816    0.01501     6.05220
      C    7   -0.04853      1.99899     4.03477    0.01477     6.04853
      C    8   -0.04917      1.99892     4.03132    0.01893     6.04917
      C    9   -0.05461      1.99902     4.03801    0.01758     6.05461
      C   10   -0.21069      1.99901     4.19871    0.01296     6.21069
      C   11   -0.24017      1.99909     4.22691    0.01417     6.24017
      C   12   -0.23216      1.99909     4.21923    0.01383     6.23216
      C   13   -0.23053      1.99909     4.21761    0.01382     6.23053
      C   14   -0.21375      1.99901     4.20111    0.01363     6.21375
      C   15   -0.22316      1.99907     4.20944    0.01465     6.22316
      C   16   -0.28421      1.99911     4.26900    0.01610     6.28421
      C   17   -0.18450      1.99910     4.17092    0.01447     6.18450
      C   18   -0.24255      1.99906     4.22836    0.01514     6.24255
      H   19    0.23323      0.00000     0.76622    0.00055     0.76677
      H   20    0.21460      0.00000     0.78345    0.00195     0.78540
      H   21    0.21620      0.00000     0.78176    0.00203     0.78380
      H   22    0.23276      0.00000     0.76634    0.00089     0.76724
      H   23    0.23117      0.00000     0.76768    0.00115     0.76883
      H   24    0.24371      0.00000     0.75531    0.00097     0.75629
      H   25    0.23686      0.00000     0.76223    0.00091     0.76314
      H   26    0.23498      0.00000     0.76415    0.00087     0.76502
      H   27    0.23622      0.00000     0.76287    0.00091     0.76378
      H   28    0.23915      0.00000     0.75979    0.00107     0.76085
      H   29    0.23833      0.00000     0.76058    0.00109     0.76167
      H   30    0.23103      0.00000     0.76815    0.00082     0.76897
      H   31    0.23236      0.00000     0.76679    0.00085     0.76764
      H   32    0.22788      0.00000     0.77096    0.00116     0.77212
 =======================================================================
   * Total *   -0.00000     35.98359    87.72768    0.28873   124.00000

                                 Natural Population      
 --------------------------------------------------------
   Core                      35.98359 ( 99.9544% of  36)
   Valence                   87.72768 ( 99.6905% of  88)
   Natural Minimal Basis    123.71127 ( 99.7672% of 124)
   Natural Rydberg Basis      0.28873 (  0.2328% of 124)
 --------------------------------------------------------

    Atom  No          Natural Electron Configuration
 ----------------------------------------------------------------------------
      C    1      [core]2S( 1.10)2p( 3.21)3p( 0.01)3d( 0.01)
      O    2      [core]2S( 1.59)2p( 4.85)3p( 0.01)3d( 0.01)
      C    3      [core]2S( 0.83)2p( 2.76)3p( 0.01)3d( 0.01)
      C    4      [core]2S( 0.95)2p( 3.42)3p( 0.01)
      C    5      [core]2S( 0.94)2p( 3.25)3p( 0.01)
      C    6      [core]2S( 0.87)2p( 3.17)3p( 0.01)
      C    7      [core]2S( 0.86)2p( 3.17)3p( 0.01)
      C    8      [core]2S( 0.86)2p( 3.17)3p( 0.02)
      C    9      [core]2S( 0.87)2p( 3.16)3p( 0.01)
      C   10      [core]2S( 0.95)2p( 3.24)3p( 0.01)
      C   11      [core]2S( 0.96)2p( 3.27)3p( 0.01)
      C   12      [core]2S( 0.96)2p( 3.26)3p( 0.01)
      C   13      [core]2S( 0.96)2p( 3.26)3p( 0.01)
      C   14      [core]2S( 0.95)2p( 3.25)3p( 0.01)
      C   15      [core]2S( 0.95)2p( 3.26)3p( 0.01)
      C   16      [core]2S( 0.96)2p( 3.31)3p( 0.01)
      C   17      [core]2S( 0.97)2p( 3.21)3p( 0.01)
      C   18      [core]2S( 0.95)2p( 3.28)3p( 0.01)
      H   19            1S( 0.77)
      H   20            1S( 0.78)
      H   21            1S( 0.78)
      H   22            1S( 0.77)
      H   23            1S( 0.77)
      H   24            1S( 0.76)
      H   25            1S( 0.76)
      H   26            1S( 0.76)
      H   27            1S( 0.76)
      H   28            1S( 0.76)
      H   29            1S( 0.76)
      H   30            1S( 0.77)
      H   31            1S( 0.77)
      H   32            1S( 0.77)


 NBO analysis skipped by request.
 Leave Link  607 at Wed Sep 29 00:13:04 2021, MaxMem= 1342177280 cpu:      21.1
 (Enter /sw/target/amd/app/gaussian/Gaussian09RevA.02_gcc-4.9.2/g09/l9999.exe)
 1\1\GINC-HERMITE\SP\RTD-B3LYP-FC\6-31G(d)\C17H14O1\JSCHLEINITZ\29-Sep-
 2021\0\\#p TD(NStates=10, Root=1) b3lyp/6-31G* volume pop=NPA density=
 current Geom=AllCheck Guess=Read\\COc1ccc2c(c1c1ccccc1)cccc2_conf_0\\0
 ,1\C,0,1.492682711,-0.7121991079,0.4993754845\O,0,2.5546487437,0.12410
 87005,0.0728985439\C,0,3.2145311383,0.8864380369,0.9972476846\C,0,2.86
 59124265,0.8896565376,2.3713949611\C,0,3.5735468424,1.6631172062,3.261
 6164185\C,0,4.6501922515,2.4752609763,2.8332294904\C,0,5.0027573784,2.
 4783956256,1.4409869187\C,0,4.2732500892,1.6598853977,0.5217922376\C,0
 ,4.6350016869,1.6090440784,-0.9272196657\C,0,5.8523535675,1.0465650029
 ,-1.3407076297\C,0,6.195498009,0.9975499356,-2.6926113613\C,0,5.325251
 2217,1.5104786007,-3.6555417046\C,0,4.1098678382,2.0708369598,-3.25706
 53075\C,0,3.7683480794,2.118407274,-1.905895997\C,0,6.0699379305,3.329
 8408039,1.0295982434\C,0,6.753085074,4.1060273312,1.9379871325\C,0,6.4
 126589543,4.0841082679,3.3126107321\C,0,5.3797051045,3.2862978658,3.74
 43001536\H,0,1.1404793177,-1.2223191432,-0.3992451618\H,0,0.6650650178
 ,-0.134449605,0.9323989358\H,0,1.8303510863,-1.4602967914,1.2289112677
 \H,0,2.0456542388,0.2778715617,2.7281156936\H,0,3.3043332561,1.6574807
 304,4.3152224162\H,0,6.5298507765,0.6406142636,-0.5941963209\H,0,7.142
 1795843,0.5552766228,-2.9924752898\H,0,5.5913625772,1.4733952059,-4.70
 87088911\H,0,3.4258784716,2.4732968282,-3.9999991605\H,0,2.821226227,2
 .5532494193,-1.5998953437\H,0,6.337878328,3.3660434175,-0.0204663685\H
 ,0,7.5609880588,4.7476349529,1.5956876917\H,0,6.9630198352,4.700919061
 2,4.0177689177\H,0,5.0994633049,3.2649375768,4.795228736\\Version=AM64
 L-G09RevA.02\State=1-A\HF=-731.464518\RMSD=8.561e-09\Dipole=-0.8131637
 ,-0.7664693,-0.2018914\Quadrupole=2.7384516,-2.9162211,0.1777695,5.083
 2117,-1.6122397,-0.4988\PG=C01 [X(C17H14O1)]\\@


 I am not a vegetarian because I love animals;
 I am a vegetarian because I hate plants.
                               -- A. Whitney Brown
 Job cpu time:  0 days  5 hours  0 minutes 37.8 seconds.
 File lengths (MBytes):  RWF=    283 Int=      0 D2E=      0 Chk=     40 Scr=      1
 Normal termination of Gaussian 09 at Wed Sep 29 00:13:10 2021.
