 Entering Gaussian System, Link 0=g09
 Input=C17H18O4_9d9c_conf_0.com
 Output=C17H18O4_9d9c_conf_0.log
 Initial command:
 /sw/target/amd/app/gaussian/Gaussian09RevA.02_gcc-4.9.2/g09/l1.exe /home/jschleinitz/gaussian/Gau-820117.inp -scrdir=/home/jschleinitz/gaussian/
 Entering Link 1 = /sw/target/amd/app/gaussian/Gaussian09RevA.02_gcc-4.9.2/g09/l1.exe PID=    820135.
  
 Copyright (c) 1988,1990,1992,1993,1995,1998,2003,2009, Gaussian, Inc.
                  All Rights Reserved.
  
 This is part of the Gaussian(R) 09 program.  It is based on
 the Gaussian(R) 03 system (copyright 2003, Gaussian, Inc.),
 the Gaussian(R) 98 system (copyright 1998, Gaussian, Inc.),
 the Gaussian(R) 94 system (copyright 1995, Gaussian, Inc.),
 the Gaussian 92(TM) system (copyright 1992, Gaussian, Inc.),
 the Gaussian 90(TM) system (copyright 1990, Gaussian, Inc.),
 the Gaussian 88(TM) system (copyright 1988, Gaussian, Inc.),
 the Gaussian 86(TM) system (copyright 1986, Carnegie Mellon
 University), and the Gaussian 82(TM) system (copyright 1983,
 Carnegie Mellon University). Gaussian is a federally registered
 trademark of Gaussian, Inc.
  
 This software contains proprietary and confidential information,
 including trade secrets, belonging to Gaussian, Inc.
  
 This software is provided under written license and may be
 used, copied, transmitted, or stored only in accord with that
 written license.
  
 The following legend is applicable only to US Government
 contracts under FAR:
  
                    RESTRICTED RIGHTS LEGEND
  
 Use, reproduction and disclosure by the US Government is
 subject to restrictions as set forth in subparagraphs (a)
 and (c) of the Commercial Computer Software - Restricted
 Rights clause in FAR 52.227-19.
  
 Gaussian, Inc.
 340 Quinnipiac St., Bldg. 40, Wallingford CT 06492
  
  
 ---------------------------------------------------------------
 Warning -- This program may not be used in any manner that
 competes with the business of Gaussian, Inc. or will provide
 assistance to any competitor of Gaussian, Inc.  The licensee
 of this program is prohibited from giving any competitor of
 Gaussian, Inc. access to this program.  By using this program,
 the user acknowledges that Gaussian, Inc. is engaged in the
 business of creating and licensing software in the field of
 computational chemistry and represents and warrants to the
 licensee that it is not a competitor of Gaussian, Inc. and that
 it will not use this program in any manner prohibited above.
 ---------------------------------------------------------------
  

 Cite this work as:
 Gaussian 09, Revision A.02,
 M. J. Frisch, G. W. Trucks, H. B. Schlegel, G. E. Scuseria, 
 M. A. Robb, J. R. Cheeseman, G. Scalmani, V. Barone, B. Mennucci, 
 G. A. Petersson, H. Nakatsuji, M. Caricato, X. Li, H. P. Hratchian, 
 A. F. Izmaylov, J. Bloino, G. Zheng, J. L. Sonnenberg, M. Hada, 
 M. Ehara, K. Toyota, R. Fukuda, J. Hasegawa, M. Ishida, T. Nakajima, 
 Y. Honda, O. Kitao, H. Nakai, T. Vreven, J. A. Montgomery, Jr., 
 J. E. Peralta, F. Ogliaro, M. Bearpark, J. J. Heyd, E. Brothers, 
 K. N. Kudin, V. N. Staroverov, R. Kobayashi, J. Normand, 
 K. Raghavachari, A. Rendell, J. C. Burant, S. S. Iyengar, J. Tomasi, 
 M. Cossi, N. Rega, J. M. Millam, M. Klene, J. E. Knox, J. B. Cross, 
 V. Bakken, C. Adamo, J. Jaramillo, R. Gomperts, R. E. Stratmann, 
 O. Yazyev, A. J. Austin, R. Cammi, C. Pomelli, J. W. Ochterski, 
 R. L. Martin, K. Morokuma, V. G. Zakrzewski, G. A. Voth, 
 P. Salvador, J. J. Dannenberg, S. Dapprich, A. D. Daniels, 
 O. Farkas, J. B. Foresman, J. V. Ortiz, J. Cioslowski, 
 and D. J. Fox, Gaussian, Inc., Wallingford CT, 2009.
 
 ******************************************
 Gaussian 09:  AM64L-G09RevA.02 11-Jun-2009
                29-Sep-2021 
 ******************************************
 %nproc=6
 Will use up to    6 processors via shared memory.
 %mem=12gb
 %chk=C17H18O4_9d9c_conf_0.chk
 -----------------------------------
 #p opt b3lyp/6-31G* scf=(xqc,tight)
 -----------------------------------
 1/14=-1,18=20,19=15,26=3,38=1/1,3;
 2/9=110,12=2,17=6,18=5,40=1/2;
 3/5=1,6=6,7=1,11=2,16=1,25=1,30=1,71=1,74=-5/1,2,3;
 4//1;
 5/5=2,8=3,13=1,32=2,38=5/2,8;
 6/7=2,8=2,9=2,10=2,28=1/1;
 7//1,2,3,16;
 1/14=-1,18=20,19=15/3(2);
 2/9=110/2;
 99//99;
 2/9=110/2;
 3/5=1,6=6,7=1,11=2,16=1,25=1,30=1,71=1,74=-5/1,2,3;
 4/5=5,16=3/1;
 5/5=2,8=3,13=1,32=2,38=5/2,8;
 7//1,2,3,16;
 1/14=-1,18=20,19=15/3(-5);
 2/9=110/2;
 6/7=2,8=2,9=2,10=2,19=2,28=1/1;
 99/9=1/99;
 Leave Link    1 at Wed Sep 29 03:13:40 2021, MaxMem= 1610612736 cpu:       0.1
 (Enter /sw/target/amd/app/gaussian/Gaussian09RevA.02_gcc-4.9.2/g09/l101.exe)
 ----------------------------------------------
 COC(=O)c1ccc2c(c1)ccc(c2)OC(=O)C(C)(C)C_conf_0
 ----------------------------------------------
 Symbolic Z-matrix:
 Charge =  0 Multiplicity = 1
 C                     1.01445   0.82837   1.71019 
 O                     2.38428   0.63866   1.35388 
 C                     2.62129  -0.51948   0.68908 
 O                     1.78757  -1.36938   0.4176 
 C                     4.05348  -0.61917   0.29897 
 C                     5.00215   0.34952   0.64497 
 C                     6.33128   0.21377   0.2282 
 C                     6.73394  -0.89353  -0.53679 
 C                     5.77804  -1.87974  -0.87673 
 C                     4.44841  -1.73089  -0.45524 
 C                     6.16896  -2.99856  -1.62549 
 C                     7.48991  -3.1498   -2.03761 
 C                     8.42329  -2.16528  -1.72441 
 C                     8.06315  -1.04957  -0.96737 
 O                     9.78471  -2.31769  -2.03716 
 C                     10.12616  -2.80216  -3.29875 
 O                     9.37545  -2.85344  -4.26671 
 C                     11.59806  -3.22674  -3.33652 
 C                     12.13467  -3.58866  -1.94245 
 C                     11.71461  -4.46981  -4.23403 
 C                     12.41166  -2.07255  -3.92792 
 H                     0.94309   1.74185   2.30637 
 H                     0.64782  -0.00816   2.31374 
 H                     0.40524   0.95272   0.8092 
 H                     4.72347   1.21858   1.23577 
 H                     7.05      0.98127   0.50596 
 H                     3.70969  -2.48623  -0.71953 
 H                     5.44723  -3.76911  -1.88947 
 H                     7.77365  -4.0347   -2.60008 
 H                     8.8185   -0.31146  -0.71035 
 H                     11.51307  -4.35764  -1.46833 
 H                     12.14802  -2.7189   -1.27567 
 H                     13.15915  -3.97247  -1.99824 
 H                     11.09069  -5.28777  -3.85404 
 H                     12.7481  -4.82927  -4.28623 
 H                     11.38451  -4.2599   -5.25797 
 H                     12.29745  -1.16156  -3.32945 
 H                     12.0813  -1.83468  -4.94573 
 H                     13.47831  -2.31903  -3.97 
 
 NAtoms=     39 NQM=     39 NQMF=      0 NMic=      0 NMicF=      0 NTot=     39.
                    Isotopes and Nuclear Properties:
 (Nuclear quadrupole moments (NQMom) in fm**2, nuclear magnetic moments (NMagM)
  in nuclear magnetons)

  Atom         1           2           3           4           5           6           7           8           9          10
 IAtWgt=          12          16          12          16          12          12          12          12          12          12
 AtmWgt=  12.0000000  15.9949146  12.0000000  15.9949146  12.0000000  12.0000000  12.0000000  12.0000000  12.0000000  12.0000000
 NucSpn=           0           0           0           0           0           0           0           0           0           0
 AtZEff=   0.0000000   0.0000000   0.0000000   0.0000000   0.0000000   0.0000000   0.0000000   0.0000000   0.0000000   0.0000000
 NQMom=    0.0000000   0.0000000   0.0000000   0.0000000   0.0000000   0.0000000   0.0000000   0.0000000   0.0000000   0.0000000
 NMagM=    0.0000000   0.0000000   0.0000000   0.0000000   0.0000000   0.0000000   0.0000000   0.0000000   0.0000000   0.0000000

  Atom        11          12          13          14          15          16          17          18          19          20
 IAtWgt=          12          12          12          12          16          12          16          12          12          12
 AtmWgt=  12.0000000  12.0000000  12.0000000  12.0000000  15.9949146  12.0000000  15.9949146  12.0000000  12.0000000  12.0000000
 NucSpn=           0           0           0           0           0           0           0           0           0           0
 AtZEff=   0.0000000   0.0000000   0.0000000   0.0000000   0.0000000   0.0000000   0.0000000   0.0000000   0.0000000   0.0000000
 NQMom=    0.0000000   0.0000000   0.0000000   0.0000000   0.0000000   0.0000000   0.0000000   0.0000000   0.0000000   0.0000000
 NMagM=    0.0000000   0.0000000   0.0000000   0.0000000   0.0000000   0.0000000   0.0000000   0.0000000   0.0000000   0.0000000

  Atom        21          22          23          24          25          26          27          28          29          30
 IAtWgt=          12           1           1           1           1           1           1           1           1           1
 AtmWgt=  12.0000000   1.0078250   1.0078250   1.0078250   1.0078250   1.0078250   1.0078250   1.0078250   1.0078250   1.0078250
 NucSpn=           0           1           1           1           1           1           1           1           1           1
 AtZEff=   0.0000000   0.0000000   0.0000000   0.0000000   0.0000000   0.0000000   0.0000000   0.0000000   0.0000000   0.0000000
 NQMom=    0.0000000   0.0000000   0.0000000   0.0000000   0.0000000   0.0000000   0.0000000   0.0000000   0.0000000   0.0000000
 NMagM=    0.0000000   2.7928460   2.7928460   2.7928460   2.7928460   2.7928460   2.7928460   2.7928460   2.7928460   2.7928460

  Atom        31          32          33          34          35          36          37          38          39
 IAtWgt=           1           1           1           1           1           1           1           1           1
 AtmWgt=   1.0078250   1.0078250   1.0078250   1.0078250   1.0078250   1.0078250   1.0078250   1.0078250   1.0078250
 NucSpn=           1           1           1           1           1           1           1           1           1
 AtZEff=   0.0000000   0.0000000   0.0000000   0.0000000   0.0000000   0.0000000   0.0000000   0.0000000   0.0000000
 NQMom=    0.0000000   0.0000000   0.0000000   0.0000000   0.0000000   0.0000000   0.0000000   0.0000000   0.0000000
 NMagM=    2.7928460   2.7928460   2.7928460   2.7928460   2.7928460   2.7928460   2.7928460   2.7928460   2.7928460
 Leave Link  101 at Wed Sep 29 03:13:40 2021, MaxMem= 1610612736 cpu:       0.2
 (Enter /sw/target/amd/app/gaussian/Gaussian09RevA.02_gcc-4.9.2/g09/l103.exe)

 GradGradGradGradGradGradGradGradGradGradGradGradGradGradGradGradGradGrad
 Berny optimization.
 Initialization pass.
                           ----------------------------
                           !    Initial Parameters    !
                           ! (Angstroms and Degrees)  !
 --------------------------                            --------------------------
 ! Name  Definition              Value          Derivative Info.                !
 --------------------------------------------------------------------------------
 ! R1    R(1,2)                  1.4281         estimate D2E/DX2                !
 ! R2    R(1,22)                 1.0931         estimate D2E/DX2                !
 ! R3    R(1,23)                 1.0947         estimate D2E/DX2                !
 ! R4    R(1,24)                 1.0947         estimate D2E/DX2                !
 ! R5    R(2,3)                  1.3563         estimate D2E/DX2                !
 ! R6    R(3,4)                  1.2211         estimate D2E/DX2                !
 ! R7    R(3,5)                  1.4877         estimate D2E/DX2                !
 ! R8    R(5,6)                  1.3993         estimate D2E/DX2                !
 ! R9    R(5,10)                 1.4003         estimate D2E/DX2                !
 ! R10   R(6,7)                  1.3995         estimate D2E/DX2                !
 ! R11   R(6,25)                 1.0872         estimate D2E/DX2                !
 ! R12   R(7,8)                  1.4048         estimate D2E/DX2                !
 ! R13   R(7,26)                 1.0876         estimate D2E/DX2                !
 ! R14   R(8,9)                  1.4149         estimate D2E/DX2                !
 ! R15   R(8,14)                 1.4059         estimate D2E/DX2                !
 ! R16   R(9,10)                 1.4028         estimate D2E/DX2                !
 ! R17   R(9,11)                 1.4019         estimate D2E/DX2                !
 ! R18   R(10,27)                1.0891         estimate D2E/DX2                !
 ! R19   R(11,12)                1.392          estimate D2E/DX2                !
 ! R20   R(11,28)                1.0883         estimate D2E/DX2                !
 ! R21   R(12,13)                1.3923         estimate D2E/DX2                !
 ! R22   R(12,29)                1.0862         estimate D2E/DX2                !
 ! R23   R(13,14)                1.3956         estimate D2E/DX2                !
 ! R24   R(13,15)                1.4052         estimate D2E/DX2                !
 ! R25   R(14,30)                1.0869         estimate D2E/DX2                !
 ! R26   R(15,16)                1.3939         estimate D2E/DX2                !
 ! R27   R(16,17)                1.226          estimate D2E/DX2                !
 ! R28   R(16,18)                1.5324         estimate D2E/DX2                !
 ! R29   R(18,19)                1.537          estimate D2E/DX2                !
 ! R30   R(18,20)                1.5376         estimate D2E/DX2                !
 ! R31   R(18,21)                1.531          estimate D2E/DX2                !
 ! R32   R(19,31)                1.0966         estimate D2E/DX2                !
 ! R33   R(19,32)                1.096          estimate D2E/DX2                !
 ! R34   R(19,33)                1.0954         estimate D2E/DX2                !
 ! R35   R(20,34)                1.0967         estimate D2E/DX2                !
 ! R36   R(20,35)                1.0955         estimate D2E/DX2                !
 ! R37   R(20,36)                1.0961         estimate D2E/DX2                !
 ! R38   R(21,37)                1.096          estimate D2E/DX2                !
 ! R39   R(21,38)                1.0962         estimate D2E/DX2                !
 ! R40   R(21,39)                1.0956         estimate D2E/DX2                !
 ! A1    A(2,1,22)             108.0411         estimate D2E/DX2                !
 ! A2    A(2,1,23)             110.9333         estimate D2E/DX2                !
 ! A3    A(2,1,24)             110.0927         estimate D2E/DX2                !
 ! A4    A(22,1,23)            108.4217         estimate D2E/DX2                !
 ! A5    A(22,1,24)            108.5194         estimate D2E/DX2                !
 ! A6    A(23,1,24)            110.7435         estimate D2E/DX2                !
 ! A7    A(1,2,3)              113.7888         estimate D2E/DX2                !
 ! A8    A(2,3,4)              125.7324         estimate D2E/DX2                !
 ! A9    A(2,3,5)              110.7311         estimate D2E/DX2                !
 ! A10   A(4,3,5)              123.5275         estimate D2E/DX2                !
 ! A11   A(3,5,6)              122.7808         estimate D2E/DX2                !
 ! A12   A(3,5,10)             117.7719         estimate D2E/DX2                !
 ! A13   A(6,5,10)             119.4452         estimate D2E/DX2                !
 ! A14   A(5,6,7)              120.2031         estimate D2E/DX2                !
 ! A15   A(5,6,25)             120.9281         estimate D2E/DX2                !
 ! A16   A(7,6,25)             118.8685         estimate D2E/DX2                !
 ! A17   A(6,7,8)              120.7191         estimate D2E/DX2                !
 ! A18   A(6,7,26)             118.8884         estimate D2E/DX2                !
 ! A19   A(8,7,26)             120.3925         estimate D2E/DX2                !
 ! A20   A(7,8,9)              119.1172         estimate D2E/DX2                !
 ! A21   A(7,8,14)             121.6859         estimate D2E/DX2                !
 ! A22   A(9,8,14)             119.1962         estimate D2E/DX2                !
 ! A23   A(8,9,10)             119.6186         estimate D2E/DX2                !
 ! A24   A(8,9,11)             119.7502         estimate D2E/DX2                !
 ! A25   A(10,9,11)            120.6306         estimate D2E/DX2                !
 ! A26   A(5,10,9)             120.8924         estimate D2E/DX2                !
 ! A27   A(5,10,27)            119.3434         estimate D2E/DX2                !
 ! A28   A(9,10,27)            119.7637         estimate D2E/DX2                !
 ! A29   A(9,11,12)            120.629          estimate D2E/DX2                !
 ! A30   A(9,11,28)            120.6448         estimate D2E/DX2                !
 ! A31   A(12,11,28)           118.7248         estimate D2E/DX2                !
 ! A32   A(11,12,13)           119.5207         estimate D2E/DX2                !
 ! A33   A(11,12,29)           119.321          estimate D2E/DX2                !
 ! A34   A(13,12,29)           121.1582         estimate D2E/DX2                !
 ! A35   A(12,13,14)           120.9527         estimate D2E/DX2                !
 ! A36   A(12,13,15)           121.5159         estimate D2E/DX2                !
 ! A37   A(14,13,15)           117.2247         estimate D2E/DX2                !
 ! A38   A(8,14,13)            119.9243         estimate D2E/DX2                !
 ! A39   A(8,14,30)            120.6126         estimate D2E/DX2                !
 ! A40   A(13,14,30)           119.4617         estimate D2E/DX2                !
 ! A41   A(13,15,16)           118.4564         estimate D2E/DX2                !
 ! A42   A(15,16,17)           125.3888         estimate D2E/DX2                !
 ! A43   A(15,16,18)           110.7265         estimate D2E/DX2                !
 ! A44   A(17,16,18)           123.855          estimate D2E/DX2                !
 ! A45   A(16,18,19)           112.2246         estimate D2E/DX2                !
 ! A46   A(16,18,20)           108.1311         estimate D2E/DX2                !
 ! A47   A(16,18,21)           108.1248         estimate D2E/DX2                !
 ! A48   A(19,18,20)           108.2156         estimate D2E/DX2                !
 ! A49   A(19,18,21)           110.0204         estimate D2E/DX2                !
 ! A50   A(20,18,21)           110.1029         estimate D2E/DX2                !
 ! A51   A(18,19,31)           111.0614         estimate D2E/DX2                !
 ! A52   A(18,19,32)           111.6652         estimate D2E/DX2                !
 ! A53   A(18,19,33)           111.2736         estimate D2E/DX2                !
 ! A54   A(31,19,32)           107.4797         estimate D2E/DX2                !
 ! A55   A(31,19,33)           107.8454         estimate D2E/DX2                !
 ! A56   A(32,19,33)           107.3157         estimate D2E/DX2                !
 ! A57   A(18,20,34)           110.9521         estimate D2E/DX2                !
 ! A58   A(18,20,35)           111.3828         estimate D2E/DX2                !
 ! A59   A(18,20,36)           111.5683         estimate D2E/DX2                !
 ! A60   A(34,20,35)           107.9691         estimate D2E/DX2                !
 ! A61   A(34,20,36)           107.1681         estimate D2E/DX2                !
 ! A62   A(35,20,36)           107.6048         estimate D2E/DX2                !
 ! A63   A(18,21,37)           111.1206         estimate D2E/DX2                !
 ! A64   A(18,21,38)           111.2297         estimate D2E/DX2                !
 ! A65   A(18,21,39)           111.2616         estimate D2E/DX2                !
 ! A66   A(37,21,38)           107.1721         estimate D2E/DX2                !
 ! A67   A(37,21,39)           108.0255         estimate D2E/DX2                !
 ! A68   A(38,21,39)           107.8533         estimate D2E/DX2                !
 ! D1    D(22,1,2,3)           175.522          estimate D2E/DX2                !
 ! D2    D(23,1,2,3)            56.8086         estimate D2E/DX2                !
 ! D3    D(24,1,2,3)           -66.1287         estimate D2E/DX2                !
 ! D4    D(1,2,3,4)             -1.4624         estimate D2E/DX2                !
 ! D5    D(1,2,3,5)            177.4756         estimate D2E/DX2                !
 ! D6    D(2,3,5,6)              2.5488         estimate D2E/DX2                !
 ! D7    D(2,3,5,10)          -176.9303         estimate D2E/DX2                !
 ! D8    D(4,3,5,6)           -178.4853         estimate D2E/DX2                !
 ! D9    D(4,3,5,10)             2.0355         estimate D2E/DX2                !
 ! D10   D(3,5,6,7)           -178.8175         estimate D2E/DX2                !
 ! D11   D(3,5,6,25)             0.966          estimate D2E/DX2                !
 ! D12   D(10,5,6,7)             0.6533         estimate D2E/DX2                !
 ! D13   D(10,5,6,25)         -179.5631         estimate D2E/DX2                !
 ! D14   D(3,5,10,9)           178.9677         estimate D2E/DX2                !
 ! D15   D(3,5,10,27)           -0.7948         estimate D2E/DX2                !
 ! D16   D(6,5,10,9)            -0.5295         estimate D2E/DX2                !
 ! D17   D(6,5,10,27)          179.708          estimate D2E/DX2                !
 ! D18   D(5,6,7,8)             -0.2028         estimate D2E/DX2                !
 ! D19   D(5,6,7,26)           179.7646         estimate D2E/DX2                !
 ! D20   D(25,6,7,8)          -179.9908         estimate D2E/DX2                !
 ! D21   D(25,6,7,26)           -0.0234         estimate D2E/DX2                !
 ! D22   D(6,7,8,9)             -0.3743         estimate D2E/DX2                !
 ! D23   D(6,7,8,14)           179.9343         estimate D2E/DX2                !
 ! D24   D(26,7,8,9)           179.6588         estimate D2E/DX2                !
 ! D25   D(26,7,8,14)           -0.0326         estimate D2E/DX2                !
 ! D26   D(7,8,9,10)             0.4962         estimate D2E/DX2                !
 ! D27   D(7,8,9,11)          -179.2085         estimate D2E/DX2                !
 ! D28   D(14,8,9,10)         -179.8046         estimate D2E/DX2                !
 ! D29   D(14,8,9,11)            0.4907         estimate D2E/DX2                !
 ! D30   D(7,8,14,13)          179.9123         estimate D2E/DX2                !
 ! D31   D(7,8,14,30)            0.3486         estimate D2E/DX2                !
 ! D32   D(9,8,14,13)            0.2211         estimate D2E/DX2                !
 ! D33   D(9,8,14,30)         -179.3426         estimate D2E/DX2                !
 ! D34   D(8,9,10,5)            -0.0471         estimate D2E/DX2                !
 ! D35   D(8,9,10,27)          179.7145         estimate D2E/DX2                !
 ! D36   D(11,9,10,5)          179.6549         estimate D2E/DX2                !
 ! D37   D(11,9,10,27)          -0.5835         estimate D2E/DX2                !
 ! D38   D(8,9,11,12)            0.0478         estimate D2E/DX2                !
 ! D39   D(8,9,11,28)          179.5967         estimate D2E/DX2                !
 ! D40   D(10,9,11,12)        -179.6538         estimate D2E/DX2                !
 ! D41   D(10,9,11,28)          -0.105          estimate D2E/DX2                !
 ! D42   D(9,11,12,13)          -1.298          estimate D2E/DX2                !
 ! D43   D(9,11,12,29)         178.7982         estimate D2E/DX2                !
 ! D44   D(28,11,12,13)        179.1446         estimate D2E/DX2                !
 ! D45   D(28,11,12,29)         -0.7592         estimate D2E/DX2                !
 ! D46   D(11,12,13,14)          2.0309         estimate D2E/DX2                !
 ! D47   D(11,12,13,15)        175.4945         estimate D2E/DX2                !
 ! D48   D(29,12,13,14)       -178.0672         estimate D2E/DX2                !
 ! D49   D(29,12,13,15)         -4.6035         estimate D2E/DX2                !
 ! D50   D(12,13,14,8)          -1.4948         estimate D2E/DX2                !
 ! D51   D(12,13,14,30)        178.0739         estimate D2E/DX2                !
 ! D52   D(15,13,14,8)        -175.2295         estimate D2E/DX2                !
 ! D53   D(15,13,14,30)          4.3393         estimate D2E/DX2                !
 ! D54   D(12,13,15,16)         44.5387         estimate D2E/DX2                !
 ! D55   D(14,13,15,16)       -141.7643         estimate D2E/DX2                !
 ! D56   D(13,15,16,17)         16.0149         estimate D2E/DX2                !
 ! D57   D(13,15,16,18)       -165.9067         estimate D2E/DX2                !
 ! D58   D(15,16,18,19)         24.5671         estimate D2E/DX2                !
 ! D59   D(15,16,18,20)        143.8497         estimate D2E/DX2                !
 ! D60   D(15,16,18,21)        -96.9587         estimate D2E/DX2                !
 ! D61   D(17,16,18,19)       -157.3193         estimate D2E/DX2                !
 ! D62   D(17,16,18,20)        -38.0367         estimate D2E/DX2                !
 ! D63   D(17,16,18,21)         81.1549         estimate D2E/DX2                !
 ! D64   D(16,18,19,31)         54.8976         estimate D2E/DX2                !
 ! D65   D(16,18,19,32)        -65.0569         estimate D2E/DX2                !
 ! D66   D(16,18,19,33)        175.0523         estimate D2E/DX2                !
 ! D67   D(20,18,19,31)        -64.3355         estimate D2E/DX2                !
 ! D68   D(20,18,19,32)        175.71           estimate D2E/DX2                !
 ! D69   D(20,18,19,33)         55.8192         estimate D2E/DX2                !
 ! D70   D(21,18,19,31)        175.3317         estimate D2E/DX2                !
 ! D71   D(21,18,19,32)         55.3772         estimate D2E/DX2                !
 ! D72   D(21,18,19,33)        -64.5136         estimate D2E/DX2                !
 ! D73   D(16,18,20,34)        -58.8099         estimate D2E/DX2                !
 ! D74   D(16,18,20,35)       -179.1209         estimate D2E/DX2                !
 ! D75   D(16,18,20,36)         60.6116         estimate D2E/DX2                !
 ! D76   D(19,18,20,34)         62.9766         estimate D2E/DX2                !
 ! D77   D(19,18,20,35)        -57.3343         estimate D2E/DX2                !
 ! D78   D(19,18,20,36)       -177.6019         estimate D2E/DX2                !
 ! D79   D(21,18,20,34)       -176.7421         estimate D2E/DX2                !
 ! D80   D(21,18,20,35)         62.9469         estimate D2E/DX2                !
 ! D81   D(21,18,20,36)        -57.3206         estimate D2E/DX2                !
 ! D82   D(16,18,21,37)         59.0478         estimate D2E/DX2                !
 ! D83   D(16,18,21,38)        -60.2669         estimate D2E/DX2                !
 ! D84   D(16,18,21,39)        179.4627         estimate D2E/DX2                !
 ! D85   D(19,18,21,37)        -63.8302         estimate D2E/DX2                !
 ! D86   D(19,18,21,38)        176.8551         estimate D2E/DX2                !
 ! D87   D(19,18,21,39)         56.5847         estimate D2E/DX2                !
 ! D88   D(20,18,21,37)        176.9839         estimate D2E/DX2                !
 ! D89   D(20,18,21,38)         57.6692         estimate D2E/DX2                !
 ! D90   D(20,18,21,39)        -62.6012         estimate D2E/DX2                !
 --------------------------------------------------------------------------------
 Trust Radius=3.00D-01 FncErr=1.00D-07 GrdErr=1.00D-06
 Number of steps in this run= 208 maximum allowed number of steps= 234.
 GradGradGradGradGradGradGradGradGradGradGradGradGradGradGradGradGradGrad

 Leave Link  103 at Wed Sep 29 03:13:41 2021, MaxMem= 1610612736 cpu:       0.0
 (Enter /sw/target/amd/app/gaussian/Gaussian09RevA.02_gcc-4.9.2/g09/l202.exe)
                          Input orientation:                          
 ---------------------------------------------------------------------
 Center     Atomic      Atomic             Coordinates (Angstroms)
 Number     Number       Type             X           Y           Z
 ---------------------------------------------------------------------
      1          6           0        1.014446    0.828371    1.710193
      2          8           0        2.384282    0.638655    1.353879
      3          6           0        2.621287   -0.519484    0.689078
      4          8           0        1.787570   -1.369381    0.417603
      5          6           0        4.053484   -0.619174    0.298965
      6          6           0        5.002155    0.349520    0.644973
      7          6           0        6.331277    0.213772    0.228203
      8          6           0        6.733937   -0.893531   -0.536789
      9          6           0        5.778036   -1.879742   -0.876731
     10          6           0        4.448413   -1.730891   -0.455238
     11          6           0        6.168961   -2.998565   -1.625488
     12          6           0        7.489905   -3.149800   -2.037613
     13          6           0        8.423293   -2.165278   -1.724406
     14          6           0        8.063150   -1.049570   -0.967375
     15          8           0        9.784705   -2.317694   -2.037162
     16          6           0       10.126158   -2.802156   -3.298749
     17          8           0        9.375453   -2.853439   -4.266706
     18          6           0       11.598059   -3.226743   -3.336518
     19          6           0       12.134672   -3.588659   -1.942445
     20          6           0       11.714615   -4.469812   -4.234035
     21          6           0       12.411660   -2.072549   -3.927924
     22          1           0        0.943093    1.741847    2.306367
     23          1           0        0.647822   -0.008156    2.313740
     24          1           0        0.405239    0.952719    0.809196
     25          1           0        4.723468    1.218584    1.235769
     26          1           0        7.049996    0.981273    0.505963
     27          1           0        3.709685   -2.486233   -0.719535
     28          1           0        5.447230   -3.769106   -1.889474
     29          1           0        7.773652   -4.034704   -2.600076
     30          1           0        8.818496   -0.311455   -0.710345
     31          1           0       11.513075   -4.357641   -1.468333
     32          1           0       12.148025   -2.718895   -1.275668
     33          1           0       13.159153   -3.972474   -1.998237
     34          1           0       11.090692   -5.287772   -3.854040
     35          1           0       12.748103   -4.829269   -4.286232
     36          1           0       11.384510   -4.259897   -5.257973
     37          1           0       12.297449   -1.161563   -3.329451
     38          1           0       12.081299   -1.834676   -4.945727
     39          1           0       13.478315   -2.319029   -3.969997
 ---------------------------------------------------------------------
                    Distance matrix (angstroms):
                    1          2          3          4          5
     1  C    0.000000
     2  O    1.428076   0.000000
     3  C    2.332665   1.356252   0.000000
     4  O    2.664324   2.294535   1.221109   0.000000
     5  C    3.650028   2.341199   1.487722   2.389823   0.000000
     6  C    4.155215   2.727527   2.534885   3.652379   1.399309
     7  C    5.553622   4.126311   3.809737   4.815342   2.426344
     8  C    6.381728   4.984147   4.307732   5.060025   2.821097
     9  C    6.059525   4.778652   3.777185   4.226061   2.438314
    10  C    4.799067   3.626058   2.472925   2.823584   1.400252
    11  C    7.234724   6.035710   4.908060   5.101475   3.720250
    12  C    8.473692   7.205693   6.169024   6.458685   4.865455
    13  C    8.697667   7.335362   6.495908   7.018154   5.057638
    14  C    7.770473   6.363008   5.713029   6.434544   4.226852
    15  O   10.042800   8.660568   7.872770   8.418987   6.417893
    16  C   11.013333   9.665546   8.799798   9.241004   7.388255
    17  O   10.917210   9.626119   8.696315   9.039975   7.359391
    18  C   12.406695  11.037881  10.203779  10.667188   8.771360
    19  C   12.510449  11.126817  10.336791  10.842396   8.896480
    20  C   13.337848  12.015670  11.069361  11.392832   9.698888
    21  C   13.042246  11.653171  10.935270  11.499972   9.478291
    22  H    1.093139   2.049705   3.247395   3.736350   4.390742
    23  H    1.094742   2.086862   2.606827   2.597555   4.003898
    24  H    1.094710   2.076518   2.663209   2.730629   4.005107
    25  H    3.759546   2.412894   2.781891   3.998307   2.168832
    26  H    6.156412   4.754496   4.679665   5.764244   3.403433
    27  H    4.914721   3.977520   2.652716   2.496992   2.154402
    28  H    7.331028   6.271312   5.019455   4.947161   4.080915
    29  H    9.376288   8.155940   7.051395   7.214119   5.823223
    30  H    8.249933   6.823697   6.356655   7.198985   4.880444
    31  H   12.133381  10.782519   9.922185  10.347555   8.529066
    32  H   12.060474  10.654499   9.972782  10.584299   8.509400
    33  H   13.575510  12.190039  11.410146  11.913240   9.971708
    34  H   13.034517  11.749321  10.728808  10.961241   9.410927
    35  H   14.340317  13.004532  12.078094  12.418944  10.693238
    36  H   13.490145  12.194938  11.231749  11.518181   9.893349
    37  H   12.516549  11.110592  10.497093  11.159801   9.023444
    38  H   13.185914  11.825166  11.089301  11.616483   9.665922
    39  H   14.054134  12.655794  11.950749  12.523034  10.485274
                    6          7          8          9         10
     6  C    0.000000
     7  C    1.399533   0.000000
     8  C    2.437378   1.404802   0.000000
     9  C    2.808413   2.430999   1.414893   0.000000
    10  C    2.417686   2.791771   2.435456   1.402751   0.000000
    11  C    4.210238   3.712361   2.436315   1.401864   2.436548
    12  C    5.062649   4.217814   2.813309   2.427177   3.710511
    13  C    4.862340   3.721436   2.425221   2.792395   4.195134
    14  C    3.731864   2.454551   1.405901   2.432930   3.713867
    15  O    6.097596   4.844210   3.685993   4.194258   5.596681
    16  C    7.193150   5.994692   4.772675   5.061934   6.439716
    17  O    7.315003   6.235302   4.973039   5.037998   6.329544
    18  C    8.493991   7.230724   6.077996   6.460466   7.852183
    19  C    8.548496   7.269772   6.197380   6.668055   8.046220
    20  C    9.596239   8.415928   7.160067   7.295404   8.635895
    21  C    9.037620   7.711791   6.717620   7.304240   8.694227
    22  H    4.601607   5.973802   6.968689   6.828228   5.654524
    23  H    4.676850   6.058084   6.778658   6.324637   5.007948
    24  H    4.639230   6.000127   6.728502   6.303343   5.014760
    25  H    1.087188   2.147065   3.412474   3.895433   3.410948
    26  H    2.147577   1.087550   2.168436   3.422738   3.879172
    27  H    3.402037   3.880847   3.422893   2.161161   1.089088
    28  H    4.856398   4.596674   3.428455   2.169050   2.684956
    29  H    6.118248   5.303692   3.899375   3.405328   4.578766
    30  H    4.103442   2.709796   2.171248   3.425143   4.601902
    31  H    8.307557   7.115270   5.975616   6.275400   7.604973
    32  H    8.010462   6.685560   5.761097   6.437397   7.805977
    33  H    9.602230   8.312736   7.273178   7.753592   9.125927
    34  H    9.438775   8.341686   7.021027   6.978779   8.265781
    35  H   10.542123   9.326738   8.106698   8.300978   9.652011
    36  H    9.840018   8.697528   7.433022   7.502864   8.807472
    37  H    8.443977   7.081218   6.230848   7.002454   8.378103
    38  H    9.281214   8.001778   6.994195   7.502659   8.856423
    39  H   10.013211   8.667186   7.701012   8.309967   9.707655
                   11         12         13         14         15
    11  C    0.000000
    12  C    1.391982   0.000000
    13  C    2.405445   1.392334   0.000000
    14  C    2.796363   2.425899   1.395565   0.000000
    15  O    3.702252   2.441005   1.405165   2.390886   0.000000
    16  C    4.300905   2.942982   2.404978   3.572515   1.393877
    17  O    4.156764   2.934616   2.800619   3.982671   2.329243
    18  C    5.696910   4.309292   3.715474   4.780010   2.408930
    19  C    6.003197   4.666424   3.980940   4.896430   2.673325
    20  C    6.302647   4.941140   4.737290   5.975142   3.630759
    21  C    6.717887   5.381209   4.557539   5.359186   3.245916
    22  H    8.077171   9.255221   9.352334   8.318931  10.654587
    23  H    7.412357   8.695878   9.023178   8.175411  10.380123
    24  H    7.400056   8.667611   8.968291   8.112273  10.333042
    25  H    5.297224   6.119721   5.822530   4.599113   6.988094
    26  H    4.599828   4.871249   4.094054   2.705833   4.982902
    27  H    2.670445   4.058044   4.830205   4.591087   6.218554
    28  H    1.088264   2.139628   3.384740   3.884479   4.576253
    29  H    2.144397   1.086246   2.164159   3.414754   2.703577
    30  H    3.883050   3.403379   2.149689   1.086933   2.592103
    31  H    5.516461   4.238968   3.797206   4.805858   2.733534
    32  H    5.995815   4.739654   3.792293   4.423561   2.515177
    33  H    7.067548   5.728762   5.076348   5.964503   3.758552
    34  H    5.867738   4.564646   4.626049   5.954931   3.718603
    35  H    7.329130   5.960331   5.688918   6.873843   4.488658
    36  H    6.479803   5.174067   5.063825   6.304511   4.087193
    37  H    6.620909   5.360448   4.311925   4.849869   3.052955
    38  H    6.879998   5.591742   4.885409   5.708695   3.737299
    39  H    7.706176   6.347073   5.533494   6.320702   4.168765
                   16         17         18         19         20
    16  C    0.000000
    17  O    1.226022   0.000000
    18  C    1.532381   2.438151   0.000000
    19  C    2.547994   3.681851   1.537002   0.000000
    20  C    2.485766   2.843485   1.537642   2.490836   0.000000
    21  C    2.480264   3.153271   1.530972   2.513452   2.515243
    22  H   11.678783  11.637295  13.040603  13.104127  14.049457
    23  H   11.364212  11.294664  12.735478  12.762556  13.610791
    24  H   11.201365  10.987100  12.646504  12.875374  13.518136
    25  H    8.118944   8.276446   9.376926   9.388108  10.542900
    26  H    6.184897   6.549133   7.290881   7.261744   8.598871
    27  H    6.922664   6.694639   8.344063   8.584361   8.964664
    28  H    4.981306   4.681945   6.341985   6.690085   6.728154
    29  H    2.746197   2.595922   3.977592   4.432824   4.288395
    30  H    3.822748   4.406765   4.808498   4.822361   6.172182
    31  H    2.773714   3.829222   2.185467   1.096584   2.775303
    32  H    2.861422   4.080633   2.192595   1.096020   3.464894
    33  H    3.501433   4.551327   2.187265   1.095440   2.707920
    34  H    2.723410   3.006380   2.184741   2.762440   1.096692
    35  H    3.458165   3.908843   2.189212   2.721901   1.095460
    36  H    2.747183   2.645193   2.192031   3.464971   1.096122
    37  H    2.721580   3.504133   2.180405   2.800193   3.478862
    38  H    2.733338   2.969941   2.181955   3.478363   2.754072
    39  H    3.452672   4.148145   2.181881   2.743776   2.793962
                   21         22         23         24         25
    21  C    0.000000
    22  H   13.599413   0.000000
    23  H   13.476200   1.774754   0.000000
    24  H   13.256950   1.775818   1.801605   0.000000
    25  H    9.828712   3.963738   4.390650   4.347384   0.000000
    26  H    7.598200   6.412034   6.725686   6.651733   2.449829
    27  H    9.283818   5.889548   4.971581   5.008270   4.310062
    28  H    7.452306   8.262139   7.405813   7.416208   5.930264
    29  H    5.208105  10.202855   9.546524   9.528433   7.184313
    30  H    5.134695   8.679779   8.717625   8.642340   4.785147
    31  H    3.475441  12.774060  12.299423  12.520826   9.192671
    32  H    2.742577  12.580926  12.348547  12.478799   8.771266
    33  H    2.809298  14.156808  13.814571  13.957132  10.419533
    34  H    3.476792  13.796374  13.227599  13.223782  10.429783
    35  H    2.800194  15.033303  14.602039  14.551326  11.465766
    36  H    2.758362  14.221932  13.808859  13.584046  10.795921
    37  H    1.095952  13.004370  12.995759  12.768056   9.158139
    38  H    1.096196  13.763867  13.666032  13.312367  10.083202
    39  H    1.095570  14.595042  14.472284  14.298613  10.782488
                   26         27         28         29         30
    26  H    0.000000
    27  H    4.968211   0.000000
    28  H    5.556355   2.456336   0.000000
    29  H    5.944004   4.738146   2.446984   0.000000
    30  H    2.505623   5.552449   4.971029   4.304110   0.000000
    31  H    7.233320   8.059514   6.108863   3.920257   4.920053
    32  H    6.546401   8.459846   6.810312   4.756106   4.147424
    33  H    8.254238   9.650722   7.715370   5.419383   5.822631
    34  H    8.639317   8.494293   6.165592   3.761032   6.309471
    35  H    9.444362   9.995206   7.757006   5.312214   6.974197
    36  H    8.915203   9.090998   6.843898   4.489256   6.546414
    37  H    6.843823   9.072822   7.469827   5.408481   4.436836
    38  H    7.935018   9.400487   7.556029   5.375689   5.559186
    39  H    8.499970  10.296581   8.421972   6.112561   6.030721
                   31         32         33         34         35
    31  H    0.000000
    32  H    1.767984   0.000000
    33  H    1.771645   1.765205   0.000000
    34  H    2.595218   3.790130   3.074499   0.000000
    35  H    3.112601   3.725220   2.477494   1.773140   0.000000
    36  H    3.793080   4.337787   3.722613   1.764620   1.768574
    37  H    3.780730   2.581789   3.227366   4.330942   3.817144
    38  H    4.333648   3.775663   3.797322   3.754592   3.138017
    39  H    3.778416   3.031332   2.592987   3.811513   2.633348
                   36         37         38         39
    36  H    0.000000
    37  H    3.761958   0.000000
    38  H    2.542580   1.764129   0.000000
    39  H    3.132072   1.773265   1.771525   0.000000
 Stoichiometry    C17H18O4
 Framework group  C1[X(C17H18O4)]
 Deg. of freedom   111
 Full point group                 C1      NOp   1
 Largest Abelian subgroup         C1      NOp   1
 Largest concise Abelian subgroup C1      NOp   1
                         Standard orientation:                         
 ---------------------------------------------------------------------
 Center     Atomic      Atomic             Coordinates (Angstroms)
 Number     Number       Type             X           Y           Z
 ---------------------------------------------------------------------
      1          6           0        7.242634   -0.294424   -0.221570
      2          8           0        5.863800   -0.656621   -0.137719
      3          6           0        5.030041    0.399598    0.031591
      4          8           0        5.370834    1.567471    0.136661
      5          6           0        3.611078   -0.047109    0.049233
      6          6           0        3.239344   -1.393082   -0.041510
      7          6           0        1.886403   -1.751181   -0.044480
      8          6           0        0.884402   -0.770863    0.047386
      9          6           0        1.259536    0.589411    0.151540
     10          6           0        2.618871    0.935705    0.150768
     11          6           0        0.270876    1.577267    0.260702
     12          6           0       -1.077832    1.232977    0.268674
     13          6           0       -1.445432   -0.103752    0.139755
     14          6           0       -0.480581   -1.107575    0.044870
     15          8           0       -2.787452   -0.509039    0.235746
     16          6           0       -3.755847    0.235962   -0.435133
     17          8           0       -3.535151    1.049860   -1.325073
     18          6           0       -5.159872   -0.131567    0.056626
     19          6           0       -5.144468   -0.707993    1.481362
     20          6           0       -6.014009    1.146998    0.064617
     21          6           0       -5.752681   -1.154340   -0.916198
     22          1           0        7.831501   -1.213817   -0.275484
     23          1           0        7.554829    0.264794    0.666276
     24          1           0        7.423796    0.288321   -1.130404
     25          1           0        3.989794   -2.176359   -0.114172
     26          1           0        1.621550   -2.803297   -0.119769
     27          1           0        2.910184    1.982400    0.226126
     28          1           0        0.543156    2.627281    0.348176
     29          1           0       -1.825550    2.013849    0.373985
     30          1           0       -0.794395   -2.145982   -0.023368
     31          1           0       -4.647898   -0.022466    2.178476
     32          1           0       -4.611753   -1.664848    1.524990
     33          1           0       -6.160934   -0.883623    1.850063
     34          1           0       -5.569809    1.911315    0.713647
     35          1           0       -7.029262    0.946851    0.424108
     36          1           0       -6.097104    1.582348   -0.937904
     37          1           0       -5.126949   -2.052174   -0.975048
     38          1           0       -5.824480   -0.742888   -1.929705
     39          1           0       -6.757693   -1.461260   -0.606316
 ---------------------------------------------------------------------
 Rotational constants (GHZ):      1.2733266      0.1013433      0.0971494
 Leave Link  202 at Wed Sep 29 03:13:41 2021, MaxMem= 1610612736 cpu:       0.1
 (Enter /sw/target/amd/app/gaussian/Gaussian09RevA.02_gcc-4.9.2/g09/l301.exe)
 Standard basis: 6-31G(d) (6D, 7F)
 Ernie: Thresh=  0.10000D-02 Tol=  0.10000D-05 Strict=F.
 There are   351 symmetry adapted basis functions of A   symmetry.
 Integral buffers will be    131072 words long.
 Raffenetti 2 integral format.
 Two-electron integral symmetry is turned on.
   351 basis functions,   660 primitive gaussians,   351 cartesian basis functions
    76 alpha electrons       76 beta electrons
       nuclear repulsion energy      1559.5900737699 Hartrees.
 IExCor=  402 DFT=T Ex+Corr=B3LYP ExCW=0 ScaHFX=  0.200000
 ScaDFX=  0.800000  0.720000  1.000000  0.810000 ScalE2=  1.000000  1.000000
 IRadAn=      0 IRanWt=     -1 IRanGd=            0 ICorTp=0
 NAtoms=   39 NActive=   39 NUniq=   39 SFac= 7.50D-01 NAtFMM=   80 NAOKFM=F Big=F
 Leave Link  301 at Wed Sep 29 03:13:41 2021, MaxMem= 1610612736 cpu:       0.1
 (Enter /sw/target/amd/app/gaussian/Gaussian09RevA.02_gcc-4.9.2/g09/l302.exe)
 NPDir=0 NMtPBC=     1 NCelOv=     1 NCel=       1 NClECP=     1 NCelD=      1
         NCelK=      1 NCelE2=     1 NClLst=     1 CellRange=     0.0.
 One-electron integrals computed using PRISM.
 NBasis=   351 RedAO= T  NBF=   351
 NBsUse=   351 1.00D-06 NBFU=   351
 Precomputing XC quadrature grid using
 IXCGrd= 2 IRadAn=           0 IRanWt=          -1 IRanGd=           0 AccXCQ= 1.00D-10.
 NRdTot=    2504 NPtTot=      320078 NUsed=      338126 NTot=      338158
 NSgBfM=   340   340   341   341   341 NAtAll=    39    39.
 Leave Link  302 at Wed Sep 29 03:13:45 2021, MaxMem= 1610612736 cpu:       4.0
 (Enter /sw/target/amd/app/gaussian/Gaussian09RevA.02_gcc-4.9.2/g09/l303.exe)
 DipDrv:  MaxL=1.
 Leave Link  303 at Wed Sep 29 03:13:46 2021, MaxMem= 1610612736 cpu:       0.3
 (Enter /sw/target/amd/app/gaussian/Gaussian09RevA.02_gcc-4.9.2/g09/l401.exe)
 Harris functional with IExCor=  402 diagonalized for initial guess.
 ExpMin= 1.61D-01 ExpMax= 5.48D+03 ExpMxC= 8.25D+02 IAcc=1 IRadAn=         1 AccDes= 0.00D+00
 HarFok:  IExCor=  402 AccDes= 0.00D+00 IRadAn=         1 IDoV= 1
 ScaDFX=  1.000000  1.000000  1.000000  1.000000
 FoFCou: FMM=F IPFlag=           0 FMFlag=      100000 FMFlg1=           0
         NFxFlg=           0 DoJE=T BraDBF=F KetDBF=T FulRan=T
         Omega=  0.000000  0.000000  1.000000  0.000000  0.000000 ICntrl=     500 IOpCl=  0
         NMat0=    1 NMatS0=    1 NMatT0=    0 NMatD0=    1 NMtDS0=    0 NMtDT0=    0
         I1Cent=           4 NGrid=           0.
 Petite list used in FoFCou.
 Harris En= -959.710313802121    
 Initial guess orbital symmetries:
       Occupied  (A) (A) (A) (A) (A) (A) (A) (A) (A) (A) (A) (A)
                 (A) (A) (A) (A) (A) (A) (A) (A) (A) (A) (A) (A)
                 (A) (A) (A) (A) (A) (A) (A) (A) (A) (A) (A) (A)
                 (A) (A) (A) (A) (A) (A) (A) (A) (A) (A) (A) (A)
                 (A) (A) (A) (A) (A) (A) (A) (A) (A) (A) (A) (A)
                 (A) (A) (A) (A) (A) (A) (A) (A) (A) (A) (A) (A)
                 (A) (A) (A) (A)
       Virtual   (A) (A) (A) (A) (A) (A) (A) (A) (A) (A) (A) (A)
                 (A) (A) (A) (A) (A) (A) (A) (A) (A) (A) (A) (A)
                 (A) (A) (A) (A) (A) (A) (A) (A) (A) (A) (A) (A)
                 (A) (A) (A) (A) (A) (A) (A) (A) (A) (A) (A) (A)
                 (A) (A) (A) (A) (A) (A) (A) (A) (A) (A) (A) (A)
                 (A) (A) (A) (A) (A) (A) (A) (A) (A) (A) (A) (A)
                 (A) (A) (A) (A) (A) (A) (A) (A) (A) (A) (A) (A)
                 (A) (A) (A) (A) (A) (A) (A) (A) (A) (A) (A) (A)
                 (A) (A) (A) (A) (A) (A) (A) (A) (A) (A) (A) (A)
                 (A) (A) (A) (A) (A) (A) (A) (A) (A) (A) (A) (A)
                 (A) (A) (A) (A) (A) (A) (A) (A) (A) (A) (A) (A)
                 (A) (A) (A) (A) (A) (A) (A) (A) (A) (A) (A) (A)
                 (A) (A) (A) (A) (A) (A) (A) (A) (A) (A) (A) (A)
                 (A) (A) (A) (A) (A) (A) (A) (A) (A) (A) (A) (A)
                 (A) (A) (A) (A) (A) (A) (A) (A) (A) (A) (A) (A)
                 (A) (A) (A) (A) (A) (A) (A) (A) (A) (A) (A) (A)
                 (A) (A) (A) (A) (A) (A) (A) (A) (A) (A) (A) (A)
                 (A) (A) (A) (A) (A) (A) (A) (A) (A) (A) (A) (A)
                 (A) (A) (A) (A) (A) (A) (A) (A) (A) (A) (A) (A)
                 (A) (A) (A) (A) (A) (A) (A) (A) (A) (A) (A) (A)
                 (A) (A) (A) (A) (A) (A) (A) (A) (A) (A) (A) (A)
                 (A) (A) (A) (A) (A) (A) (A) (A) (A) (A) (A) (A)
                 (A) (A) (A) (A) (A) (A) (A) (A) (A) (A) (A)
 The electronic state of the initial guess is 1-A.
 Leave Link  401 at Wed Sep 29 03:13:59 2021, MaxMem= 1610612736 cpu:      16.1
 (Enter /sw/target/amd/app/gaussian/Gaussian09RevA.02_gcc-4.9.2/g09/l502.exe)
 Closed shell SCF:
 Requested convergence on RMS density matrix=1.00D-08 within  64 cycles.
 Requested convergence on MAX density matrix=1.00D-06.
 Requested convergence on             energy=1.00D-06.
 No special actions if energy rises.
 Using DIIS extrapolation, IDIIS=  1040.
 Integral symmetry usage will be decided dynamically.
       337762 words used for storage of precomputed grid.
 IEnd=      717664 IEndB=      717664 NGot=  1610612736 MDV=  1610022849
 LenX=  1610022849 LenY=  1609899207
 Fock matrices will be formed incrementally for  20 cycles.
 Integral accuracy reduced to 1.0D-05 until final iterations.

 Cycle   1  Pass 0  IDiag  1:
 FoFCou: FMM=F IPFlag=           0 FMFlag=      100000 FMFlg1=           0
         NFxFlg=           0 DoJE=F BraDBF=F KetDBF=F FulRan=T
         Omega=  0.000000  0.000000  1.000000  0.000000  0.000000 ICntrl=       0 IOpCl=  0
         NMat0=    1 NMatS0=    1 NMatT0=    0 NMatD0=    1 NMtDS0=    0 NMtDT0=    0
         I1Cent=           0 NGrid=           0.
 Symmetry not used in FoFCou.
 E= -959.011500050335    
 DIIS: error= 4.84D-02 at cycle   1 NSaved=   1.
 NSaved= 1 IEnMin= 1 EnMin= -959.011500050335     IErMin= 1 ErrMin= 4.84D-02
 ErrMax= 4.84D-02 EMaxC= 1.00D-01 BMatC= 5.99D-01 BMatP= 5.99D-01
 IDIUse=3 WtCom= 5.16D-01 WtEn= 4.84D-01
 Coeff-Com:  0.100D+01
 Coeff-En:   0.100D+01
 Coeff:      0.100D+01
 Gap=     0.169 Goal=   None    Shift=    0.000
 GapD=    0.169 DampG=1.000 DampE=0.500 DampFc=0.5000 IDamp=-1.
 Damping current iteration by 5.00D-01
 RMSDP=5.11D-03 MaxDP=2.13D-01              OVMax= 2.22D-01

 Cycle   2  Pass 0  IDiag  1:
 RMSU=  1.78D-03    CP:  9.74D-01
 E= -959.183794695423     Delta-E=       -0.172294645088 Rises=F Damp=T
 DIIS: error= 1.38D-02 at cycle   2 NSaved=   2.
 NSaved= 2 IEnMin= 2 EnMin= -959.183794695423     IErMin= 2 ErrMin= 1.38D-02
 ErrMax= 1.38D-02 EMaxC= 1.00D-01 BMatC= 9.64D-02 BMatP= 5.99D-01
 IDIUse=3 WtCom= 8.62D-01 WtEn= 1.38D-01
 Coeff-Com:  0.212D+00 0.788D+00
 Coeff-En:   0.314D+00 0.686D+00
 Coeff:      0.226D+00 0.774D+00
 Gap=     0.153 Goal=   None    Shift=    0.000
 RMSDP=1.81D-03 MaxDP=6.18D-02 DE=-1.72D-01 OVMax= 1.62D-01

 Cycle   3  Pass 0  IDiag  1:
 RMSU=  1.23D-03    CP:  9.59D-01  8.37D-01
 E= -959.489280384222     Delta-E=       -0.305485688799 Rises=F Damp=F
 DIIS: error= 1.77D-02 at cycle   3 NSaved=   3.
 NSaved= 3 IEnMin= 3 EnMin= -959.489280384222     IErMin= 2 ErrMin= 1.38D-02
 ErrMax= 1.77D-02 EMaxC= 1.00D-01 BMatC= 1.09D-01 BMatP= 9.64D-02
 IDIUse=2 WtCom= 0.00D+00 WtEn= 1.00D+00
 Coeff-En:   0.000D+00 0.000D+00 0.100D+01
 Coeff:      0.000D+00 0.000D+00 0.100D+01
 Gap=     0.165 Goal=   None    Shift=    0.000
 RMSDP=2.78D-03 MaxDP=1.34D-01 DE=-3.05D-01 OVMax= 2.21D-01

 Cycle   4  Pass 0  IDiag  1:
 RMSU=  1.07D-03    CP:  9.68D-01  1.19D+00 -2.41D-01
 E= -959.039107711962     Delta-E=        0.450172672260 Rises=F Damp=F
 DIIS: error= 4.72D-02 at cycle   4 NSaved=   4.
 NSaved= 4 IEnMin= 3 EnMin= -959.489280384222     IErMin= 2 ErrMin= 1.38D-02
 ErrMax= 4.72D-02 EMaxC= 1.00D-01 BMatC= 6.84D-01 BMatP= 9.64D-02
 IDIUse=2 WtCom= 0.00D+00 WtEn= 1.00D+00
 Coeff-En:   0.000D+00 0.000D+00 0.800D+00 0.200D+00
 Coeff:      0.000D+00 0.000D+00 0.800D+00 0.200D+00
 Gap=     0.193 Goal=   None    Shift=    0.000
 RMSDP=1.48D-03 MaxDP=7.29D-02 DE= 4.50D-01 OVMax= 1.41D-01

 Cycle   5  Pass 0  IDiag  1:
 RMSU=  1.77D-04    CP:  9.66D-01  9.21D-01  3.66D-01  5.09D-01
 E= -959.542870244829     Delta-E=       -0.503762532867 Rises=F Damp=F
 DIIS: error= 1.14D-02 at cycle   5 NSaved=   5.
 NSaved= 5 IEnMin= 5 EnMin= -959.542870244829     IErMin= 5 ErrMin= 1.14D-02
 ErrMax= 1.14D-02 EMaxC= 1.00D-01 BMatC= 4.78D-02 BMatP= 9.64D-02
 IDIUse=3 WtCom= 8.86D-01 WtEn= 1.14D-01
 Coeff-Com: -0.495D-02 0.509D-01 0.324D+00-0.744D-01 0.705D+00
 Coeff-En:   0.000D+00 0.000D+00 0.341D+00 0.000D+00 0.659D+00
 Coeff:     -0.439D-02 0.451D-01 0.326D+00-0.659D-01 0.699D+00
 Gap=     0.158 Goal=   None    Shift=    0.000
 RMSDP=5.68D-04 MaxDP=2.71D-02 DE=-5.04D-01 OVMax= 4.36D-02

 Cycle   6  Pass 0  IDiag  1:
 RMSU=  7.28D-05    CP:  9.64D-01  8.73D-01  6.20D-01  3.03D-01  7.09D-01
 E= -959.581591617785     Delta-E=       -0.038721372956 Rises=F Damp=F
 DIIS: error= 1.02D-03 at cycle   6 NSaved=   6.
 NSaved= 6 IEnMin= 6 EnMin= -959.581591617785     IErMin= 6 ErrMin= 1.02D-03
 ErrMax= 1.02D-03 EMaxC= 1.00D-01 BMatC= 6.09D-04 BMatP= 4.78D-02
 IDIUse=3 WtCom= 9.90D-01 WtEn= 1.02D-02
 Coeff-Com: -0.791D-02 0.281D-01 0.168D+00-0.662D-01 0.473D+00 0.405D+00
 Coeff-En:   0.000D+00 0.000D+00 0.000D+00 0.000D+00 0.000D+00 0.100D+01
 Coeff:     -0.783D-02 0.278D-01 0.166D+00-0.655D-01 0.469D+00 0.411D+00
 Gap=     0.157 Goal=   None    Shift=    0.000
 RMSDP=7.01D-05 MaxDP=3.46D-03 DE=-3.87D-02 OVMax= 5.99D-03

 Cycle   7  Pass 0  IDiag  1:
 RMSU=  2.01D-05    CP:  9.64D-01  8.81D-01  6.05D-01  3.04D-01  7.97D-01
                    CP:  5.05D-01
 E= -959.582112363140     Delta-E=       -0.000520745355 Rises=F Damp=F
 DIIS: error= 2.78D-04 at cycle   7 NSaved=   7.
 NSaved= 7 IEnMin= 7 EnMin= -959.582112363140     IErMin= 7 ErrMin= 2.78D-04
 ErrMax= 2.78D-04 EMaxC= 1.00D-01 BMatC= 1.82D-05 BMatP= 6.09D-04
 IDIUse=3 WtCom= 9.97D-01 WtEn= 2.78D-03
 Coeff-Com: -0.236D-02 0.641D-02 0.484D-01-0.214D-01 0.141D+00 0.177D+00
 Coeff-Com:  0.651D+00
 Coeff-En:   0.000D+00 0.000D+00 0.000D+00 0.000D+00 0.000D+00 0.000D+00
 Coeff-En:   0.100D+01
 Coeff:     -0.235D-02 0.639D-02 0.483D-01-0.214D-01 0.141D+00 0.176D+00
 Coeff:      0.652D+00
 Gap=     0.157 Goal=   None    Shift=    0.000
 RMSDP=1.46D-05 MaxDP=8.11D-04 DE=-5.21D-04 OVMax= 1.60D-03

 Cycle   8  Pass 0  IDiag  1:
 RMSU=  7.60D-06    CP:  9.64D-01  8.80D-01  6.09D-01  3.03D-01  7.95D-01
                    CP:  5.25D-01  7.38D-01
 E= -959.582122391631     Delta-E=       -0.000010028491 Rises=F Damp=F
 DIIS: error= 1.17D-04 at cycle   8 NSaved=   8.
 NSaved= 8 IEnMin= 8 EnMin= -959.582122391631     IErMin= 8 ErrMin= 1.17D-04
 ErrMax= 1.17D-04 EMaxC= 1.00D-01 BMatC= 5.96D-06 BMatP= 1.82D-05
 IDIUse=3 WtCom= 9.99D-01 WtEn= 1.17D-03
 Coeff-Com: -0.535D-03 0.715D-03 0.146D-01-0.659D-02 0.412D-01 0.742D-01
 Coeff-Com:  0.457D+00 0.419D+00
 Coeff-En:   0.000D+00 0.000D+00 0.000D+00 0.000D+00 0.000D+00 0.000D+00
 Coeff-En:   0.218D+00 0.782D+00
 Coeff:     -0.535D-03 0.714D-03 0.146D-01-0.659D-02 0.411D-01 0.741D-01
 Coeff:      0.457D+00 0.420D+00
 Gap=     0.157 Goal=   None    Shift=    0.000
 RMSDP=7.07D-06 MaxDP=3.00D-04 DE=-1.00D-05 OVMax= 6.71D-04

 Initial convergence to 1.0D-05 achieved.  Increase integral accuracy.
 Cycle   9  Pass 1  IDiag  1:
 E= -959.582016243536     Delta-E=        0.000106148095 Rises=F Damp=F
 DIIS: error= 5.72D-05 at cycle   1 NSaved=   1.
 NSaved= 1 IEnMin= 1 EnMin= -959.582016243536     IErMin= 1 ErrMin= 5.72D-05
 ErrMax= 5.72D-05 EMaxC= 1.00D-01 BMatC= 5.32D-07 BMatP= 5.32D-07
 IDIUse=1 WtCom= 1.00D+00 WtEn= 0.00D+00
 Coeff-Com:  0.100D+01
 Coeff:      0.100D+01
 Gap=     0.157 Goal=   None    Shift=    0.000
 RMSDP=7.07D-06 MaxDP=3.00D-04 DE= 1.06D-04 OVMax= 3.20D-04

 Cycle  10  Pass 1  IDiag  1:
 RMSU=  1.73D-05    CP:  1.00D+00
 E= -959.582015930306     Delta-E=        0.000000313230 Rises=F Damp=F
 DIIS: error= 5.37D-05 at cycle   2 NSaved=   2.
 NSaved= 2 IEnMin= 1 EnMin= -959.582016243536     IErMin= 2 ErrMin= 5.37D-05
 ErrMax= 5.37D-05 EMaxC= 1.00D-01 BMatC= 1.01D-06 BMatP= 5.32D-07
 IDIUse=1 WtCom= 1.00D+00 WtEn= 0.00D+00
 Coeff-Com:  0.597D+00 0.403D+00
 Coeff:      0.597D+00 0.403D+00
 Gap=     0.157 Goal=   None    Shift=    0.000
 RMSDP=3.40D-06 MaxDP=2.63D-04 DE= 3.13D-07 OVMax= 3.24D-04

 Cycle  11  Pass 1  IDiag  1:
 RMSU=  2.38D-06    CP:  1.00D+00  9.79D-01
 E= -959.582016686651     Delta-E=       -0.000000756345 Rises=F Damp=F
 DIIS: error= 1.91D-05 at cycle   3 NSaved=   3.
 NSaved= 3 IEnMin= 3 EnMin= -959.582016686651     IErMin= 3 ErrMin= 1.91D-05
 ErrMax= 1.91D-05 EMaxC= 1.00D-01 BMatC= 1.13D-07 BMatP= 5.32D-07
 IDIUse=1 WtCom= 1.00D+00 WtEn= 0.00D+00
 Coeff-Com:  0.661D-01 0.248D+00 0.686D+00
 Coeff:      0.661D-01 0.248D+00 0.686D+00
 Gap=     0.157 Goal=   None    Shift=    0.000
 RMSDP=1.08D-06 MaxDP=7.21D-05 DE=-7.56D-07 OVMax= 1.15D-04

 Cycle  12  Pass 1  IDiag  1:
 RMSU=  4.73D-07    CP:  1.00D+00  9.91D-01  7.64D-01
 E= -959.582016763764     Delta-E=       -0.000000077114 Rises=F Damp=F
 DIIS: error= 8.00D-06 at cycle   4 NSaved=   4.
 NSaved= 4 IEnMin= 4 EnMin= -959.582016763764     IErMin= 4 ErrMin= 8.00D-06
 ErrMax= 8.00D-06 EMaxC= 1.00D-01 BMatC= 1.94D-08 BMatP= 1.13D-07
 IDIUse=1 WtCom= 1.00D+00 WtEn= 0.00D+00
 Coeff-Com: -0.570D-02 0.126D+00 0.434D+00 0.446D+00
 Coeff:     -0.570D-02 0.126D+00 0.434D+00 0.446D+00
 Gap=     0.157 Goal=   None    Shift=    0.000
 RMSDP=3.65D-07 MaxDP=2.27D-05 DE=-7.71D-08 OVMax= 3.11D-05

 Cycle  13  Pass 1  IDiag  1:
 RMSU=  1.32D-07    CP:  1.00D+00  9.93D-01  7.77D-01  5.40D-01
 E= -959.582016779313     Delta-E=       -0.000000015548 Rises=F Damp=F
 DIIS: error= 1.20D-06 at cycle   5 NSaved=   5.
 NSaved= 5 IEnMin= 5 EnMin= -959.582016779313     IErMin= 5 ErrMin= 1.20D-06
 ErrMax= 1.20D-06 EMaxC= 1.00D-01 BMatC= 5.24D-10 BMatP= 1.94D-08
 IDIUse=1 WtCom= 1.00D+00 WtEn= 0.00D+00
 Coeff-Com: -0.557D-02 0.580D-01 0.205D+00 0.244D+00 0.499D+00
 Coeff:     -0.557D-02 0.580D-01 0.205D+00 0.244D+00 0.499D+00
 Gap=     0.157 Goal=   None    Shift=    0.000
 RMSDP=7.85D-08 MaxDP=3.38D-06 DE=-1.55D-08 OVMax= 5.63D-06

 Cycle  14  Pass 1  IDiag  1:
 RMSU=  4.28D-08    CP:  1.00D+00  9.93D-01  7.77D-01  5.46D-01  7.34D-01
 E= -959.582016779730     Delta-E=       -0.000000000417 Rises=F Damp=F
 DIIS: error= 2.70D-07 at cycle   6 NSaved=   6.
 NSaved= 6 IEnMin= 6 EnMin= -959.582016779730     IErMin= 6 ErrMin= 2.70D-07
 ErrMax= 2.70D-07 EMaxC= 1.00D-01 BMatC= 4.66D-11 BMatP= 5.24D-10
 IDIUse=1 WtCom= 1.00D+00 WtEn= 0.00D+00
 Coeff-Com: -0.256D-02 0.207D-01 0.738D-01 0.948D-01 0.276D+00 0.538D+00
 Coeff:     -0.256D-02 0.207D-01 0.738D-01 0.948D-01 0.276D+00 0.538D+00
 Gap=     0.157 Goal=   None    Shift=    0.000
 RMSDP=2.60D-08 MaxDP=1.27D-06 DE=-4.17D-10 OVMax= 2.45D-06

 Cycle  15  Pass 1  IDiag  1:
 RMSU=  1.42D-08    CP:  1.00D+00  9.93D-01  7.76D-01  5.44D-01  7.60D-01
                    CP:  7.52D-01
 E= -959.582016779805     Delta-E=       -0.000000000075 Rises=F Damp=F
 DIIS: error= 1.07D-07 at cycle   7 NSaved=   7.
 NSaved= 7 IEnMin= 7 EnMin= -959.582016779805     IErMin= 7 ErrMin= 1.07D-07
 ErrMax= 1.07D-07 EMaxC= 1.00D-01 BMatC= 5.34D-12 BMatP= 4.66D-11
 IDIUse=1 WtCom= 1.00D+00 WtEn= 0.00D+00
 Coeff-Com: -0.732D-03 0.470D-02 0.168D-01 0.243D-01 0.923D-01 0.298D+00
 Coeff-Com:  0.565D+00
 Coeff:     -0.732D-03 0.470D-02 0.168D-01 0.243D-01 0.923D-01 0.298D+00
 Coeff:      0.565D+00
 Gap=     0.157 Goal=   None    Shift=    0.000
 RMSDP=8.38D-09 MaxDP=3.00D-07 DE=-7.46D-11 OVMax= 8.20D-07

 SCF Done:  E(RB3LYP) =  -959.582016780     A.U. after   15 cycles
             Convg  =    0.8380D-08             -V/T =  2.0094
 KE= 9.506440310117D+02 PE=-5.352682856635D+03 EE= 1.882866735073D+03
 Leave Link  502 at Wed Sep 29 03:22:28 2021, MaxMem= 1610612736 cpu:     696.2
 (Enter /sw/target/amd/app/gaussian/Gaussian09RevA.02_gcc-4.9.2/g09/l508.exe)
 QCSCF skips out because SCF is already converged.
 Leave Link  508 at Wed Sep 29 03:22:29 2021, MaxMem= 1610612736 cpu:       0.0
 (Enter /sw/target/amd/app/gaussian/Gaussian09RevA.02_gcc-4.9.2/g09/l601.exe)
 Copying SCF densities to generalized density rwf, IOpCl= 0 IROHF=0.

 **********************************************************************

            Population analysis using the SCF density.

 **********************************************************************

 Orbital symmetries:
       Occupied  (A) (A) (A) (A) (A) (A) (A) (A) (A) (A) (A) (A)
                 (A) (A) (A) (A) (A) (A) (A) (A) (A) (A) (A) (A)
                 (A) (A) (A) (A) (A) (A) (A) (A) (A) (A) (A) (A)
                 (A) (A) (A) (A) (A) (A) (A) (A) (A) (A) (A) (A)
                 (A) (A) (A) (A) (A) (A) (A) (A) (A) (A) (A) (A)
                 (A) (A) (A) (A) (A) (A) (A) (A) (A) (A) (A) (A)
                 (A) (A) (A) (A)
       Virtual   (A) (A) (A) (A) (A) (A) (A) (A) (A) (A) (A) (A)
                 (A) (A) (A) (A) (A) (A) (A) (A) (A) (A) (A) (A)
                 (A) (A) (A) (A) (A) (A) (A) (A) (A) (A) (A) (A)
                 (A) (A) (A) (A) (A) (A) (A) (A) (A) (A) (A) (A)
                 (A) (A) (A) (A) (A) (A) (A) (A) (A) (A) (A) (A)
                 (A) (A) (A) (A) (A) (A) (A) (A) (A) (A) (A) (A)
                 (A) (A) (A) (A) (A) (A) (A) (A) (A) (A) (A) (A)
                 (A) (A) (A) (A) (A) (A) (A) (A) (A) (A) (A) (A)
                 (A) (A) (A) (A) (A) (A) (A) (A) (A) (A) (A) (A)
                 (A) (A) (A) (A) (A) (A) (A) (A) (A) (A) (A) (A)
                 (A) (A) (A) (A) (A) (A) (A) (A) (A) (A) (A) (A)
                 (A) (A) (A) (A) (A) (A) (A) (A) (A) (A) (A) (A)
                 (A) (A) (A) (A) (A) (A) (A) (A) (A) (A) (A) (A)
                 (A) (A) (A) (A) (A) (A) (A) (A) (A) (A) (A) (A)
                 (A) (A) (A) (A) (A) (A) (A) (A) (A) (A) (A) (A)
                 (A) (A) (A) (A) (A) (A) (A) (A) (A) (A) (A) (A)
                 (A) (A) (A) (A) (A) (A) (A) (A) (A) (A) (A) (A)
                 (A) (A) (A) (A) (A) (A) (A) (A) (A) (A) (A) (A)
                 (A) (A) (A) (A) (A) (A) (A) (A) (A) (A) (A) (A)
                 (A) (A) (A) (A) (A) (A) (A) (A) (A) (A) (A) (A)
                 (A) (A) (A) (A) (A) (A) (A) (A) (A) (A) (A) (A)
                 (A) (A) (A) (A) (A) (A) (A) (A) (A) (A) (A) (A)
                 (A) (A) (A) (A) (A) (A) (A) (A) (A) (A) (A)
 The electronic state is 1-A.
 Alpha  occ. eigenvalues --  -19.21094 -19.19655 -19.15014 -19.13433 -10.32734
 Alpha  occ. eigenvalues --  -10.31523 -10.26307 -10.24090 -10.21798 -10.20737
 Alpha  occ. eigenvalues --  -10.20412 -10.20320 -10.20211 -10.20142 -10.20105
 Alpha  occ. eigenvalues --  -10.20044 -10.19934 -10.19782 -10.18667 -10.18104
 Alpha  occ. eigenvalues --  -10.18068  -1.10521  -1.10125  -1.02529  -1.01263
 Alpha  occ. eigenvalues --   -0.88755  -0.83882  -0.82550  -0.78555  -0.76870
 Alpha  occ. eigenvalues --   -0.73181  -0.72359  -0.69651  -0.69033  -0.66880
 Alpha  occ. eigenvalues --   -0.63866  -0.61807  -0.60947  -0.57797  -0.55818
 Alpha  occ. eigenvalues --   -0.53612  -0.51595  -0.49386  -0.49242  -0.48337
 Alpha  occ. eigenvalues --   -0.48041  -0.47146  -0.46833  -0.45739  -0.45234
 Alpha  occ. eigenvalues --   -0.43878  -0.43112  -0.42765  -0.42377  -0.41753
 Alpha  occ. eigenvalues --   -0.40991  -0.40510  -0.39938  -0.39198  -0.38582
 Alpha  occ. eigenvalues --   -0.38382  -0.37127  -0.36799  -0.35956  -0.35684
 Alpha  occ. eigenvalues --   -0.35032  -0.34282  -0.33669  -0.33097  -0.31215
 Alpha  occ. eigenvalues --   -0.30389  -0.29152  -0.27709  -0.27385  -0.24916
 Alpha  occ. eigenvalues --   -0.21752
 Alpha virt. eigenvalues --   -0.06005  -0.03178  -0.01032   0.02188   0.04286
 Alpha virt. eigenvalues --    0.07907   0.09087   0.10891   0.11464   0.11633
 Alpha virt. eigenvalues --    0.12251   0.12545   0.13888   0.14395   0.14606
 Alpha virt. eigenvalues --    0.15053   0.15454   0.15676   0.16786   0.17431
 Alpha virt. eigenvalues --    0.17825   0.18208   0.18609   0.19238   0.19439
 Alpha virt. eigenvalues --    0.20269   0.21398   0.21796   0.22757   0.23638
 Alpha virt. eigenvalues --    0.24239   0.25871   0.26566   0.27288   0.28987
 Alpha virt. eigenvalues --    0.29439   0.30934   0.32568   0.33779   0.35479
 Alpha virt. eigenvalues --    0.36589   0.38667   0.42749   0.47602   0.48610
 Alpha virt. eigenvalues --    0.48961   0.49631   0.50099   0.50239   0.51456
 Alpha virt. eigenvalues --    0.51747   0.51988   0.52520   0.53349   0.53570
 Alpha virt. eigenvalues --    0.54703   0.55072   0.55890   0.56520   0.57871
 Alpha virt. eigenvalues --    0.58518   0.58741   0.58970   0.59691   0.60005
 Alpha virt. eigenvalues --    0.60555   0.60743   0.61057   0.63207   0.63619
 Alpha virt. eigenvalues --    0.64850   0.65478   0.66378   0.67535   0.68216
 Alpha virt. eigenvalues --    0.69017   0.69719   0.70470   0.71364   0.72400
 Alpha virt. eigenvalues --    0.73336   0.75918   0.77121   0.77837   0.80465
 Alpha virt. eigenvalues --    0.81205   0.81734   0.82523   0.83136   0.83372
 Alpha virt. eigenvalues --    0.83787   0.84254   0.84811   0.85340   0.85613
 Alpha virt. eigenvalues --    0.86331   0.87177   0.88493   0.88904   0.89556
 Alpha virt. eigenvalues --    0.89926   0.90693   0.91572   0.91939   0.92740
 Alpha virt. eigenvalues --    0.93399   0.94311   0.94650   0.96200   0.97261
 Alpha virt. eigenvalues --    0.98029   0.98262   0.98538   0.98729   1.00767
 Alpha virt. eigenvalues --    1.01543   1.02729   1.04399   1.04524   1.07173
 Alpha virt. eigenvalues --    1.08809   1.09559   1.11868   1.12611   1.14126
 Alpha virt. eigenvalues --    1.14805   1.16596   1.18121   1.20920   1.24071
 Alpha virt. eigenvalues --    1.24293   1.25886   1.27057   1.27786   1.30404
 Alpha virt. eigenvalues --    1.31512   1.33831   1.34306   1.35609   1.38181
 Alpha virt. eigenvalues --    1.39047   1.39414   1.41065   1.42304   1.43390
 Alpha virt. eigenvalues --    1.47296   1.48083   1.48357   1.48620   1.49536
 Alpha virt. eigenvalues --    1.50829   1.51245   1.51931   1.52844   1.53520
 Alpha virt. eigenvalues --    1.63451   1.64985   1.65542   1.66424   1.67022
 Alpha virt. eigenvalues --    1.71213   1.71805   1.73019   1.74070   1.75815
 Alpha virt. eigenvalues --    1.77048   1.77942   1.78870   1.82348   1.84063
 Alpha virt. eigenvalues --    1.84425   1.84713   1.85186   1.86194   1.87460
 Alpha virt. eigenvalues --    1.87616   1.89283   1.89868   1.92059   1.92583
 Alpha virt. eigenvalues --    1.93459   1.93870   1.95955   1.96675   1.98389
 Alpha virt. eigenvalues --    1.99452   2.00675   2.01566   2.02918   2.03035
 Alpha virt. eigenvalues --    2.03545   2.04802   2.07072   2.07863   2.08731
 Alpha virt. eigenvalues --    2.09412   2.11306   2.11997   2.14909   2.15820
 Alpha virt. eigenvalues --    2.17684   2.18631   2.18910   2.19840   2.24055
 Alpha virt. eigenvalues --    2.24317   2.25689   2.26170   2.26800   2.27645
 Alpha virt. eigenvalues --    2.29475   2.30990   2.31834   2.32524   2.33486
 Alpha virt. eigenvalues --    2.33967   2.34462   2.38627   2.40498   2.41591
 Alpha virt. eigenvalues --    2.44047   2.46949   2.48942   2.51679   2.54000
 Alpha virt. eigenvalues --    2.56562   2.60194   2.60453   2.62245   2.64423
 Alpha virt. eigenvalues --    2.64617   2.66312   2.68496   2.71617   2.72370
 Alpha virt. eigenvalues --    2.73308   2.76812   2.77589   2.80956   2.82309
 Alpha virt. eigenvalues --    2.82632   2.85493   2.88737   2.89529   2.94632
 Alpha virt. eigenvalues --    2.97403   2.97890   3.05404   3.09104   3.12916
 Alpha virt. eigenvalues --    3.18535   3.22470   3.40359   3.49511   3.96980
 Alpha virt. eigenvalues --    4.07214   4.08640   4.09964   4.11644   4.12910
 Alpha virt. eigenvalues --    4.15008   4.18204   4.24912   4.26265   4.29633
 Alpha virt. eigenvalues --    4.30692   4.31651   4.35058   4.39521   4.42474
 Alpha virt. eigenvalues --    4.47402   4.54846   4.63378   4.73829   4.85143
          Condensed to atoms (all electrons):
              1          2          3          4          5          6
     1  C    4.894688   0.211333  -0.022432   0.002916   0.008721  -0.000358
     2  O    0.211333   8.248150   0.256870  -0.079324  -0.095736   0.002943
     3  C   -0.022432   0.256870   4.375420   0.535564   0.339224  -0.042748
     4  O    0.002916  -0.079324   0.535564   8.085792  -0.086308   0.004344
     5  C    0.008721  -0.095736   0.339224  -0.086308   4.971792   0.462092
     6  C   -0.000358   0.002943  -0.042748   0.004344   0.462092   5.055953
     7  C    0.000002   0.000479   0.004314  -0.000063  -0.007389   0.470280
     8  C    0.000000  -0.000001   0.001069   0.000007  -0.029188  -0.012617
     9  C   -0.000001  -0.000036   0.004874   0.001244  -0.007261  -0.037911
    10  C   -0.000221   0.004638  -0.032892   0.001808   0.465769  -0.063558
    11  C   -0.000000   0.000000  -0.000314  -0.000019   0.008538  -0.000078
    12  C    0.000000  -0.000000   0.000003  -0.000000  -0.000323   0.000049
    13  C   -0.000000   0.000000  -0.000000   0.000000   0.000031  -0.000272
    14  C   -0.000000   0.000000   0.000005   0.000000  -0.000668   0.008331
    15  O   -0.000000   0.000000   0.000000   0.000000  -0.000000   0.000000
    16  C   -0.000000   0.000000  -0.000000   0.000000  -0.000000   0.000000
    17  O    0.000000  -0.000000   0.000000  -0.000000  -0.000000  -0.000000
    18  C   -0.000000   0.000000   0.000000   0.000000  -0.000000   0.000000
    19  C    0.000000   0.000000  -0.000000   0.000000  -0.000000  -0.000000
    20  C    0.000000   0.000000  -0.000000   0.000000  -0.000000  -0.000000
    21  C    0.000000   0.000000  -0.000000   0.000000   0.000000   0.000000
    22  H    0.376077  -0.030691   0.004234   0.000619   0.000107  -0.000072
    23  H    0.373539  -0.031564  -0.005635   0.007410  -0.000111   0.000055
    24  H    0.376813  -0.033117  -0.004581   0.004407  -0.000285   0.000062
    25  H   -0.000364   0.010387  -0.009030   0.000097  -0.033969   0.355346
    26  H   -0.000000  -0.000002  -0.000148   0.000000   0.002894  -0.039332
    27  H   -0.000024   0.000318  -0.008891   0.015201  -0.040223   0.005458
    28  H   -0.000000  -0.000000  -0.000005  -0.000000   0.000245   0.000016
    29  H   -0.000000   0.000000  -0.000000   0.000000   0.000003  -0.000000
    30  H    0.000000   0.000000   0.000000  -0.000000   0.000015   0.000149
    31  H   -0.000000   0.000000  -0.000000   0.000000  -0.000000   0.000000
    32  H   -0.000000   0.000000  -0.000000  -0.000000  -0.000000  -0.000000
    33  H    0.000000   0.000000  -0.000000   0.000000   0.000000  -0.000000
    34  H    0.000000   0.000000  -0.000000   0.000000   0.000000   0.000000
    35  H    0.000000   0.000000   0.000000   0.000000   0.000000   0.000000
    36  H    0.000000   0.000000  -0.000000   0.000000   0.000000  -0.000000
    37  H   -0.000000   0.000000  -0.000000   0.000000  -0.000000  -0.000000
    38  H    0.000000   0.000000   0.000000   0.000000   0.000000  -0.000000
    39  H    0.000000   0.000000   0.000000   0.000000  -0.000000   0.000000
              7          8          9         10         11         12
     1  C    0.000002   0.000000  -0.000001  -0.000221  -0.000000   0.000000
     2  O    0.000479  -0.000001  -0.000036   0.004638   0.000000  -0.000000
     3  C    0.004314   0.001069   0.004874  -0.032892  -0.000314   0.000003
     4  O   -0.000063   0.000007   0.001244   0.001808  -0.000019  -0.000000
     5  C   -0.007389  -0.029188  -0.007261   0.465769   0.008538  -0.000323
     6  C    0.470280  -0.012617  -0.037911  -0.063558  -0.000078   0.000049
     7  C    5.162073   0.448522  -0.023307  -0.078769   0.016569  -0.000680
     8  C    0.448522   4.672868   0.490422  -0.032560  -0.028113  -0.037470
     9  C   -0.023307   0.490422   4.752839   0.374658   0.435386  -0.007667
    10  C   -0.078769  -0.032560   0.374658   5.313824  -0.088900   0.009138
    11  C    0.016569  -0.028113   0.435386  -0.088900   5.143928   0.470757
    12  C   -0.000680  -0.037470  -0.007667   0.009138   0.470757   5.031845
    13  C    0.007365   0.008393  -0.034501  -0.000712   0.003507   0.467243
    14  C   -0.093115   0.411720  -0.037267   0.016962  -0.075303  -0.054670
    15  O   -0.000078   0.002209   0.000340   0.000001   0.003686  -0.045881
    16  C    0.000001  -0.000029   0.000021  -0.000000   0.000276  -0.001196
    17  O   -0.000000   0.000001   0.000009   0.000000  -0.000266   0.002056
    18  C   -0.000000   0.000003   0.000001   0.000000  -0.000003   0.000149
    19  C    0.000000  -0.000000   0.000000  -0.000000  -0.000000  -0.000055
    20  C    0.000000  -0.000000   0.000000   0.000000  -0.000001  -0.000030
    21  C    0.000000  -0.000000  -0.000000   0.000000   0.000000  -0.000005
    22  H   -0.000001   0.000000  -0.000000   0.000001   0.000000   0.000000
    23  H    0.000001  -0.000000  -0.000000  -0.000009   0.000000  -0.000000
    24  H    0.000001  -0.000000   0.000000   0.000004  -0.000000  -0.000000
    25  H   -0.039052   0.002648   0.000720   0.005107   0.000010  -0.000001
    26  H    0.354341  -0.039421   0.004396   0.000780  -0.000189   0.000009
    27  H    0.000171   0.004212  -0.042850   0.351802  -0.007193   0.000213
    28  H   -0.000192   0.004078  -0.037776  -0.007295   0.355954  -0.039491
    29  H    0.000008   0.000730   0.002588  -0.000194  -0.032026   0.349023
    30  H   -0.008436  -0.039399   0.004866  -0.000153   0.000019   0.006220
    31  H    0.000000  -0.000001   0.000000  -0.000000   0.000002   0.000045
    32  H   -0.000000   0.000000   0.000000   0.000000  -0.000001   0.000013
    33  H    0.000000   0.000000  -0.000000  -0.000000   0.000000   0.000001
    34  H    0.000000  -0.000000   0.000000  -0.000000   0.000000  -0.000023
    35  H   -0.000000   0.000000  -0.000000  -0.000000   0.000000   0.000001
    36  H    0.000000   0.000000  -0.000000  -0.000000   0.000000   0.000002
    37  H   -0.000000   0.000000   0.000000   0.000000  -0.000000   0.000001
    38  H    0.000000   0.000000  -0.000000  -0.000000   0.000000  -0.000000
    39  H   -0.000000   0.000000   0.000000  -0.000000  -0.000000   0.000000
             13         14         15         16         17         18
     1  C   -0.000000  -0.000000  -0.000000  -0.000000   0.000000  -0.000000
     2  O    0.000000   0.000000   0.000000   0.000000  -0.000000   0.000000
     3  C   -0.000000   0.000005   0.000000  -0.000000   0.000000   0.000000
     4  O    0.000000   0.000000   0.000000   0.000000  -0.000000   0.000000
     5  C    0.000031  -0.000668  -0.000000  -0.000000  -0.000000  -0.000000
     6  C   -0.000272   0.008331   0.000000   0.000000  -0.000000   0.000000
     7  C    0.007365  -0.093115  -0.000078   0.000001  -0.000000  -0.000000
     8  C    0.008393   0.411720   0.002209  -0.000029   0.000001   0.000003
     9  C   -0.034501  -0.037267   0.000340   0.000021   0.000009   0.000001
    10  C   -0.000712   0.016962   0.000001  -0.000000   0.000000   0.000000
    11  C    0.003507  -0.075303   0.003686   0.000276  -0.000266  -0.000003
    12  C    0.467243  -0.054670  -0.045881  -0.001196   0.002056   0.000149
    13  C    4.575162   0.498147   0.183798  -0.007304   0.001054   0.004955
    14  C    0.498147   5.281806  -0.040210  -0.000188  -0.000088  -0.000405
    15  O    0.183798  -0.040210   8.362519   0.227674  -0.066567  -0.092297
    16  C   -0.007304  -0.000188   0.227674   4.408851   0.520389   0.352479
    17  O    0.001054  -0.000088  -0.066567   0.520389   8.071060  -0.077722
    18  C    0.004955  -0.000405  -0.092297   0.352479  -0.077722   4.985388
    19  C   -0.000246  -0.000000   0.000708  -0.043286   0.003011   0.350755
    20  C   -0.000084   0.000003   0.002252  -0.046517  -0.001341   0.374853
    21  C   -0.000157   0.000020  -0.000511  -0.035692  -0.002174   0.369129
    22  H   -0.000000  -0.000000  -0.000000  -0.000000   0.000000   0.000000
    23  H    0.000000  -0.000000   0.000000   0.000000   0.000000   0.000000
    24  H    0.000000  -0.000000  -0.000000   0.000000  -0.000000   0.000000
    25  H    0.000003  -0.000174  -0.000000   0.000000  -0.000000  -0.000000
    26  H    0.000157  -0.007906  -0.000001   0.000000  -0.000000  -0.000000
    27  H    0.000010  -0.000154   0.000000   0.000000   0.000000   0.000000
    28  H    0.003184   0.000672  -0.000050  -0.000014  -0.000004  -0.000000
    29  H   -0.035351   0.005088  -0.006452   0.003907   0.004349  -0.000456
    30  H   -0.039758   0.347406  -0.000645   0.000020   0.000009  -0.000007
    31  H   -0.000009   0.000003   0.001770  -0.003226   0.000053  -0.032256
    32  H    0.000171   0.000007   0.004340  -0.006924  -0.000015  -0.023382
    33  H   -0.000006  -0.000000   0.000494   0.003920  -0.000052  -0.024627
    34  H   -0.000012   0.000000   0.000124  -0.003461   0.000592  -0.032101
    35  H    0.000000  -0.000000  -0.000049   0.004990   0.000327  -0.030112
    36  H   -0.000007  -0.000000   0.000105  -0.006105   0.006972  -0.026046
    37  H   -0.000050   0.000002   0.002316  -0.004874  -0.000141  -0.031012
    38  H   -0.000012   0.000000   0.000090  -0.003824   0.003354  -0.030871
    39  H    0.000004  -0.000000  -0.000080   0.004345  -0.000033  -0.030107
             19         20         21         22         23         24
     1  C    0.000000   0.000000   0.000000   0.376077   0.373539   0.376813
     2  O    0.000000   0.000000   0.000000  -0.030691  -0.031564  -0.033117
     3  C   -0.000000  -0.000000  -0.000000   0.004234  -0.005635  -0.004581
     4  O    0.000000   0.000000   0.000000   0.000619   0.007410   0.004407
     5  C   -0.000000  -0.000000   0.000000   0.000107  -0.000111  -0.000285
     6  C   -0.000000  -0.000000   0.000000  -0.000072   0.000055   0.000062
     7  C    0.000000   0.000000   0.000000  -0.000001   0.000001   0.000001
     8  C   -0.000000  -0.000000  -0.000000   0.000000  -0.000000  -0.000000
     9  C    0.000000   0.000000  -0.000000  -0.000000  -0.000000   0.000000
    10  C   -0.000000   0.000000   0.000000   0.000001  -0.000009   0.000004
    11  C   -0.000000  -0.000001   0.000000   0.000000   0.000000  -0.000000
    12  C   -0.000055  -0.000030  -0.000005   0.000000  -0.000000  -0.000000
[...]
   105    C    7  dz2    Ryd( 3d)     0.00042

   106    C    8  S      Cor( 1S)     1.99903
   107    C    8  S      Val( 2S)     0.87054
   108    C    8  S      Ryd( 3S)     0.00051
   109    C    8  S      Ryd( 4S)     0.00007
   110    C    8  px     Val( 2p)     1.08198
   111    C    8  px     Ryd( 3p)     0.00475
   112    C    8  py     Val( 2p)     1.08585
   113    C    8  py     Ryd( 3p)     0.00544
   114    C    8  pz     Val( 2p)     1.02944
   115    C    8  pz     Ryd( 3p)     0.00120
   116    C    8  dxy    Ryd( 3d)     0.00068
   117    C    8  dxz    Ryd( 3d)     0.00074
   118    C    8  dyz    Ryd( 3d)     0.00049
   119    C    8  dx2y2  Ryd( 3d)     0.00072
   120    C    8  dz2    Ryd( 3d)     0.00035

   121    C    9  S      Cor( 1S)     1.99904
   122    C    9  S      Val( 2S)     0.87131
   123    C    9  S      Ryd( 3S)     0.00047
   124    C    9  S      Ryd( 4S)     0.00007
   125    C    9  px     Val( 2p)     1.10059
   126    C    9  px     Ryd( 3p)     0.00496
   127    C    9  py     Val( 2p)     1.07504
   128    C    9  py     Ryd( 3p)     0.00528
   129    C    9  pz     Val( 2p)     1.01130
   130    C    9  pz     Ryd( 3p)     0.00093
   131    C    9  dxy    Ryd( 3d)     0.00074
   132    C    9  dxz    Ryd( 3d)     0.00096
   133    C    9  dyz    Ryd( 3d)     0.00044
   134    C    9  dx2y2  Ryd( 3d)     0.00069
   135    C    9  dz2    Ryd( 3d)     0.00034

   136    C   10  S      Cor( 1S)     1.99903
   137    C   10  S      Val( 2S)     0.94416
   138    C   10  S      Ryd( 3S)     0.00071
   139    C   10  S      Ryd( 4S)     0.00006
   140    C   10  px     Val( 2p)     1.04627
   141    C   10  px     Ryd( 3p)     0.00435
   142    C   10  py     Val( 2p)     1.19959
   143    C   10  py     Ryd( 3p)     0.00495
   144    C   10  pz     Val( 2p)     0.96533
   145    C   10  pz     Ryd( 3p)     0.00333
   146    C   10  dxy    Ryd( 3d)     0.00071
   147    C   10  dxz    Ryd( 3d)     0.00062
   148    C   10  dyz    Ryd( 3d)     0.00039
   149    C   10  dx2y2  Ryd( 3d)     0.00074
   150    C   10  dz2    Ryd( 3d)     0.00042

   151    C   11  S      Cor( 1S)     1.99907
   152    C   11  S      Val( 2S)     0.95965
   153    C   11  S      Ryd( 3S)     0.00069
   154    C   11  S      Ryd( 4S)     0.00006
   155    C   11  px     Val( 2p)     1.06252
   156    C   11  px     Ryd( 3p)     0.00401
   157    C   11  py     Val( 2p)     1.18246
   158    C   11  py     Ryd( 3p)     0.00493
   159    C   11  pz     Val( 2p)     0.93142
   160    C   11  pz     Ryd( 3p)     0.00180
   161    C   11  dxy    Ryd( 3d)     0.00073
   162    C   11  dxz    Ryd( 3d)     0.00071
   163    C   11  dyz    Ryd( 3d)     0.00032
   164    C   11  dx2y2  Ryd( 3d)     0.00082
   165    C   11  dz2    Ryd( 3d)     0.00042

   166    C   12  S      Cor( 1S)     1.99902
   167    C   12  S      Val( 2S)     0.97385
   168    C   12  S      Ryd( 3S)     0.00078
   169    C   12  S      Ryd( 4S)     0.00005
   170    C   12  px     Val( 2p)     1.13723
   171    C   12  px     Ryd( 3p)     0.00423
   172    C   12  py     Val( 2p)     1.13442
   173    C   12  py     Ryd( 3p)     0.00464
   174    C   12  pz     Val( 2p)     0.94544
   175    C   12  pz     Ryd( 3p)     0.00141
   176    C   12  dxy    Ryd( 3d)     0.00078
   177    C   12  dxz    Ryd( 3d)     0.00067
   178    C   12  dyz    Ryd( 3d)     0.00054
   179    C   12  dx2y2  Ryd( 3d)     0.00067
   180    C   12  dz2    Ryd( 3d)     0.00045

   181    C   13  S      Cor( 1S)     1.99875
   182    C   13  S      Val( 2S)     0.83578
   183    C   13  S      Ryd( 3S)     0.00146
   184    C   13  S      Ryd( 4S)     0.00012
   185    C   13  px     Val( 2p)     0.76057
   186    C   13  px     Ryd( 3p)     0.00664
   187    C   13  py     Val( 2p)     1.06239
   188    C   13  py     Ryd( 3p)     0.00576
   189    C   13  pz     Val( 2p)     1.06070
   190    C   13  pz     Ryd( 3p)     0.00345
   191    C   13  dxy    Ryd( 3d)     0.00149
   192    C   13  dxz    Ryd( 3d)     0.00139
   193    C   13  dyz    Ryd( 3d)     0.00066
   194    C   13  dx2y2  Ryd( 3d)     0.00154
   195    C   13  dz2    Ryd( 3d)     0.00050

   196    C   14  S      Cor( 1S)     1.99897
   197    C   14  S      Val( 2S)     0.96067
   198    C   14  S      Ryd( 3S)     0.00075
   199    C   14  S      Ryd( 4S)     0.00006
   200    C   14  px     Val( 2p)     1.06643
   201    C   14  px     Ryd( 3p)     0.00419
   202    C   14  py     Val( 2p)     1.18927
   203    C   14  py     Ryd( 3p)     0.00430
   204    C   14  pz     Val( 2p)     0.93780
   205    C   14  pz     Ryd( 3p)     0.00186
   206    C   14  dxy    Ryd( 3d)     0.00079
   207    C   14  dxz    Ryd( 3d)     0.00072
   208    C   14  dyz    Ryd( 3d)     0.00044
   209    C   14  dx2y2  Ryd( 3d)     0.00064
   210    C   14  dz2    Ryd( 3d)     0.00044

   211    O   15  S      Cor( 1S)     1.99970
   212    O   15  S      Val( 2S)     1.59723
   213    O   15  S      Ryd( 3S)     0.00134
   214    O   15  S      Ryd( 4S)     0.00009
   215    O   15  px     Val( 2p)     1.42299
   216    O   15  px     Ryd( 3p)     0.00091
   217    O   15  py     Val( 2p)     1.78929
   218    O   15  py     Ryd( 3p)     0.00227
   219    O   15  pz     Val( 2p)     1.72423
   220    O   15  pz     Ryd( 3p)     0.00135
   221    O   15  dxy    Ryd( 3d)     0.00078
   222    O   15  dxz    Ryd( 3d)     0.00095
   223    O   15  dyz    Ryd( 3d)     0.00112
   224    O   15  dx2y2  Ryd( 3d)     0.00100
   225    O   15  dz2    Ryd( 3d)     0.00138

   226    C   16  S      Cor( 1S)     1.99927
   227    C   16  S      Val( 2S)     0.78186
   228    C   16  S      Ryd( 3S)     0.00663
   229    C   16  S      Ryd( 4S)     0.00049
   230    C   16  px     Val( 2p)     0.85638
   231    C   16  px     Ryd( 3p)     0.00562
   232    C   16  py     Val( 2p)     0.75535
   233    C   16  py     Ryd( 3p)     0.01298
   234    C   16  pz     Val( 2p)     0.71994
   235    C   16  pz     Ryd( 3p)     0.01361
   236    C   16  dxy    Ryd( 3d)     0.00226
   237    C   16  dxz    Ryd( 3d)     0.00257
   238    C   16  dyz    Ryd( 3d)     0.00093
   239    C   16  dx2y2  Ryd( 3d)     0.00161
   240    C   16  dz2    Ryd( 3d)     0.00226

   241    O   17  S      Cor( 1S)     1.99977
   242    O   17  S      Val( 2S)     1.69578
   243    O   17  S      Ryd( 3S)     0.00057
   244    O   17  S      Ryd( 4S)     0.00013
   245    O   17  px     Val( 2p)     1.81019
   246    O   17  px     Ryd( 3p)     0.00174
   247    O   17  py     Val( 2p)     1.51500
   248    O   17  py     Ryd( 3p)     0.00054
   249    O   17  pz     Val( 2p)     1.53336
   250    O   17  pz     Ryd( 3p)     0.00061
   251    O   17  dxy    Ryd( 3d)     0.00242
   252    O   17  dxz    Ryd( 3d)     0.00273
   253    O   17  dyz    Ryd( 3d)     0.00452
   254    O   17  dx2y2  Ryd( 3d)     0.00254
   255    O   17  dz2    Ryd( 3d)     0.00423

   256    C   18  S      Cor( 1S)     1.99905
   257    C   18  S      Val( 2S)     0.94078
   258    C   18  S      Ryd( 3S)     0.00045
   259    C   18  S      Ryd( 4S)     0.00003
   260    C   18  px     Val( 2p)     1.06055
   261    C   18  px     Ryd( 3p)     0.00214
   262    C   18  py     Val( 2p)     1.06867
   263    C   18  py     Ryd( 3p)     0.00264
   264    C   18  pz     Val( 2p)     1.07008
   265    C   18  pz     Ryd( 3p)     0.00314
   266    C   18  dxy    Ryd( 3d)     0.00073
   267    C   18  dxz    Ryd( 3d)     0.00063
   268    C   18  dyz    Ryd( 3d)     0.00067
   269    C   18  dx2y2  Ryd( 3d)     0.00094
   270    C   18  dz2    Ryd( 3d)     0.00095

   271    C   19  S      Cor( 1S)     1.99938
   272    C   19  S      Val( 2S)     1.09597
   273    C   19  S      Ryd( 3S)     0.00058
   274    C   19  S      Ryd( 4S)     0.00002
   275    C   19  px     Val( 2p)     1.24437
   276    C   19  px     Ryd( 3p)     0.00190
   277    C   19  py     Val( 2p)     1.24293
   278    C   19  py     Ryd( 3p)     0.00232
   279    C   19  pz     Val( 2p)     1.07744
   280    C   19  pz     Ryd( 3p)     0.00159
   281    C   19  dxy    Ryd( 3d)     0.00043
   282    C   19  dxz    Ryd( 3d)     0.00073
   283    C   19  dyz    Ryd( 3d)     0.00048
   284    C   19  dx2y2  Ryd( 3d)     0.00098
   285    C   19  dz2    Ryd( 3d)     0.00073

   286    C   20  S      Cor( 1S)     1.99940
   287    C   20  S      Val( 2S)     1.09092
   288    C   20  S      Ryd( 3S)     0.00059
   289    C   20  S      Ryd( 4S)     0.00002
   290    C   20  px     Val( 2p)     1.15903
   291    C   20  px     Ryd( 3p)     0.00241
   292    C   20  py     Val( 2p)     1.21949
   293    C   20  py     Ryd( 3p)     0.00249
   294    C   20  pz     Val( 2p)     1.19050
   295    C   20  pz     Ryd( 3p)     0.00228
   296    C   20  dxy    Ryd( 3d)     0.00043
   297    C   20  dxz    Ryd( 3d)     0.00044
   298    C   20  dyz    Ryd( 3d)     0.00029
   299    C   20  dx2y2  Ryd( 3d)     0.00105
   300    C   20  dz2    Ryd( 3d)     0.00112

   301    C   21  S      Cor( 1S)     1.99938
   302    C   21  S      Val( 2S)     1.09554
   303    C   21  S      Ryd( 3S)     0.00058
   304    C   21  S      Ryd( 4S)     0.00002
   305    C   21  px     Val( 2p)     1.25248
   306    C   21  px     Ryd( 3p)     0.00196
   307    C   21  py     Val( 2p)     1.06345
   308    C   21  py     Ryd( 3p)     0.00152
   309    C   21  pz     Val( 2p)     1.24869
   310    C   21  pz     Ryd( 3p)     0.00239
   311    C   21  dxy    Ryd( 3d)     0.00067
   312    C   21  dxz    Ryd( 3d)     0.00056
   313    C   21  dyz    Ryd( 3d)     0.00055
   314    C   21  dx2y2  Ryd( 3d)     0.00068
   315    C   21  dz2    Ryd( 3d)     0.00089

   316    H   22  S      Val( 1S)     0.78501
   317    H   22  S      Ryd( 2S)     0.00068

   318    H   23  S      Val( 1S)     0.78325
   319    H   23  S      Ryd( 2S)     0.00171

   320    H   24  S      Val( 1S)     0.78309
   321    H   24  S      Ryd( 2S)     0.00171

   322    H   25  S      Val( 1S)     0.74065
   323    H   25  S      Ryd( 2S)     0.00107

   324    H   26  S      Val( 1S)     0.76158
   325    H   26  S      Ryd( 2S)     0.00110

   326    H   27  S      Val( 1S)     0.74138
   327    H   27  S      Ryd( 2S)     0.00211

   328    H   28  S      Val( 1S)     0.75179
   329    H   28  S      Ryd( 2S)     0.00104

   330    H   29  S      Val( 1S)     0.73922
   331    H   29  S      Ryd( 2S)     0.00094

   332    H   30  S      Val( 1S)     0.75032
   333    H   30  S      Ryd( 2S)     0.00142

   334    H   31  S      Val( 1S)     0.76335
   335    H   31  S      Ryd( 2S)     0.00092

   336    H   32  S      Val( 1S)     0.75475
   337    H   32  S      Ryd( 2S)     0.00106

   338    H   33  S      Val( 1S)     0.76197
   339    H   33  S      Ryd( 2S)     0.00108

   340    H   34  S      Val( 1S)     0.75591
   341    H   34  S      Ryd( 2S)     0.00103

   342    H   35  S      Val( 1S)     0.76751
   343    H   35  S      Ryd( 2S)     0.00090

   344    H   36  S      Val( 1S)     0.75504
   345    H   36  S      Ryd( 2S)     0.00102

   346    H   37  S      Val( 1S)     0.75672
   347    H   37  S      Ryd( 2S)     0.00113

   348    H   38  S      Val( 1S)     0.76219
   349    H   38  S      Ryd( 2S)     0.00090

   350    H   39  S      Val( 1S)     0.76240
   351    H   39  S      Ryd( 2S)     0.00102

 WARNING:  1 low occupancy (<1.9990e) core orbital  found on  C    5
           1 low occupancy (<1.9990e) core orbital  found on  C   13
           1 low occupancy (<1.9990e) core orbital  found on  C   14


 Summary of Natural Population Analysis:                  
                                                          
                                       Natural Population 
                Natural  -----------------------------------------------
    Atom  No    Charge         Core      Valence    Rydberg      Total
 -----------------------------------------------------------------------
      C    1   -0.31712      1.99943     4.30348    0.01421     6.31712
      O    2   -0.56732      1.99975     6.55710    0.01048     8.56732
      C    3    0.74271      1.99936     3.21284    0.04509     5.25729
      O    4   -0.64110      1.99979     6.62216    0.01914     8.64110
      C    5   -0.18922      1.99892     4.17253    0.01776     6.18922
      C    6   -0.12416      1.99908     4.11098    0.01410     6.12416
      C    7   -0.17823      1.99908     4.16454    0.01461     6.17823
      C    8   -0.08180      1.99903     4.06781    0.01495     6.08180
      C    9   -0.07216      1.99904     4.05824    0.01488     6.07216
      C   10   -0.17067      1.99903     4.15535    0.01628     6.17067
      C   11   -0.14961      1.99907     4.13604    0.01449     6.14961
      C   12   -0.20416      1.99902     4.19094    0.01420     6.20416
      C   13    0.25879      1.99875     3.71945    0.02301     5.74121
      C   14   -0.16735      1.99897     4.15416    0.01422     6.16735
      O   15   -0.54463      1.99970     6.53375    0.01119     8.54463
      C   16    0.83823      1.99927     3.11353    0.04896     5.16177
      O   17   -0.57413      1.99977     6.55433    0.02003     8.57413
      C   18   -0.15144      1.99905     4.14008    0.01232     6.15144
      C   19   -0.66985      1.99938     4.66071    0.00976     6.66985
      C   20   -0.67046      1.99940     4.65995    0.01111     6.67046
      C   21   -0.66935      1.99938     4.66015    0.00982     6.66935
      H   22    0.21432      0.00000     0.78501    0.00068     0.78568
      H   23    0.21504      0.00000     0.78325    0.00171     0.78496
      H   24    0.21520      0.00000     0.78309    0.00171     0.78480
      H   25    0.25827      0.00000     0.74065    0.00107     0.74173
      H   26    0.23732      0.00000     0.76158    0.00110     0.76268
      H   27    0.25650      0.00000     0.74138    0.00211     0.74350
      H   28    0.24717      0.00000     0.75179    0.00104     0.75283
      H   29    0.25985      0.00000     0.73922    0.00094     0.74015
      H   30    0.24826      0.00000     0.75032    0.00142     0.75174
      H   31    0.23573      0.00000     0.76335    0.00092     0.76427
      H   32    0.24418      0.00000     0.75475    0.00106     0.75582
      H   33    0.23694      0.00000     0.76197    0.00108     0.76306
      H   34    0.24306      0.00000     0.75591    0.00103     0.75694
      H   35    0.23159      0.00000     0.76751    0.00090     0.76841
      H   36    0.24394      0.00000     0.75504    0.00102     0.75606
      H   37    0.24215      0.00000     0.75672    0.00113     0.75785
      H   38    0.23691      0.00000     0.76219    0.00090     0.76309
      H   39    0.23658      0.00000     0.76240    0.00102     0.76342
 =======================================================================
   * Total *   -0.00000     41.98428   109.62427    0.39145   152.00000

                                 Natural Population      
 --------------------------------------------------------
   Core                      41.98428 ( 99.9626% of  42)
   Valence                  109.62427 ( 99.6584% of 110)
   Natural Minimal Basis    151.60855 ( 99.7425% of 152)
   Natural Rydberg Basis      0.39145 (  0.2575% of 152)
 --------------------------------------------------------

    Atom  No          Natural Electron Configuration
 ----------------------------------------------------------------------------
      C    1      [core]2S( 1.11)2p( 3.20)3p( 0.01)3d( 0.01)
      O    2      [core]2S( 1.62)2p( 4.94)3d( 0.01)
      C    3      [core]2S( 0.75)2p( 2.46)3p( 0.03)3d( 0.01)
      O    4      [core]2S( 1.70)2p( 4.92)3d( 0.02)
      C    5      [core]2S( 0.91)2p( 3.26)3p( 0.01)
      C    6      [core]2S( 0.97)2p( 3.14)3p( 0.01)
      C    7      [core]2S( 0.96)2p( 3.21)3p( 0.01)
      C    8      [core]2S( 0.87)2p( 3.20)3p( 0.01)
      C    9      [core]2S( 0.87)2p( 3.19)3p( 0.01)
      C   10      [core]2S( 0.94)2p( 3.21)3p( 0.01)
      C   11      [core]2S( 0.96)2p( 3.18)3p( 0.01)
      C   12      [core]2S( 0.97)2p( 3.22)3p( 0.01)
      C   13      [core]2S( 0.84)2p( 2.88)3p( 0.02)3d( 0.01)
      C   14      [core]2S( 0.96)2p( 3.19)3p( 0.01)
      O   15      [core]2S( 1.60)2p( 4.94)3d( 0.01)
      C   16      [core]2S( 0.78)2p( 2.33)3S( 0.01)3p( 0.03)3d( 0.01)
      O   17      [core]2S( 1.70)2p( 4.86)3d( 0.02)
      C   18      [core]2S( 0.94)2p( 3.20)3p( 0.01)
      C   19      [core]2S( 1.10)2p( 3.56)3p( 0.01)
      C   20      [core]2S( 1.09)2p( 3.57)3p( 0.01)
      C   21      [core]2S( 1.10)2p( 3.56)3p( 0.01)
      H   22            1S( 0.79)
      H   23            1S( 0.78)
      H   24            1S( 0.78)
      H   25            1S( 0.74)
      H   26            1S( 0.76)
      H   27            1S( 0.74)
      H   28            1S( 0.75)
      H   29            1S( 0.74)
      H   30            1S( 0.75)
      H   31            1S( 0.76)
      H   32            1S( 0.75)
      H   33            1S( 0.76)
      H   34            1S( 0.76)
      H   35            1S( 0.77)
      H   36            1S( 0.76)
      H   37            1S( 0.76)
      H   38            1S( 0.76)
      H   39            1S( 0.76)


 NBO analysis skipped by request.
 Leave Link  607 at Wed Sep 29 16:20:14 2021, MaxMem= 1610612736 cpu:      30.6
 (Enter /sw/target/amd/app/gaussian/Gaussian09RevA.02_gcc-4.9.2/g09/l9999.exe)
 1\1\GINC-HERMITE\SP\RTD-B3LYP-FC\6-31G(d)\C17H18O4\JSCHLEINITZ\29-Sep-
 2021\0\\#p TD(NStates=10, Root=1) b3lyp/6-31G* volume pop=NPA density=
 current Geom=AllCheck Guess=Read\\COC(=O)c1ccc2c(c1)ccc(c2)OC(=O)C(C)(
 C)C_conf_0\\0,1\C,0,1.0466074313,1.0603949527,1.5680372062\O,0,2.38838
 75943,0.8444061698,1.1068106041\C,0,2.6579930625,-0.4147509702,0.68701
 90247\O,0,1.8310250375,-1.3061301183,0.6969252051\C,0,4.0642043214,-0.
 5667228969,0.2209927621\C,0,4.992483414,0.5104772774,0.241520989\C,0,6
 .2806416809,0.3228706156,-0.1984743447\C,0,6.7129484826,-0.9419872498,
 -0.6835602091\C,0,5.7782293197,-2.0285122914,-0.705143049\C,0,4.458806
 2593,-1.8073927628,-0.2443050356\C,0,6.2095532776,-3.2952166347,-1.186
 3485299\C,0,7.4958100322,-3.4908594523,-1.6290899668\C,0,8.4047029823,
 -2.4050527924,-1.6082265146\C,0,8.0341843978,-1.1639526028,-1.14807449
 83\O,0,9.7414941267,-2.5736185146,-1.9657009073\C,0,10.0704541219,-3.1
 460896895,-3.1733161867\O,0,9.2485308565,-3.5062285043,-3.9797779192\C
 ,0,11.5908165215,-3.2457420145,-3.3258136818\C,0,12.1531783241,-4.1254
 781608,-2.1861230394\C,0,11.9036175128,-3.8797044794,-4.6903814044\C,0
 ,12.2035185858,-1.8293627976,-3.2431600477\H,0,1.0044508541,2.10917653
 75,1.8638419371\H,0,0.8232139392,0.4110147673,2.4187625893\H,0,0.32831
 00445,0.8563623257,0.7694301578\H,0,4.6708020318,1.4784228556,0.608057
 0933\H,0,6.9892106544,1.1472379421,-0.1820791314\H,0,3.7364856351,-2.6
 182847766,-0.2524661241\H,0,5.5007741823,-4.1190022774,-1.1989575462\H
 ,0,7.8188870658,-4.4561426382,-1.9984237875\H,0,8.7607701421,-0.357027
 3927,-1.1390167021\H,0,11.7272655578,-5.1351287283,-2.2165612311\H,0,1
 1.9418861542,-3.6921355202,-1.2045618308\H,0,13.2397265153,-4.21723988
 05,-2.2960580479\H,0,11.4665097737,-4.87926581,-4.7734660247\H,0,12.98
 84984243,-3.9637474567,-4.8189303925\H,0,11.5035009723,-3.2752357472,-
 5.5099153685\H,0,12.0000182458,-1.3614225676,-2.2760658778\H,0,11.8075
 184455,-1.1790001349,-4.0316232295\H,0,13.2898041224,-1.8925246108,-3.
 3741134943\\Version=AM64L-G09RevA.02\State=1-A\HF=-959.5912835\RMSD=9.
 866e-09\Dipole=2.0461614,0.3836946,0.0172207\Quadrupole=-2.7228156,8.4
 633658,-5.7405502,-4.7305463,0.6319141,1.7572917\PG=C01 [X(C17H18O4)]\
 \@


 ANYONE WHO IS NOT SHOCKED BY QUANTUM THEORY HAS
 NOT UNDERSTOOD IT. -- NIELS BOHR(1885-1962)
 Job cpu time:  0 days  7 hours 12 minutes 16.8 seconds.
 File lengths (MBytes):  RWF=    405 Int=      0 D2E=      0 Chk=     55 Scr=      1
 Normal termination of Gaussian 09 at Wed Sep 29 16:20:20 2021.
