 Entering Gaussian System, Link 0=g09
 Input=C17H12O_42f6_conf_0.com
 Output=C17H12O_42f6_conf_0.log
 Initial command:
 /sw/target/amd/app/gaussian/Gaussian09RevA.02_gcc-4.9.2/g09/l1.exe /home/jschleinitz/gaussian/Gau-131380.inp -scrdir=/home/jschleinitz/gaussian/
 Entering Link 1 = /sw/target/amd/app/gaussian/Gaussian09RevA.02_gcc-4.9.2/g09/l1.exe PID=    131387.
  
 Copyright (c) 1988,1990,1992,1993,1995,1998,2003,2009, Gaussian, Inc.
                  All Rights Reserved.
  
 This is part of the Gaussian(R) 09 program.  It is based on
 the Gaussian(R) 03 system (copyright 2003, Gaussian, Inc.),
 the Gaussian(R) 98 system (copyright 1998, Gaussian, Inc.),
 the Gaussian(R) 94 system (copyright 1995, Gaussian, Inc.),
 the Gaussian 92(TM) system (copyright 1992, Gaussian, Inc.),
 the Gaussian 90(TM) system (copyright 1990, Gaussian, Inc.),
 the Gaussian 88(TM) system (copyright 1988, Gaussian, Inc.),
 the Gaussian 86(TM) system (copyright 1986, Carnegie Mellon
 University), and the Gaussian 82(TM) system (copyright 1983,
 Carnegie Mellon University). Gaussian is a federally registered
 trademark of Gaussian, Inc.
  
 This software contains proprietary and confidential information,
 including trade secrets, belonging to Gaussian, Inc.
  
 This software is provided under written license and may be
 used, copied, transmitted, or stored only in accord with that
 written license.
  
 The following legend is applicable only to US Government
 contracts under FAR:
  
                    RESTRICTED RIGHTS LEGEND
  
 Use, reproduction and disclosure by the US Government is
 subject to restrictions as set forth in subparagraphs (a)
 and (c) of the Commercial Computer Software - Restricted
 Rights clause in FAR 52.227-19.
  
 Gaussian, Inc.
 340 Quinnipiac St., Bldg. 40, Wallingford CT 06492
  
  
 ---------------------------------------------------------------
 Warning -- This program may not be used in any manner that
 competes with the business of Gaussian, Inc. or will provide
 assistance to any competitor of Gaussian, Inc.  The licensee
 of this program is prohibited from giving any competitor of
 Gaussian, Inc. access to this program.  By using this program,
 the user acknowledges that Gaussian, Inc. is engaged in the
 business of creating and licensing software in the field of
 computational chemistry and represents and warrants to the
 licensee that it is not a competitor of Gaussian, Inc. and that
 it will not use this program in any manner prohibited above.
 ---------------------------------------------------------------
  

 Cite this work as:
 Gaussian 09, Revision A.02,
 M. J. Frisch, G. W. Trucks, H. B. Schlegel, G. E. Scuseria, 
 M. A. Robb, J. R. Cheeseman, G. Scalmani, V. Barone, B. Mennucci, 
 G. A. Petersson, H. Nakatsuji, M. Caricato, X. Li, H. P. Hratchian, 
 A. F. Izmaylov, J. Bloino, G. Zheng, J. L. Sonnenberg, M. Hada, 
 M. Ehara, K. Toyota, R. Fukuda, J. Hasegawa, M. Ishida, T. Nakajima, 
 Y. Honda, O. Kitao, H. Nakai, T. Vreven, J. A. Montgomery, Jr., 
 J. E. Peralta, F. Ogliaro, M. Bearpark, J. J. Heyd, E. Brothers, 
 K. N. Kudin, V. N. Staroverov, R. Kobayashi, J. Normand, 
 K. Raghavachari, A. Rendell, J. C. Burant, S. S. Iyengar, J. Tomasi, 
 M. Cossi, N. Rega, J. M. Millam, M. Klene, J. E. Knox, J. B. Cross, 
 V. Bakken, C. Adamo, J. Jaramillo, R. Gomperts, R. E. Stratmann, 
 O. Yazyev, A. J. Austin, R. Cammi, C. Pomelli, J. W. Ochterski, 
 R. L. Martin, K. Morokuma, V. G. Zakrzewski, G. A. Voth, 
 P. Salvador, J. J. Dannenberg, S. Dapprich, A. D. Daniels, 
 O. Farkas, J. B. Foresman, J. V. Ortiz, J. Cioslowski, 
 and D. J. Fox, Gaussian, Inc., Wallingford CT, 2009.
 
 ******************************************
 Gaussian 09:  AM64L-G09RevA.02 11-Jun-2009
                30-Sep-2021 
 ******************************************
 %nproc=5
 Will use up to    5 processors via shared memory.
 %mem=10gb
 %chk=C17H12O_42f6_conf_0.chk
 -----------------------------------
 #p opt b3lyp/6-31G* scf=(xqc,tight)
 -----------------------------------
 1/14=-1,18=20,19=15,26=3,38=1/1,3;
 2/9=110,12=2,17=6,18=5,40=1/2;
 3/5=1,6=6,7=1,11=2,16=1,25=1,30=1,71=1,74=-5/1,2,3;
 4//1;
 5/5=2,8=3,13=1,32=2,38=5/2,8;
 6/7=2,8=2,9=2,10=2,28=1/1;
 7//1,2,3,16;
 1/14=-1,18=20,19=15/3(2);
 2/9=110/2;
 99//99;
 2/9=110/2;
 3/5=1,6=6,7=1,11=2,16=1,25=1,30=1,71=1,74=-5/1,2,3;
 4/5=5,16=3/1;
 5/5=2,8=3,13=1,32=2,38=5/2,8;
 7//1,2,3,16;
 1/14=-1,18=20,19=15/3(-5);
 2/9=110/2;
 6/7=2,8=2,9=2,10=2,19=2,28=1/1;
 99/9=1/99;
 Leave Link    1 at Thu Sep 30 19:38:44 2021, MaxMem= 1342177280 cpu:       0.1
 (Enter /sw/target/amd/app/gaussian/Gaussian09RevA.02_gcc-4.9.2/g09/l101.exe)
 -----------------------------------
 COc1ccc2c3c1ccc1c3c(cc2)ccc1_conf_0
 -----------------------------------
 Symbolic Z-matrix:
 Charge =  0 Multiplicity = 1
 C                     3.12959  -1.07042   0.17389 
 O                     2.55184   0.10142  -0.40601 
 C                     3.25209   1.22129  -0.03168 
 C                     2.82204   1.90125   1.10688 
 C                     3.49538   3.04781   1.52215 
 C                     4.5956    3.5305    0.79846 
 C                     5.01609   2.85145  -0.37226 
 C                     4.33403   1.68967  -0.80466 
 C                     4.7656    1.05312  -1.98379 
 C                     5.85483   1.53716  -2.7109 
 C                     6.54493   2.67733  -2.28546 
 C                     6.12301   3.34331  -1.11099 
 C                     6.80754   4.50208  -0.67592 
 C                     6.37685   5.15725   0.48488 
 C                     5.28408   4.67857   1.21119 
 C                     7.90262   4.97386  -1.41485 
 C                     8.31801   4.3131   -2.57011 
 C                     7.64301   3.17309  -3.00319 
 H                     2.39084  -1.52989   0.8372 
 H                     4.04933  -0.88345   0.74192 
 H                     3.35554  -1.77513  -0.63221 
 H                     1.966     1.53796   1.66791 
 H                     3.15234   3.56468   2.41565 
 H                     4.24554   0.16993  -2.34863 
 H                     6.1558    1.01375  -3.61555 
 H                     6.88843   6.05123   0.83452 
 H                     4.97516   5.21482   2.10598 
 H                     8.44125   5.86304  -1.09514 
 H                     9.16769   4.68811  -3.13464 
 H                     7.98074   2.67301  -3.90823 
 
 NAtoms=     30 NQM=     30 NQMF=      0 NMic=      0 NMicF=      0 NTot=     30.
                    Isotopes and Nuclear Properties:
 (Nuclear quadrupole moments (NQMom) in fm**2, nuclear magnetic moments (NMagM)
  in nuclear magnetons)

  Atom         1           2           3           4           5           6           7           8           9          10
 IAtWgt=          12          16          12          12          12          12          12          12          12          12
 AtmWgt=  12.0000000  15.9949146  12.0000000  12.0000000  12.0000000  12.0000000  12.0000000  12.0000000  12.0000000  12.0000000
 NucSpn=           0           0           0           0           0           0           0           0           0           0
 AtZEff=   0.0000000   0.0000000   0.0000000   0.0000000   0.0000000   0.0000000   0.0000000   0.0000000   0.0000000   0.0000000
 NQMom=    0.0000000   0.0000000   0.0000000   0.0000000   0.0000000   0.0000000   0.0000000   0.0000000   0.0000000   0.0000000
 NMagM=    0.0000000   0.0000000   0.0000000   0.0000000   0.0000000   0.0000000   0.0000000   0.0000000   0.0000000   0.0000000

  Atom        11          12          13          14          15          16          17          18          19          20
 IAtWgt=          12          12          12          12          12          12          12          12           1           1
 AtmWgt=  12.0000000  12.0000000  12.0000000  12.0000000  12.0000000  12.0000000  12.0000000  12.0000000   1.0078250   1.0078250
 NucSpn=           0           0           0           0           0           0           0           0           1           1
 AtZEff=   0.0000000   0.0000000   0.0000000   0.0000000   0.0000000   0.0000000   0.0000000   0.0000000   0.0000000   0.0000000
 NQMom=    0.0000000   0.0000000   0.0000000   0.0000000   0.0000000   0.0000000   0.0000000   0.0000000   0.0000000   0.0000000
 NMagM=    0.0000000   0.0000000   0.0000000   0.0000000   0.0000000   0.0000000   0.0000000   0.0000000   2.7928460   2.7928460

  Atom        21          22          23          24          25          26          27          28          29          30
 IAtWgt=           1           1           1           1           1           1           1           1           1           1
 AtmWgt=   1.0078250   1.0078250   1.0078250   1.0078250   1.0078250   1.0078250   1.0078250   1.0078250   1.0078250   1.0078250
 NucSpn=           1           1           1           1           1           1           1           1           1           1
 AtZEff=   0.0000000   0.0000000   0.0000000   0.0000000   0.0000000   0.0000000   0.0000000   0.0000000   0.0000000   0.0000000
 NQMom=    0.0000000   0.0000000   0.0000000   0.0000000   0.0000000   0.0000000   0.0000000   0.0000000   0.0000000   0.0000000
 NMagM=    2.7928460   2.7928460   2.7928460   2.7928460   2.7928460   2.7928460   2.7928460   2.7928460   2.7928460   2.7928460
 Leave Link  101 at Thu Sep 30 19:38:45 2021, MaxMem= 1342177280 cpu:       0.2
 (Enter /sw/target/amd/app/gaussian/Gaussian09RevA.02_gcc-4.9.2/g09/l103.exe)

 GradGradGradGradGradGradGradGradGradGradGradGradGradGradGradGradGradGrad
 Berny optimization.
 Initialization pass.
                           ----------------------------
                           !    Initial Parameters    !
                           ! (Angstroms and Degrees)  !
 --------------------------                            --------------------------
 ! Name  Definition              Value          Derivative Info.                !
 --------------------------------------------------------------------------------
 ! R1    R(1,2)                  1.4294         estimate D2E/DX2                !
 ! R2    R(1,19)                 1.094          estimate D2E/DX2                !
 ! R3    R(1,20)                 1.0971         estimate D2E/DX2                !
 ! R4    R(1,21)                 1.0943         estimate D2E/DX2                !
 ! R5    R(2,3)                  1.3728         estimate D2E/DX2                !
 ! R6    R(3,4)                  1.3941         estimate D2E/DX2                !
 ! R7    R(3,8)                  1.4098         estimate D2E/DX2                !
 ! R8    R(4,5)                  1.393          estimate D2E/DX2                !
 ! R9    R(4,22)                 1.0861         estimate D2E/DX2                !
 ! R10   R(5,6)                  1.4026         estimate D2E/DX2                !
 ! R11   R(5,23)                 1.0877         estimate D2E/DX2                !
 ! R12   R(6,7)                  1.4172         estimate D2E/DX2                !
 ! R13   R(6,15)                 1.4009         estimate D2E/DX2                !
 ! R14   R(7,8)                  1.4149         estimate D2E/DX2                !
 ! R15   R(7,12)                 1.4188         estimate D2E/DX2                !
 ! R16   R(8,9)                  1.4078         estimate D2E/DX2                !
 ! R17   R(9,10)                 1.3962         estimate D2E/DX2                !
 ! R18   R(9,24)                 1.0879         estimate D2E/DX2                !
 ! R19   R(10,11)                1.399          estimate D2E/DX2                !
 ! R20   R(10,25)                1.0876         estimate D2E/DX2                !
 ! R21   R(11,12)                1.4145         estimate D2E/DX2                !
 ! R22   R(11,18)                1.4024         estimate D2E/DX2                !
 ! R23   R(12,13)                1.4144         estimate D2E/DX2                !
 ! R24   R(13,14)                1.4008         estimate D2E/DX2                !
 ! R25   R(13,16)                1.4028         estimate D2E/DX2                !
 ! R26   R(14,15)                1.3967         estimate D2E/DX2                !
 ! R27   R(14,26)                1.0877         estimate D2E/DX2                !
 ! R28   R(15,27)                1.088          estimate D2E/DX2                !
 ! R29   R(16,17)                1.3942         estimate D2E/DX2                !
 ! R30   R(16,28)                1.0876         estimate D2E/DX2                !
 ! R31   R(17,18)                1.3938         estimate D2E/DX2                !
 ! R32   R(17,29)                1.0869         estimate D2E/DX2                !
 ! R33   R(18,30)                1.0878         estimate D2E/DX2                !
 ! A1    A(2,1,19)             108.5025         estimate D2E/DX2                !
 ! A2    A(2,1,20)             114.1538         estimate D2E/DX2                !
 ! A3    A(2,1,21)             108.2129         estimate D2E/DX2                !
 ! A4    A(19,1,20)            108.8913         estimate D2E/DX2                !
 ! A5    A(19,1,21)            108.397          estimate D2E/DX2                !
 ! A6    A(20,1,21)            108.5456         estimate D2E/DX2                !
 ! A7    A(1,2,3)              110.607          estimate D2E/DX2                !
 ! A8    A(2,3,4)              117.5949         estimate D2E/DX2                !
 ! A9    A(2,3,8)              120.8627         estimate D2E/DX2                !
 ! A10   A(4,3,8)              121.4985         estimate D2E/DX2                !
 ! A11   A(3,4,5)              119.7229         estimate D2E/DX2                !
 ! A12   A(3,4,22)             120.1236         estimate D2E/DX2                !
 ! A13   A(5,4,22)             120.1535         estimate D2E/DX2                !
 ! A14   A(4,5,6)              120.5719         estimate D2E/DX2                !
 ! A15   A(4,5,23)             118.9177         estimate D2E/DX2                !
 ! A16   A(6,5,23)             120.5101         estimate D2E/DX2                !
 ! A17   A(5,6,7)              119.6088         estimate D2E/DX2                !
 ! A18   A(5,6,15)             121.034          estimate D2E/DX2                !
 ! A19   A(7,6,15)             119.3566         estimate D2E/DX2                !
 ! A20   A(6,7,8)              120.1889         estimate D2E/DX2                !
 ! A21   A(6,7,12)             119.7024         estimate D2E/DX2                !
 ! A22   A(8,7,12)             120.1086         estimate D2E/DX2                !
 ! A23   A(3,8,7)              118.3725         estimate D2E/DX2                !
 ! A24   A(3,8,9)              122.9765         estimate D2E/DX2                !
 ! A25   A(7,8,9)              118.6509         estimate D2E/DX2                !
 ! A26   A(8,9,10)             121.2381         estimate D2E/DX2                !
 ! A27   A(8,9,24)             120.0943         estimate D2E/DX2                !
 ! A28   A(10,9,24)            118.6667         estimate D2E/DX2                !
 ! A29   A(9,10,11)            120.5971         estimate D2E/DX2                !
 ! A30   A(9,10,25)            118.8295         estimate D2E/DX2                !
 ! A31   A(11,10,25)           120.5732         estimate D2E/DX2                !
 ! A32   A(10,11,12)           119.2785         estimate D2E/DX2                !
 ! A33   A(10,11,18)           121.2462         estimate D2E/DX2                !
 ! A34   A(12,11,18)           119.475          estimate D2E/DX2                !
 ! A35   A(7,12,11)            120.1197         estimate D2E/DX2                !
 ! A36   A(7,12,13)            120.0954         estimate D2E/DX2                !
 ! A37   A(11,12,13)           119.7849         estimate D2E/DX2                !
 ! A38   A(12,13,14)           119.293          estimate D2E/DX2                !
 ! A39   A(12,13,16)           119.4265         estimate D2E/DX2                !
 ! A40   A(14,13,16)           121.2805         estimate D2E/DX2                !
 ! A41   A(13,14,15)           120.7424         estimate D2E/DX2                !
 ! A42   A(13,14,26)           120.4094         estimate D2E/DX2                !
 ! A43   A(15,14,26)           118.8479         estimate D2E/DX2                !
 ! A44   A(6,15,14)            120.8092         estimate D2E/DX2                !
 ! A45   A(6,15,27)            120.4456         estimate D2E/DX2                !
 ! A46   A(14,15,27)           118.7452         estimate D2E/DX2                !
 ! A47   A(13,16,17)           120.6424         estimate D2E/DX2                !
 ! A48   A(13,16,28)           120.4449         estimate D2E/DX2                !
 ! A49   A(17,16,28)           118.9126         estimate D2E/DX2                !
 ! A50   A(16,17,18)           120.0528         estimate D2E/DX2                !
 ! A51   A(16,17,29)           119.986          estimate D2E/DX2                !
 ! A52   A(18,17,29)           119.961          estimate D2E/DX2                !
 ! A53   A(11,18,17)           120.6179         estimate D2E/DX2                !
 ! A54   A(11,18,30)           120.4247         estimate D2E/DX2                !
 ! A55   A(17,18,30)           118.9574         estimate D2E/DX2                !
 ! D1    D(19,1,2,3)           117.5125         estimate D2E/DX2                !
 ! D2    D(20,1,2,3)            -4.1054         estimate D2E/DX2                !
 ! D3    D(21,1,2,3)          -125.0705         estimate D2E/DX2                !
 ! D4    D(1,2,3,4)            -92.0841         estimate D2E/DX2                !
 ! D5    D(1,2,3,8)             90.2903         estimate D2E/DX2                !
 ! D6    D(2,3,4,5)           -179.6134         estimate D2E/DX2                !
 ! D7    D(2,3,4,22)             0.4264         estimate D2E/DX2                !
 ! D8    D(8,3,4,5)             -2.0038         estimate D2E/DX2                !
 ! D9    D(8,3,4,22)           178.0359         estimate D2E/DX2                !
 ! D10   D(2,3,8,7)            179.7981         estimate D2E/DX2                !
 ! D11   D(2,3,8,9)             -0.2832         estimate D2E/DX2                !
 ! D12   D(4,3,8,7)              2.2662         estimate D2E/DX2                !
 ! D13   D(4,3,8,9)           -177.8151         estimate D2E/DX2                !
 ! D14   D(3,4,5,6)              0.5297         estimate D2E/DX2                !
 ! D15   D(3,4,5,23)          -179.6381         estimate D2E/DX2                !
 ! D16   D(22,4,5,6)          -179.5101         estimate D2E/DX2                !
 ! D17   D(22,4,5,23)            0.3222         estimate D2E/DX2                !
 ! D18   D(4,5,6,7)              0.6081         estimate D2E/DX2                !
 ! D19   D(4,5,6,15)          -179.665          estimate D2E/DX2                !
 ! D20   D(23,5,6,7)          -179.2215         estimate D2E/DX2                !
 ! D21   D(23,5,6,15)            0.5054         estimate D2E/DX2                !
 ! D22   D(5,6,7,8)             -0.311          estimate D2E/DX2                !
 ! D23   D(5,6,7,12)           179.5636         estimate D2E/DX2                !
 ! D24   D(15,6,7,8)           179.9576         estimate D2E/DX2                !
 ! D25   D(15,6,7,12)           -0.1679         estimate D2E/DX2                !
 ! D26   D(5,6,15,14)         -179.8213         estimate D2E/DX2                !
 ! D27   D(5,6,15,27)            0.144          estimate D2E/DX2                !
 ! D28   D(7,6,15,14)           -0.0938         estimate D2E/DX2                !
 ! D29   D(7,6,15,27)          179.8716         estimate D2E/DX2                !
 ! D30   D(6,7,8,3)             -1.0905         estimate D2E/DX2                !
 ! D31   D(6,7,8,9)            178.9872         estimate D2E/DX2                !
 ! D32   D(12,7,8,3)           179.0354         estimate D2E/DX2                !
 ! D33   D(12,7,8,9)            -0.8868         estimate D2E/DX2                !
 ! D34   D(6,7,12,11)         -179.5995         estimate D2E/DX2                !
 ! D35   D(6,7,12,13)            0.3443         estimate D2E/DX2                !
 ! D36   D(8,7,12,11)            0.2752         estimate D2E/DX2                !
 ! D37   D(8,7,12,13)         -179.7811         estimate D2E/DX2                !
 ! D38   D(3,8,9,10)          -179.0271         estimate D2E/DX2                !
 ! D39   D(3,8,9,24)             1.3176         estimate D2E/DX2                !
 ! D40   D(7,8,9,10)             0.8914         estimate D2E/DX2                !
 ! D41   D(7,8,9,24)          -178.764          estimate D2E/DX2                !
 ! D42   D(8,9,10,11)           -0.2681         estimate D2E/DX2                !
 ! D43   D(8,9,10,25)          179.8981         estimate D2E/DX2                !
 ! D44   D(24,9,10,11)         179.392          estimate D2E/DX2                !
 ! D45   D(24,9,10,25)          -0.4417         estimate D2E/DX2                !
 ! D46   D(9,10,11,12)          -0.3637         estimate D2E/DX2                !
 ! D47   D(9,10,11,18)         179.8193         estimate D2E/DX2                !
 ! D48   D(25,10,11,12)        179.4671         estimate D2E/DX2                !
 ! D49   D(25,10,11,18)         -0.35           estimate D2E/DX2                !
 ! D50   D(10,11,12,7)           0.3561         estimate D2E/DX2                !
 ! D51   D(10,11,12,13)       -179.5879         estimate D2E/DX2                !
 ! D52   D(18,11,12,7)        -179.8235         estimate D2E/DX2                !
 ! D53   D(18,11,12,13)          0.2325         estimate D2E/DX2                !
 ! D54   D(10,11,18,17)        179.7596         estimate D2E/DX2                !
 ! D55   D(10,11,18,30)         -0.1977         estimate D2E/DX2                !
 ! D56   D(12,11,18,17)         -0.0571         estimate D2E/DX2                !
 ! D57   D(12,11,18,30)        179.9856         estimate D2E/DX2                !
 ! D58   D(7,12,13,14)          -0.2582         estimate D2E/DX2                !
 ! D59   D(7,12,13,16)         179.8119         estimate D2E/DX2                !
 ! D60   D(11,12,13,14)        179.6857         estimate D2E/DX2                !
 ! D61   D(11,12,13,16)         -0.2441         estimate D2E/DX2                !
 ! D62   D(12,13,14,15)         -0.0038         estimate D2E/DX2                !
 ! D63   D(12,13,14,26)       -179.8491         estimate D2E/DX2                !
 ! D64   D(16,13,14,15)        179.9248         estimate D2E/DX2                !
 ! D65   D(16,13,14,26)          0.0794         estimate D2E/DX2                !
 ! D66   D(12,13,16,17)          0.0808         estimate D2E/DX2                !
 ! D67   D(12,13,16,28)       -179.9715         estimate D2E/DX2                !
 ! D68   D(14,13,16,17)       -179.8476         estimate D2E/DX2                !
 ! D69   D(14,13,16,28)          0.1001         estimate D2E/DX2                !
 ! D70   D(13,14,15,6)           0.1818         estimate D2E/DX2                !
 ! D71   D(13,14,15,27)       -179.7842         estimate D2E/DX2                !
 ! D72   D(26,14,15,6)        -179.9705         estimate D2E/DX2                !
 ! D73   D(26,14,15,27)          0.0635         estimate D2E/DX2                !
 ! D74   D(13,16,17,18)          0.0953         estimate D2E/DX2                !
 ! D75   D(13,16,17,29)        179.9826         estimate D2E/DX2                !
 ! D76   D(28,16,17,18)       -179.8532         estimate D2E/DX2                !
 ! D77   D(28,16,17,29)          0.0341         estimate D2E/DX2                !
 ! D78   D(16,17,18,11)         -0.1073         estimate D2E/DX2                !
 ! D79   D(16,17,18,30)        179.8507         estimate D2E/DX2                !
 ! D80   D(29,17,18,11)       -179.9947         estimate D2E/DX2                !
 ! D81   D(29,17,18,30)         -0.0367         estimate D2E/DX2                !
 --------------------------------------------------------------------------------
 Trust Radius=3.00D-01 FncErr=1.00D-07 GrdErr=1.00D-06
 Number of steps in this run= 179 maximum allowed number of steps= 180.
 GradGradGradGradGradGradGradGradGradGradGradGradGradGradGradGradGradGrad

 Leave Link  103 at Thu Sep 30 19:38:45 2021, MaxMem= 1342177280 cpu:       0.0
 (Enter /sw/target/amd/app/gaussian/Gaussian09RevA.02_gcc-4.9.2/g09/l202.exe)
                          Input orientation:                          
 ---------------------------------------------------------------------
 Center     Atomic      Atomic             Coordinates (Angstroms)
 Number     Number       Type             X           Y           Z
 ---------------------------------------------------------------------
      1          6           0        3.129588   -1.070421    0.173891
      2          8           0        2.551838    0.101424   -0.406014
      3          6           0        3.252088    1.221286   -0.031676
      4          6           0        2.822045    1.901248    1.106877
      5          6           0        3.495384    3.047813    1.522148
      6          6           0        4.595604    3.530505    0.798459
      7          6           0        5.016093    2.851453   -0.372263
      8          6           0        4.334026    1.689673   -0.804662
      9          6           0        4.765595    1.053122   -1.983790
     10          6           0        5.854832    1.537158   -2.710897
     11          6           0        6.544932    2.677328   -2.285464
     12          6           0        6.123011    3.343305   -1.110988
     13          6           0        6.807536    4.502078   -0.675923
     14          6           0        6.376853    5.157252    0.484879
     15          6           0        5.284083    4.678570    1.211192
     16          6           0        7.902620    4.973858   -1.414849
     17          6           0        8.318010    4.313097   -2.570115
     18          6           0        7.643012    3.173088   -3.003185
     19          1           0        2.390840   -1.529890    0.837199
     20          1           0        4.049332   -0.883448    0.741922
     21          1           0        3.355543   -1.775133   -0.632208
     22          1           0        1.966003    1.537965    1.667912
     23          1           0        3.152345    3.564682    2.415649
     24          1           0        4.245541    0.169929   -2.348635
     25          1           0        6.155800    1.013753   -3.615547
     26          1           0        6.888425    6.051232    0.834517
     27          1           0        4.975164    5.214822    2.105982
     28          1           0        8.441251    5.863040   -1.095142
     29          1           0        9.167690    4.688107   -3.134642
     30          1           0        7.980740    2.673014   -3.908225
 ---------------------------------------------------------------------
                    Distance matrix (angstroms):
                    1          2          3          4          5
     1  C    0.000000
     2  O    1.429442   0.000000
     3  C    2.304167   1.372796   0.000000
     4  C    3.129834   2.366689   1.394126   0.000000
     5  C    4.348730   3.645449   2.410345   1.392999   0.000000
     6  C    4.869066   4.169692   2.797615   2.427985   1.402570
     7  C    4.386146   3.692743   2.425934   2.811511   2.437193
     8  C    3.166442   2.420258   1.409781   2.446392   2.821686
     9  C    3.441154   2.880248   2.475830   3.748190   4.228928
    10  C    4.748518   4.275931   3.748637   4.889351   5.076194
    11  C    5.635479   5.110031   4.247639   5.096093   4.892332
    12  C    5.485660   4.874429   3.729622   4.230228   3.731641
    13  C    6.730692   6.127770   4.880559   5.082010   4.232819
    14  C    7.030316   6.402017   5.052011   4.860566   3.718672
    15  C    6.226454   5.570528   4.198397   3.712955   2.440391
    16  C    7.863792   7.306794   6.133711   6.450758   5.635542
    17  C    7.964393   7.461251   6.454962   7.038673   6.450216
    18  C    6.962196   6.488488   5.649745   6.461572   6.139801
    19  H    1.094001   2.057348   3.010924   3.468627   4.758628
    20  H    1.097063   2.128431   2.379907   3.064956   4.046038
    21  H    1.094291   2.053916   3.057756   4.101806   5.284091
    22  H    3.223307   2.589985   2.154739   1.086068   2.154041
    23  H    5.148804   4.507388   3.389817   2.142195   1.087738
    24  H    3.024393   2.578197   2.731410   4.118783   4.881385
    25  H    5.278407   4.911414   4.617223   5.848321   6.132791
    26  H    8.079803   7.466266   6.107505   5.816528   4.583241
    27  H    6.829598   6.191080   4.846329   4.076017   2.688223
    28  H    8.825933   8.267787   7.043029   7.219430   6.263970
    29  H    8.975840   8.500151   7.526061   8.125532   7.520061
    30  H    7.362789   6.953527   6.284529   7.235953   7.053216
                    6          7          8          9         10
     6  C    0.000000
     7  C    1.417220   0.000000
     8  C    2.455011   1.414891   0.000000
     9  C    3.729240   2.427707   1.407761   0.000000
    10  C    4.227844   2.810705   2.443326   1.396214   0.000000
    11  C    3.746781   2.455200   2.838370   2.427981   1.399006
    12  C    2.452346   1.418767   2.455362   2.801660   2.427714
    13  C    2.830265   2.454799   3.747592   4.216080   3.720149
    14  C    2.432588   2.811240   4.226129   5.053154   4.857012
    15  C    1.400859   2.432593   3.728241   4.860105   5.057371
    16  C    4.233008   3.731438   4.888053   5.053394   4.205244
    17  C    5.080949   4.227246   5.086384   4.857043   3.713879
    18  C    4.885380   3.731743   4.240686   3.716578   2.441165
    19  H    5.519971   5.248897   4.103324   4.502154   5.830524
    20  H    4.447986   4.015659   3.015613   3.419480   4.587061
    21  H    5.633325   4.922428   3.604449   3.437157   4.640977
    22  H    3.411886   3.897514   3.426977   4.626848   5.856361
    23  H    2.167827   3.428515   3.909276   5.316539   6.139688
    24  H    4.617382   3.419118   2.168249   1.087933   2.142514
    25  H    5.315232   3.898072   3.417134   2.144027   1.087624
    26  H    3.407697   3.898786   5.313668   6.118037   5.832250
    27  H    2.165782   3.424747   4.616231   5.838657   6.123835
    28  H    4.880107   4.617783   5.862651   6.118452   5.292777
    29  H    6.141115   5.314112   6.146846   5.823746   4.591630
    30  H    5.860658   4.617792   4.888516   4.082237   2.691329
                   11         12         13         14         15
    11  C    0.000000
    12  C    1.414545   0.000000
    13  C    2.447303   1.414429   0.000000
    14  C    3.721972   2.429327   1.400786   0.000000
    15  C    4.221530   2.807001   2.431720   1.396715   0.000000
    16  C    2.806303   2.432703   1.402782   2.443474   3.720218
    17  C    2.429109   2.808482   2.430064   3.716675   4.861745
    18  C    1.402384   2.433062   2.807202   4.207928   5.058854
    19  H    6.686418   6.439920   7.627672   7.792965   6.859716
    20  H    5.298322   5.059531   6.214648   6.478694   5.716718
    21  H    5.721003   5.838366   7.163905   7.644224   6.983386
    22  H    6.155804   5.316226   6.141659   5.827041   4.591476
    23  H    5.864939   4.616388   4.878212   4.081863   2.689939
    24  H    3.402681   3.889342   5.303706   6.119206   5.837704
    25  H    2.165185   3.420629   4.608097   5.833605   6.122760
    26  H    4.608199   3.421070   2.165145   1.087729   2.144761
    27  H    5.309223   3.894743   3.406551   2.143833   1.087955
    28  H    3.893797   3.423968   2.167254   2.693760   4.085322
    29  H    3.412212   3.895348   3.413244   4.594540   5.828273
    30  H    2.166776   3.424177   3.894825   5.295588   6.123941
                   16         17         18         19         20
    16  C    0.000000
    17  C    1.394200   0.000000
    18  C    2.415156   1.393841   0.000000
    19  H    8.817606   8.993421   8.028192   0.000000
    20  H    7.335361   7.496351   6.587553   1.782572   0.000000
    21  H    8.175409   8.090000   6.963391   1.774811   1.778955
    22  H    7.520120   8.124668   7.531349   3.206604   3.325801
    23  H    6.262876   7.218176   7.048632   5.387585   4.836508
    24  H    6.109331   5.813768   4.581508   4.059413   3.271031
    25  H    4.855603   4.080901   2.692492   6.361760   5.198472
    26  H    2.692392   4.081219   4.856035   8.814857   7.493918
    27  H    4.585228   5.818386   6.114711   7.333464   6.317177
    28  H    1.087649   2.143142   3.393178   9.746632   8.257049
    29  H    2.154006   1.086867   2.153417  10.018218   8.501033
    30  H    3.393657   2.143399   1.087764   8.451653   7.051827
                   21         22         23         24         25
    21  H    0.000000
    22  H    4.265911   0.000000
    23  H    6.151777   2.464569   0.000000
    24  H    2.742532   4.816687   5.951289   0.000000
    25  H    4.951730   6.763441   7.204396   2.442579   0.000000
    26  H    8.711173   6.730110   4.758278   7.190760   6.761361
    27  H    7.679866   4.771398   2.478210   6.769558   7.195748
    28  H    9.188059   8.262541   6.751343   7.182392   5.923793
    29  H    9.045258   9.211526   8.261489   6.727502   4.775314
    30  H    7.204912   8.280019   8.006239   4.759146   2.483791
                   26         27         28         29         30
    26  H    0.000000
    27  H    2.444744   0.000000
    28  H    2.484002   4.762472   0.000000
    29  H    4.775707   6.731927   2.463279   0.000000
    30  H    5.924450   7.187835   4.278057   2.463306   0.000000
 Stoichiometry    C17H12O
 Framework group  C1[X(C17H12O)]
 Deg. of freedom    84
 Full point group                 C1      NOp   1
 Largest Abelian subgroup         C1      NOp   1
 Largest concise Abelian subgroup C1      NOp   1
                         Standard orientation:                         
 ---------------------------------------------------------------------
 Center     Atomic      Atomic             Coordinates (Angstroms)
 Number     Number       Type             X           Y           Z
 ---------------------------------------------------------------------
      1          6           0       -4.052153   -1.176742    0.903419
      2          8           0       -3.564884   -0.794656   -0.384946
      3          6           0       -2.474307    0.030304   -0.263899
      4          6           0       -2.703903    1.405217   -0.241821
      5          6           0       -1.628443    2.283300   -0.128667
      6          6           0       -0.315526    1.796554   -0.047861
      7          6           0       -0.082582    0.399400   -0.094860
      8          6           0       -1.168668   -0.499308   -0.215934
      9          6           0       -0.898719   -1.879395   -0.281348
     10          6           0        0.408134   -2.365724   -0.210399
     11          6           0        1.488655   -1.487108   -0.077265
     12          6           0        1.245403   -0.094707   -0.022635
     13          6           0        2.330588    0.803728    0.103055
     14          6           0        2.078394    2.180842    0.149513
     15          6           0        0.772565    2.670525    0.073133
     16          6           0        3.637585    0.299693    0.177258
     17          6           0        3.873589   -1.073452    0.126570
     18          6           0        2.806372   -1.960905   -0.000964
     19          1           0       -5.071416   -0.795645    1.016140
     20          1           0       -3.442473   -0.813190    1.739880
     21          1           0       -4.085390   -2.269691    0.946189
     22          1           0       -3.717172    1.789816   -0.311913
     23          1           0       -1.823064    3.353260   -0.106741
     24          1           0       -1.714609   -2.590064   -0.394798
     25          1           0        0.571658   -3.439687   -0.263212
     26          1           0        2.899456    2.888082    0.243441
     27          1           0        0.614269    3.746312    0.108775
     28          1           0        4.484203    0.975525    0.274564
     29          1           0        4.890620   -1.452332    0.184690
     30          1           0        3.011092   -3.028473   -0.041212
 ---------------------------------------------------------------------
 Rotational constants (GHZ):      0.8403136      0.3647227      0.2602433
 Leave Link  202 at Thu Sep 30 19:38:45 2021, MaxMem= 1342177280 cpu:       0.0
 (Enter /sw/target/amd/app/gaussian/Gaussian09RevA.02_gcc-4.9.2/g09/l301.exe)
 Standard basis: 6-31G(d) (6D, 7F)
 Ernie: Thresh=  0.10000D-02 Tol=  0.10000D-05 Strict=F.
 There are   294 symmetry adapted basis functions of A   symmetry.
 Integral buffers will be    131072 words long.
 Raffenetti 2 integral format.
 Two-electron integral symmetry is turned on.
   294 basis functions,   552 primitive gaussians,   294 cartesian basis functions
    61 alpha electrons       61 beta electrons
       nuclear repulsion energy      1207.9339950538 Hartrees.
 IExCor=  402 DFT=T Ex+Corr=B3LYP ExCW=0 ScaHFX=  0.200000
 ScaDFX=  0.800000  0.720000  1.000000  0.810000 ScalE2=  1.000000  1.000000
 IRadAn=      0 IRanWt=     -1 IRanGd=            0 ICorTp=0
 NAtoms=   30 NActive=   30 NUniq=   30 SFac= 7.50D-01 NAtFMM=   80 NAOKFM=F Big=F
 Leave Link  301 at Thu Sep 30 19:38:46 2021, MaxMem= 1342177280 cpu:       0.1
 (Enter /sw/target/amd/app/gaussian/Gaussian09RevA.02_gcc-4.9.2/g09/l302.exe)
 NPDir=0 NMtPBC=     1 NCelOv=     1 NCel=       1 NClECP=     1 NCelD=      1
         NCelK=      1 NCelE2=     1 NClLst=     1 CellRange=     0.0.
 One-electron integrals computed using PRISM.
 NBasis=   294 RedAO= T  NBF=   294
 NBsUse=   294 1.00D-06 NBFU=   294
 Precomputing XC quadrature grid using
 IXCGrd= 2 IRadAn=           0 IRanWt=          -1 IRanGd=           0 AccXCQ= 1.00D-10.
 NRdTot=    1895 NPtTot=      240946 NUsed=      254614 NTot=      254646
 NSgBfM=   293   293   293   293   293 NAtAll=    30    30.
 Leave Link  302 at Thu Sep 30 19:38:50 2021, MaxMem= 1342177280 cpu:       2.8
 (Enter /sw/target/amd/app/gaussian/Gaussian09RevA.02_gcc-4.9.2/g09/l303.exe)
 DipDrv:  MaxL=1.
 Leave Link  303 at Thu Sep 30 19:38:51 2021, MaxMem= 1342177280 cpu:       0.2
 (Enter /sw/target/amd/app/gaussian/Gaussian09RevA.02_gcc-4.9.2/g09/l401.exe)
 Harris functional with IExCor=  402 diagonalized for initial guess.
 ExpMin= 1.61D-01 ExpMax= 5.48D+03 ExpMxC= 8.25D+02 IAcc=1 IRadAn=         1 AccDes= 0.00D+00
 HarFok:  IExCor=  402 AccDes= 0.00D+00 IRadAn=         1 IDoV= 1
 ScaDFX=  1.000000  1.000000  1.000000  1.000000
 FoFCou: FMM=F IPFlag=           0 FMFlag=      100000 FMFlg1=           0
         NFxFlg=           0 DoJE=T BraDBF=F KetDBF=T FulRan=T
         Omega=  0.000000  0.000000  1.000000  0.000000  0.000000 ICntrl=     500 IOpCl=  0
         NMat0=    1 NMatS0=    1 NMatT0=    0 NMatD0=    1 NMtDS0=    0 NMtDT0=    0
         I1Cent=           4 NGrid=           0.
 Petite list used in FoFCou.
 Harris En= -730.343338233725    
 Initial guess orbital symmetries:
       Occupied  (A) (A) (A) (A) (A) (A) (A) (A) (A) (A) (A) (A)
                 (A) (A) (A) (A) (A) (A) (A) (A) (A) (A) (A) (A)
                 (A) (A) (A) (A) (A) (A) (A) (A) (A) (A) (A) (A)
                 (A) (A) (A) (A) (A) (A) (A) (A) (A) (A) (A) (A)
                 (A) (A) (A) (A) (A) (A) (A) (A) (A) (A) (A) (A)
                 (A)
       Virtual   (A) (A) (A) (A) (A) (A) (A) (A) (A) (A) (A) (A)
                 (A) (A) (A) (A) (A) (A) (A) (A) (A) (A) (A) (A)
                 (A) (A) (A) (A) (A) (A) (A) (A) (A) (A) (A) (A)
                 (A) (A) (A) (A) (A) (A) (A) (A) (A) (A) (A) (A)
                 (A) (A) (A) (A) (A) (A) (A) (A) (A) (A) (A) (A)
                 (A) (A) (A) (A) (A) (A) (A) (A) (A) (A) (A) (A)
                 (A) (A) (A) (A) (A) (A) (A) (A) (A) (A) (A) (A)
                 (A) (A) (A) (A) (A) (A) (A) (A) (A) (A) (A) (A)
                 (A) (A) (A) (A) (A) (A) (A) (A) (A) (A) (A) (A)
                 (A) (A) (A) (A) (A) (A) (A) (A) (A) (A) (A) (A)
                 (A) (A) (A) (A) (A) (A) (A) (A) (A) (A) (A) (A)
                 (A) (A) (A) (A) (A) (A) (A) (A) (A) (A) (A) (A)
                 (A) (A) (A) (A) (A) (A) (A) (A) (A) (A) (A) (A)
                 (A) (A) (A) (A) (A) (A) (A) (A) (A) (A) (A) (A)
                 (A) (A) (A) (A) (A) (A) (A) (A) (A) (A) (A) (A)
                 (A) (A) (A) (A) (A) (A) (A) (A) (A) (A) (A) (A)
                 (A) (A) (A) (A) (A) (A) (A) (A) (A) (A) (A) (A)
                 (A) (A) (A) (A) (A) (A) (A) (A) (A) (A) (A) (A)
                 (A) (A) (A) (A) (A) (A) (A) (A) (A) (A) (A) (A)
                 (A) (A) (A) (A) (A)
 The electronic state of the initial guess is 1-A.
 Leave Link  401 at Thu Sep 30 19:39:04 2021, MaxMem= 1342177280 cpu:      12.5
 (Enter /sw/target/amd/app/gaussian/Gaussian09RevA.02_gcc-4.9.2/g09/l502.exe)
 Closed shell SCF:
 Requested convergence on RMS density matrix=1.00D-08 within  64 cycles.
 Requested convergence on MAX density matrix=1.00D-06.
 Requested convergence on             energy=1.00D-06.
 No special actions if energy rises.
 Using DIIS extrapolation, IDIIS=  1040.
 Integral symmetry usage will be decided dynamically.
       254331 words used for storage of precomputed grid.
 Keep R1 ints in memory in canonical form, NReq=953642504.
 IEnd=      523155 IEndB=      523155 NGot=  1342177280 MDV=   401461757
 LenX=   401461757 LenY=   401374880
 Symmetry not used in FoFDir.
 MinBra= 0 MaxBra= 2 Meth= 1.
 IRaf=       0 NMat=   1 IRICut=       1 DoRegI=T DoRafI=F ISym2E= 0 JSym2E=0.
 Integral accuracy reduced to 1.0D-05 until final iterations.

 Cycle   1  Pass 0  IDiag  1:
 E= -729.927808954715    
 DIIS: error= 3.51D-02 at cycle   1 NSaved=   1.
 NSaved= 1 IEnMin= 1 EnMin= -729.927808954715     IErMin= 1 ErrMin= 3.51D-02
 ErrMax= 3.51D-02 EMaxC= 1.00D-01 BMatC= 3.17D-01 BMatP= 3.17D-01
 IDIUse=3 WtCom= 6.49D-01 WtEn= 3.51D-01
 Coeff-Com:  0.100D+01
 Coeff-En:   0.100D+01
 Coeff:      0.100D+01
 Gap=     0.132 Goal=   None    Shift=    0.000
 GapD=    0.132 DampG=1.000 DampE=0.500 DampFc=0.5000 IDamp=-1.
 Damping current iteration by 5.00D-01
 RMSDP=6.28D-03 MaxDP=1.17D-01              OVMax= 2.12D-01

 Cycle   2  Pass 0  IDiag  1:
 E= -730.098216671613     Delta-E=       -0.170407716899 Rises=F Damp=T
 DIIS: error= 5.80D-03 at cycle   2 NSaved=   2.
 NSaved= 2 IEnMin= 2 EnMin= -730.098216671613     IErMin= 2 ErrMin= 5.80D-03
 ErrMax= 5.80D-03 EMaxC= 1.00D-01 BMatC= 2.06D-02 BMatP= 3.17D-01
 IDIUse=3 WtCom= 9.42D-01 WtEn= 5.80D-02
 Coeff-Com: -0.309D-01 0.103D+01
 Coeff-En:   0.000D+00 0.100D+01
 Coeff:     -0.291D-01 0.103D+01
 Gap=     0.135 Goal=   None    Shift=    0.000
 RMSDP=2.30D-03 MaxDP=6.33D-02 DE=-1.70D-01 OVMax= 2.58D-01

 Cycle   3  Pass 0  IDiag  1:
 E= -730.247051689108     Delta-E=       -0.148835017495 Rises=F Damp=F
 DIIS: error= 9.15D-03 at cycle   3 NSaved=   3.
 NSaved= 3 IEnMin= 3 EnMin= -730.247051689108     IErMin= 2 ErrMin= 5.80D-03
 ErrMax= 9.15D-03 EMaxC= 1.00D-01 BMatC= 2.63D-02 BMatP= 2.06D-02
 IDIUse=3 WtCom= 9.47D-02 WtEn= 9.05D-01
 Coeff-Com: -0.662D-01 0.587D+00 0.479D+00
 Coeff-En:   0.000D+00 0.000D+00 0.100D+01
 Coeff:     -0.627D-02 0.556D-01 0.951D+00
 Gap=     0.138 Goal=   None    Shift=    0.000
 RMSDP=2.22D-03 MaxDP=1.26D-01 DE=-1.49D-01 OVMax= 2.99D-01

 Cycle   4  Pass 0  IDiag  1:
 E= -730.123626443944     Delta-E=        0.123425245164 Rises=F Damp=F
 DIIS: error= 2.02D-02 at cycle   4 NSaved=   4.
 NSaved= 4 IEnMin= 3 EnMin= -730.247051689108     IErMin= 2 ErrMin= 5.80D-03
 ErrMax= 2.02D-02 EMaxC= 1.00D-01 BMatC= 1.26D-01 BMatP= 2.06D-02
 IDIUse=2 WtCom= 0.00D+00 WtEn= 1.00D+00
 Coeff-En:   0.000D+00 0.000D+00 0.768D+00 0.232D+00
 Coeff:      0.000D+00 0.000D+00 0.768D+00 0.232D+00
 Gap=     0.132 Goal=   None    Shift=    0.000
 RMSDP=1.15D-03 MaxDP=6.30D-02 DE= 1.23D-01 OVMax= 1.85D-01

 Cycle   5  Pass 0  IDiag  1:
 E= -730.268362509296     Delta-E=       -0.144736065352 Rises=F Damp=F
 DIIS: error= 5.26D-03 at cycle   5 NSaved=   5.
 NSaved= 5 IEnMin= 5 EnMin= -730.268362509296     IErMin= 5 ErrMin= 5.26D-03
 ErrMax= 5.26D-03 EMaxC= 1.00D-01 BMatC= 9.14D-03 BMatP= 2.06D-02
 IDIUse=3 WtCom= 9.47D-01 WtEn= 5.26D-02
 Coeff-Com:  0.569D-02 0.147D-02 0.326D+00-0.413D-01 0.709D+00
 Coeff-En:   0.000D+00 0.000D+00 0.307D+00 0.000D+00 0.693D+00
 Coeff:      0.539D-02 0.139D-02 0.325D+00-0.391D-01 0.708D+00
 Gap=     0.129 Goal=   None    Shift=    0.000
 RMSDP=4.10D-04 MaxDP=2.60D-02 DE=-1.45D-01 OVMax= 5.75D-02

 Cycle   6  Pass 0  IDiag  1:
 E= -730.278956282003     Delta-E=       -0.010593772706 Rises=F Damp=F
 DIIS: error= 7.64D-04 at cycle   6 NSaved=   6.
 NSaved= 6 IEnMin= 6 EnMin= -730.278956282003     IErMin= 6 ErrMin= 7.64D-04
 ErrMax= 7.64D-04 EMaxC= 1.00D-01 BMatC= 1.83D-04 BMatP= 9.14D-03
 IDIUse=3 WtCom= 9.92D-01 WtEn= 7.64D-03
 Coeff-Com:  0.458D-02-0.909D-02 0.141D+00-0.635D-01 0.480D+00 0.448D+00
 Coeff-En:   0.000D+00 0.000D+00 0.000D+00 0.000D+00 0.000D+00 0.100D+01
 Coeff:      0.454D-02-0.902D-02 0.140D+00-0.630D-01 0.476D+00 0.452D+00
 Gap=     0.129 Goal=   None    Shift=    0.000
 RMSDP=6.08D-05 MaxDP=1.85D-03 DE=-1.06D-02 OVMax= 6.69D-03

 Cycle   7  Pass 0  IDiag  1:
 E= -730.279161435254     Delta-E=       -0.000205153251 Rises=F Damp=F
 DIIS: error= 1.33D-04 at cycle   7 NSaved=   7.
 NSaved= 7 IEnMin= 7 EnMin= -730.279161435254     IErMin= 7 ErrMin= 1.33D-04
 ErrMax= 1.33D-04 EMaxC= 1.00D-01 BMatC= 9.18D-06 BMatP= 1.83D-04
 IDIUse=3 WtCom= 9.99D-01 WtEn= 1.33D-03
 Coeff-Com:  0.229D-02-0.454D-02 0.656D-01-0.350D-01 0.238D+00 0.265D+00
 Coeff-Com:  0.469D+00
 Coeff-En:   0.000D+00 0.000D+00 0.000D+00 0.000D+00 0.000D+00 0.000D+00
 Coeff-En:   0.100D+01
 Coeff:      0.229D-02-0.453D-02 0.655D-01-0.350D-01 0.237D+00 0.264D+00
 Coeff:      0.470D+00
 Gap=     0.129 Goal=   None    Shift=    0.000
 RMSDP=1.44D-05 MaxDP=5.35D-04 DE=-2.05D-04 OVMax= 1.25D-03

 Cycle   8  Pass 0  IDiag  1:
 E= -730.279171265111     Delta-E=       -0.000009829856 Rises=F Damp=F
 DIIS: error= 4.10D-05 at cycle   8 NSaved=   8.
 NSaved= 8 IEnMin= 8 EnMin= -730.279171265111     IErMin= 8 ErrMin= 4.10D-05
 ErrMax= 4.10D-05 EMaxC= 1.00D-01 BMatC= 6.57D-07 BMatP= 9.18D-06
 IDIUse=1 WtCom= 1.00D+00 WtEn= 0.00D+00
 Coeff-Com:  0.385D-03-0.811D-03 0.786D-02-0.506D-02 0.268D-01 0.443D-01
 Coeff-Com:  0.219D+00 0.707D+00
 Coeff:      0.385D-03-0.811D-03 0.786D-02-0.506D-02 0.268D-01 0.443D-01
 Coeff:      0.219D+00 0.707D+00
 Gap=     0.129 Goal=   None    Shift=    0.000
 RMSDP=4.06D-06 MaxDP=1.65D-04 DE=-9.83D-06 OVMax= 5.74D-04

 Initial convergence to 1.0D-05 achieved.  Increase integral accuracy.
 Cycle   9  Pass 1  IDiag  1:
 E= -730.279228839909     Delta-E=       -0.000057574799 Rises=F Damp=F
 DIIS: error= 1.36D-05 at cycle   1 NSaved=   1.
 NSaved= 1 IEnMin= 1 EnMin= -730.279228839909     IErMin= 1 ErrMin= 1.36D-05
 ErrMax= 1.36D-05 EMaxC= 1.00D-01 BMatC= 1.50D-07 BMatP= 1.50D-07
 IDIUse=1 WtCom= 1.00D+00 WtEn= 0.00D+00
 Coeff-Com:  0.100D+01
 Coeff:      0.100D+01
 Gap=     0.129 Goal=   None    Shift=    0.000
 RMSDP=4.06D-06 MaxDP=1.65D-04 DE=-5.76D-05 OVMax= 3.96D-04

 Cycle  10  Pass 1  IDiag  1:
 E= -730.279228691959     Delta-E=        0.000000147950 Rises=F Damp=F
 DIIS: error= 3.07D-05 at cycle   2 NSaved=   2.
 NSaved= 2 IEnMin= 1 EnMin= -730.279228839909     IErMin= 1 ErrMin= 1.36D-05
 ErrMax= 3.07D-05 EMaxC= 1.00D-01 BMatC= 2.80D-07 BMatP= 1.50D-07
 IDIUse=1 WtCom= 1.00D+00 WtEn= 0.00D+00
 Coeff-Com:  0.591D+00 0.409D+00
 Coeff:      0.591D+00 0.409D+00
 Gap=     0.129 Goal=   None    Shift=    0.000
 RMSDP=2.85D-06 MaxDP=7.49D-05 DE= 1.48D-07 OVMax= 3.35D-04

 Cycle  11  Pass 1  IDiag  1:
 E= -730.279229002795     Delta-E=       -0.000000310836 Rises=F Damp=F
 DIIS: error= 9.17D-06 at cycle   3 NSaved=   3.
 NSaved= 3 IEnMin= 3 EnMin= -730.279229002795     IErMin= 3 ErrMin= 9.17D-06
 ErrMax= 9.17D-06 EMaxC= 1.00D-01 BMatC= 1.96D-08 BMatP= 1.50D-07
 IDIUse=1 WtCom= 1.00D+00 WtEn= 0.00D+00
 Coeff-Com:  0.886D-01 0.210D+00 0.701D+00
 Coeff:      0.886D-01 0.210D+00 0.701D+00
 Gap=     0.129 Goal=   None    Shift=    0.000
 RMSDP=8.80D-07 MaxDP=3.69D-05 DE=-3.11D-07 OVMax= 1.10D-04

 Cycle  12  Pass 1  IDiag  1:
 E= -730.279229020404     Delta-E=       -0.000000017609 Rises=F Damp=F
 DIIS: error= 4.46D-06 at cycle   4 NSaved=   4.
 NSaved= 4 IEnMin= 4 EnMin= -730.279229020404     IErMin= 4 ErrMin= 4.46D-06
 ErrMax= 4.46D-06 EMaxC= 1.00D-01 BMatC= 6.53D-09 BMatP= 1.96D-08
 IDIUse=1 WtCom= 1.00D+00 WtEn= 0.00D+00
 Coeff-Com: -0.140D-01 0.896D-01 0.464D+00 0.461D+00
 Coeff:     -0.140D-01 0.896D-01 0.464D+00 0.461D+00
 Gap=     0.129 Goal=   None    Shift=    0.000
 RMSDP=3.59D-07 MaxDP=1.37D-05 DE=-1.76D-08 OVMax= 3.94D-05

 Cycle  13  Pass 1  IDiag  1:
 E= -730.279229027156     Delta-E=       -0.000000006752 Rises=F Damp=F
 DIIS: error= 1.57D-06 at cycle   5 NSaved=   5.
 NSaved= 5 IEnMin= 5 EnMin= -730.279229027156     IErMin= 5 ErrMin= 1.57D-06
 ErrMax= 1.57D-06 EMaxC= 1.00D-01 BMatC= 3.46D-10 BMatP= 6.53D-09
 IDIUse=1 WtCom= 1.00D+00 WtEn= 0.00D+00
 Coeff-Com: -0.128D-01 0.488D-01 0.269D+00 0.297D+00 0.397D+00
 Coeff:     -0.128D-01 0.488D-01 0.269D+00 0.297D+00 0.397D+00
 Gap=     0.129 Goal=   None    Shift=    0.000
 RMSDP=9.02D-08 MaxDP=2.95D-06 DE=-6.75D-09 OVMax= 1.22D-05

 Cycle  14  Pass 1  IDiag  1:
 E= -730.279229027565     Delta-E=       -0.000000000409 Rises=F Damp=F
 DIIS: error= 2.34D-07 at cycle   6 NSaved=   6.
 NSaved= 6 IEnMin= 6 EnMin= -730.279229027565     IErMin= 6 ErrMin= 2.34D-07
 ErrMax= 2.34D-07 EMaxC= 1.00D-01 BMatC= 1.99D-11 BMatP= 3.46D-10
 IDIUse=1 WtCom= 1.00D+00 WtEn= 0.00D+00
 Coeff-Com: -0.606D-02 0.185D-01 0.106D+00 0.123D+00 0.226D+00 0.533D+00
 Coeff:     -0.606D-02 0.185D-01 0.106D+00 0.123D+00 0.226D+00 0.533D+00
 Gap=     0.129 Goal=   None    Shift=    0.000
 RMSDP=2.48D-08 MaxDP=1.01D-06 DE=-4.09D-10 OVMax= 3.65D-06

 Cycle  15  Pass 1  IDiag  1:
 E= -730.279229027592     Delta-E=       -0.000000000028 Rises=F Damp=F
 DIIS: error= 1.19D-07 at cycle   7 NSaved=   7.
 NSaved= 7 IEnMin= 7 EnMin= -730.279229027592     IErMin= 7 ErrMin= 1.19D-07
 ErrMax= 1.19D-07 EMaxC= 1.00D-01 BMatC= 3.65D-12 BMatP= 1.99D-11
 IDIUse=1 WtCom= 1.00D+00 WtEn= 0.00D+00
 Coeff-Com: -0.181D-02 0.441D-02 0.269D-01 0.334D-01 0.828D-01 0.332D+00
 Coeff-Com:  0.522D+00
 Coeff:     -0.181D-02 0.441D-02 0.269D-01 0.334D-01 0.828D-01 0.332D+00
 Coeff:      0.522D+00
 Gap=     0.129 Goal=   None    Shift=    0.000
 RMSDP=1.04D-08 MaxDP=5.40D-07 DE=-2.75D-11 OVMax= 1.54D-06

 Cycle  16  Pass 1  IDiag  1:
 E= -730.279229027573     Delta-E=        0.000000000020 Rises=F Damp=F
 DIIS: error= 3.60D-08 at cycle   8 NSaved=   8.
 NSaved= 8 IEnMin= 7 EnMin= -730.279229027592     IErMin= 8 ErrMin= 3.60D-08
 ErrMax= 3.60D-08 EMaxC= 1.00D-01 BMatC= 3.09D-13 BMatP= 3.65D-12
 IDIUse=1 WtCom= 1.00D+00 WtEn= 0.00D+00
 Coeff-Com:  0.818D-04-0.903D-03-0.384D-02-0.399D-02 0.179D-02 0.570D-01
 Coeff-Com:  0.263D+00 0.687D+00
 Coeff:      0.818D-04-0.903D-03-0.384D-02-0.399D-02 0.179D-02 0.570D-01
 Coeff:      0.263D+00 0.687D+00
 Gap=     0.129 Goal=   None    Shift=    0.000
 RMSDP=3.49D-09 MaxDP=1.21D-07 DE= 1.96D-11 OVMax= 4.97D-07

 SCF Done:  E(RB3LYP) =  -730.279229028     A.U. after   16 cycles
             Convg  =    0.3493D-08             -V/T =  2.0091
 KE= 7.237153027047D+02 PE=-4.110237278466D+03 EE= 1.448308751680D+03
 Leave Link  502 at Thu Sep 30 19:51:30 2021, MaxMem= 1342177280 cpu:     467.2
 (Enter /sw/target/amd/app/gaussian/Gaussian09RevA.02_gcc-4.9.2/g09/l508.exe)
 QCSCF skips out because SCF is already converged.
 Leave Link  508 at Thu Sep 30 19:51:32 2021, MaxMem= 1342177280 cpu:       0.0
 (Enter /sw/target/amd/app/gaussian/Gaussian09RevA.02_gcc-4.9.2/g09/l601.exe)
 Copying SCF densities to generalized density rwf, IOpCl= 0 IROHF=0.

 **********************************************************************

            Population analysis using the SCF density.

 **********************************************************************

 Orbital symmetries:
       Occupied  (A) (A) (A) (A) (A) (A) (A) (A) (A) (A) (A) (A)
                 (A) (A) (A) (A) (A) (A) (A) (A) (A) (A) (A) (A)
                 (A) (A) (A) (A) (A) (A) (A) (A) (A) (A) (A) (A)
                 (A) (A) (A) (A) (A) (A) (A) (A) (A) (A) (A) (A)
                 (A) (A) (A) (A) (A) (A) (A) (A) (A) (A) (A) (A)
                 (A)
       Virtual   (A) (A) (A) (A) (A) (A) (A) (A) (A) (A) (A) (A)
                 (A) (A) (A) (A) (A) (A) (A) (A) (A) (A) (A) (A)
                 (A) (A) (A) (A) (A) (A) (A) (A) (A) (A) (A) (A)
                 (A) (A) (A) (A) (A) (A) (A) (A) (A) (A) (A) (A)
                 (A) (A) (A) (A) (A) (A) (A) (A) (A) (A) (A) (A)
                 (A) (A) (A) (A) (A) (A) (A) (A) (A) (A) (A) (A)
                 (A) (A) (A) (A) (A) (A) (A) (A) (A) (A) (A) (A)
                 (A) (A) (A) (A) (A) (A) (A) (A) (A) (A) (A) (A)
                 (A) (A) (A) (A) (A) (A) (A) (A) (A) (A) (A) (A)
                 (A) (A) (A) (A) (A) (A) (A) (A) (A) (A) (A) (A)
                 (A) (A) (A) (A) (A) (A) (A) (A) (A) (A) (A) (A)
                 (A) (A) (A) (A) (A) (A) (A) (A) (A) (A) (A) (A)
                 (A) (A) (A) (A) (A) (A) (A) (A) (A) (A) (A) (A)
                 (A) (A) (A) (A) (A) (A) (A) (A) (A) (A) (A) (A)
                 (A) (A) (A) (A) (A) (A) (A) (A) (A) (A) (A) (A)
                 (A) (A) (A) (A) (A) (A) (A) (A) (A) (A) (A) (A)
                 (A) (A) (A) (A) (A) (A) (A) (A) (A) (A) (A) (A)
                 (A) (A) (A) (A) (A) (A) (A) (A) (A) (A) (A) (A)
                 (A) (A) (A) (A) (A) (A) (A) (A) (A) (A) (A) (A)
                 (A) (A) (A) (A) (A)
 The electronic state is 1-A.
 Alpha  occ. eigenvalues --  -19.16219 -10.24027 -10.23412 -10.19573 -10.19372
 Alpha  occ. eigenvalues --  -10.19352 -10.19280 -10.19264 -10.19241 -10.19128
 Alpha  occ. eigenvalues --  -10.19030 -10.18986 -10.18966 -10.18925 -10.18830
 Alpha  occ. eigenvalues --  -10.18781 -10.18759 -10.18738  -1.05289  -0.89393
 Alpha  occ. eigenvalues --   -0.84889  -0.82964  -0.79348  -0.76722  -0.74210
 Alpha  occ. eigenvalues --   -0.73367  -0.71327  -0.68121  -0.62999  -0.62685
 Alpha  occ. eigenvalues --   -0.61904  -0.60162  -0.54626  -0.52583  -0.51675
 Alpha  occ. eigenvalues --   -0.50945  -0.49633  -0.47991  -0.46081  -0.45392
 Alpha  occ. eigenvalues --   -0.44366  -0.43548  -0.42660  -0.42138  -0.40935
 Alpha  occ. eigenvalues --   -0.40547  -0.39955  -0.38744  -0.37234  -0.36969
 Alpha  occ. eigenvalues --   -0.36094  -0.34982  -0.33763  -0.32735  -0.32386
 Alpha  occ. eigenvalues --   -0.29164  -0.27106  -0.26813  -0.24835  -0.23158
 Alpha  occ. eigenvalues --   -0.18658
 Alpha virt. eigenvalues --   -0.05744  -0.02003  -0.00524   0.02717   0.05879
 Alpha virt. eigenvalues --    0.09503   0.10340   0.10806   0.11825   0.12458
 Alpha virt. eigenvalues --    0.13207   0.14011   0.15087   0.15681   0.16022
 Alpha virt. eigenvalues --    0.16188   0.17550   0.18617   0.19703   0.21012
 Alpha virt. eigenvalues --    0.24395   0.25331   0.25455   0.26505   0.27459
 Alpha virt. eigenvalues --    0.28132   0.30983   0.31523   0.32523   0.34526
 Alpha virt. eigenvalues --    0.35251   0.35990   0.38731   0.45225   0.47556
 Alpha virt. eigenvalues --    0.48611   0.49418   0.50140   0.50537   0.50955
 Alpha virt. eigenvalues --    0.52184   0.52598   0.52762   0.53432   0.54251
 Alpha virt. eigenvalues --    0.55310   0.55752   0.56285   0.57026   0.57526
 Alpha virt. eigenvalues --    0.57923   0.58993   0.59748   0.59903   0.60798
 Alpha virt. eigenvalues --    0.60938   0.61290   0.61802   0.62080   0.62507
 Alpha virt. eigenvalues --    0.62846   0.63117   0.66017   0.66689   0.67811
 Alpha virt. eigenvalues --    0.68923   0.70479   0.71345   0.73075   0.76931
 Alpha virt. eigenvalues --    0.77079   0.80500   0.80987   0.81763   0.82507
 Alpha virt. eigenvalues --    0.83336   0.83910   0.84128   0.84994   0.85250
 Alpha virt. eigenvalues --    0.86115   0.87403   0.87785   0.88351   0.90332
 Alpha virt. eigenvalues --    0.91881   0.93805   0.94145   0.94730   0.95897
 Alpha virt. eigenvalues --    0.96703   0.97151   0.98255   0.99440   1.01520
 Alpha virt. eigenvalues --    1.03011   1.04247   1.06457   1.07950   1.09334
 Alpha virt. eigenvalues --    1.10696   1.12591   1.13782   1.17521   1.20897
 Alpha virt. eigenvalues --    1.21166   1.21669   1.22638   1.23025   1.25852
 Alpha virt. eigenvalues --    1.26068   1.27067   1.29458   1.31396   1.33440
 Alpha virt. eigenvalues --    1.34943   1.38803   1.40577   1.42158   1.42970
 Alpha virt. eigenvalues --    1.46307   1.46722   1.47318   1.47454   1.48145
 Alpha virt. eigenvalues --    1.48354   1.48807   1.49817   1.51842   1.53429
 Alpha virt. eigenvalues --    1.54203   1.55864   1.60629   1.64044   1.66684
 Alpha virt. eigenvalues --    1.73848   1.74442   1.76319   1.77637   1.80561
 Alpha virt. eigenvalues --    1.81040   1.82694   1.84243   1.85315   1.89220
 Alpha virt. eigenvalues --    1.89597   1.91297   1.91908   1.92689   1.93140
 Alpha virt. eigenvalues --    1.94674   1.95848   1.96432   1.96466   1.99620
 Alpha virt. eigenvalues --    2.01069   2.02013   2.03999   2.04098   2.05769
 Alpha virt. eigenvalues --    2.06899   2.09405   2.10770   2.12191   2.13980
 Alpha virt. eigenvalues --    2.15756   2.18885   2.22126   2.22235   2.23940
 Alpha virt. eigenvalues --    2.25470   2.26988   2.28261   2.28559   2.29804
 Alpha virt. eigenvalues --    2.31241   2.32166   2.33424   2.34121   2.35797
 Alpha virt. eigenvalues --    2.38155   2.39057   2.40071   2.40536   2.43711
 Alpha virt. eigenvalues --    2.44815   2.51360   2.55747   2.61404   2.62248
 Alpha virt. eigenvalues --    2.63472   2.67104   2.68808   2.69808   2.71778
 Alpha virt. eigenvalues --    2.72024   2.72788   2.76280   2.77234   2.79785
 Alpha virt. eigenvalues --    2.84529   2.85015   2.88974   2.90263   2.90490
 Alpha virt. eigenvalues --    2.95252   2.96401   3.02884   3.05380   3.09411
 Alpha virt. eigenvalues --    3.16528   3.26390   3.37358   3.54231   3.58133
 Alpha virt. eigenvalues --    4.05523   4.09472   4.10012   4.10333   4.11760
 Alpha virt. eigenvalues --    4.13781   4.14852   4.15041   4.21775   4.25143
 Alpha virt. eigenvalues --    4.30321   4.34888   4.35539   4.41660   4.49778
 Alpha virt. eigenvalues --    4.59032   4.71265   4.96697
          Condensed to atoms (all electrons):
              1          2          3          4          5          6
     1  C    4.921446   0.245306  -0.045327  -0.006888   0.000078  -0.000030
     2  O    0.245306   8.263096   0.240927  -0.069214   0.005859   0.000048
     3  C   -0.045327   0.240927   4.897446   0.432037   0.023537  -0.067929
     4  C   -0.006888  -0.069214   0.432037   5.148578   0.377749   0.018864
     5  C    0.000078   0.005859   0.023537   0.377749   5.243866   0.434115
     6  C   -0.000030   0.000048  -0.067929   0.018864   0.434115   4.811631
     7  C    0.000068   0.004300   0.033481  -0.076408   0.012234   0.389184
     8  C   -0.007782  -0.069964   0.375870  -0.010000  -0.077667  -0.059053
     9  C   -0.000204   0.000546  -0.112988   0.015625  -0.002431   0.018226
    10  C   -0.000017   0.000752   0.008209  -0.000359   0.000102  -0.001644
    11  C   -0.000004  -0.000004  -0.000315   0.000013  -0.000161   0.013891
    12  C    0.000021  -0.000083   0.017744  -0.003118   0.020559  -0.052587
    13  C    0.000000   0.000000  -0.000161   0.000081  -0.000590  -0.048392
    14  C   -0.000000  -0.000000   0.000102  -0.000439   0.009550   0.016382
    15  C   -0.000000  -0.000000  -0.000972   0.010093  -0.111786   0.401157
    16  C    0.000000   0.000000  -0.000001   0.000001  -0.000015  -0.000597
    17  C    0.000000  -0.000000   0.000000  -0.000000   0.000001   0.000048
    18  C   -0.000000   0.000000  -0.000008   0.000001  -0.000001  -0.000162
    19  H    0.376310  -0.039236   0.002672   0.001064  -0.000101   0.000003
    20  H    0.353880  -0.029650   0.001487   0.004679  -0.000396   0.000006
    21  H    0.375115  -0.039169   0.001433  -0.000179   0.000027  -0.000003
    22  H    0.000394  -0.001635  -0.031149   0.348325  -0.036095   0.002228
    23  H   -0.000000  -0.000076   0.002883  -0.037284   0.350271  -0.037377
    24  H   -0.000569   0.009816  -0.009975   0.000374  -0.000021  -0.000178
    25  H   -0.000000  -0.000000  -0.000206   0.000003  -0.000000   0.000025
    26  H   -0.000000   0.000000  -0.000001   0.000004  -0.000233   0.001741
    27  H    0.000000  -0.000000   0.000007   0.000256  -0.007402  -0.037453
    28  H   -0.000000   0.000000  -0.000000  -0.000000  -0.000000  -0.000001
    29  H   -0.000000   0.000000  -0.000000   0.000000  -0.000000  -0.000001
    30  H    0.000000   0.000000  -0.000000  -0.000000  -0.000000   0.000003
              7          8          9         10         11         12
     1  C    0.000068  -0.007782  -0.000204  -0.000017  -0.000004   0.000021
     2  O    0.004300  -0.069964   0.000546   0.000752  -0.000004  -0.000083
     3  C    0.033481   0.375870  -0.112988   0.008209  -0.000315   0.017744
     4  C   -0.076408  -0.010000   0.015625  -0.000359   0.000013  -0.003118
     5  C    0.012234  -0.077667  -0.002431   0.000102  -0.000161   0.020559
     6  C    0.389184  -0.059053   0.018226  -0.001644   0.013891  -0.052587
     7  C    5.316070   0.342501  -0.025270  -0.080774  -0.058967   0.249401
     8  C    0.342501   5.056869   0.370280   0.013345  -0.048939  -0.054093
     9  C   -0.025270   0.370280   5.275563   0.422004   0.017065  -0.084121
    10  C   -0.080774   0.013345   0.422004   5.230513   0.387504   0.009114
    11  C   -0.058967  -0.048939   0.017065   0.387504   4.825347   0.396121
    12  C    0.249401  -0.054093  -0.084121   0.009114   0.396121   5.250166
    13  C   -0.056054   0.014966  -0.001808   0.017881  -0.057325   0.394708
    14  C   -0.087260  -0.001823  -0.000027  -0.000253   0.017643   0.011939
    15  C    0.009246   0.018101  -0.000132  -0.000003  -0.001841  -0.087207
    16  C    0.019993  -0.000161   0.000078  -0.000382  -0.069178  -0.013125
    17  C   -0.002598   0.000035  -0.000415   0.009100   0.016917  -0.054940
    18  C    0.019643  -0.000491   0.009598  -0.112047   0.452412  -0.013454
    19  H    0.000011  -0.000406   0.000153   0.000003  -0.000000  -0.000000
    20  H   -0.001019   0.002641   0.001718  -0.000010   0.000002   0.000004
    21  H    0.000017   0.002508  -0.001180  -0.000130   0.000001  -0.000000
    22  H    0.001024   0.004761  -0.000166   0.000002  -0.000000   0.000021
    23  H    0.003314   0.001031   0.000022  -0.000000   0.000003  -0.000219
    24  H    0.003825  -0.035633   0.353054  -0.036418   0.001969   0.001298
    25  H    0.001377   0.001649  -0.037872   0.354631  -0.037018   0.003410
    26  H    0.001427   0.000027  -0.000000   0.000002  -0.000217   0.003383
    27  H    0.003125  -0.000219   0.000003  -0.000000   0.000026   0.001411
    28  H   -0.000168   0.000003  -0.000001   0.000012   0.000807   0.003664
    29  H    0.000031  -0.000001   0.000003  -0.000246   0.001742   0.001761
    30  H   -0.000166  -0.000001   0.000290  -0.007651  -0.040643   0.003709
             13         14         15         16         17         18
     1  C    0.000000  -0.000000  -0.000000   0.000000   0.000000  -0.000000
     2  O    0.000000  -0.000000  -0.000000   0.000000  -0.000000   0.000000
     3  C   -0.000161   0.000102  -0.000972  -0.000001   0.000000  -0.000008
     4  C    0.000081  -0.000439   0.010093   0.000001  -0.000000   0.000001
     5  C   -0.000590   0.009550  -0.111786  -0.000015   0.000001  -0.000001
     6  C   -0.048392   0.016382   0.401157  -0.000597   0.000048  -0.000162
     7  C   -0.056054  -0.087260   0.009246   0.019993  -0.002598   0.019643
     8  C    0.014966  -0.001823   0.018101  -0.000161   0.000035  -0.000491
     9  C   -0.001808  -0.000027  -0.000132   0.000078  -0.000415   0.009598
    10  C    0.017881  -0.000253  -0.000003  -0.000382   0.009100  -0.112047
    11  C   -0.057325   0.017643  -0.001841  -0.069178   0.016917   0.452412
    12  C    0.394708   0.011939  -0.087207  -0.013125  -0.054940  -0.013454
    13  C    4.821601   0.390835   0.018977   0.450265   0.017283  -0.069554
    14  C    0.390835   5.226379   0.429700  -0.111829   0.009041  -0.000363
    15  C    0.018977   0.429700   5.216201   0.009932  -0.000429   0.000077
    16  C    0.450265  -0.111829   0.009932   5.176256   0.465366  -0.016606
    17  C    0.017283   0.009041  -0.000429   0.465366   4.931792   0.465988
    18  C   -0.069554  -0.000363   0.000077  -0.016606   0.465988   5.174980
    19  H    0.000000   0.000000   0.000000  -0.000000   0.000000   0.000000
    20  H    0.000000  -0.000000   0.000001  -0.000000  -0.000000   0.000000
    21  H    0.000000   0.000000  -0.000000  -0.000000  -0.000000   0.000000
    22  H   -0.000001   0.000003  -0.000211  -0.000000   0.000000  -0.000000
    23  H    0.000008   0.000270  -0.007133  -0.000000  -0.000000  -0.000000
    24  H    0.000023  -0.000000   0.000002  -0.000000   0.000003  -0.000222
    25  H   -0.000212   0.000002  -0.000000   0.000007   0.000247  -0.007824
    26  H   -0.037100   0.352484  -0.037079  -0.007799   0.000249   0.000007
    27  H    0.001800  -0.036814   0.352481  -0.000230   0.000003  -0.000000
    28  H   -0.040499  -0.007586   0.000316   0.355735  -0.044474   0.004425
    29  H    0.001738  -0.000242   0.000003  -0.034462   0.353764  -0.034455
    30  H    0.000790   0.000012  -0.000000   0.004443  -0.044381   0.355722
             19         20         21         22         23         24
     1  C    0.376310   0.353880   0.375115   0.000394  -0.000000  -0.000569
     2  O   -0.039236  -0.029650  -0.039169  -0.001635  -0.000076   0.009816
     3  C    0.002672   0.001487   0.001433  -0.031149   0.002883  -0.009975
     4  C    0.001064   0.004679  -0.000179   0.348325  -0.037284   0.000374
     5  C   -0.000101  -0.000396   0.000027  -0.036095   0.350271  -0.000021
     6  C    0.000003   0.000006  -0.000003   0.002228  -0.037377  -0.000178
     7  C    0.000011  -0.001019   0.000017   0.001024   0.003314   0.003825
     8  C   -0.000406   0.002641   0.002508   0.004761   0.001031  -0.035633
     9  C    0.000153   0.001718  -0.001180  -0.000166   0.000022   0.353054
    10  C    0.000003  -0.000010  -0.000130   0.000002  -0.000000  -0.036418
    11  C   -0.000000   0.000002   0.000001  -0.000000   0.000003   0.001969
    12  C   -0.000000   0.000004  -0.000000   0.000021  -0.000219   0.001298
    13  C    0.000000   0.000000   0.000000  -0.000001   0.000008   0.000023
    14  C    0.000000  -0.000000   0.000000   0.000003   0.000270  -0.000000
    15  C    0.000000   0.000001  -0.000000  -0.000211  -0.007133   0.000002
    16  C   -0.000000  -0.000000  -0.000000  -0.000000  -0.000000  -0.000000
    17  C    0.000000  -0.000000  -0.000000   0.000000  -0.000000   0.000003
    18  C    0.000000   0.000000   0.000000  -0.000000  -0.000000  -0.000222
    19  H    0.580254  -0.033503  -0.041371  -0.000195   0.000000   0.000127
    20  H   -0.033503   0.574599  -0.032265   0.000673   0.000005   0.000071
    21  H   -0.041371  -0.032265   0.580581   0.000009  -0.000000   0.000060
    22  H   -0.000195   0.000673   0.000009   0.582255  -0.004928  -0.000006
    23  H    0.000000   0.000005  -0.000000  -0.004928   0.590735   0.000000
    24  H    0.000127   0.000071   0.000060  -0.000006   0.000000   0.576862
    25  H    0.000000  -0.000001  -0.000002  -0.000000  -0.000000  -0.003999
    26  H   -0.000000  -0.000000   0.000000  -0.000000  -0.000012   0.000000
    27  H   -0.000000   0.000000  -0.000000  -0.000012   0.006223  -0.000000
    28  H    0.000000  -0.000000  -0.000000  -0.000000   0.000000   0.000000
    29  H   -0.000000   0.000000  -0.000000   0.000000  -0.000000  -0.000000
    30  H    0.000000   0.000000  -0.000000  -0.000000   0.000000  -0.000010
             25         26         27         28         29         30
     1  C   -0.000000  -0.000000   0.000000  -0.000000  -0.000000   0.000000
     2  O   -0.000000   0.000000  -0.000000   0.000000   0.000000   0.000000
     3  C   -0.000206  -0.000001   0.000007  -0.000000  -0.000000  -0.000000
     4  C    0.000003   0.000004   0.000256  -0.000000   0.000000  -0.000000
     5  C   -0.000000  -0.000233  -0.007402  -0.000000  -0.000000  -0.000000
     6  C    0.000025   0.001741  -0.037453  -0.000001  -0.000001   0.000003
     7  C    0.001377   0.001427   0.003125  -0.000168   0.000031  -0.000166
     8  C    0.001649   0.000027  -0.000219   0.000003  -0.000001  -0.000001
     9  C   -0.037872  -0.000000   0.000003  -0.000001   0.000003   0.000290
    10  C    0.354631   0.000002  -0.000000   0.000012  -0.000246  -0.007651
    11  C   -0.037018  -0.000217   0.000026   0.000807   0.001742  -0.040643
    12  C    0.003410   0.003383   0.001411   0.003664   0.001761   0.003709
    13  C   -0.000212  -0.037100   0.001800  -0.040499   0.001738   0.000790
    14  C    0.000002   0.352484  -0.036814  -0.007586  -0.000242   0.000012
    15  C   -0.000000  -0.037079   0.352481   0.000316   0.000003  -0.000000
    16  C    0.000007  -0.007799  -0.000230   0.355735  -0.034462   0.004443
    17  C    0.000247   0.000249   0.000003  -0.044474   0.353764  -0.044381
    18  C   -0.007824   0.000007  -0.000000   0.004425  -0.034455   0.355722
    19  H    0.000000  -0.000000  -0.000000   0.000000  -0.000000   0.000000
    20  H   -0.000001  -0.000000   0.000000  -0.000000   0.000000   0.000000
    21  H   -0.000002   0.000000  -0.000000  -0.000000  -0.000000  -0.000000
    22  H   -0.000000  -0.000000  -0.000012  -0.000000   0.000000  -0.000000
    23  H   -0.000000  -0.000012   0.006223   0.000000  -0.000000   0.000000
    24  H   -0.003999   0.000000  -0.000000   0.000000  -0.000000  -0.000010
    25  H    0.588703  -0.000000   0.000000  -0.000000  -0.000011   0.006111
    26  H   -0.000000   0.592377  -0.004165   0.006112  -0.000011  -0.000000
    27  H    0.000000  -0.004165   0.591652  -0.000011  -0.000000   0.000000
    28  H   -0.000000   0.006112  -0.000011   0.598250  -0.004693  -0.000205
    29  H   -0.000011  -0.000011  -0.000000  -0.004693   0.590788  -0.004697
    30  H    0.006111  -0.000000   0.000000  -0.000205  -0.004697   0.598633
 Mulliken atomic charges:
              1
     1  C   -0.211796
     2  O   -0.521621
     3  C    0.231195
     4  C   -0.153856
     5  C   -0.241049
     6  C    0.197855
     7  C   -0.021588
     8  C    0.161644
     9  C   -0.217611
    10  C   -0.213239
    11  C    0.183150
    12  C   -0.005488
    13  C    0.180738
    14  C   -0.217707
    15  C   -0.219488
    16  C   -0.227689
    17  C   -0.122600
    18  C   -0.227663
    19  H    0.154216
    20  H    0.157077
    21  H    0.154549
    22  H    0.134703
    23  H    0.132263
    24  H    0.139546
    25  H    0.130982
    26  H    0.128805
    27  H    0.129319
    28  H    0.128317
    29  H    0.128990
    30  H    0.128044
 Sum of Mulliken atomic charges =  -0.00000
 Mulliken charges with hydrogens summed into heavy atoms:
              1
     1  C    0.254047
     2  O   -0.521621
     3  C    0.231195
     4  C   -0.019153
     5  C   -0.108786
     6  C    0.197855
     7  C   -0.021588
     8  C    0.161644
     9  C   -0.078064
    10  C   -0.082257
    11  C    0.183150
    12  C   -0.005488
    13  C    0.180738
    14  C   -0.088902
    15  C   -0.090169
    16  C   -0.099372
    17  C    0.006390
    18  C   -0.099619
 Sum of Mulliken charges with hydrogens summed into heavy atoms =  -0.00000
 Electronic spatial extent (au):  <R**2>=           4105.7175
 Charge=             -0.0000 electrons
 Dipole moment (field-independent basis, Debye):
    X=             -0.0225    Y=              0.0973    Z=              1.4204  Tot=              1.4239
 Quadrupole moment (field-independent basis, Debye-Ang):
   XX=            -91.4729   YY=            -90.7708   ZZ=           -106.8650
   XY=             -0.6200   XZ=             -4.8549   YZ=             -1.0022
 Traceless Quadrupole moment (field-independent basis, Debye-Ang):
   XX=              4.8966   YY=              5.5988   ZZ=            -10.4954
   XY=             -0.6200   XZ=             -4.8549   YZ=             -1.0022
 Octapole moment (field-independent basis, Debye-Ang**2):
  XXX=             -5.7373  YYY=             -2.0389  ZZZ=              1.4626  XYY=             -4.0067
  XXY=             -0.4521  XXZ=             25.0986  XZZ=            -13.8051  YZZ=             -3.3223
  YYZ=              0.5744  XYZ=              7.8330
 Hexadecapole moment (field-independent basis, Debye-Ang**3):
 XXXX=          -3404.3780 YYYY=          -1543.6799 ZZZZ=           -174.8584 XXXY=              6.3152
 XXXZ=            -69.9492 YYYX=              1.0288 YYYZ=              7.1960 ZZZX=             -6.7025
 ZZZY=             -2.2112 XXYY=           -820.4702 XXZZ=           -675.2450 YYZZ=           -337.7627
 XXYZ=            -23.7628 YYXZ=             -0.8243 ZZXY=             12.5971
 N-N= 1.207933995054D+03 E-N=-4.110237281267D+03  KE= 7.237153027047D+02
 No NMR shielding tensors so no spin-rotation constants.
 Leave Link  601 at Thu Sep 30 19:51:34 2021, MaxMem= 1342177280 cpu:       1.8
 (Enter /sw/target/amd/app/gaussian/Gaussian09RevA.02_gcc-4.9.2/g09/l701.exe)
 Compute integral first derivatives.
 ... and contract with generalized density number  0.
 Leave Link  701 at Thu Sep 30 19:51:36 2021, MaxMem= 1342177280 cpu:       1.7
 (Enter /sw/target/amd/app/gaussian/Gaussian09RevA.02_gcc-4.9.2/g09/l702.exe)
 L702 exits ... SP integral derivatives will be done elsewhere.
 Leave Link  702 at Thu Sep 30 19:51:36 2021, MaxMem= 1342177280 cpu:       0.1
 (Enter /sw/target/amd/app/gaussian/Gaussian09RevA.02_gcc-4.9.2/g09/l703.exe)
 Compute integral first derivatives, UseDBF=F ICtDFT=           0.
 Integral derivatives from FoFDir, PRISM(SPDF).
 Calling FoFJK, ICntrl=      2127 FMM=F ISym2X=0 I1Cent= 0 IOpClX= 0 NMat=1 NMatS=1 NMatT=0.
 FoFCou: FMM=F IPFlag=           0 FMFlag=      100000 FMFlg1=         800
         NFxFlg=           0 DoJE=F BraDBF=F KetDBF=F FulRan=T
         Omega=  0.000000  0.000000  1.000000  0.000000  0.000000 ICntrl=    2127 IOpCl=  0
         NMat0=    1 NMatS0=    1 NMatT0=    0 NMatD0=    1 NMtDS0=    0 NMtDT0=    0
         I1Cent=           0 NGrid=           0.
 Symmetry not used in FoFCou.
 Leave Link  703 at Thu Sep 30 19:54:05 2021, MaxMem= 1342177280 cpu:     168.2
 (Enter /sw/target/amd/app/gaussian/Gaussian09RevA.02_gcc-4.9.2/g09/l716.exe)
 Dipole        =-8.84743951D-03 3.82633302D-02 5.58813848D-01
 ***** Axes restored to original set *****
 -------------------------------------------------------------------
 Center     Atomic                   Forces (Hartrees/Bohr)
 Number     Number              X              Y              Z
 -------------------------------------------------------------------
      1        6          -0.005688749   -0.014464511   -0.003086356
      2        8           0.011003504   -0.002157932    0.000613375
      3        6          -0.010263179    0.010068454    0.001357827
      4        6           0.005537139    0.006413921    0.001843378
      5        6          -0.006318353   -0.005998899    0.000053773
      6        6          -0.013375744   -0.007391370    0.007596778
      7        6           0.004180740    0.004239628   -0.001171637
      8        6          -0.008659536   -0.002878027    0.008711499
      9        6           0.024762129   -0.004512142   -0.031961053
     10        6          -0.037347638   -0.030233828    0.010343180
     11        6           0.015758592    0.009343830   -0.007639693
     12        6          -0.006029945   -0.003071681    0.003426504
     13        6           0.013772163    0.004448548   -0.010880519
     14        6          -0.031523063    0.001439498    0.036697610
     15        6           0.036494878    0.030746110   -0.009052021
     16        6           0.006270070   -0.000185168   -0.007175111
     17        6          -0.001943851   -0.000631166    0.001378509
     18        6           0.007298871    0.005876902   -0.001988970
     19        1          -0.000201851   -0.001541359    0.002146361
     20        1          -0.002344275    0.003880360   -0.001983617
     21        1           0.000842920   -0.002197210   -0.000170454
     22        1           0.000186586   -0.001972357   -0.002007522
     23        1           0.002177544    0.001633222   -0.000770831
     24        1          -0.000940251    0.001891293    0.002553128
     25        1           0.001173948    0.001722996    0.000260646
     26        1           0.001099825   -0.000659036   -0.001885609
     27        1          -0.001538602   -0.001971200   -0.000236572
     28        1          -0.001992624   -0.000045005    0.002233155
     29        1          -0.000129409   -0.000019339    0.000134316
     30        1          -0.002261837   -0.001774532    0.000659926
 -------------------------------------------------------------------
 Cartesian Forces:  Max     0.037347638 RMS     0.011086723
 Leave Link  716 at Thu Sep 30 19:54:05 2021, MaxMem= 1342177280 cpu:       0.1
 (Enter /sw/target/amd/app/gaussian/Gaussian09RevA.02_gcc-4.9.2/g09/l103.exe)

 GradGradGradGradGradGradGradGradGradGradGradGradGradGradGradGradGradGrad
 Berny optimization.
 Internal  Forces:  Max     0.027892535 RMS     0.005909150
 Search for a local minimum.
 Step number   1 out of a maximum of  179
 All quantities printed in internal units (Hartrees-Bohrs-Radians)
 RMS Force = .59091D-02 SwitMx=.10000D-02 MixMth= 1
 Mixed Optimization -- RFO/linear search
 Second derivative matrix not updated -- first step.
     Eigenvalues ---    0.01302   0.01886   0.01910   0.01932   0.01969
     Eigenvalues ---    0.01978   0.01999   0.02010   0.02022   0.02052
     Eigenvalues ---    0.02052   0.02057   0.02060   0.02080   0.02090
     Eigenvalues ---    0.02096   0.02102   0.02110   0.02113   0.02114
     Eigenvalues ---    0.02121   0.02135   0.02140   0.02168   0.02174
     Eigenvalues ---    0.09837   0.10504   0.16000   0.16000   0.16000
     Eigenvalues ---    0.16000   0.16000   0.16000   0.16000   0.16000
     Eigenvalues ---    0.16000   0.16000   0.16000   0.16000   0.22128
     Eigenvalues ---    0.22404   0.22567   0.22732   0.23532   0.24412
     Eigenvalues ---    0.24548   0.24656   0.24959   0.24978   0.24999
     Eigenvalues ---    0.25000   0.33284   0.34009   0.34321   0.34354
     Eigenvalues ---    0.35050   0.35053   0.35072   0.35075   0.35076
     Eigenvalues ---    0.35086   0.35089   0.35177   0.35271   0.36685
     Eigenvalues ---    0.38710   0.40673   0.41070   0.41246   0.42663
     Eigenvalues ---    0.42886   0.43730   0.44427   0.44557   0.44763
     Eigenvalues ---    0.44892   0.45195   0.45413   0.45488   0.45790
     Eigenvalues ---    0.45817   0.46419   0.46456   0.504431000.00000
     Eigenvalues --- 1000.000001000.000001000.000001000.000001000.00000
     Eigenvalues --- 1000.000001000.000001000.000001000.000001000.00000
     Eigenvalues --- 1000.000001000.000001000.000001000.000001000.00000
     Eigenvalues --- 1000.000001000.000001000.000001000.000001000.00000
     Eigenvalues --- 1000.000001000.000001000.000001000.000001000.00000
     Eigenvalues --- 1000.000001000.000001000.000001000.000001000.00000
     Eigenvalues --- 1000.000001000.000001000.000001000.000001000.00000
     Eigenvalues --- 1000.000001000.000001000.000001000.000001000.00000
     Eigenvalues --- 1000.000001000.000001000.000001000.000001000.00000
     Eigenvalues --- 1000.000001000.000001000.000001000.000001000.00000
     Eigenvalues --- 1000.000001000.000001000.000001000.000001000.00000
     Eigenvalues --- 1000.000001000.000001000.000001000.000001000.00000
     Eigenvalues --- 1000.000001000.000001000.000001000.000001000.00000
[...]
    22    O    2  py     Val( 2p)     1.71641
    23    O    2  py     Ryd( 3p)     0.00247
    24    O    2  pz     Val( 2p)     1.78216
    25    O    2  pz     Ryd( 3p)     0.00237
    26    O    2  dxy    Ryd( 3d)     0.00128
    27    O    2  dxz    Ryd( 3d)     0.00029
    28    O    2  dyz    Ryd( 3d)     0.00171
    29    O    2  dx2y2  Ryd( 3d)     0.00126
    30    O    2  dz2    Ryd( 3d)     0.00074

    31    C    3  S      Cor( 1S)     1.99876
    32    C    3  S      Val( 2S)     0.82452
    33    C    3  S      Ryd( 3S)     0.00153
    34    C    3  S      Ryd( 4S)     0.00014
    35    C    3  px     Val( 2p)     0.89865
    36    C    3  px     Ryd( 3p)     0.00443
    37    C    3  py     Val( 2p)     0.92594
    38    C    3  py     Ryd( 3p)     0.00823
    39    C    3  pz     Val( 2p)     0.96799
    40    C    3  pz     Ryd( 3p)     0.00134
    41    C    3  dxy    Ryd( 3d)     0.00182
    42    C    3  dxz    Ryd( 3d)     0.00132
    43    C    3  dyz    Ryd( 3d)     0.00148
    44    C    3  dx2y2  Ryd( 3d)     0.00131
    45    C    3  dz2    Ryd( 3d)     0.00046

    46    C    4  S      Cor( 1S)     1.99905
    47    C    4  S      Val( 2S)     0.95580
    48    C    4  S      Ryd( 3S)     0.00067
    49    C    4  S      Ryd( 4S)     0.00006
    50    C    4  px     Val( 2p)     1.19380
    51    C    4  px     Ryd( 3p)     0.00379
    52    C    4  py     Val( 2p)     1.08059
    53    C    4  py     Ryd( 3p)     0.00428
    54    C    4  pz     Val( 2p)     1.06839
    55    C    4  pz     Ryd( 3p)     0.00151
    56    C    4  dxy    Ryd( 3d)     0.00053
    57    C    4  dxz    Ryd( 3d)     0.00040
    58    C    4  dyz    Ryd( 3d)     0.00070
    59    C    4  dx2y2  Ryd( 3d)     0.00083
    60    C    4  dz2    Ryd( 3d)     0.00046

    61    C    5  S      Cor( 1S)     1.99907
    62    C    5  S      Val( 2S)     0.94091
    63    C    5  S      Ryd( 3S)     0.00071
    64    C    5  S      Ryd( 4S)     0.00005
    65    C    5  px     Val( 2p)     1.05086
    66    C    5  px     Ryd( 3p)     0.00434
    67    C    5  py     Val( 2p)     1.18460
    68    C    5  py     Ryd( 3p)     0.00483
    69    C    5  pz     Val( 2p)     1.03694
    70    C    5  pz     Ryd( 3p)     0.00277
    71    C    5  dxy    Ryd( 3d)     0.00065
    72    C    5  dxz    Ryd( 3d)     0.00057
    73    C    5  dyz    Ryd( 3d)     0.00034
    74    C    5  dx2y2  Ryd( 3d)     0.00083
    75    C    5  dz2    Ryd( 3d)     0.00043

    76    C    6  S      Cor( 1S)     1.99902
    77    C    6  S      Val( 2S)     0.86700
    78    C    6  S      Ryd( 3S)     0.00048
    79    C    6  S      Ryd( 4S)     0.00007
    80    C    6  px     Val( 2p)     1.09754
    81    C    6  px     Ryd( 3p)     0.00501
    82    C    6  py     Val( 2p)     1.07821
    83    C    6  py     Ryd( 3p)     0.00540
    84    C    6  pz     Val( 2p)     0.97997
    85    C    6  pz     Ryd( 3p)     0.00069
    86    C    6  dxy    Ryd( 3d)     0.00066
    87    C    6  dxz    Ryd( 3d)     0.00089
    88    C    6  dyz    Ryd( 3d)     0.00050
    89    C    6  dx2y2  Ryd( 3d)     0.00076
    90    C    6  dz2    Ryd( 3d)     0.00032

    91    C    7  S      Cor( 1S)     1.99899
    92    C    7  S      Val( 2S)     0.84427
    93    C    7  S      Ryd( 3S)     0.00048
    94    C    7  S      Ryd( 4S)     0.00007
    95    C    7  px     Val( 2p)     1.07991
    96    C    7  px     Ryd( 3p)     0.00459
    97    C    7  py     Val( 2p)     1.07747
    98    C    7  py     Ryd( 3p)     0.00465
    99    C    7  pz     Val( 2p)     0.99940
   100    C    7  pz     Ryd( 3p)     0.00099
   101    C    7  dxy    Ryd( 3d)     0.00071
   102    C    7  dxz    Ryd( 3d)     0.00060
   103    C    7  dyz    Ryd( 3d)     0.00051
   104    C    7  dx2y2  Ryd( 3d)     0.00069
   105    C    7  dz2    Ryd( 3d)     0.00032

   106    C    8  S      Cor( 1S)     1.99898
   107    C    8  S      Val( 2S)     0.86608
   108    C    8  S      Ryd( 3S)     0.00065
   109    C    8  S      Ryd( 4S)     0.00007
   110    C    8  px     Val( 2p)     1.07424
   111    C    8  px     Ryd( 3p)     0.00534
   112    C    8  py     Val( 2p)     1.09788
   113    C    8  py     Ryd( 3p)     0.00510
   114    C    8  pz     Val( 2p)     1.03459
   115    C    8  pz     Ryd( 3p)     0.00142
   116    C    8  dxy    Ryd( 3d)     0.00071
   117    C    8  dxz    Ryd( 3d)     0.00052
   118    C    8  dyz    Ryd( 3d)     0.00075
   119    C    8  dx2y2  Ryd( 3d)     0.00063
   120    C    8  dz2    Ryd( 3d)     0.00034

   121    C    9  S      Cor( 1S)     1.99907
   122    C    9  S      Val( 2S)     0.94595
   123    C    9  S      Ryd( 3S)     0.00075
   124    C    9  S      Ryd( 4S)     0.00005
   125    C    9  px     Val( 2p)     1.15240
   126    C    9  px     Ryd( 3p)     0.00492
   127    C    9  py     Val( 2p)     1.09828
   128    C    9  py     Ryd( 3p)     0.00465
   129    C    9  pz     Val( 2p)     1.00873
   130    C    9  pz     Ryd( 3p)     0.00176
   131    C    9  dxy    Ryd( 3d)     0.00082
   132    C    9  dxz    Ryd( 3d)     0.00060
   133    C    9  dyz    Ryd( 3d)     0.00040
   134    C    9  dx2y2  Ryd( 3d)     0.00064
   135    C    9  dz2    Ryd( 3d)     0.00042

   136    C   10  S      Cor( 1S)     1.99906
   137    C   10  S      Val( 2S)     0.94625
   138    C   10  S      Ryd( 3S)     0.00072
   139    C   10  S      Ryd( 4S)     0.00005
   140    C   10  px     Val( 2p)     1.06258
   141    C   10  px     Ryd( 3p)     0.00408
   142    C   10  py     Val( 2p)     1.17880
   143    C   10  py     Ryd( 3p)     0.00475
   144    C   10  pz     Val( 2p)     1.01495
   145    C   10  pz     Ryd( 3p)     0.00175
   146    C   10  dxy    Ryd( 3d)     0.00069
   147    C   10  dxz    Ryd( 3d)     0.00067
   148    C   10  dyz    Ryd( 3d)     0.00027
   149    C   10  dx2y2  Ryd( 3d)     0.00081
   150    C   10  dz2    Ryd( 3d)     0.00042

   151    C   11  S      Cor( 1S)     1.99903
   152    C   11  S      Val( 2S)     0.86726
   153    C   11  S      Ryd( 3S)     0.00048
   154    C   11  S      Ryd( 4S)     0.00007
   155    C   11  px     Val( 2p)     1.09915
   156    C   11  px     Ryd( 3p)     0.00513
   157    C   11  py     Val( 2p)     1.07757
   158    C   11  py     Ryd( 3p)     0.00549
   159    C   11  pz     Val( 2p)     0.98946
   160    C   11  pz     Ryd( 3p)     0.00065
   161    C   11  dxy    Ryd( 3d)     0.00066
   162    C   11  dxz    Ryd( 3d)     0.00087
   163    C   11  dyz    Ryd( 3d)     0.00048
   164    C   11  dx2y2  Ryd( 3d)     0.00075
   165    C   11  dz2    Ryd( 3d)     0.00032

   166    C   12  S      Cor( 1S)     1.99899
   167    C   12  S      Val( 2S)     0.84520
   168    C   12  S      Ryd( 3S)     0.00047
   169    C   12  S      Ryd( 4S)     0.00007
   170    C   12  px     Val( 2p)     1.07583
   171    C   12  px     Ryd( 3p)     0.00455
   172    C   12  py     Val( 2p)     1.08323
   173    C   12  py     Ryd( 3p)     0.00463
   174    C   12  pz     Val( 2p)     0.99477
   175    C   12  pz     Ryd( 3p)     0.00080
   176    C   12  dxy    Ryd( 3d)     0.00069
   177    C   12  dxz    Ryd( 3d)     0.00058
   178    C   12  dyz    Ryd( 3d)     0.00052
   179    C   12  dx2y2  Ryd( 3d)     0.00071
   180    C   12  dz2    Ryd( 3d)     0.00032

   181    C   13  S      Cor( 1S)     1.99902
   182    C   13  S      Val( 2S)     0.86466
   183    C   13  S      Ryd( 3S)     0.00049
   184    C   13  S      Ryd( 4S)     0.00007
   185    C   13  px     Val( 2p)     1.09031
   186    C   13  px     Ryd( 3p)     0.00546
   187    C   13  py     Val( 2p)     1.08128
   188    C   13  py     Ryd( 3p)     0.00499
   189    C   13  pz     Val( 2p)     1.03013
   190    C   13  pz     Ryd( 3p)     0.00115
   191    C   13  dxy    Ryd( 3d)     0.00074
   192    C   13  dxz    Ryd( 3d)     0.00063
   193    C   13  dyz    Ryd( 3d)     0.00057
   194    C   13  dx2y2  Ryd( 3d)     0.00065
   195    C   13  dz2    Ryd( 3d)     0.00032

   196    C   14  S      Cor( 1S)     1.99906
   197    C   14  S      Val( 2S)     0.95144
   198    C   14  S      Ryd( 3S)     0.00069
   199    C   14  S      Ryd( 4S)     0.00005
   200    C   14  px     Val( 2p)     1.14555
   201    C   14  px     Ryd( 3p)     0.00441
   202    C   14  py     Val( 2p)     1.10002
   203    C   14  py     Ryd( 3p)     0.00446
   204    C   14  pz     Val( 2p)     0.96648
   205    C   14  pz     Ryd( 3p)     0.00102
   206    C   14  dxy    Ryd( 3d)     0.00088
   207    C   14  dxz    Ryd( 3d)     0.00062
   208    C   14  dyz    Ryd( 3d)     0.00044
   209    C   14  dx2y2  Ryd( 3d)     0.00064
   210    C   14  dz2    Ryd( 3d)     0.00042

   211    C   15  S      Cor( 1S)     1.99906
   212    C   15  S      Val( 2S)     0.94709
   213    C   15  S      Ryd( 3S)     0.00072
   214    C   15  S      Ryd( 4S)     0.00005
   215    C   15  px     Val( 2p)     1.06377
   216    C   15  px     Ryd( 3p)     0.00416
   217    C   15  py     Val( 2p)     1.17948
   218    C   15  py     Ryd( 3p)     0.00483
   219    C   15  pz     Val( 2p)     1.02237
   220    C   15  pz     Ryd( 3p)     0.00151
   221    C   15  dxy    Ryd( 3d)     0.00069
   222    C   15  dxz    Ryd( 3d)     0.00063
   223    C   15  dyz    Ryd( 3d)     0.00027
   224    C   15  dx2y2  Ryd( 3d)     0.00080
   225    C   15  dz2    Ryd( 3d)     0.00042

   226    C   16  S      Cor( 1S)     1.99906
   227    C   16  S      Val( 2S)     0.94881
   228    C   16  S      Ryd( 3S)     0.00057
   229    C   16  S      Ryd( 4S)     0.00004
   230    C   16  px     Val( 2p)     1.12118
   231    C   16  px     Ryd( 3p)     0.00438
   232    C   16  py     Val( 2p)     1.12078
   233    C   16  py     Ryd( 3p)     0.00422
   234    C   16  pz     Val( 2p)     1.00028
   235    C   16  pz     Ryd( 3p)     0.00202
   236    C   16  dxy    Ryd( 3d)     0.00089
   237    C   16  dxz    Ryd( 3d)     0.00042
   238    C   16  dyz    Ryd( 3d)     0.00053
   239    C   16  dx2y2  Ryd( 3d)     0.00062
   240    C   16  dz2    Ryd( 3d)     0.00042

   241    C   17  S      Cor( 1S)     1.99912
   242    C   17  S      Val( 2S)     0.95871
   243    C   17  S      Ryd( 3S)     0.00058
   244    C   17  S      Ryd( 4S)     0.00003
   245    C   17  px     Val( 2p)     1.18456
   246    C   17  px     Ryd( 3p)     0.00521
   247    C   17  py     Val( 2p)     1.07578
   248    C   17  py     Ryd( 3p)     0.00478
   249    C   17  pz     Val( 2p)     1.00025
   250    C   17  pz     Ryd( 3p)     0.00103
   251    C   17  dxy    Ryd( 3d)     0.00071
   252    C   17  dxz    Ryd( 3d)     0.00038
   253    C   17  dyz    Ryd( 3d)     0.00071
   254    C   17  dx2y2  Ryd( 3d)     0.00078
   255    C   17  dz2    Ryd( 3d)     0.00043

   256    C   18  S      Cor( 1S)     1.99906
   257    C   18  S      Val( 2S)     0.94627
   258    C   18  S      Ryd( 3S)     0.00058
   259    C   18  S      Ryd( 4S)     0.00004
   260    C   18  px     Val( 2p)     1.05246
   261    C   18  px     Ryd( 3p)     0.00400
   262    C   18  py     Val( 2p)     1.18724
   263    C   18  py     Ryd( 3p)     0.00465
   264    C   18  pz     Val( 2p)     1.03104
   265    C   18  pz     Ryd( 3p)     0.00256
   266    C   18  dxy    Ryd( 3d)     0.00064
   267    C   18  dxz    Ryd( 3d)     0.00052
   268    C   18  dyz    Ryd( 3d)     0.00034
   269    C   18  dx2y2  Ryd( 3d)     0.00086
   270    C   18  dz2    Ryd( 3d)     0.00042

   271    H   19  S      Val( 1S)     0.78812
   272    H   19  S      Ryd( 2S)     0.00209

   273    H   20  S      Val( 1S)     0.78813
   274    H   20  S      Ryd( 2S)     0.00209

   275    H   21  S      Val( 1S)     0.76727
   276    H   21  S      Ryd( 2S)     0.00055

   277    H   22  S      Val( 1S)     0.76084
   278    H   22  S      Ryd( 2S)     0.00086

   279    H   23  S      Val( 1S)     0.76551
   280    H   23  S      Ryd( 2S)     0.00115

   281    H   24  S      Val( 1S)     0.75294
   282    H   24  S      Ryd( 2S)     0.00119

   283    H   25  S      Val( 1S)     0.76706
   284    H   25  S      Ryd( 2S)     0.00104

   285    H   26  S      Val( 1S)     0.76536
   286    H   26  S      Ryd( 2S)     0.00106

   287    H   27  S      Val( 1S)     0.76604
   288    H   27  S      Ryd( 2S)     0.00106

   289    H   28  S      Val( 1S)     0.76908
   290    H   28  S      Ryd( 2S)     0.00117

   291    H   29  S      Val( 1S)     0.76354
   292    H   29  S      Ryd( 2S)     0.00082

   293    H   30  S      Val( 1S)     0.76887
   294    H   30  S      Ryd( 2S)     0.00118

 WARNING:  1 low occupancy (<1.9990e) core orbital  found on  C    3
           1 low occupancy (<1.9990e) core orbital  found on  C    7
           1 low occupancy (<1.9990e) core orbital  found on  C    8
           1 low occupancy (<1.9990e) core orbital  found on  C   12


 Summary of Natural Population Analysis:                  
                                                          
                                       Natural Population 
                Natural  -----------------------------------------------
    Atom  No    Charge         Core      Valence    Rydberg      Total
 -----------------------------------------------------------------------
      C    1   -0.31902      1.99943     4.30550    0.01409     6.31902
      O    2   -0.48530      1.99974     6.47384    0.01172     8.48530
      C    3    0.36208      1.99876     3.61710    0.02206     5.63792
      C    4   -0.31085      1.99905     4.29857    0.01323     6.31085
      C    5   -0.22790      1.99907     4.21332    0.01552     6.22790
      C    6   -0.03650      1.99902     4.02272    0.01477     6.03650
      C    7   -0.01366      1.99899     4.00105    0.01361     6.01366
      C    8   -0.08730      1.99898     4.07278    0.01554     6.08730
      C    9   -0.21944      1.99907     4.20535    0.01502     6.21944
      C   10   -0.21585      1.99906     4.20258    0.01421     6.21585
      C   11   -0.04737      1.99903     4.03343    0.01491     6.04737
      C   12   -0.01138      1.99899     3.99904    0.01335     6.01138
      C   13   -0.08048      1.99902     4.06638    0.01508     6.08048
      C   14   -0.17618      1.99906     4.16349    0.01363     6.17618
      C   15   -0.22586      1.99906     4.21272    0.01408     6.22586
      C   16   -0.20423      1.99906     4.19105    0.01412     6.20423
      C   17   -0.23308      1.99912     4.21931    0.01465     6.23308
      C   18   -0.23066      1.99906     4.21701    0.01460     6.23066
      H   19    0.20979      0.00000     0.78812    0.00209     0.79021
      H   20    0.20979      0.00000     0.78813    0.00209     0.79021
      H   21    0.23218      0.00000     0.76727    0.00055     0.76782
      H   22    0.23830      0.00000     0.76084    0.00086     0.76170
      H   23    0.23334      0.00000     0.76551    0.00115     0.76666
      H   24    0.24587      0.00000     0.75294    0.00119     0.75413
      H   25    0.23189      0.00000     0.76706    0.00104     0.76811
      H   26    0.23358      0.00000     0.76536    0.00106     0.76642
      H   27    0.23290      0.00000     0.76604    0.00106     0.76710
      H   28    0.22974      0.00000     0.76908    0.00117     0.77026
      H   29    0.23564      0.00000     0.76354    0.00082     0.76436
      H   30    0.22996      0.00000     0.76887    0.00118     0.77004
 =======================================================================
   * Total *   -0.00000     35.98358    85.73799    0.27843   122.00000

                                 Natural Population      
 --------------------------------------------------------
   Core                      35.98358 ( 99.9544% of  36)
   Valence                   85.73799 ( 99.6953% of  86)
   Natural Minimal Basis    121.72157 ( 99.7718% of 122)
   Natural Rydberg Basis      0.27843 (  0.2282% of 122)
 --------------------------------------------------------

    Atom  No          Natural Electron Configuration
 ----------------------------------------------------------------------------
      C    1      [core]2S( 1.10)2p( 3.20)3p( 0.01)3d( 0.01)
      O    2      [core]2S( 1.59)2p( 4.88)3p( 0.01)3d( 0.01)
      C    3      [core]2S( 0.82)2p( 2.79)3p( 0.01)3d( 0.01)
      C    4      [core]2S( 0.96)2p( 3.34)3p( 0.01)
      C    5      [core]2S( 0.94)2p( 3.27)3p( 0.01)
      C    6      [core]2S( 0.87)2p( 3.16)3p( 0.01)
      C    7      [core]2S( 0.84)2p( 3.16)3p( 0.01)
      C    8      [core]2S( 0.87)2p( 3.21)3p( 0.01)
      C    9      [core]2S( 0.95)2p( 3.26)3p( 0.01)
      C   10      [core]2S( 0.95)2p( 3.26)3p( 0.01)
      C   11      [core]2S( 0.87)2p( 3.17)3p( 0.01)
      C   12      [core]2S( 0.85)2p( 3.15)3p( 0.01)
      C   13      [core]2S( 0.86)2p( 3.20)3p( 0.01)
      C   14      [core]2S( 0.95)2p( 3.21)3p( 0.01)
      C   15      [core]2S( 0.95)2p( 3.27)3p( 0.01)
      C   16      [core]2S( 0.95)2p( 3.24)3p( 0.01)
      C   17      [core]2S( 0.96)2p( 3.26)3p( 0.01)
      C   18      [core]2S( 0.95)2p( 3.27)3p( 0.01)
      H   19            1S( 0.79)
      H   20            1S( 0.79)
      H   21            1S( 0.77)
      H   22            1S( 0.76)
      H   23            1S( 0.77)
      H   24            1S( 0.75)
      H   25            1S( 0.77)
      H   26            1S( 0.77)
      H   27            1S( 0.77)
      H   28            1S( 0.77)
      H   29            1S( 0.76)
      H   30            1S( 0.77)


 NBO analysis skipped by request.
 Leave Link  607 at Fri Oct  1 05:58:38 2021, MaxMem= 1342177280 cpu:      14.8
 (Enter /sw/target/amd/app/gaussian/Gaussian09RevA.02_gcc-4.9.2/g09/l9999.exe)
 1\1\GINC-HERMITE\SP\RTD-B3LYP-FC\6-31G(d)\C17H12O1\JSCHLEINITZ\01-Oct-
 2021\0\\#p TD(NStates=10, Root=1) b3lyp/6-31G* volume pop=NPA density=
 current Geom=AllCheck Guess=Read\\COc1ccc2c3c1ccc1c3c(cc2)ccc1_conf_0\
 \0,1\C,0,2.2677506095,-0.9975256475,0.3191073827\O,0,3.2631124633,-0.3
 227665923,-0.4327307336\C,0,3.7223771625,0.8807255352,0.0195113132\C,0
 ,3.2693974383,1.4977000478,1.1892714946\C,0,3.791234632,2.7296450085,1
 .5820282099\C,0,4.7735960228,3.3822753251,0.8281887852\C,0,5.241213417
 ,2.7566443343,-0.3695000387\C,0,4.7149797573,1.4979548936,-0.780457016
 4\C,0,5.2055314364,0.8969140834,-1.9876501145\C,0,6.1617452821,1.51200
 85665,-2.7390344713\C,0,6.7161072055,2.7801421203,-2.3575275003\C,0,6.
 2432969614,3.3982318826,-1.1596554663\C,0,6.7758963789,4.6613118403,-0
 .7533554373\C,0,6.2828232908,5.2625899434,0.4569773424\C,0,5.328063861
 3,4.6514328225,1.2099478942\C,0,7.7597319602,5.2713537453,-1.546750528
 5\C,0,8.2157396193,4.6606684631,-2.7149352402\C,0,7.7027737271,3.43058
 25989,-3.1184533947\H,0,1.3469354328,-0.4043911849,0.3931338965\H,0,2.
 6222195154,-1.2423877029,1.3289451443\H,0,2.0594001981,-1.9211382415,-
 0.2239358862\H,0,2.5098755557,1.0265781392,1.8022865982\H,0,3.4265557,
 3.1942509928,2.4949716998\H,0,4.796787218,-0.0607262614,-2.2893668244\
 H,0,6.5240789348,1.0447330475,-3.6517332516\H,0,6.6926105869,6.2232466
 776,0.759488062\H,0,4.9646842218,5.1179384334,2.1228103715\H,0,8.16609
 92253,6.2320205927,-1.2395501532\H,0,8.9783493227,5.1496986521,-3.3153
 709759\H,0,8.0628567352,2.9601965115,-4.0302563509\\Version=AM64L-G09R
 evA.02\State=1-A\HF=-730.2953721\RMSD=5.931e-09\Dipole=-0.8098247,-0.5
 932152,0.5719552\Quadrupole=-0.5165567,2.7383335,-2.2217769,8.5956694,
 -5.9861411,0.2067496\PG=C01 [X(C17H12O1)]\\@


 ON INDUCTION, OR "WHY DO YOU BELIEVE THE SUN WILL RISE TOMORROW?":

 ... THE FARMER WHO HAS FED THE CHICKEN EVERY DAY THROUGHOUT ITS
 LIFE AT LAST WRINGS ITS NECK INSTEAD, SHOWING THAT MORE REFINED VIEWS
 AS TO THE UNIFORMITY OF NATURE WOULD HAVE BEEN USEFUL TO THE CHICKEN.

                               -- BERTRAND RUSSELL
 Job cpu time:  0 days  3 hours 44 minutes 11.3 seconds.
 File lengths (MBytes):  RWF=    244 Int=      0 D2E=      0 Chk=     38 Scr=      1
 Normal termination of Gaussian 09 at Fri Oct  1 05:58:40 2021.
