 Entering Gaussian System, Link 0=g09
 Input=C17H20O3_bb26_conf_0.com
 Output=C17H20O3_bb26_conf_0.log
 Initial command:
 /sw/target/amd/app/gaussian/Gaussian09RevA.02_gcc-4.9.2/g09/l1.exe /home/jschleinitz/gaussian/Gau-133717.inp -scrdir=/home/jschleinitz/gaussian/
 Entering Link 1 = /sw/target/amd/app/gaussian/Gaussian09RevA.02_gcc-4.9.2/g09/l1.exe PID=    133719.
  
 Copyright (c) 1988,1990,1992,1993,1995,1998,2003,2009, Gaussian, Inc.
                  All Rights Reserved.
  
 This is part of the Gaussian(R) 09 program.  It is based on
 the Gaussian(R) 03 system (copyright 2003, Gaussian, Inc.),
 the Gaussian(R) 98 system (copyright 1998, Gaussian, Inc.),
 the Gaussian(R) 94 system (copyright 1995, Gaussian, Inc.),
 the Gaussian 92(TM) system (copyright 1992, Gaussian, Inc.),
 the Gaussian 90(TM) system (copyright 1990, Gaussian, Inc.),
 the Gaussian 88(TM) system (copyright 1988, Gaussian, Inc.),
 the Gaussian 86(TM) system (copyright 1986, Carnegie Mellon
 University), and the Gaussian 82(TM) system (copyright 1983,
 Carnegie Mellon University). Gaussian is a federally registered
 trademark of Gaussian, Inc.
  
 This software contains proprietary and confidential information,
 including trade secrets, belonging to Gaussian, Inc.
  
 This software is provided under written license and may be
 used, copied, transmitted, or stored only in accord with that
 written license.
  
 The following legend is applicable only to US Government
 contracts under FAR:
  
                    RESTRICTED RIGHTS LEGEND
  
 Use, reproduction and disclosure by the US Government is
 subject to restrictions as set forth in subparagraphs (a)
 and (c) of the Commercial Computer Software - Restricted
 Rights clause in FAR 52.227-19.
  
 Gaussian, Inc.
 340 Quinnipiac St., Bldg. 40, Wallingford CT 06492
  
  
 ---------------------------------------------------------------
 Warning -- This program may not be used in any manner that
 competes with the business of Gaussian, Inc. or will provide
 assistance to any competitor of Gaussian, Inc.  The licensee
 of this program is prohibited from giving any competitor of
 Gaussian, Inc. access to this program.  By using this program,
 the user acknowledges that Gaussian, Inc. is engaged in the
 business of creating and licensing software in the field of
 computational chemistry and represents and warrants to the
 licensee that it is not a competitor of Gaussian, Inc. and that
 it will not use this program in any manner prohibited above.
 ---------------------------------------------------------------
  

 Cite this work as:
 Gaussian 09, Revision A.02,
 M. J. Frisch, G. W. Trucks, H. B. Schlegel, G. E. Scuseria, 
 M. A. Robb, J. R. Cheeseman, G. Scalmani, V. Barone, B. Mennucci, 
 G. A. Petersson, H. Nakatsuji, M. Caricato, X. Li, H. P. Hratchian, 
 A. F. Izmaylov, J. Bloino, G. Zheng, J. L. Sonnenberg, M. Hada, 
 M. Ehara, K. Toyota, R. Fukuda, J. Hasegawa, M. Ishida, T. Nakajima, 
 Y. Honda, O. Kitao, H. Nakai, T. Vreven, J. A. Montgomery, Jr., 
 J. E. Peralta, F. Ogliaro, M. Bearpark, J. J. Heyd, E. Brothers, 
 K. N. Kudin, V. N. Staroverov, R. Kobayashi, J. Normand, 
 K. Raghavachari, A. Rendell, J. C. Burant, S. S. Iyengar, J. Tomasi, 
 M. Cossi, N. Rega, J. M. Millam, M. Klene, J. E. Knox, J. B. Cross, 
 V. Bakken, C. Adamo, J. Jaramillo, R. Gomperts, R. E. Stratmann, 
 O. Yazyev, A. J. Austin, R. Cammi, C. Pomelli, J. W. Ochterski, 
 R. L. Martin, K. Morokuma, V. G. Zakrzewski, G. A. Voth, 
 P. Salvador, J. J. Dannenberg, S. Dapprich, A. D. Daniels, 
 O. Farkas, J. B. Foresman, J. V. Ortiz, J. Cioslowski, 
 and D. J. Fox, Gaussian, Inc., Wallingford CT, 2009.
 
 ******************************************
 Gaussian 09:  AM64L-G09RevA.02 11-Jun-2009
                30-Sep-2021 
 ******************************************
 %nproc=6
 Will use up to    6 processors via shared memory.
 %mem=12gb
 %chk=C17H20O3_bb26_conf_0.chk
 -----------------------------------
 #p opt b3lyp/6-31G* scf=(xqc,tight)
 -----------------------------------
 1/14=-1,18=20,19=15,26=3,38=1/1,3;
 2/9=110,12=2,17=6,18=5,40=1/2;
 3/5=1,6=6,7=1,11=2,16=1,25=1,30=1,71=1,74=-5/1,2,3;
 4//1;
 5/5=2,8=3,13=1,32=2,38=5/2,8;
 6/7=2,8=2,9=2,10=2,28=1/1;
 7//1,2,3,16;
 1/14=-1,18=20,19=15/3(2);
 2/9=110/2;
 99//99;
 2/9=110/2;
 3/5=1,6=6,7=1,11=2,16=1,25=1,30=1,71=1,74=-5/1,2,3;
 4/5=5,16=3/1;
 5/5=2,8=3,13=1,32=2,38=5/2,8;
 7//1,2,3,16;
 1/14=-1,18=20,19=15/3(-5);
 2/9=110/2;
 6/7=2,8=2,9=2,10=2,19=2,28=1/1;
 99/9=1/99;
 Leave Link    1 at Thu Sep 30 19:39:41 2021, MaxMem= 1610612736 cpu:       0.1
 (Enter /sw/target/amd/app/gaussian/Gaussian09RevA.02_gcc-4.9.2/g09/l101.exe)
 -----------------------------------------------
 COc1ccc2c(c1)ccc(c2)[C@@H](C(=O)OC(C)C)C_conf_0
 -----------------------------------------------
 Symbolic Z-matrix:
 Charge =  0 Multiplicity = 1
 C                     0.94712  -0.33932   0.24869 
 O                     2.33935  -0.07371   0.11302 
 C                     3.00621   0.17677   1.28138 
 C                     2.66817  -0.35687   2.52193 
 C                     3.44227  -0.06473   3.64769 
 C                     4.56536   0.76773   3.55005 
 C                     4.91573   1.31319   2.29744 
 C                     4.13321   0.99635   1.17191 
 C                     6.03812   2.15145   2.20976 
 C                     6.80798   2.43666   3.34206 
 C                     6.47818   1.88653   4.58515 
 C                     5.35037   1.05701   4.67835 
 C                     7.32356   2.14644   5.82092 
 C                     8.75688   1.66036   5.6454 
 O                     9.75242   2.37161   5.6881 
 O                     8.77122   0.30645   5.47063 
 C                     10.06496  -0.30641   5.32692 
 C                     10.68892  -0.49079   6.70597 
 C                     9.84861  -1.65303   4.64629 
 C                     7.2836    3.61981   6.22968 
 H                     0.53526  -0.48612  -0.75439 
 H                     0.43441   0.51462   0.70439 
 H                     0.7553   -1.25818   0.81096 
 H                     1.82398  -1.02616   2.64656 
 H                     3.16385  -0.50238   4.60264 
 H                     4.3978    1.39638   0.19363 
 H                     6.32453   2.58664   1.25547 
 H                     7.67709   3.08533   3.23463 
 H                     5.08322   0.62001   5.63836 
 H                     6.92006   1.5777    6.67032 
 H                     10.71027   0.30831   4.68806 
 H                     10.01123  -1.03908   7.36972 
 H                     10.87303   0.47783   7.18235 
 H                     11.63934  -1.02807   6.64614 
 H                     9.1769   -2.28797   5.23438 
 H                     10.79488  -2.18316   4.50026 
 H                     9.37248  -1.51407   3.66942 
 H                     7.69768   4.27218   5.45319 
 H                     7.87027   3.78423   7.14068 
 H                     6.25582   3.94299   6.42826 
 
 NAtoms=     40 NQM=     40 NQMF=      0 NMic=      0 NMicF=      0 NTot=     40.
                    Isotopes and Nuclear Properties:
 (Nuclear quadrupole moments (NQMom) in fm**2, nuclear magnetic moments (NMagM)
  in nuclear magnetons)

  Atom         1           2           3           4           5           6           7           8           9          10
 IAtWgt=          12          16          12          12          12          12          12          12          12          12
 AtmWgt=  12.0000000  15.9949146  12.0000000  12.0000000  12.0000000  12.0000000  12.0000000  12.0000000  12.0000000  12.0000000
 NucSpn=           0           0           0           0           0           0           0           0           0           0
 AtZEff=   0.0000000   0.0000000   0.0000000   0.0000000   0.0000000   0.0000000   0.0000000   0.0000000   0.0000000   0.0000000
 NQMom=    0.0000000   0.0000000   0.0000000   0.0000000   0.0000000   0.0000000   0.0000000   0.0000000   0.0000000   0.0000000
 NMagM=    0.0000000   0.0000000   0.0000000   0.0000000   0.0000000   0.0000000   0.0000000   0.0000000   0.0000000   0.0000000

  Atom        11          12          13          14          15          16          17          18          19          20
 IAtWgt=          12          12          12          12          16          16          12          12          12          12
 AtmWgt=  12.0000000  12.0000000  12.0000000  12.0000000  15.9949146  15.9949146  12.0000000  12.0000000  12.0000000  12.0000000
 NucSpn=           0           0           0           0           0           0           0           0           0           0
 AtZEff=   0.0000000   0.0000000   0.0000000   0.0000000   0.0000000   0.0000000   0.0000000   0.0000000   0.0000000   0.0000000
 NQMom=    0.0000000   0.0000000   0.0000000   0.0000000   0.0000000   0.0000000   0.0000000   0.0000000   0.0000000   0.0000000
 NMagM=    0.0000000   0.0000000   0.0000000   0.0000000   0.0000000   0.0000000   0.0000000   0.0000000   0.0000000   0.0000000

  Atom        21          22          23          24          25          26          27          28          29          30
 IAtWgt=           1           1           1           1           1           1           1           1           1           1
 AtmWgt=   1.0078250   1.0078250   1.0078250   1.0078250   1.0078250   1.0078250   1.0078250   1.0078250   1.0078250   1.0078250
 NucSpn=           1           1           1           1           1           1           1           1           1           1
 AtZEff=   0.0000000   0.0000000   0.0000000   0.0000000   0.0000000   0.0000000   0.0000000   0.0000000   0.0000000   0.0000000
 NQMom=    0.0000000   0.0000000   0.0000000   0.0000000   0.0000000   0.0000000   0.0000000   0.0000000   0.0000000   0.0000000
 NMagM=    2.7928460   2.7928460   2.7928460   2.7928460   2.7928460   2.7928460   2.7928460   2.7928460   2.7928460   2.7928460

  Atom        31          32          33          34          35          36          37          38          39          40
 IAtWgt=           1           1           1           1           1           1           1           1           1           1
 AtmWgt=   1.0078250   1.0078250   1.0078250   1.0078250   1.0078250   1.0078250   1.0078250   1.0078250   1.0078250   1.0078250
 NucSpn=           1           1           1           1           1           1           1           1           1           1
 AtZEff=   0.0000000   0.0000000   0.0000000   0.0000000   0.0000000   0.0000000   0.0000000   0.0000000   0.0000000   0.0000000
 NQMom=    0.0000000   0.0000000   0.0000000   0.0000000   0.0000000   0.0000000   0.0000000   0.0000000   0.0000000   0.0000000
 NMagM=    2.7928460   2.7928460   2.7928460   2.7928460   2.7928460   2.7928460   2.7928460   2.7928460   2.7928460   2.7928460
 Leave Link  101 at Thu Sep 30 19:39:42 2021, MaxMem= 1610612736 cpu:       0.2
 (Enter /sw/target/amd/app/gaussian/Gaussian09RevA.02_gcc-4.9.2/g09/l103.exe)

 GradGradGradGradGradGradGradGradGradGradGradGradGradGradGradGradGradGrad
 Berny optimization.
 Initialization pass.
                           ----------------------------
                           !    Initial Parameters    !
                           ! (Angstroms and Degrees)  !
 --------------------------                            --------------------------
 ! Name  Definition              Value          Derivative Info.                !
 --------------------------------------------------------------------------------
 ! R1    R(1,2)                  1.4238         estimate D2E/DX2                !
 ! R2    R(1,21)                 1.0942         estimate D2E/DX2                !
 ! R3    R(1,22)                 1.0953         estimate D2E/DX2                !
 ! R4    R(1,23)                 1.0942         estimate D2E/DX2                !
 ! R5    R(2,3)                  1.3684         estimate D2E/DX2                !
 ! R6    R(3,4)                  1.3921         estimate D2E/DX2                !
 ! R7    R(3,8)                  1.3978         estimate D2E/DX2                !
 ! R8    R(4,5)                  1.3971         estimate D2E/DX2                !
 ! R9    R(4,24)                 1.0845         estimate D2E/DX2                !
 ! R10   R(5,6)                  1.4014         estimate D2E/DX2                !
 ! R11   R(5,25)                 1.0867         estimate D2E/DX2                !
 ! R12   R(6,7)                  1.4104         estimate D2E/DX2                !
 ! R13   R(6,12)                 1.4046         estimate D2E/DX2                !
 ! R14   R(7,8)                  1.407          estimate D2E/DX2                !
 ! R15   R(7,9)                  1.4036         estimate D2E/DX2                !
 ! R16   R(8,26)                 1.0895         estimate D2E/DX2                !
 ! R17   R(9,10)                 1.3986         estimate D2E/DX2                !
 ! R18   R(9,27)                 1.0872         estimate D2E/DX2                !
 ! R19   R(10,11)                1.3988         estimate D2E/DX2                !
 ! R20   R(10,28)                1.0898         estimate D2E/DX2                !
 ! R21   R(11,12)                1.4031         estimate D2E/DX2                !
 ! R22   R(11,13)                1.5197         estimate D2E/DX2                !
 ! R23   R(12,29)                1.0881         estimate D2E/DX2                !
 ! R24   R(13,14)                1.5236         estimate D2E/DX2                !
 ! R25   R(13,20)                1.5295         estimate D2E/DX2                !
 ! R26   R(13,30)                1.099          estimate D2E/DX2                !
 ! R27   R(14,15)                1.2243         estimate D2E/DX2                !
 ! R28   R(14,16)                1.3652         estimate D2E/DX2                !
 ! R29   R(16,17)                1.4387         estimate D2E/DX2                !
 ! R30   R(17,18)                1.5248         estimate D2E/DX2                !
 ! R31   R(17,19)                1.5243         estimate D2E/DX2                !
 ! R32   R(17,31)                1.0966         estimate D2E/DX2                !
 ! R33   R(18,32)                1.0957         estimate D2E/DX2                !
 ! R34   R(18,33)                1.095          estimate D2E/DX2                !
 ! R35   R(18,34)                1.0934         estimate D2E/DX2                !
 ! R36   R(19,35)                1.0955         estimate D2E/DX2                !
 ! R37   R(19,36)                1.0944         estimate D2E/DX2                !
 ! R38   R(19,37)                1.0956         estimate D2E/DX2                !
 ! R39   R(20,38)                1.0954         estimate D2E/DX2                !
 ! R40   R(20,39)                1.096          estimate D2E/DX2                !
 ! R41   R(20,40)                1.0955         estimate D2E/DX2                !
 ! A1    A(2,1,21)             107.8014         estimate D2E/DX2                !
 ! A2    A(2,1,22)             110.6045         estimate D2E/DX2                !
 ! A3    A(2,1,23)             112.1502         estimate D2E/DX2                !
 ! A4    A(21,1,22)            108.0467         estimate D2E/DX2                !
 ! A5    A(21,1,23)            107.0027         estimate D2E/DX2                !
 ! A6    A(22,1,23)            111.0292         estimate D2E/DX2                !
 ! A7    A(1,2,3)              115.4239         estimate D2E/DX2                !
 ! A8    A(2,3,4)              124.9145         estimate D2E/DX2                !
 ! A9    A(2,3,8)              115.6826         estimate D2E/DX2                !
 ! A10   A(4,3,8)              119.3618         estimate D2E/DX2                !
 ! A11   A(3,4,5)              120.2219         estimate D2E/DX2                !
 ! A12   A(3,4,24)             121.8693         estimate D2E/DX2                !
 ! A13   A(5,4,24)             117.8885         estimate D2E/DX2                !
 ! A14   A(4,5,6)              120.8047         estimate D2E/DX2                !
 ! A15   A(4,5,25)             118.8097         estimate D2E/DX2                !
 ! A16   A(6,5,25)             120.3833         estimate D2E/DX2                !
 ! A17   A(5,6,7)              119.3866         estimate D2E/DX2                !
 ! A18   A(5,6,12)             120.948          estimate D2E/DX2                !
 ! A19   A(7,6,12)             119.6636         estimate D2E/DX2                !
 ! A20   A(6,7,8)              119.0254         estimate D2E/DX2                !
 ! A21   A(6,7,9)              119.0181         estimate D2E/DX2                !
 ! A22   A(8,7,9)              121.9559         estimate D2E/DX2                !
 ! A23   A(3,8,7)              121.1867         estimate D2E/DX2                !
 ! A24   A(3,8,26)             118.7771         estimate D2E/DX2                !
 ! A25   A(7,8,26)             120.0351         estimate D2E/DX2                !
 ! A26   A(7,9,10)             120.7552         estimate D2E/DX2                !
 ! A27   A(7,9,27)             120.2998         estimate D2E/DX2                !
 ! A28   A(10,9,27)            118.9445         estimate D2E/DX2                !
 ! A29   A(9,10,11)            120.6291         estimate D2E/DX2                !
 ! A30   A(9,10,28)            118.7211         estimate D2E/DX2                !
 ! A31   A(11,10,28)           120.6452         estimate D2E/DX2                !
 ! A32   A(10,11,12)           118.7536         estimate D2E/DX2                !
 ! A33   A(10,11,13)           121.617          estimate D2E/DX2                !
 ! A34   A(12,11,13)           119.6201         estimate D2E/DX2                !
 ! A35   A(6,12,11)            121.1726         estimate D2E/DX2                !
 ! A36   A(6,12,29)            119.2611         estimate D2E/DX2                !
 ! A37   A(11,12,29)           119.5629         estimate D2E/DX2                !
 ! A38   A(11,13,14)           112.0292         estimate D2E/DX2                !
 ! A39   A(11,13,20)           111.5637         estimate D2E/DX2                !
 ! A40   A(11,13,30)           109.6185         estimate D2E/DX2                !
 ! A41   A(14,13,20)           111.2641         estimate D2E/DX2                !
 ! A42   A(14,13,30)           105.6245         estimate D2E/DX2                !
 ! A43   A(20,13,30)           106.4014         estimate D2E/DX2                !
 ! A44   A(13,14,15)           125.1427         estimate D2E/DX2                !
 ! A45   A(13,14,16)           109.9384         estimate D2E/DX2                !
 ! A46   A(15,14,16)           124.8952         estimate D2E/DX2                !
 ! A47   A(14,16,17)           116.4023         estimate D2E/DX2                !
 ! A48   A(16,17,18)           109.2154         estimate D2E/DX2                !
 ! A49   A(16,17,19)           107.0552         estimate D2E/DX2                !
 ! A50   A(16,17,31)           110.4001         estimate D2E/DX2                !
 ! A51   A(18,17,19)           110.7988         estimate D2E/DX2                !
 ! A52   A(18,17,31)           110.7247         estimate D2E/DX2                !
 ! A53   A(19,17,31)           108.5805         estimate D2E/DX2                !
 ! A54   A(17,18,32)           110.8117         estimate D2E/DX2                !
 ! A55   A(17,18,33)           110.8116         estimate D2E/DX2                !
 ! A56   A(17,18,34)           111.4451         estimate D2E/DX2                !
 ! A57   A(32,18,33)           106.4465         estimate D2E/DX2                !
 ! A58   A(32,18,34)           108.9586         estimate D2E/DX2                !
 ! A59   A(33,18,34)           108.1987         estimate D2E/DX2                !
 ! A60   A(17,19,35)           111.0605         estimate D2E/DX2                !
 ! A61   A(17,19,36)           111.3949         estimate D2E/DX2                !
 ! A62   A(17,19,37)           110.3511         estimate D2E/DX2                !
 ! A63   A(35,19,36)           108.7243         estimate D2E/DX2                !
 ! A64   A(35,19,37)           106.5998         estimate D2E/DX2                !
 ! A65   A(36,19,37)           108.5553         estimate D2E/DX2                !
 ! A66   A(13,20,38)           111.9848         estimate D2E/DX2                !
 ! A67   A(13,20,39)           110.651          estimate D2E/DX2                !
 ! A68   A(13,20,40)           110.9227         estimate D2E/DX2                !
 ! A69   A(38,20,39)           107.3087         estimate D2E/DX2                !
 ! A70   A(38,20,40)           107.9043         estimate D2E/DX2                !
 ! A71   A(39,20,40)           107.894          estimate D2E/DX2                !
 ! D1    D(21,1,2,3)           178.0659         estimate D2E/DX2                !
 ! D2    D(22,1,2,3)            60.1403         estimate D2E/DX2                !
 ! D3    D(23,1,2,3)           -64.3983         estimate D2E/DX2                !
 ! D4    D(1,2,3,4)             30.2782         estimate D2E/DX2                !
 ! D5    D(1,2,3,8)           -152.0761         estimate D2E/DX2                !
 ! D6    D(2,3,4,5)            178.1517         estimate D2E/DX2                !
 ! D7    D(2,3,4,24)            -0.1765         estimate D2E/DX2                !
 ! D8    D(8,3,4,5)              0.5862         estimate D2E/DX2                !
 ! D9    D(8,3,4,24)          -177.742          estimate D2E/DX2                !
 ! D10   D(2,3,8,7)           -179.0881         estimate D2E/DX2                !
 ! D11   D(2,3,8,26)             1.281          estimate D2E/DX2                !
 ! D12   D(4,3,8,7)             -1.3032         estimate D2E/DX2                !
 ! D13   D(4,3,8,26)           179.066          estimate D2E/DX2                !
 ! D14   D(3,4,5,6)              0.1077         estimate D2E/DX2                !
 ! D15   D(3,4,5,25)          -179.3383         estimate D2E/DX2                !
 ! D16   D(24,4,5,6)           178.5014         estimate D2E/DX2                !
 ! D17   D(24,4,5,25)           -0.9445         estimate D2E/DX2                !
 ! D18   D(4,5,6,7)             -0.102          estimate D2E/DX2                !
 ! D19   D(4,5,6,12)          -179.6168         estimate D2E/DX2                !
 ! D20   D(25,5,6,7)           179.3352         estimate D2E/DX2                !
 ! D21   D(25,5,6,12)           -0.1795         estimate D2E/DX2                !
 ! D22   D(5,6,7,8)             -0.5901         estimate D2E/DX2                !
 ! D23   D(5,6,7,9)            179.6789         estimate D2E/DX2                !
 ! D24   D(12,6,7,8)           178.931          estimate D2E/DX2                !
 ! D25   D(12,6,7,9)            -0.8            estimate D2E/DX2                !
 ! D26   D(5,6,12,11)          179.8003         estimate D2E/DX2                !
 ! D27   D(5,6,12,29)            0.4773         estimate D2E/DX2                !
 ! D28   D(7,6,12,11)            0.2869         estimate D2E/DX2                !
 ! D29   D(7,6,12,29)         -179.0362         estimate D2E/DX2                !
 ! D30   D(6,7,8,3)              1.3037         estimate D2E/DX2                !
 ! D31   D(6,7,8,26)          -179.0701         estimate D2E/DX2                !
 ! D32   D(9,7,8,3)           -178.9736         estimate D2E/DX2                !
 ! D33   D(9,7,8,26)             0.6527         estimate D2E/DX2                !
 ! D34   D(6,7,9,10)             0.5137         estimate D2E/DX2                !
 ! D35   D(6,7,9,27)          -179.7365         estimate D2E/DX2                !
 ! D36   D(8,7,9,10)          -179.2091         estimate D2E/DX2                !
 ! D37   D(8,7,9,27)             0.5407         estimate D2E/DX2                !
 ! D38   D(7,9,10,11)            0.3023         estimate D2E/DX2                !
 ! D39   D(7,9,10,28)          179.5231         estimate D2E/DX2                !
 ! D40   D(27,9,10,11)        -179.4508         estimate D2E/DX2                !
 ! D41   D(27,9,10,28)          -0.23           estimate D2E/DX2                !
 ! D42   D(9,10,11,12)          -0.8151         estimate D2E/DX2                !
 ! D43   D(9,10,11,13)         178.0694         estimate D2E/DX2                !
 ! D44   D(28,10,11,12)        179.9792         estimate D2E/DX2                !
 ! D45   D(28,10,11,13)         -1.1363         estimate D2E/DX2                !
 ! D46   D(10,11,12,6)           0.5215         estimate D2E/DX2                !
 ! D47   D(10,11,12,29)        179.8425         estimate D2E/DX2                !
 ! D48   D(13,11,12,6)        -178.3858         estimate D2E/DX2                !
 ! D49   D(13,11,12,29)          0.9353         estimate D2E/DX2                !
 ! D50   D(10,11,13,14)        -59.9466         estimate D2E/DX2                !
 ! D51   D(10,11,13,20)         65.5446         estimate D2E/DX2                !
 ! D52   D(10,11,13,30)       -176.8621         estimate D2E/DX2                !
 ! D53   D(12,11,13,14)        118.9284         estimate D2E/DX2                !
 ! D54   D(12,11,13,20)       -115.5804         estimate D2E/DX2                !
 ! D55   D(12,11,13,30)          2.013          estimate D2E/DX2                !
 ! D56   D(11,13,14,15)        118.7154         estimate D2E/DX2                !
 ! D57   D(11,13,14,16)        -62.9885         estimate D2E/DX2                !
 ! D58   D(20,13,14,15)         -6.9401         estimate D2E/DX2                !
 ! D59   D(20,13,14,16)        171.3561         estimate D2E/DX2                !
 ! D60   D(30,13,14,15)       -121.993          estimate D2E/DX2                !
 ! D61   D(30,13,14,16)         56.3032         estimate D2E/DX2                !
 ! D62   D(11,13,20,38)        -62.2245         estimate D2E/DX2                !
 ! D63   D(11,13,20,39)        178.103          estimate D2E/DX2                !
 ! D64   D(11,13,20,40)         58.392          estimate D2E/DX2                !
 ! D65   D(14,13,20,38)         63.6892         estimate D2E/DX2                !
 ! D66   D(14,13,20,39)        -55.9832         estimate D2E/DX2                !
 ! D67   D(14,13,20,40)       -175.6943         estimate D2E/DX2                !
 ! D68   D(30,13,20,38)        178.2598         estimate D2E/DX2                !
 ! D69   D(30,13,20,39)         58.5874         estimate D2E/DX2                !
 ! D70   D(30,13,20,40)        -61.1237         estimate D2E/DX2                !
 ! D71   D(13,14,16,17)       -178.3712         estimate D2E/DX2                !
 ! D72   D(15,14,16,17)         -0.0699         estimate D2E/DX2                !
 ! D73   D(14,16,17,18)         80.6156         estimate D2E/DX2                !
 ! D74   D(14,16,17,19)       -159.3671         estimate D2E/DX2                !
 ! D75   D(14,16,17,31)        -41.3529         estimate D2E/DX2                !
 ! D76   D(16,17,18,32)         53.8683         estimate D2E/DX2                !
 ! D77   D(16,17,18,33)        -64.0684         estimate D2E/DX2                !
 ! D78   D(16,17,18,34)        175.3831         estimate D2E/DX2                !
 ! D79   D(19,17,18,32)        -63.8185         estimate D2E/DX2                !
 ! D80   D(19,17,18,33)        178.2448         estimate D2E/DX2                !
 ! D81   D(19,17,18,34)         57.6963         estimate D2E/DX2                !
 ! D82   D(31,17,18,32)        175.641          estimate D2E/DX2                !
 ! D83   D(31,17,18,33)         57.7043         estimate D2E/DX2                !
 ! D84   D(31,17,18,34)        -62.8442         estimate D2E/DX2                !
 ! D85   D(16,17,19,35)        -58.7016         estimate D2E/DX2                !
 ! D86   D(16,17,19,36)        179.9445         estimate D2E/DX2                !
 ! D87   D(16,17,19,37)         59.2905         estimate D2E/DX2                !
 ! D88   D(18,17,19,35)         60.2969         estimate D2E/DX2                !
 ! D89   D(18,17,19,36)        -61.057          estimate D2E/DX2                !
 ! D90   D(18,17,19,37)        178.289          estimate D2E/DX2                !
 ! D91   D(31,17,19,35)       -177.8968         estimate D2E/DX2                !
 ! D92   D(31,17,19,36)         60.7493         estimate D2E/DX2                !
 ! D93   D(31,17,19,37)        -59.9047         estimate D2E/DX2                !
 --------------------------------------------------------------------------------
 Trust Radius=3.00D-01 FncErr=1.00D-07 GrdErr=1.00D-06
 Number of steps in this run= 215 maximum allowed number of steps= 240.
 GradGradGradGradGradGradGradGradGradGradGradGradGradGradGradGradGradGrad

 Leave Link  103 at Thu Sep 30 19:39:42 2021, MaxMem= 1610612736 cpu:       0.0
 (Enter /sw/target/amd/app/gaussian/Gaussian09RevA.02_gcc-4.9.2/g09/l202.exe)
                          Input orientation:                          
 ---------------------------------------------------------------------
 Center     Atomic      Atomic             Coordinates (Angstroms)
 Number     Number       Type             X           Y           Z
 ---------------------------------------------------------------------
      1          6           0        0.947122   -0.339318    0.248691
      2          8           0        2.339350   -0.073713    0.113024
      3          6           0        3.006208    0.176767    1.281375
      4          6           0        2.668169   -0.356872    2.521935
      5          6           0        3.442271   -0.064731    3.647692
      6          6           0        4.565358    0.767727    3.550045
      7          6           0        4.915731    1.313192    2.297438
      8          6           0        4.133205    0.996346    1.171912
      9          6           0        6.038124    2.151449    2.209757
     10          6           0        6.807984    2.436658    3.342056
     11          6           0        6.478179    1.886531    4.585151
     12          6           0        5.350365    1.057014    4.678348
     13          6           0        7.323560    2.146438    5.820921
     14          6           0        8.756883    1.660358    5.645399
     15          8           0        9.752424    2.371609    5.688103
     16          8           0        8.771224    0.306452    5.470632
     17          6           0       10.064958   -0.306407    5.326916
     18          6           0       10.688916   -0.490785    6.705972
     19          6           0        9.848612   -1.653025    4.646294
     20          6           0        7.283604    3.619809    6.229677
     21          1           0        0.535263   -0.486117   -0.754393
     22          1           0        0.434409    0.514616    0.704395
     23          1           0        0.755302   -1.258177    0.810956
     24          1           0        1.823982   -1.026157    2.646558
     25          1           0        3.163848   -0.502377    4.602643
     26          1           0        4.397805    1.396381    0.193627
     27          1           0        6.324532    2.586636    1.255470
     28          1           0        7.677089    3.085329    3.234627
     29          1           0        5.083225    0.620010    5.638358
     30          1           0        6.920060    1.577701    6.670324
     31          1           0       10.710269    0.308314    4.688064
     32          1           0       10.011227   -1.039084    7.369720
     33          1           0       10.873034    0.477825    7.182346
     34          1           0       11.639339   -1.028069    6.646139
     35          1           0        9.176897   -2.287975    5.234384
     36          1           0       10.794878   -2.183157    4.500261
     37          1           0        9.372479   -1.514069    3.669422
     38          1           0        7.697680    4.272185    5.453186
     39          1           0        7.870273    3.784234    7.140682
     40          1           0        6.255819    3.942987    6.428263
 ---------------------------------------------------------------------
                    Distance matrix (angstroms):
                    1          2          3          4          5
     1  C    0.000000
     2  O    1.423816   0.000000
     3  C    2.360639   1.368387   0.000000
     4  C    2.851307   2.447683   1.392131   0.000000
     5  C    4.225444   3.702755   2.418249   1.397108   0.000000
     6  C    5.021566   4.180460   2.815501   2.433323   1.401373
     7  C    4.762144   3.651425   2.443383   2.809101   2.427539
     8  C    3.575956   2.341834   1.397789   2.408337   2.780784
     9  C    5.997333   4.798809   3.735475   4.212568   3.703724
    10  C    7.185030   6.057830   4.879243   5.061075   4.204567
    11  C    7.372373   6.400967   5.088497   4.879128   3.728671
    12  C    6.400012   5.584526   4.220110   3.720667   2.441595
    13  C    8.825400   7.896297   6.567085   6.230773   4.967554
    14  C    9.701316   8.648636   7.369940   7.134261   5.933959
    15  O   10.699050   9.592433   8.351527   8.225320   7.065201
    16  O    9.428799   8.379587   7.127559   6.810440   5.644345
    17  C   10.436685   9.323295   8.150203   7.910938   6.836533
    18  C   11.688540  10.646885   9.428461   9.047457   7.877085
    19  C   10.015052   8.912563   7.841512   7.599452   6.675410
    20  C    9.570678   8.689142   7.391640   7.131871   5.915938
    21  H    1.094237   2.043825   3.269455   3.911562   5.292128
    22  H    1.095328   2.079580   2.657291   3.008758   4.248044
    23  H    1.094184   2.097444   2.710523   2.720084   4.085485
    24  H    2.643936   2.755276   2.169887   1.084494   2.132011
    25  H    4.888493   4.584782   3.393657   2.143879   1.086731
    26  H    3.863016   2.530792   2.146437   3.389181   3.870202
    27  H    6.204139   4.925882   4.101147   4.861806   4.589106
    28  H    8.120128   6.943732   5.838840   6.119310   5.294071
    29  H    6.861207   6.208012   4.847036   4.061882   2.669148
    30  H    8.977100   8.167512   6.805999   6.247422   4.891718
    31  H   10.744603   9.547209   8.424689   8.355235   7.351553
    32  H   11.548018  10.604210   9.360370   8.825357   7.612755
    33  H   12.135363  11.095191   9.838651   9.472907   8.246477
    34  H   12.478991  11.405357  10.235393   9.896537   8.781266
    35  H    9.817515   8.825153   7.731665   7.310956   6.351877
    36  H   10.883652   9.756718   8.751791   8.561103   7.699054
    37  H    9.168865   8.011709   7.006504   6.899536   6.104786
    38  H    9.691376   8.724440   7.495756   7.437498   6.338545
    39  H   10.603455   9.739756   8.426412   8.095892   6.828083
    40  H    9.203669   8.447180   7.157851   6.827842   5.631113
                    6          7          8          9         10
     6  C    0.000000
     7  C    1.410432   0.000000
     8  C    2.427867   1.406963   0.000000
     9  C    2.424892   1.403613   2.457662   0.000000
    10  C    2.803206   2.435986   3.733426   1.398618   0.000000
    11  C    2.445823   2.829062   4.235744   2.430294   1.398820
    12  C    1.404632   2.433777   3.712176   2.786529   2.411171
    13  C    3.829542   4.348203   5.754507   3.833129   2.548492
    14  C    4.770344   5.107232   6.467719   4.408680   3.115483
    15  O    5.835185   6.000871   7.339138   5.093465   3.765354
    16  O    4.646583   5.093870   6.361302   4.637581   3.594847
    17  C    5.878489   6.189942   7.358459   5.654479   4.698080
    18  C    7.002977   7.484596   8.707165   6.987648   5.911640
    19  C    5.913931   6.216823   7.194191   5.910208   5.260415
    20  C    4.764835   5.137101   6.510649   4.457248   3.156646
    21  H    6.028431   5.633798   4.342066   6.784130   8.041800
    22  H    5.022602   4.822630   3.759219   6.028844   7.160584
    23  H    5.111108   5.111823   4.077179   6.441304   7.529491
    24  H    3.398449   3.892731   3.405526   5.295939   6.108608
    25  H    2.164569   3.417508   3.867265   4.585866   4.848375
    26  H    3.418892   2.168222   1.089534   2.706577   4.099238
    27  H    3.415874   2.166119   2.708859   1.087234   2.147105
    28  H    3.892767   3.412315   4.601930   2.146787   1.089797
    29  H    2.156630   3.416182   4.581844   3.874590   3.398235
    30  H    3.992094   4.817617   6.191693   4.582975   3.439147
    31  H    6.266264   6.348349   7.489624   5.600722   4.644288
    32  H    6.892892   7.564742   8.781055   7.251915   6.209961
    33  H    7.284533   7.749169   9.045412   7.134705   5.925326
    34  H    7.927918   8.342638   9.508284   7.820769   6.801712
    35  H    5.782785   6.304886   7.261492   6.221636   5.613806
    36  H    6.958271   7.186185   8.097224   6.830954   6.211236
    37  H    5.322523   5.453287   6.323743   5.165710   4.721445
    38  H    5.070957   5.143309   6.462655   4.215623   2.935572
    39  H    5.737112   6.188084   7.573916   5.507883   4.168210
    40  H    4.606959   5.076946   6.388850   4.588333   3.478302
                   11         12         13         14         15
    11  C    0.000000
    12  C    1.403121   0.000000
    13  C    1.519654   2.527017   0.000000
    14  C    2.523445   3.592155   1.523646   0.000000
    15  O    3.488909   4.703817   2.442892   1.224256   0.000000
    16  O    2.922119   3.590729   2.367273   1.365215   2.296720
    17  C    4.268979   4.950449   3.711570   2.383413   2.720277
    18  C    5.280134   5.916677   4.366220   3.079770   3.179053
    19  C    4.887946   5.251625   4.710791   3.628855   4.158401
    20  C    2.521394   3.565382   1.529543   2.520194   2.818932
    21  H    8.334173   7.421666   9.810508  10.637656  11.602948
    22  H    7.312289   6.344535   8.735106   9.746272  10.728988
    23  H    7.542218   6.436725   8.934940   9.793619  10.858642
    24  H    5.822666   4.571996   7.098401   8.017203   9.146366
    25  H    4.085581   2.686687   5.079727   6.086609   7.269619
    26  H    4.884024   4.597311   6.386632   6.985204   7.733841
    27  H    3.405955   3.873608   4.694163   5.103508   5.607577
    28  H    2.167584   3.407644   2.774061   3.001386   3.291801
    29  H    2.158521   1.088097   2.717060   3.818133   4.987183
    30  H    2.153736   2.589020   1.098981   2.105048   3.101183
    31  H    4.517958   5.411951   4.016448   2.561294   2.484900
    32  H    5.366141   5.775876   4.446333   3.440007   3.811514
    33  H    5.295718   6.091415   4.151688   2.870311   2.659877
    34  H    6.275360   6.911654   5.420740   4.066654   4.004509
    35  H    5.013091   5.112775   4.841786   3.991826   4.716865
    36  H    5.933250   6.338229   5.704347   4.498597   4.821159
    37  H    4.558465   4.879118   4.714480   3.789515   4.395216
    38  H    2.816383   4.055562   2.189520   2.824977   2.808799
    39  H    3.474182   4.455419   2.173256   2.744594   2.765499
    40  H    2.770473   3.494409   2.176356   3.475427   3.904268
                   16         17         18         19         20
    16  O    0.000000
    17  C    1.438749   0.000000
    18  C    2.416443   1.524833   0.000000
    19  C    2.383243   1.524280   2.509818   0.000000
    20  C    3.710458   4.895517   5.359103   6.073644   0.000000
    21  H   10.354233  11.306180  12.599752  10.829015  10.544001
    22  H    9.605354  10.713975  11.924121  10.433813   9.331797
    23  H    9.402959  10.390835  11.576562   9.876943   9.786521
    24  H    7.616785   8.695749   9.764862   8.293769   8.014438
    25  H    5.731516   6.941779   7.813499   6.783212   6.050789
    26  H    6.939850   7.833695   9.249331   7.670491   7.050204
    27  H    5.380811   6.239965   7.630619   6.472369   5.170106
    28  H    3.730818   4.645801   5.823223   5.400029   3.067707
    29  H    3.705103   5.076703   5.813557   5.372132   3.766977
    30  H    2.546006   3.904484   4.299323   4.807360   2.120504
    31  H    2.091007   1.096558   2.170477   2.142673   5.008453
    32  H    2.637159   2.170887   1.095652   2.796500   5.517690
    33  H    2.716053   2.170398   1.095006   3.467207   4.864530
    34  H    3.374737   2.177113   1.093416   2.756202   6.383466
    35  H    2.636557   2.173436   2.771581   1.095542   6.283078
    36  H    3.351857   2.176771   2.782178   1.094433   6.999596
    37  H    2.630619   2.164546   3.464210   1.095578   6.105326
    38  H    4.108508   5.155915   5.762192   6.354975   1.095441
    39  H    3.961786   4.983948   5.139018   6.300761   1.095968
    40  H    4.524236   5.812044   6.275970   6.884688   1.095546
                   21         22         23         24         25
    21  H    0.000000
    22  H    1.771919   0.000000
    23  H    1.759208   1.804750   0.000000
    24  H    3.676806   2.841987   2.136666   0.000000
    25  H    5.967207   4.866257   4.555131   2.428139   0.000000
    26  H    4.400201   4.092297   4.549241   4.302339   4.956547
    27  H    6.855435   6.268213   6.782071   5.936526   5.543960
    28  H    8.925984   8.091172   8.523577   7.176978   5.925576
    29  H    7.923051   6.779866   6.749985   4.720529   2.452848
    30  H   10.007567   8.876155   8.965413   6.995769   4.765622
    31  H   11.566425  11.022952  10.797556   9.214915   7.590321
    32  H   12.494034  11.770980  11.346256   9.451953   7.404820
    33  H   13.068685  12.285361  12.082086  10.233313   8.188236
    34  H   13.355227  12.776332  12.351703  10.598957   8.734195
    35  H   10.667239  10.237500   9.568200   7.896479   6.304301
    36  H   11.651225  11.358956  10.735904   9.233192   7.814609
    37  H    9.935955   9.633070   9.082513   7.633093   6.359364
    38  H   10.605455   9.456503  10.016576   8.393445   6.638938
    39  H   11.591828  10.363796  10.775628   8.938381   6.853256
    40  H   10.194718   8.854672   9.426661   7.657341   5.714406
                   26         27         28         29         30
    26  H    0.000000
    27  H    2.501299   0.000000
    28  H    4.780579   2.448503   0.000000
    29  H    5.542350   4.961669   4.310899   0.000000
    30  H    6.952859   5.540148   3.827538   2.314323   0.000000
    31  H    7.825028   6.017320   4.361704   5.715228   4.461656
    32  H    9.430711   8.007597   6.289512   5.480458   4.109992
    33  H    9.571548   7.762977   5.709433   5.993831   4.134961
    34  H    9.997634   8.388836   6.652659   6.834795   5.390939
    35  H    7.862788   6.908659   5.926284   5.037631   4.700924
    36  H    8.501925   7.298191   6.251350   6.463435   5.819574
    37  H    6.730472   5.650922   4.921163   5.179643   4.957702
    38  H    6.842689   4.727307   2.516159   4.495336   3.057182
    39  H    8.125359   6.201554   3.972789   4.476263   2.448046
    40  H    6.986280   5.348102   3.599291   3.611247   2.468681
                   31         32         33         34         35
    31  H    0.000000
    32  H    3.081463   0.000000
    33  H    2.505328   1.754660   0.000000
    34  H    2.546203   1.781695   1.772699   0.000000
    35  H    3.064378   2.610650   3.784321   3.105484   0.000000
    36  H    2.499972   3.186975   3.778957   2.579173   1.779828
    37  H    2.479595   3.784946   4.308125   3.773022   1.756784
    38  H    5.037199   6.102063   5.241187   6.712117   6.728421
    39  H    5.114971   5.282096   4.466615   6.132593   6.497150
    40  H    6.006768   6.309553   5.821912   7.330836   6.984478
                   36         37         38         39         40
    36  H    0.000000
    37  H    1.777974   0.000000
    38  H    7.223029   6.282316   0.000000
    39  H    7.150867   6.509860   1.765085   0.000000
    40  H    7.864470   6.863252   1.771470   1.771780   0.000000
 Stoichiometry    C17H20O3
 Framework group  C1[X(C17H20O3)]
 Deg. of freedom   114
 Full point group                 C1      NOp   1
 Largest Abelian subgroup         C1      NOp   1
 Largest concise Abelian subgroup C1      NOp   1
                         Standard orientation:                         
 ---------------------------------------------------------------------
 Center     Atomic      Atomic             Coordinates (Angstroms)
 Number     Number       Type             X           Y           Z
 ---------------------------------------------------------------------
      1          6           0        6.459403    0.672809    0.174236
      2          8           0        5.358251    0.761394   -0.724023
      3          6           0        4.140732    0.428526   -0.195505
      4          6           0        3.776535    0.600883    1.137042
      5          6           0        2.490352    0.261386    1.564108
      6          6           0        1.549306   -0.257951    0.664905
      7          6           0        1.909026   -0.436270   -0.687176
      8          6           0        3.203925   -0.075204   -1.102403
      9          6           0        0.962621   -0.963368   -1.579709
     10          6           0       -0.323132   -1.298590   -1.143136
     11          6           0       -0.694333   -1.109220    0.192172
     12          6           0        0.252875   -0.592814    1.089316
     13          6           0       -2.098030   -1.425030    0.681300
     14          6           0       -3.155064   -0.603502   -0.046208
     15          8           0       -4.058601   -1.065521   -0.731016
     16          8           0       -2.969191    0.724773    0.208641
     17          6           0       -3.918376    1.628921   -0.384285
     18          6           0       -5.184051    1.656181    0.465679
     19          6           0       -3.262219    3.004218   -0.422319
     20          6           0       -2.400743   -2.921704    0.592793
     21          1           0        7.366165    0.929758   -0.381744
     22          1           0        6.569720   -0.350454    0.549079
     23          1           0        6.377052    1.386534    0.999496
     24          1           0        4.458868    1.021986    1.867261
     25          1           0        2.227134    0.415535    2.607151
     26          1           0        3.494319   -0.191785   -2.146033
     27          1           0        1.219025   -1.113520   -2.625553
     28          1           0       -1.034108   -1.698069   -1.866039
     29          1           0       -0.022553   -0.437798    2.130500
     30          1           0       -2.189301   -1.152163    1.741947
     31          1           0       -4.147591    1.322607   -1.411939
     32          1           0       -4.946662    1.886795    1.510149
     33          1           0       -5.672407    0.676108    0.467860
     34          1           0       -5.900096    2.393681    0.092945
     35          1           0       -2.981540    3.334467    0.583846
     36          1           0       -3.927760    3.752009   -0.864640
     37          1           0       -2.337931    2.969286   -1.009484
     38          1           0       -2.364763   -3.287044   -0.439304
     39          1           0       -3.403163   -3.136869    0.980097
     40          1           0       -1.681031   -3.501859    1.180719
 ---------------------------------------------------------------------
 Rotational constants (GHZ):      0.7175799      0.1461091      0.1349572
 Leave Link  202 at Thu Sep 30 19:39:42 2021, MaxMem= 1610612736 cpu:       0.1
 (Enter /sw/target/amd/app/gaussian/Gaussian09RevA.02_gcc-4.9.2/g09/l301.exe)
 Standard basis: 6-31G(d) (6D, 7F)
 Ernie: Thresh=  0.10000D-02 Tol=  0.10000D-05 Strict=F.
 There are   340 symmetry adapted basis functions of A   symmetry.
 Integral buffers will be    131072 words long.
 Raffenetti 2 integral format.
 Two-electron integral symmetry is turned on.
   340 basis functions,   640 primitive gaussians,   340 cartesian basis functions
    73 alpha electrons       73 beta electrons
       nuclear repulsion energy      1491.1839072596 Hartrees.
 IExCor=  402 DFT=T Ex+Corr=B3LYP ExCW=0 ScaHFX=  0.200000
 ScaDFX=  0.800000  0.720000  1.000000  0.810000 ScalE2=  1.000000  1.000000
 IRadAn=      0 IRanWt=     -1 IRanGd=            0 ICorTp=0
 NAtoms=   40 NActive=   40 NUniq=   40 SFac= 7.50D-01 NAtFMM=   80 NAOKFM=F Big=F
 Leave Link  301 at Thu Sep 30 19:39:43 2021, MaxMem= 1610612736 cpu:       0.1
 (Enter /sw/target/amd/app/gaussian/Gaussian09RevA.02_gcc-4.9.2/g09/l302.exe)
 NPDir=0 NMtPBC=     1 NCelOv=     1 NCel=       1 NClECP=     1 NCelD=      1
         NCelK=      1 NCelE2=     1 NClLst=     1 CellRange=     0.0.
 One-electron integrals computed using PRISM.
 NBasis=   340 RedAO= T  NBF=   340
 NBsUse=   340 1.00D-06 NBFU=   340
 Precomputing XC quadrature grid using
 IXCGrd= 2 IRadAn=           0 IRanWt=          -1 IRanGd=           0 AccXCQ= 1.00D-10.
 NRdTot=    2559 NPtTot=      326616 NUsed=      345062 NTot=      345094
 NSgBfM=   335   335   335   335   335 NAtAll=    40    40.
 Leave Link  302 at Thu Sep 30 19:39:49 2021, MaxMem= 1610612736 cpu:       4.2
 (Enter /sw/target/amd/app/gaussian/Gaussian09RevA.02_gcc-4.9.2/g09/l303.exe)
 DipDrv:  MaxL=1.
 Leave Link  303 at Thu Sep 30 19:39:50 2021, MaxMem= 1610612736 cpu:       0.3
 (Enter /sw/target/amd/app/gaussian/Gaussian09RevA.02_gcc-4.9.2/g09/l401.exe)
 Harris functional with IExCor=  402 diagonalized for initial guess.
 ExpMin= 1.61D-01 ExpMax= 5.48D+03 ExpMxC= 8.25D+02 IAcc=1 IRadAn=         1 AccDes= 0.00D+00
 HarFok:  IExCor=  402 AccDes= 0.00D+00 IRadAn=         1 IDoV= 1
 ScaDFX=  1.000000  1.000000  1.000000  1.000000
 FoFCou: FMM=F IPFlag=           0 FMFlag=      100000 FMFlg1=           0
         NFxFlg=           0 DoJE=T BraDBF=F KetDBF=T FulRan=T
         Omega=  0.000000  0.000000  1.000000  0.000000  0.000000 ICntrl=     500 IOpCl=  0
         NMat0=    1 NMatS0=    1 NMatT0=    0 NMatD0=    1 NMtDS0=    0 NMtDT0=    0
         I1Cent=           4 NGrid=           0.
 Petite list used in FoFCou.
 Harris En= -885.672566048922    
 Initial guess orbital symmetries:
       Occupied  (A) (A) (A) (A) (A) (A) (A) (A) (A) (A) (A) (A)
                 (A) (A) (A) (A) (A) (A) (A) (A) (A) (A) (A) (A)
                 (A) (A) (A) (A) (A) (A) (A) (A) (A) (A) (A) (A)
                 (A) (A) (A) (A) (A) (A) (A) (A) (A) (A) (A) (A)
                 (A) (A) (A) (A) (A) (A) (A) (A) (A) (A) (A) (A)
                 (A) (A) (A) (A) (A) (A) (A) (A) (A) (A) (A) (A)
                 (A)
       Virtual   (A) (A) (A) (A) (A) (A) (A) (A) (A) (A) (A) (A)
                 (A) (A) (A) (A) (A) (A) (A) (A) (A) (A) (A) (A)
                 (A) (A) (A) (A) (A) (A) (A) (A) (A) (A) (A) (A)
                 (A) (A) (A) (A) (A) (A) (A) (A) (A) (A) (A) (A)
                 (A) (A) (A) (A) (A) (A) (A) (A) (A) (A) (A) (A)
                 (A) (A) (A) (A) (A) (A) (A) (A) (A) (A) (A) (A)
                 (A) (A) (A) (A) (A) (A) (A) (A) (A) (A) (A) (A)
                 (A) (A) (A) (A) (A) (A) (A) (A) (A) (A) (A) (A)
                 (A) (A) (A) (A) (A) (A) (A) (A) (A) (A) (A) (A)
                 (A) (A) (A) (A) (A) (A) (A) (A) (A) (A) (A) (A)
                 (A) (A) (A) (A) (A) (A) (A) (A) (A) (A) (A) (A)
                 (A) (A) (A) (A) (A) (A) (A) (A) (A) (A) (A) (A)
                 (A) (A) (A) (A) (A) (A) (A) (A) (A) (A) (A) (A)
                 (A) (A) (A) (A) (A) (A) (A) (A) (A) (A) (A) (A)
                 (A) (A) (A) (A) (A) (A) (A) (A) (A) (A) (A) (A)
                 (A) (A) (A) (A) (A) (A) (A) (A) (A) (A) (A) (A)
                 (A) (A) (A) (A) (A) (A) (A) (A) (A) (A) (A) (A)
                 (A) (A) (A) (A) (A) (A) (A) (A) (A) (A) (A) (A)
                 (A) (A) (A) (A) (A) (A) (A) (A) (A) (A) (A) (A)
                 (A) (A) (A) (A) (A) (A) (A) (A) (A) (A) (A) (A)
                 (A) (A) (A) (A) (A) (A) (A) (A) (A) (A) (A) (A)
                 (A) (A) (A) (A) (A) (A) (A) (A) (A) (A) (A) (A)
                 (A) (A) (A)
 The electronic state of the initial guess is 1-A.
 Leave Link  401 at Thu Sep 30 19:40:04 2021, MaxMem= 1610612736 cpu:      17.6
 (Enter /sw/target/amd/app/gaussian/Gaussian09RevA.02_gcc-4.9.2/g09/l502.exe)
 Closed shell SCF:
 Requested convergence on RMS density matrix=1.00D-08 within  64 cycles.
 Requested convergence on MAX density matrix=1.00D-06.
 Requested convergence on             energy=1.00D-06.
 No special actions if energy rises.
 Using DIIS extrapolation, IDIIS=  1040.
 Integral symmetry usage will be decided dynamically.
       344689 words used for storage of precomputed grid.
 IEnd=      701647 IEndB=      701647 NGot=  1610612736 MDV=  1610031254
 LenX=  1610031254 LenY=  1609915213
 Fock matrices will be formed incrementally for  20 cycles.
 Integral accuracy reduced to 1.0D-05 until final iterations.

 Cycle   1  Pass 0  IDiag  1:
 FoFCou: FMM=F IPFlag=           0 FMFlag=      100000 FMFlg1=           0
         NFxFlg=           0 DoJE=F BraDBF=F KetDBF=F FulRan=T
         Omega=  0.000000  0.000000  1.000000  0.000000  0.000000 ICntrl=       0 IOpCl=  0
         NMat0=    1 NMatS0=    1 NMatT0=    0 NMatD0=    1 NMtDS0=    0 NMtDT0=    0
         I1Cent=           0 NGrid=           0.
 Symmetry not used in FoFCou.
 E= -885.009103254836    
 DIIS: error= 3.00D-02 at cycle   1 NSaved=   1.
 NSaved= 1 IEnMin= 1 EnMin= -885.009103254836     IErMin= 1 ErrMin= 3.00D-02
 ErrMax= 3.00D-02 EMaxC= 1.00D-01 BMatC= 5.32D-01 BMatP= 5.32D-01
 IDIUse=3 WtCom= 7.00D-01 WtEn= 3.00D-01
 Coeff-Com:  0.100D+01
 Coeff-En:   0.100D+01
 Coeff:      0.100D+01
 Gap=     0.167 Goal=   None    Shift=    0.000
 GapD=    0.167 DampG=1.000 DampE=0.500 DampFc=0.5000 IDamp=-1.
 Damping current iteration by 5.00D-01
 RMSDP=4.78D-03 MaxDP=1.83D-01              OVMax= 1.77D-01

 Cycle   2  Pass 0  IDiag  1:
 RMSU=  1.65D-03    CP:  9.74D-01
 E= -885.225318687803     Delta-E=       -0.216215432967 Rises=F Damp=T
 DIIS: error= 8.60D-03 at cycle   2 NSaved=   2.
 NSaved= 2 IEnMin= 2 EnMin= -885.225318687803     IErMin= 2 ErrMin= 8.60D-03
 ErrMax= 8.60D-03 EMaxC= 1.00D-01 BMatC= 5.15D-02 BMatP= 5.32D-01
 IDIUse=3 WtCom= 9.14D-01 WtEn= 8.60D-02
 Coeff-Com:  0.127D+00 0.873D+00
 Coeff-En:   0.180D+00 0.820D+00
 Coeff:      0.132D+00 0.868D+00
 Gap=     0.160 Goal=   None    Shift=    0.000
 RMSDP=1.55D-03 MaxDP=6.91D-02 DE=-2.16D-01 OVMax= 1.47D-01

 Cycle   3  Pass 0  IDiag  1:
 RMSU=  1.08D-03    CP:  9.58D-01  9.51D-01
 E= -885.483818192823     Delta-E=       -0.258499505020 Rises=F Damp=F
 DIIS: error= 1.53D-02 at cycle   3 NSaved=   3.
 NSaved= 3 IEnMin= 3 EnMin= -885.483818192823     IErMin= 2 ErrMin= 8.60D-03
 ErrMax= 1.53D-02 EMaxC= 1.00D-01 BMatC= 7.51D-02 BMatP= 5.15D-02
 IDIUse=2 WtCom= 0.00D+00 WtEn= 1.00D+00
 Coeff-En:   0.000D+00 0.000D+00 0.100D+01
 Coeff:      0.000D+00 0.000D+00 0.100D+01
 Gap=     0.157 Goal=   None    Shift=    0.000
 RMSDP=2.29D-03 MaxDP=1.60D-01 DE=-2.58D-01 OVMax= 3.25D-01

 Cycle   4  Pass 0  IDiag  1:
 RMSU=  1.07D-03    CP:  9.65D-01  1.14D+00 -8.66D-02
 E= -885.172199840006     Delta-E=        0.311618352817 Rises=F Damp=F
 DIIS: error= 4.25D-02 at cycle   4 NSaved=   4.
 NSaved= 4 IEnMin= 3 EnMin= -885.483818192823     IErMin= 2 ErrMin= 8.60D-03
 ErrMax= 4.25D-02 EMaxC= 1.00D-01 BMatC= 4.72D-01 BMatP= 5.15D-02
 IDIUse=2 WtCom= 0.00D+00 WtEn= 1.00D+00
 Coeff-En:   0.000D+00 0.000D+00 0.804D+00 0.196D+00
 Coeff:      0.000D+00 0.000D+00 0.804D+00 0.196D+00
 Gap=     0.194 Goal=   None    Shift=    0.000
 RMSDP=1.22D-03 MaxDP=8.03D-02 DE= 3.12D-01 OVMax= 1.58D-01

 Cycle   5  Pass 0  IDiag  1:
 RMSU=  1.63D-04    CP:  9.64D-01  9.87D-01  4.43D-01  4.66D-01
 E= -885.517037040988     Delta-E=       -0.344837200982 Rises=F Damp=F
 DIIS: error= 1.09D-02 at cycle   5 NSaved=   5.
 NSaved= 5 IEnMin= 5 EnMin= -885.517037040988     IErMin= 2 ErrMin= 8.60D-03
 ErrMax= 1.09D-02 EMaxC= 1.00D-01 BMatC= 3.56D-02 BMatP= 5.15D-02
 IDIUse=3 WtCom= 8.91D-01 WtEn= 1.09D-01
 Coeff-Com:  0.430D-03 0.239D-01 0.336D+00-0.678D-01 0.708D+00
 Coeff-En:   0.000D+00 0.000D+00 0.358D+00 0.000D+00 0.642D+00
 Coeff:      0.383D-03 0.213D-01 0.338D+00-0.604D-01 0.701D+00
 Gap=     0.157 Goal=   None    Shift=    0.000
 RMSDP=4.71D-04 MaxDP=3.15D-02 DE=-3.45D-01 OVMax= 4.52D-02

 Cycle   6  Pass 0  IDiag  1:
 RMSU=  6.59D-05    CP:  9.62D-01  9.61D-01  6.70D-01  2.76D-01  6.61D-01
 E= -885.545013772206     Delta-E=       -0.027976731218 Rises=F Damp=F
 DIIS: error= 8.15D-04 at cycle   6 NSaved=   6.
 NSaved= 6 IEnMin= 6 EnMin= -885.545013772206     IErMin= 6 ErrMin= 8.15D-04
 ErrMax= 8.15D-04 EMaxC= 1.00D-01 BMatC= 2.97D-04 BMatP= 3.56D-02
 IDIUse=3 WtCom= 9.92D-01 WtEn= 8.15D-03
 Coeff-Com: -0.215D-02 0.115D-01 0.168D+00-0.605D-01 0.453D+00 0.430D+00
 Coeff-En:   0.000D+00 0.000D+00 0.000D+00 0.000D+00 0.000D+00 0.100D+01
 Coeff:     -0.213D-02 0.114D-01 0.166D+00-0.600D-01 0.450D+00 0.435D+00
 Gap=     0.157 Goal=   None    Shift=    0.000
 RMSDP=6.75D-05 MaxDP=3.05D-03 DE=-2.80D-02 OVMax= 8.09D-03

 Cycle   7  Pass 0  IDiag  1:
 RMSU=  1.76D-05    CP:  9.62D-01  9.66D-01  6.55D-01  2.75D-01  7.65D-01
                    CP:  4.45D-01
 E= -885.545334432231     Delta-E=       -0.000320660025 Rises=F Damp=F
 DIIS: error= 1.76D-04 at cycle   7 NSaved=   7.
 NSaved= 7 IEnMin= 7 EnMin= -885.545334432231     IErMin= 7 ErrMin= 1.76D-04
 ErrMax= 1.76D-04 EMaxC= 1.00D-01 BMatC= 1.63D-05 BMatP= 2.97D-04
 IDIUse=3 WtCom= 9.98D-01 WtEn= 1.76D-03
 Coeff-Com: -0.471D-03 0.235D-02 0.476D-01-0.208D-01 0.134D+00 0.198D+00
 Coeff-Com:  0.639D+00
 Coeff-En:   0.000D+00 0.000D+00 0.000D+00 0.000D+00 0.000D+00 0.000D+00
 Coeff-En:   0.100D+01
 Coeff:     -0.470D-03 0.234D-02 0.475D-01-0.208D-01 0.134D+00 0.197D+00
 Coeff:      0.640D+00
 Gap=     0.157 Goal=   None    Shift=    0.000
 RMSDP=1.34D-05 MaxDP=5.23D-04 DE=-3.21D-04 OVMax= 1.17D-03

 Cycle   8  Pass 0  IDiag  1:
 RMSU=  5.00D-06    CP:  9.62D-01  9.64D-01  6.59D-01  2.74D-01  7.58D-01
                    CP:  4.95D-01  7.30D-01
 E= -885.545349058391     Delta-E=       -0.000014626160 Rises=F Damp=F
 DIIS: error= 4.48D-05 at cycle   8 NSaved=   8.
 NSaved= 8 IEnMin= 8 EnMin= -885.545349058391     IErMin= 8 ErrMin= 4.48D-05
 ErrMax= 4.48D-05 EMaxC= 1.00D-01 BMatC= 1.81D-06 BMatP= 1.63D-05
 IDIUse=1 WtCom= 1.00D+00 WtEn= 0.00D+00
 Coeff-Com:  0.264D-03-0.949D-03 0.956D-02-0.351D-02 0.213D-01 0.587D-01
 Coeff-Com:  0.338D+00 0.576D+00
 Coeff:      0.264D-03-0.949D-03 0.956D-02-0.351D-02 0.213D-01 0.587D-01
 Coeff:      0.338D+00 0.576D+00
 Gap=     0.157 Goal=   None    Shift=    0.000
 RMSDP=3.65D-06 MaxDP=1.54D-04 DE=-1.46D-05 OVMax= 1.71D-04

 Initial convergence to 1.0D-05 achieved.  Increase integral accuracy.
 Cycle   9  Pass 1  IDiag  1:
 E= -885.545380712520     Delta-E=       -0.000031654129 Rises=F Damp=F
 DIIS: error= 3.65D-05 at cycle   1 NSaved=   1.
 NSaved= 1 IEnMin= 1 EnMin= -885.545380712520     IErMin= 1 ErrMin= 3.65D-05
 ErrMax= 3.65D-05 EMaxC= 1.00D-01 BMatC= 3.47D-07 BMatP= 3.47D-07
 IDIUse=1 WtCom= 1.00D+00 WtEn= 0.00D+00
 Coeff-Com:  0.100D+01
 Coeff:      0.100D+01
 Gap=     0.157 Goal=   None    Shift=    0.000
 RMSDP=3.65D-06 MaxDP=1.54D-04 DE=-3.17D-05 OVMax= 1.87D-04

 Cycle  10  Pass 1  IDiag  1:
 RMSU=  1.44D-05    CP:  1.00D+00
 E= -885.545380906643     Delta-E=       -0.000000194123 Rises=F Damp=F
 DIIS: error= 2.57D-05 at cycle   2 NSaved=   2.
 NSaved= 2 IEnMin= 2 EnMin= -885.545380906643     IErMin= 2 ErrMin= 2.57D-05
 ErrMax= 2.57D-05 EMaxC= 1.00D-01 BMatC= 2.20D-07 BMatP= 3.47D-07
 IDIUse=1 WtCom= 1.00D+00 WtEn= 0.00D+00
 Coeff-Com:  0.420D+00 0.580D+00
 Coeff:      0.420D+00 0.580D+00
 Gap=     0.157 Goal=   None    Shift=    0.000
 RMSDP=2.16D-06 MaxDP=1.29D-04 DE=-1.94D-07 OVMax= 2.02D-04

 Cycle  11  Pass 1  IDiag  1:
 RMSU=  1.53D-06    CP:  1.00D+00  9.99D-01
 E= -885.545380980330     Delta-E=       -0.000000073686 Rises=F Damp=F
 DIIS: error= 2.17D-05 at cycle   3 NSaved=   3.
 NSaved= 3 IEnMin= 3 EnMin= -885.545380980330     IErMin= 3 ErrMin= 2.17D-05
 ErrMax= 2.17D-05 EMaxC= 1.00D-01 BMatC= 1.34D-07 BMatP= 2.20D-07
 IDIUse=1 WtCom= 1.00D+00 WtEn= 0.00D+00
 Coeff-Com:  0.266D-01 0.432D+00 0.541D+00
 Coeff:      0.266D-01 0.432D+00 0.541D+00
 Gap=     0.157 Goal=   None    Shift=    0.000
 RMSDP=1.11D-06 MaxDP=5.81D-05 DE=-7.37D-08 OVMax= 1.20D-04

 Cycle  12  Pass 1  IDiag  1:
 RMSU=  4.19D-07    CP:  1.00D+00  1.01D+00  5.73D-01
 E= -885.545381081033     Delta-E=       -0.000000100703 Rises=F Damp=F
 DIIS: error= 5.24D-06 at cycle   4 NSaved=   4.
 NSaved= 4 IEnMin= 4 EnMin= -885.545381081033     IErMin= 4 ErrMin= 5.24D-06
 ErrMax= 5.24D-06 EMaxC= 1.00D-01 BMatC= 1.22D-08 BMatP= 1.34D-07
 IDIUse=1 WtCom= 1.00D+00 WtEn= 0.00D+00
 Coeff-Com: -0.976D-02 0.243D+00 0.353D+00 0.414D+00
 Coeff:     -0.976D-02 0.243D+00 0.353D+00 0.414D+00
 Gap=     0.157 Goal=   None    Shift=    0.000
 RMSDP=3.20D-07 MaxDP=2.05D-05 DE=-1.01D-07 OVMax= 2.36D-05

 Cycle  13  Pass 1  IDiag  1:
 RMSU=  1.05D-07    CP:  1.00D+00  1.01D+00  5.98D-01  5.31D-01
 E= -885.545381091426     Delta-E=       -0.000000010393 Rises=F Damp=F
 DIIS: error= 6.05D-07 at cycle   5 NSaved=   5.
 NSaved= 5 IEnMin= 5 EnMin= -885.545381091426     IErMin= 5 ErrMin= 6.05D-07
 ErrMax= 6.05D-07 EMaxC= 1.00D-01 BMatC= 2.81D-10 BMatP= 1.22D-08
 IDIUse=1 WtCom= 1.00D+00 WtEn= 0.00D+00
 Coeff-Com: -0.629D-02 0.112D+00 0.167D+00 0.220D+00 0.507D+00
 Coeff:     -0.629D-02 0.112D+00 0.167D+00 0.220D+00 0.507D+00
 Gap=     0.157 Goal=   None    Shift=    0.000
 RMSDP=5.69D-08 MaxDP=2.39D-06 DE=-1.04D-08 OVMax= 3.76D-06

 Cycle  14  Pass 1  IDiag  1:
 RMSU=  3.66D-08    CP:  1.00D+00  1.01D+00  5.96D-01  5.19D-01  8.54D-01
 E= -885.545381091582     Delta-E=       -0.000000000156 Rises=F Damp=F
 DIIS: error= 1.63D-07 at cycle   6 NSaved=   6.
 NSaved= 6 IEnMin= 6 EnMin= -885.545381091582     IErMin= 6 ErrMin= 1.63D-07
 ErrMax= 1.63D-07 EMaxC= 1.00D-01 BMatC= 2.51D-11 BMatP= 2.81D-10
 IDIUse=1 WtCom= 1.00D+00 WtEn= 0.00D+00
 Coeff-Com: -0.218D-02 0.308D-01 0.471D-01 0.659D-01 0.266D+00 0.592D+00
 Coeff:     -0.218D-02 0.308D-01 0.471D-01 0.659D-01 0.266D+00 0.592D+00
 Gap=     0.157 Goal=   None    Shift=    0.000
 RMSDP=1.94D-08 MaxDP=8.42D-07 DE=-1.56D-10 OVMax= 2.06D-06

 Cycle  15  Pass 1  IDiag  1:
 RMSU=  1.15D-08    CP:  1.00D+00  1.01D+00  5.96D-01  5.22D-01  8.88D-01
                    CP:  8.25D-01
 E= -885.545381091655     Delta-E=       -0.000000000073 Rises=F Damp=F
 DIIS: error= 7.71D-08 at cycle   7 NSaved=   7.
 NSaved= 7 IEnMin= 7 EnMin= -885.545381091655     IErMin= 7 ErrMin= 7.71D-08
 ErrMax= 7.71D-08 EMaxC= 1.00D-01 BMatC= 3.80D-12 BMatP= 2.51D-11
 IDIUse=1 WtCom= 1.00D+00 WtEn= 0.00D+00
 Coeff-Com: -0.460D-03 0.376D-02 0.618D-02 0.103D-01 0.895D-01 0.335D+00
 Coeff-Com:  0.556D+00
 Coeff:     -0.460D-03 0.376D-02 0.618D-02 0.103D-01 0.895D-01 0.335D+00
 Coeff:      0.556D+00
 Gap=     0.157 Goal=   None    Shift=    0.000
 RMSDP=9.06D-09 MaxDP=3.90D-07 DE=-7.32D-11 OVMax= 1.40D-06

 SCF Done:  E(RB3LYP) =  -885.545381092     A.U. after   15 cycles
             Convg  =    0.9056D-08             -V/T =  2.0094
 KE= 8.773394578352D+02 PE=-5.041469776569D+03 EE= 1.787401030383D+03
 Leave Link  502 at Thu Sep 30 19:48:20 2021, MaxMem= 1610612736 cpu:     621.9
 (Enter /sw/target/amd/app/gaussian/Gaussian09RevA.02_gcc-4.9.2/g09/l508.exe)
 QCSCF skips out because SCF is already converged.
 Leave Link  508 at Thu Sep 30 19:48:20 2021, MaxMem= 1610612736 cpu:       0.0
 (Enter /sw/target/amd/app/gaussian/Gaussian09RevA.02_gcc-4.9.2/g09/l601.exe)
 Copying SCF densities to generalized density rwf, IOpCl= 0 IROHF=0.

 **********************************************************************

            Population analysis using the SCF density.

 **********************************************************************

 Orbital symmetries:
       Occupied  (A) (A) (A) (A) (A) (A) (A) (A) (A) (A) (A) (A)
                 (A) (A) (A) (A) (A) (A) (A) (A) (A) (A) (A) (A)
                 (A) (A) (A) (A) (A) (A) (A) (A) (A) (A) (A) (A)
                 (A) (A) (A) (A) (A) (A) (A) (A) (A) (A) (A) (A)
                 (A) (A) (A) (A) (A) (A) (A) (A) (A) (A) (A) (A)
                 (A) (A) (A) (A) (A) (A) (A) (A) (A) (A) (A) (A)
                 (A)
       Virtual   (A) (A) (A) (A) (A) (A) (A) (A) (A) (A) (A) (A)
                 (A) (A) (A) (A) (A) (A) (A) (A) (A) (A) (A) (A)
                 (A) (A) (A) (A) (A) (A) (A) (A) (A) (A) (A) (A)
                 (A) (A) (A) (A) (A) (A) (A) (A) (A) (A) (A) (A)
                 (A) (A) (A) (A) (A) (A) (A) (A) (A) (A) (A) (A)
                 (A) (A) (A) (A) (A) (A) (A) (A) (A) (A) (A) (A)
                 (A) (A) (A) (A) (A) (A) (A) (A) (A) (A) (A) (A)
                 (A) (A) (A) (A) (A) (A) (A) (A) (A) (A) (A) (A)
                 (A) (A) (A) (A) (A) (A) (A) (A) (A) (A) (A) (A)
                 (A) (A) (A) (A) (A) (A) (A) (A) (A) (A) (A) (A)
                 (A) (A) (A) (A) (A) (A) (A) (A) (A) (A) (A) (A)
                 (A) (A) (A) (A) (A) (A) (A) (A) (A) (A) (A) (A)
                 (A) (A) (A) (A) (A) (A) (A) (A) (A) (A) (A) (A)
                 (A) (A) (A) (A) (A) (A) (A) (A) (A) (A) (A) (A)
                 (A) (A) (A) (A) (A) (A) (A) (A) (A) (A) (A) (A)
                 (A) (A) (A) (A) (A) (A) (A) (A) (A) (A) (A) (A)
                 (A) (A) (A) (A) (A) (A) (A) (A) (A) (A) (A) (A)
                 (A) (A) (A) (A) (A) (A) (A) (A) (A) (A) (A) (A)
                 (A) (A) (A) (A) (A) (A) (A) (A) (A) (A) (A) (A)
                 (A) (A) (A) (A) (A) (A) (A) (A) (A) (A) (A) (A)
                 (A) (A) (A) (A) (A) (A) (A) (A) (A) (A) (A) (A)
                 (A) (A) (A) (A) (A) (A) (A) (A) (A) (A) (A) (A)
                 (A) (A) (A)
 The electronic state is 1-A.
 Alpha  occ. eigenvalues --  -19.18523 -19.17449 -19.13544 -10.31254 -10.24488
 Alpha  occ. eigenvalues --  -10.24343 -10.23993 -10.20553 -10.19682 -10.19351
 Alpha  occ. eigenvalues --  -10.19241 -10.19166 -10.18911 -10.18893 -10.18776
 Alpha  occ. eigenvalues --  -10.18747 -10.18170 -10.17751 -10.17506 -10.17457
 Alpha  occ. eigenvalues --   -1.09097  -1.06050  -1.00785  -0.87567  -0.83221
 Alpha  occ. eigenvalues --   -0.79841  -0.77971  -0.77021  -0.73423  -0.72522
 Alpha  occ. eigenvalues --   -0.69017  -0.68585  -0.66260  -0.63118  -0.61012
 Alpha  occ. eigenvalues --   -0.59973  -0.58132  -0.54887  -0.52908  -0.51658
 Alpha  occ. eigenvalues --   -0.50841  -0.48642  -0.47072  -0.46869  -0.46351
 Alpha  occ. eigenvalues --   -0.46282  -0.45204  -0.44398  -0.43316  -0.42369
 Alpha  occ. eigenvalues --   -0.41339  -0.40795  -0.40005  -0.39757  -0.39176
 Alpha  occ. eigenvalues --   -0.38904  -0.38692  -0.38411  -0.37773  -0.35818
 Alpha  occ. eigenvalues --   -0.35437  -0.35132  -0.34702  -0.33774  -0.33546
 Alpha  occ. eigenvalues --   -0.32777  -0.32278  -0.29597  -0.29229  -0.27710
 Alpha  occ. eigenvalues --   -0.26347  -0.23298  -0.19839
 Alpha virt. eigenvalues --   -0.04169  -0.00033   0.01110   0.03557   0.09030
 Alpha virt. eigenvalues --    0.09451   0.10271   0.10710   0.11054   0.11726
 Alpha virt. eigenvalues --    0.12414   0.13358   0.13886   0.14572   0.14794
 Alpha virt. eigenvalues --    0.15289   0.15686   0.16062   0.16764   0.17513
 Alpha virt. eigenvalues --    0.18077   0.19047   0.19275   0.19549   0.19796
 Alpha virt. eigenvalues --    0.20664   0.20834   0.21858   0.22400   0.23866
 Alpha virt. eigenvalues --    0.24800   0.25175   0.26179   0.26576   0.28297
 Alpha virt. eigenvalues --    0.30074   0.30413   0.33322   0.33817   0.35005
 Alpha virt. eigenvalues --    0.36586   0.39040   0.40300   0.48287   0.49080
 Alpha virt. eigenvalues --    0.49577   0.50387   0.50718   0.51012   0.51642
 Alpha virt. eigenvalues --    0.52409   0.52442   0.53535   0.54074   0.54259
 Alpha virt. eigenvalues --    0.55030   0.55710   0.56016   0.56742   0.57457
 Alpha virt. eigenvalues --    0.58131   0.58388   0.58984   0.59974   0.60821
 Alpha virt. eigenvalues --    0.61483   0.61837   0.62734   0.63101   0.64009
 Alpha virt. eigenvalues --    0.64755   0.65453   0.66790   0.67710   0.68010
 Alpha virt. eigenvalues --    0.69566   0.69886   0.70850   0.73694   0.74834
 Alpha virt. eigenvalues --    0.75783   0.76297   0.77276   0.79301   0.80466
 Alpha virt. eigenvalues --    0.81044   0.81760   0.82953   0.83839   0.83943
 Alpha virt. eigenvalues --    0.84319   0.84506   0.85525   0.85618   0.86274
 Alpha virt. eigenvalues --    0.88243   0.88452   0.89022   0.89159   0.90798
 Alpha virt. eigenvalues --    0.91180   0.91308   0.92186   0.92505   0.93026
 Alpha virt. eigenvalues --    0.93811   0.94153   0.95668   0.95968   0.96465
 Alpha virt. eigenvalues --    0.97726   0.98230   1.00065   1.00814   1.02475
 Alpha virt. eigenvalues --    1.02832   1.03407   1.05203   1.06298   1.08597
 Alpha virt. eigenvalues --    1.10530   1.10873   1.11682   1.15043   1.16029
 Alpha virt. eigenvalues --    1.17199   1.19337   1.20043   1.20874   1.24138
 Alpha virt. eigenvalues --    1.24950   1.25226   1.28166   1.31136   1.33892
 Alpha virt. eigenvalues --    1.35711   1.37150   1.38633   1.39587   1.40935
 Alpha virt. eigenvalues --    1.42688   1.43955   1.44933   1.46786   1.47970
 Alpha virt. eigenvalues --    1.48602   1.49029   1.49771   1.50621   1.51892
 Alpha virt. eigenvalues --    1.53249   1.53845   1.54848   1.59699   1.63075
 Alpha virt. eigenvalues --    1.64849   1.69344   1.70869   1.71786   1.75383
 Alpha virt. eigenvalues --    1.77662   1.78942   1.80075   1.80890   1.81447
 Alpha virt. eigenvalues --    1.82868   1.83450   1.84820   1.86118   1.87097
 Alpha virt. eigenvalues --    1.87713   1.88491   1.88871   1.91596   1.91871
 Alpha virt. eigenvalues --    1.93207   1.95129   1.96182   1.97065   1.97431
 Alpha virt. eigenvalues --    1.98168   1.99916   2.00712   2.01632   2.02240
 Alpha virt. eigenvalues --    2.03462   2.05847   2.06331   2.07270   2.09081
 Alpha virt. eigenvalues --    2.09842   2.11387   2.12347   2.12818   2.15263
 Alpha virt. eigenvalues --    2.16510   2.18170   2.18882   2.21338   2.21784
 Alpha virt. eigenvalues --    2.22922   2.24210   2.25902   2.26648   2.29398
 Alpha virt. eigenvalues --    2.29569   2.30608   2.32459   2.33642   2.34042
 Alpha virt. eigenvalues --    2.34508   2.37178   2.38764   2.39713   2.42688
 Alpha virt. eigenvalues --    2.44013   2.47137   2.50899   2.51175   2.51973
 Alpha virt. eigenvalues --    2.53949   2.57625   2.58736   2.62712   2.64998
 Alpha virt. eigenvalues --    2.67407   2.67921   2.69044   2.72288   2.72940
 Alpha virt. eigenvalues --    2.75027   2.76536   2.80796   2.80938   2.82169
 Alpha virt. eigenvalues --    2.85836   2.89351   2.92386   2.96386   2.97041
 Alpha virt. eigenvalues --    3.02848   3.05300   3.09515   3.15345   3.16627
 Alpha virt. eigenvalues --    3.39455   3.50220   4.01123   4.04496   4.09891
 Alpha virt. eigenvalues --    4.11140   4.13706   4.14950   4.18523   4.19668
 Alpha virt. eigenvalues --    4.22586   4.27942   4.28895   4.31057   4.32774
 Alpha virt. eigenvalues --    4.40164   4.42534   4.48282   4.54106   4.60851
 Alpha virt. eigenvalues --    4.66106   4.85796
          Condensed to atoms (all electrons):
              1          2          3          4          5          6
     1  C    4.900409   0.249533  -0.043762  -0.005757   0.000545  -0.000042
     2  O    0.249533   8.212832   0.261188  -0.057859   0.003555   0.000381
     3  C   -0.043762   0.261188   4.567174   0.430372   0.008787  -0.036135
     4  C   -0.005757  -0.057859   0.430372   5.131757   0.462348  -0.004539
     5  C    0.000545   0.003555   0.008787   0.462348   5.155758   0.439747
     6  C   -0.000042   0.000381  -0.036135  -0.004539   0.439747   4.702457
     7  C   -0.000050   0.002471   0.009232  -0.039147  -0.026745   0.490129
     8  C    0.002643  -0.049549   0.502822  -0.057743  -0.076087  -0.032371
     9  C    0.000004  -0.000085   0.007803  -0.000801   0.017787  -0.022974
    10  C   -0.000000   0.000000  -0.000312   0.000061  -0.000432  -0.043462
    11  C    0.000000  -0.000000   0.000033  -0.000317   0.008250  -0.000184
    12  C   -0.000001   0.000001  -0.000781   0.009273  -0.094263   0.406889
    13  C   -0.000000   0.000000  -0.000000   0.000002  -0.000280   0.005409
    14  C   -0.000000   0.000000  -0.000000   0.000000   0.000001  -0.000119
    15  O    0.000000   0.000000   0.000000  -0.000000  -0.000000   0.000001
    16  O   -0.000000   0.000000  -0.000000  -0.000000  -0.000000  -0.000036
    17  C    0.000000   0.000000  -0.000000  -0.000000   0.000000  -0.000000
    18  C   -0.000000  -0.000000  -0.000000   0.000000   0.000000  -0.000000
    19  C    0.000000   0.000000  -0.000000  -0.000000  -0.000000  -0.000000
    20  C    0.000000   0.000000  -0.000000  -0.000000   0.000005  -0.000249
    21  H    0.382903  -0.030783   0.003717   0.000123   0.000003   0.000000
    22  H    0.364709  -0.038501  -0.000551   0.003405  -0.000166  -0.000005
    23  H    0.364324  -0.034721  -0.008632   0.003004  -0.000212  -0.000003
    24  H    0.003097  -0.006010  -0.042572   0.348596  -0.032942   0.002534
    25  H   -0.000004  -0.000051   0.002907  -0.041170   0.352542  -0.037037
    26  H   -0.000204   0.000436  -0.038541   0.007455  -0.000030   0.004933
    27  H    0.000000  -0.000002   0.000125   0.000013  -0.000210   0.004516
    28  H    0.000000  -0.000000   0.000003  -0.000001   0.000011   0.000863
    29  H    0.000000  -0.000000   0.000011   0.000216  -0.008603  -0.044075
    30  H    0.000000  -0.000000   0.000000   0.000000  -0.000011   0.000409
    31  H   -0.000000   0.000000  -0.000000  -0.000000   0.000000  -0.000000
    32  H   -0.000000   0.000000  -0.000000   0.000000   0.000000  -0.000000
    33  H   -0.000000  -0.000000  -0.000000   0.000000   0.000000  -0.000000
    34  H    0.000000  -0.000000   0.000000   0.000000  -0.000000   0.000000
    35  H   -0.000000  -0.000000   0.000000   0.000000  -0.000000  -0.000000
    36  H    0.000000   0.000000  -0.000000  -0.000000   0.000000   0.000000
    37  H   -0.000000   0.000000  -0.000000   0.000000  -0.000000  -0.000001
    38  H    0.000000  -0.000000   0.000000  -0.000000  -0.000000   0.000018
    39  H   -0.000000  -0.000000   0.000000   0.000000  -0.000000   0.000002
    40  H   -0.000000  -0.000000   0.000000  -0.000000  -0.000001  -0.000039
              7          8          9         10         11         12
     1  C   -0.000050   0.002643   0.000004  -0.000000   0.000000  -0.000001
     2  O    0.002471  -0.049549  -0.000085   0.000000  -0.000000   0.000001
     3  C    0.009232   0.502822   0.007803  -0.000312   0.000033  -0.000781
     4  C   -0.039147  -0.057743  -0.000801   0.000061  -0.000317   0.009273
     5  C   -0.026745  -0.076087   0.017787  -0.000432   0.008250  -0.094263
     6  C    0.490129  -0.032371  -0.022974  -0.043462  -0.000184   0.406889
     7  C    4.676844   0.413812   0.446772  -0.009778  -0.029550  -0.036412
     8  C    0.413812   5.295484  -0.096803   0.008534  -0.000529   0.017408
     9  C    0.446772  -0.096803   5.150693   0.484198  -0.009383  -0.083212
    10  C   -0.009778   0.008534   0.484198   5.050958   0.487502  -0.037068
    11  C   -0.029550  -0.000529  -0.009383   0.487502   4.696872   0.506150
    12  C   -0.036412   0.017408  -0.083212  -0.037068   0.506150   5.282675
    13  C    0.000881   0.000002   0.005434  -0.067448   0.340402  -0.031336
    14  C    0.000026   0.000000   0.000215  -0.002120  -0.031260  -0.001767
    15  O    0.000000  -0.000000   0.000016   0.000752  -0.002414  -0.000046
    16  O    0.000010   0.000000  -0.000086  -0.001155   0.007248   0.000905
    17  C    0.000000  -0.000000  -0.000001  -0.000040  -0.000101  -0.000002
    18  C    0.000000  -0.000000  -0.000000   0.000000   0.000024  -0.000001
    19  C    0.000000   0.000000  -0.000000  -0.000011  -0.000027   0.000007
    20  C   -0.000002  -0.000000   0.000132  -0.004353  -0.043141  -0.000291
    21  H    0.000001  -0.000090  -0.000000   0.000000   0.000000  -0.000000
    22  H   -0.000028   0.001030  -0.000000  -0.000000   0.000000  -0.000000
    23  H    0.000023  -0.000209  -0.000000  -0.000000   0.000000   0.000000
    24  H    0.000960   0.004592   0.000010  -0.000000   0.000004  -0.000200
    25  H    0.004506   0.000653  -0.000212   0.000013   0.000147  -0.008740
    26  H   -0.042764   0.343972  -0.008699   0.000208   0.000011  -0.000150
    27  H   -0.037548  -0.007945   0.351781  -0.041207   0.002938   0.000916
    28  H    0.002387  -0.000187  -0.035036   0.351194  -0.040823   0.005153
    29  H    0.004641  -0.000190   0.000279   0.006007  -0.042731   0.348523
    30  H   -0.000001  -0.000000  -0.000118   0.006357  -0.032586  -0.009679
    31  H    0.000000  -0.000000   0.000002   0.000022  -0.000121  -0.000002
    32  H    0.000000  -0.000000   0.000000   0.000000   0.000001  -0.000000
    33  H    0.000000   0.000000  -0.000000  -0.000001   0.000003  -0.000000
    34  H   -0.000000  -0.000000   0.000000   0.000000  -0.000000   0.000000
    35  H   -0.000000  -0.000000  -0.000000   0.000001   0.000004   0.000005
    36  H    0.000000  -0.000000  -0.000000  -0.000000   0.000000  -0.000000
    37  H    0.000000  -0.000000   0.000001   0.000024   0.000049   0.000003
    38  H   -0.000007  -0.000000   0.000023   0.004314  -0.007957  -0.000023
    39  H    0.000000   0.000000   0.000001   0.000036   0.004926  -0.000029
    40  H   -0.000001  -0.000000  -0.000060  -0.000226  -0.000661   0.001024
             13         14         15         16         17         18
     1  C   -0.000000  -0.000000   0.000000  -0.000000   0.000000  -0.000000
     2  O    0.000000   0.000000   0.000000   0.000000   0.000000  -0.000000
     3  C   -0.000000  -0.000000   0.000000  -0.000000  -0.000000  -0.000000
     4  C    0.000002   0.000000  -0.000000  -0.000000  -0.000000   0.000000
     5  C   -0.000280   0.000001  -0.000000  -0.000000   0.000000   0.000000
     6  C    0.005409  -0.000119   0.000001  -0.000036  -0.000000  -0.000000
     7  C    0.000881   0.000026   0.000000   0.000010   0.000000   0.000000
     8  C    0.000002   0.000000  -0.000000   0.000000  -0.000000  -0.000000
     9  C    0.005434   0.000215   0.000016  -0.000086  -0.000001  -0.000000
    10  C   -0.067448  -0.002120   0.000752  -0.001155  -0.000040   0.000000
    11  C    0.340402  -0.031260  -0.002414   0.007248  -0.000101   0.000024
    12  C   -0.031336  -0.001767  -0.000046   0.000905  -0.000002  -0.000001
    13  C    5.264935   0.333169  -0.074344  -0.100906   0.006619  -0.000894
    14  C    0.333169   4.373978   0.522871   0.252626  -0.011042  -0.004957
    15  O   -0.074344   0.522871   8.085216  -0.072492  -0.000063  -0.005650
    16  O   -0.100906   0.252626  -0.072492   8.312080   0.186804  -0.042324
    17  C    0.006619  -0.011042  -0.000063   0.186804   4.711974   0.376793
    18  C   -0.000894  -0.004957  -0.005650  -0.042324   0.376793   5.159479
    19  C   -0.000164   0.004107   0.000607  -0.045707   0.384128  -0.062219
    20  C    0.333424  -0.041417   0.004353   0.003660  -0.000193   0.000024
    21  H   -0.000000   0.000000   0.000000   0.000000   0.000000  -0.000000
    22  H    0.000000   0.000000  -0.000000   0.000000   0.000000   0.000000
    23  H    0.000000  -0.000000  -0.000000  -0.000000  -0.000000  -0.000000
    24  H   -0.000000   0.000000  -0.000000   0.000000   0.000000   0.000000
    25  H   -0.000006  -0.000000  -0.000000  -0.000000   0.000000  -0.000000
    26  H    0.000000   0.000000   0.000000  -0.000000   0.000000  -0.000000
    27  H   -0.000183  -0.000004  -0.000000   0.000000   0.000000   0.000000
    28  H   -0.007622   0.002400   0.000983  -0.000065  -0.000002   0.000000
    29  H   -0.010479   0.000145  -0.000001   0.000008   0.000001   0.000000
    30  H    0.352224  -0.035790   0.001947   0.002022  -0.000332   0.000110
    31  H    0.000800  -0.004436   0.012344  -0.035918   0.374615  -0.050735
    32  H    0.000008   0.000372   0.000102  -0.000113  -0.030962   0.367028
    33  H    0.000133   0.003524   0.007527  -0.004062  -0.026114   0.368901
    34  H    0.000010   0.000129   0.000030   0.003137  -0.025828   0.359650
    35  H   -0.000005  -0.000149  -0.000007  -0.000192  -0.027076  -0.007341
    36  H    0.000005  -0.000053   0.000013   0.002918  -0.028484  -0.000900
[...]
   102    C    7  dxz    Ryd( 3d)     0.00070
   103    C    7  dyz    Ryd( 3d)     0.00051
   104    C    7  dx2y2  Ryd( 3d)     0.00067
   105    C    7  dz2    Ryd( 3d)     0.00066

   106    C    8  S      Cor( 1S)     1.99900
   107    C    8  S      Val( 2S)     0.95427
   108    C    8  S      Ryd( 3S)     0.00091
   109    C    8  S      Ryd( 4S)     0.00006
   110    C    8  px     Val( 2p)     1.05811
   111    C    8  px     Ryd( 3p)     0.00457
   112    C    8  py     Val( 2p)     1.03282
   113    C    8  py     Ryd( 3p)     0.00337
   114    C    8  pz     Val( 2p)     1.17622
   115    C    8  pz     Ryd( 3p)     0.00428
   116    C    8  dxy    Ryd( 3d)     0.00051
   117    C    8  dxz    Ryd( 3d)     0.00076
   118    C    8  dyz    Ryd( 3d)     0.00045
   119    C    8  dx2y2  Ryd( 3d)     0.00046
   120    C    8  dz2    Ryd( 3d)     0.00064

   121    C    9  S      Cor( 1S)     1.99906
   122    C    9  S      Val( 2S)     0.94268
   123    C    9  S      Ryd( 3S)     0.00071
   124    C    9  S      Ryd( 4S)     0.00004
   125    C    9  px     Val( 2p)     1.06197
   126    C    9  px     Ryd( 3p)     0.00428
   127    C    9  py     Val( 2p)     1.04277
   128    C    9  py     Ryd( 3p)     0.00340
   129    C    9  pz     Val( 2p)     1.16702
   130    C    9  pz     Ryd( 3p)     0.00466
   131    C    9  dxy    Ryd( 3d)     0.00061
   132    C    9  dxz    Ryd( 3d)     0.00067
   133    C    9  dyz    Ryd( 3d)     0.00039
   134    C    9  dx2y2  Ryd( 3d)     0.00047
   135    C    9  dz2    Ryd( 3d)     0.00071

   136    C   10  S      Cor( 1S)     1.99905
   137    C   10  S      Val( 2S)     0.94629
   138    C   10  S      Ryd( 3S)     0.00077
   139    C   10  S      Ryd( 4S)     0.00004
   140    C   10  px     Val( 2p)     1.13735
   141    C   10  px     Ryd( 3p)     0.00405
   142    C   10  py     Val( 2p)     1.08375
   143    C   10  py     Ryd( 3p)     0.00301
   144    C   10  pz     Val( 2p)     1.10227
   145    C   10  pz     Ryd( 3p)     0.00463
   146    C   10  dxy    Ryd( 3d)     0.00065
   147    C   10  dxz    Ryd( 3d)     0.00072
   148    C   10  dyz    Ryd( 3d)     0.00050
   149    C   10  dx2y2  Ryd( 3d)     0.00047
   150    C   10  dz2    Ryd( 3d)     0.00054

   151    C   11  S      Cor( 1S)     1.99901
   152    C   11  S      Val( 2S)     0.88143
   153    C   11  S      Ryd( 3S)     0.00123
   154    C   11  S      Ryd( 4S)     0.00005
   155    C   11  px     Val( 2p)     1.03089
   156    C   11  px     Ryd( 3p)     0.00490
   157    C   11  py     Val( 2p)     0.96478
   158    C   11  py     Ryd( 3p)     0.00373
   159    C   11  pz     Val( 2p)     1.07625
   160    C   11  pz     Ryd( 3p)     0.00429
   161    C   11  dxy    Ryd( 3d)     0.00058
   162    C   11  dxz    Ryd( 3d)     0.00083
   163    C   11  dyz    Ryd( 3d)     0.00069
   164    C   11  dx2y2  Ryd( 3d)     0.00065
   165    C   11  dz2    Ryd( 3d)     0.00069

   166    C   12  S      Cor( 1S)     1.99897
   167    C   12  S      Val( 2S)     0.93482
   168    C   12  S      Ryd( 3S)     0.00066
   169    C   12  S      Ryd( 4S)     0.00005
   170    C   12  px     Val( 2p)     1.05541
   171    C   12  px     Ryd( 3p)     0.00324
   172    C   12  py     Val( 2p)     1.06714
   173    C   12  py     Ryd( 3p)     0.00345
   174    C   12  pz     Val( 2p)     1.17627
   175    C   12  pz     Ryd( 3p)     0.00475
   176    C   12  dxy    Ryd( 3d)     0.00044
   177    C   12  dxz    Ryd( 3d)     0.00065
   178    C   12  dyz    Ryd( 3d)     0.00041
   179    C   12  dx2y2  Ryd( 3d)     0.00048
   180    C   12  dz2    Ryd( 3d)     0.00075

   181    C   13  S      Cor( 1S)     1.99906
   182    C   13  S      Val( 2S)     0.99197
   183    C   13  S      Ryd( 3S)     0.00078
   184    C   13  S      Ryd( 4S)     0.00003
   185    C   13  px     Val( 2p)     1.06343
   186    C   13  px     Ryd( 3p)     0.00187
   187    C   13  py     Val( 2p)     1.09489
   188    C   13  py     Ryd( 3p)     0.00370
   189    C   13  pz     Val( 2p)     1.18995
   190    C   13  pz     Ryd( 3p)     0.00488
   191    C   13  dxy    Ryd( 3d)     0.00076
   192    C   13  dxz    Ryd( 3d)     0.00069
   193    C   13  dyz    Ryd( 3d)     0.00098
   194    C   13  dx2y2  Ryd( 3d)     0.00074
   195    C   13  dz2    Ryd( 3d)     0.00068

   196    C   14  S      Cor( 1S)     1.99939
   197    C   14  S      Val( 2S)     0.77237
   198    C   14  S      Ryd( 3S)     0.00513
   199    C   14  S      Ryd( 4S)     0.00052
   200    C   14  px     Val( 2p)     0.82024
   201    C   14  px     Ryd( 3p)     0.00651
   202    C   14  py     Val( 2p)     0.73419
   203    C   14  py     Ryd( 3p)     0.01165
   204    C   14  pz     Val( 2p)     0.78711
   205    C   14  pz     Ryd( 3p)     0.01606
   206    C   14  dxy    Ryd( 3d)     0.00182
   207    C   14  dxz    Ryd( 3d)     0.00155
   208    C   14  dyz    Ryd( 3d)     0.00235
   209    C   14  dx2y2  Ryd( 3d)     0.00225
   210    C   14  dz2    Ryd( 3d)     0.00206

   211    O   15  S      Cor( 1S)     1.99977
   212    O   15  S      Val( 2S)     1.69924
   213    O   15  S      Ryd( 3S)     0.00049
   214    O   15  S      Ryd( 4S)     0.00010
   215    O   15  px     Val( 2p)     1.59210
   216    O   15  px     Ryd( 3p)     0.00101
   217    O   15  py     Val( 2p)     1.74010
   218    O   15  py     Ryd( 3p)     0.00152
   219    O   15  pz     Val( 2p)     1.56363
   220    O   15  pz     Ryd( 3p)     0.00038
   221    O   15  dxy    Ryd( 3d)     0.00158
   222    O   15  dxz    Ryd( 3d)     0.00385
   223    O   15  dyz    Ryd( 3d)     0.00406
   224    O   15  dx2y2  Ryd( 3d)     0.00164
   225    O   15  dz2    Ryd( 3d)     0.00489

   226    O   16  S      Cor( 1S)     1.99973
   227    O   16  S      Val( 2S)     1.61946
   228    O   16  S      Ryd( 3S)     0.00163
   229    O   16  S      Ryd( 4S)     0.00011
   230    O   16  px     Val( 2p)     1.67952
   231    O   16  px     Ryd( 3p)     0.00173
   232    O   16  py     Val( 2p)     1.50222
   233    O   16  py     Ryd( 3p)     0.00131
   234    O   16  pz     Val( 2p)     1.74806
   235    O   16  pz     Ryd( 3p)     0.00188
   236    O   16  dxy    Ryd( 3d)     0.00093
   237    O   16  dxz    Ryd( 3d)     0.00126
   238    O   16  dyz    Ryd( 3d)     0.00103
   239    O   16  dx2y2  Ryd( 3d)     0.00066
   240    O   16  dz2    Ryd( 3d)     0.00141

   241    C   17  S      Cor( 1S)     1.99913
   242    C   17  S      Val( 2S)     0.96983
   243    C   17  S      Ryd( 3S)     0.00219
   244    C   17  S      Ryd( 4S)     0.00005
   245    C   17  px     Val( 2p)     0.90955
   246    C   17  px     Ryd( 3p)     0.00257
   247    C   17  py     Val( 2p)     0.94119
   248    C   17  py     Ryd( 3p)     0.00408
   249    C   17  pz     Val( 2p)     1.08074
   250    C   17  pz     Ryd( 3p)     0.00338
   251    C   17  dxy    Ryd( 3d)     0.00134
   252    C   17  dxz    Ryd( 3d)     0.00112
   253    C   17  dyz    Ryd( 3d)     0.00112
   254    C   17  dx2y2  Ryd( 3d)     0.00119
   255    C   17  dz2    Ryd( 3d)     0.00145

   256    C   18  S      Cor( 1S)     1.99940
   257    C   18  S      Val( 2S)     1.10833
   258    C   18  S      Ryd( 3S)     0.00045
   259    C   18  S      Ryd( 4S)     0.00002
   260    C   18  px     Val( 2p)     1.09887
   261    C   18  px     Ryd( 3p)     0.00133
   262    C   18  py     Val( 2p)     1.25067
   263    C   18  py     Ryd( 3p)     0.00210
   264    C   18  pz     Val( 2p)     1.23475
   265    C   18  pz     Ryd( 3p)     0.00123
   266    C   18  dxy    Ryd( 3d)     0.00060
   267    C   18  dxz    Ryd( 3d)     0.00055
   268    C   18  dyz    Ryd( 3d)     0.00042
   269    C   18  dx2y2  Ryd( 3d)     0.00075
   270    C   18  dz2    Ryd( 3d)     0.00094

   271    C   19  S      Cor( 1S)     1.99940
   272    C   19  S      Val( 2S)     1.10598
   273    C   19  S      Ryd( 3S)     0.00043
   274    C   19  S      Ryd( 4S)     0.00002
   275    C   19  px     Val( 2p)     1.24217
   276    C   19  px     Ryd( 3p)     0.00239
   277    C   19  py     Val( 2p)     1.09391
   278    C   19  py     Ryd( 3p)     0.00130
   279    C   19  pz     Val( 2p)     1.24278
   280    C   19  pz     Ryd( 3p)     0.00140
   281    C   19  dxy    Ryd( 3d)     0.00057
   282    C   19  dxz    Ryd( 3d)     0.00046
   283    C   19  dyz    Ryd( 3d)     0.00055
   284    C   19  dx2y2  Ryd( 3d)     0.00076
   285    C   19  dz2    Ryd( 3d)     0.00090

   286    C   20  S      Cor( 1S)     1.99943
   287    C   20  S      Val( 2S)     1.10203
   288    C   20  S      Ryd( 3S)     0.00035
   289    C   20  S      Ryd( 4S)     0.00002
   290    C   20  px     Val( 2p)     1.23846
   291    C   20  px     Ryd( 3p)     0.00246
   292    C   20  py     Val( 2p)     1.05726
   293    C   20  py     Ryd( 3p)     0.00122
   294    C   20  pz     Val( 2p)     1.25591
   295    C   20  pz     Ryd( 3p)     0.00180
   296    C   20  dxy    Ryd( 3d)     0.00048
   297    C   20  dxz    Ryd( 3d)     0.00073
   298    C   20  dyz    Ryd( 3d)     0.00070
   299    C   20  dx2y2  Ryd( 3d)     0.00080
   300    C   20  dz2    Ryd( 3d)     0.00060

   301    H   21  S      Val( 1S)     0.76673
   302    H   21  S      Ryd( 2S)     0.00052

   303    H   22  S      Val( 1S)     0.78150
   304    H   22  S      Ryd( 2S)     0.00191

   305    H   23  S      Val( 1S)     0.78166
   306    H   23  S      Ryd( 2S)     0.00189

   307    H   24  S      Val( 1S)     0.76642
   308    H   24  S      Ryd( 2S)     0.00085

   309    H   25  S      Val( 1S)     0.76661
   310    H   25  S      Ryd( 2S)     0.00113

   311    H   26  S      Val( 1S)     0.75447
   312    H   26  S      Ryd( 2S)     0.00159

   313    H   27  S      Val( 1S)     0.76995
   314    H   27  S      Ryd( 2S)     0.00111

   315    H   28  S      Val( 1S)     0.75319
   316    H   28  S      Ryd( 2S)     0.00152

   317    H   29  S      Val( 1S)     0.77202
   318    H   29  S      Ryd( 2S)     0.00130

   319    H   30  S      Val( 1S)     0.73502
   320    H   30  S      Ryd( 2S)     0.00203

   321    H   31  S      Val( 1S)     0.75435
   322    H   31  S      Ryd( 2S)     0.00285

   323    H   32  S      Val( 1S)     0.76838
   324    H   32  S      Ryd( 2S)     0.00147

   325    H   33  S      Val( 1S)     0.75008
   326    H   33  S      Ryd( 2S)     0.00120

   327    H   34  S      Val( 1S)     0.76347
   328    H   34  S      Ryd( 2S)     0.00081

   329    H   35  S      Val( 1S)     0.76560
   330    H   35  S      Ryd( 2S)     0.00139

   331    H   36  S      Val( 1S)     0.76329
   332    H   36  S      Ryd( 2S)     0.00073

   333    H   37  S      Val( 1S)     0.75529
   334    H   37  S      Ryd( 2S)     0.00102

   335    H   38  S      Val( 1S)     0.75239
   336    H   38  S      Ryd( 2S)     0.00136

   337    H   39  S      Val( 1S)     0.76494
   338    H   39  S      Ryd( 2S)     0.00117

   339    H   40  S      Val( 1S)     0.76198
   340    H   40  S      Ryd( 2S)     0.00093

 WARNING:  1 low occupancy (<1.9990e) core orbital  found on  C    3
           1 low occupancy (<1.9990e) core orbital  found on  C    8
           1 low occupancy (<1.9990e) core orbital  found on  C   12


 Summary of Natural Population Analysis:                  
                                                          
                                       Natural Population 
                Natural  -----------------------------------------------
    Atom  No    Charge         Core      Valence    Rydberg      Total
 -----------------------------------------------------------------------
      C    1   -0.32288      1.99942     4.30953    0.01393     6.32288
      O    2   -0.45324      1.99975     6.44190    0.01158     8.45324
      C    3    0.36474      1.99879     3.61403    0.02244     5.63526
      C    4   -0.37976      1.99905     4.36604    0.01468     6.37976
      C    5   -0.20758      1.99907     4.19233    0.01617     6.20758
      C    6   -0.03987      1.99903     4.02566    0.01518     6.03987
      C    7   -0.05243      1.99903     4.03829    0.01510     6.05243
      C    8   -0.23642      1.99900     4.22141    0.01601     6.23642
      C    9   -0.22944      1.99906     4.21443    0.01594     6.22944
      C   10   -0.28409      1.99905     4.26967    0.01537     6.28409
      C   11    0.02999      1.99901     3.95335    0.01765     5.97001
      C   12   -0.24750      1.99897     4.23363    0.01490     6.24750
      C   13   -0.35440      1.99906     4.34023    0.01510     6.35440
      C   14    0.83681      1.99939     3.11391    0.04990     5.16319
      O   15   -0.61436      1.99977     6.59507    0.01952     8.61436
      O   16   -0.56093      1.99973     6.54926    0.01194     8.56093
      C   17    0.08109      1.99913     3.90131    0.01847     5.91891
      C   18   -0.70038      1.99940     4.69262    0.00836     6.70038
      C   19   -0.69300      1.99940     4.68484    0.00877     6.69300
      C   20   -0.66224      1.99943     4.65366    0.00916     6.66224
      H   21    0.23275      0.00000     0.76673    0.00052     0.76725
      H   22    0.21659      0.00000     0.78150    0.00191     0.78341
      H   23    0.21645      0.00000     0.78166    0.00189     0.78355
      H   24    0.23274      0.00000     0.76642    0.00085     0.76726
      H   25    0.23226      0.00000     0.76661    0.00113     0.76774
      H   26    0.24395      0.00000     0.75447    0.00159     0.75605
      H   27    0.22894      0.00000     0.76995    0.00111     0.77106
      H   28    0.24529      0.00000     0.75319    0.00152     0.75471
      H   29    0.22667      0.00000     0.77202    0.00130     0.77333
      H   30    0.26295      0.00000     0.73502    0.00203     0.73705
      H   31    0.24280      0.00000     0.75435    0.00285     0.75720
      H   32    0.23015      0.00000     0.76838    0.00147     0.76985
      H   33    0.24872      0.00000     0.75008    0.00120     0.75128
      H   34    0.23572      0.00000     0.76347    0.00081     0.76428
      H   35    0.23301      0.00000     0.76560    0.00139     0.76699
      H   36    0.23598      0.00000     0.76329    0.00073     0.76402
      H   37    0.24369      0.00000     0.75529    0.00102     0.75631
      H   38    0.24625      0.00000     0.75239    0.00136     0.75375
      H   39    0.23389      0.00000     0.76494    0.00117     0.76611
      H   40    0.23709      0.00000     0.76198    0.00093     0.76291
 =======================================================================
   * Total *    0.00000     39.98452   105.65855    0.35693   146.00000

                                 Natural Population      
 --------------------------------------------------------
   Core                      39.98452 ( 99.9613% of  40)
   Valence                  105.65855 ( 99.6779% of 106)
   Natural Minimal Basis    145.64307 ( 99.7555% of 146)
   Natural Rydberg Basis      0.35693 (  0.2445% of 146)
 --------------------------------------------------------

    Atom  No          Natural Electron Configuration
 ----------------------------------------------------------------------------
      C    1      [core]2S( 1.10)2p( 3.21)3p( 0.01)3d( 0.01)
      O    2      [core]2S( 1.60)2p( 4.85)3p( 0.01)3d( 0.01)
      C    3      [core]2S( 0.84)2p( 2.77)3p( 0.01)3d( 0.01)
      C    4      [core]2S( 0.95)2p( 3.41)3p( 0.01)
      C    5      [core]2S( 0.94)2p( 3.25)3p( 0.01)
      C    6      [core]2S( 0.87)2p( 3.16)3p( 0.01)
      C    7      [core]2S( 0.87)2p( 3.17)3p( 0.01)
      C    8      [core]2S( 0.95)2p( 3.27)3p( 0.01)
      C    9      [core]2S( 0.94)2p( 3.27)3p( 0.01)
      C   10      [core]2S( 0.95)2p( 3.32)3p( 0.01)
      C   11      [core]2S( 0.88)2p( 3.07)3p( 0.01)
      C   12      [core]2S( 0.93)2p( 3.30)3p( 0.01)
      C   13      [core]2S( 0.99)2p( 3.35)3p( 0.01)
      C   14      [core]2S( 0.77)2p( 2.34)3S( 0.01)3p( 0.03)3d( 0.01)
      O   15      [core]2S( 1.70)2p( 4.90)3d( 0.02)
      O   16      [core]2S( 1.62)2p( 4.93)3d( 0.01)
      C   17      [core]2S( 0.97)2p( 2.93)3p( 0.01)3d( 0.01)
      C   18      [core]2S( 1.11)2p( 3.58)
      C   19      [core]2S( 1.11)2p( 3.58)3p( 0.01)
      C   20      [core]2S( 1.10)2p( 3.55)3p( 0.01)
      H   21            1S( 0.77)
      H   22            1S( 0.78)
      H   23            1S( 0.78)
      H   24            1S( 0.77)
      H   25            1S( 0.77)
      H   26            1S( 0.75)
      H   27            1S( 0.77)
      H   28            1S( 0.75)
      H   29            1S( 0.77)
      H   30            1S( 0.74)
      H   31            1S( 0.75)
      H   32            1S( 0.77)
      H   33            1S( 0.75)
      H   34            1S( 0.76)
      H   35            1S( 0.77)
      H   36            1S( 0.76)
      H   37            1S( 0.76)
      H   38            1S( 0.75)
      H   39            1S( 0.76)
      H   40            1S( 0.76)


 NBO analysis skipped by request.
 Leave Link  607 at Fri Oct  1 05:35:25 2021, MaxMem= 1610612736 cpu:      28.4
 (Enter /sw/target/amd/app/gaussian/Gaussian09RevA.02_gcc-4.9.2/g09/l9999.exe)
 1\1\GINC-HERMITE\SP\RTD-B3LYP-FC\6-31G(d)\C17H20O3\JSCHLEINITZ\01-Oct-
 2021\0\\#p TD(NStates=10, Root=1) b3lyp/6-31G* volume pop=NPA density=
 current Geom=AllCheck Guess=Read\\COc1ccc2c(c1)ccc(c2)[C@@H](C(=O)OC(C
 )C)C_conf_0\\0,1\C,0,0.851575586,-0.3204365928,0.0641789098\O,0,2.0572
 15001,0.4256762573,0.042197935\C,0,2.7948228084,0.5177484386,1.1895485
 04\C,0,2.4294746284,-0.102101199,2.4133047206\C,0,3.2328969901,0.04393
 66232,3.5241151329\C,0,4.4272267446,0.8045601641,3.4809481234\C,0,4.79
 10578596,1.4271473153,2.2421313529\C,0,3.9562481262,1.2661634752,1.113
 3586828\C,0,5.9933596585,2.1886994771,2.2017757365\C,0,6.7819890444,2.
 3306768101,3.3175851257\C,0,6.4240238368,1.7188997495,4.5542176128\C,0
 ,5.2689371116,0.969146727,4.6137696976\C,0,7.2912101104,1.9175047889,5
 .7943586544\C,0,8.724890321,1.4852766645,5.4915404566\O,0,9.5769135473
 ,2.2087623099,5.0150808147\O,0,8.9144323044,0.1842579041,5.7907464439\
 C,0,10.2187709438,-0.3931782689,5.4801225122\C,0,11.181723638,-0.11460
 46637,6.6298289536\C,0,9.9714596381,-1.8751776118,5.2361066783\C,0,7.2
 670651056,3.3723783114,6.2951730189\H,0,0.4389578285,-0.2482809236,-0.
 9439699647\H,0,0.1286486633,0.0945585325,0.7792013287\H,0,1.0299384912
 ,-1.3771189244,0.3045530421\H,0,1.5223302202,-0.6913539505,2.483424917
 7\H,0,2.9476164755,-0.4336806736,4.4586652018\H,0,4.2179413867,1.73209
 39907,0.1677528164\H,0,6.2830024714,2.6596818331,1.2653627352\H,0,7.70
 23531411,2.904962616,3.262221019\H,0,4.9805191839,0.4884466488,5.54683
 07739\H,0,6.9113576292,1.2542784279,6.5781026715\H,0,10.580940451,0.09
 43109597,4.5704582832\H,0,10.799389978,-0.5402796304,7.564497869\H,0,1
 1.3224800701,0.9617684083,6.7607391038\H,0,12.1586994078,-0.5650096126
 ,6.4206621432\H,0,9.575706996,-2.3573195216,6.1369454189\H,0,10.908865
 4402,-2.3721688977,4.9633123696\H,0,9.2532828635,-2.0203182564,4.42318
 1336\H,0,7.6961631727,4.0471328634,5.5499239848\H,0,7.8492607298,3.477
 4802221,7.2175468632\H,0,6.2369101528,3.6820116925,6.4968686343\\Versi
 on=AM64L-G09RevA.02\State=1-A\HF=-885.5548724\RMSD=7.798e-09\Dipole=-1
 .2573842,-1.0594366,-0.2818745\Quadrupole=7.4949155,-7.9562513,0.46133
 57,0.1542385,9.4132916,0.9815383\PG=C01 [X(C17H20O3)]\\@


 ACTORS ARE SO FORTUNATE.  THEY CAN CHOOSE WHETHER
 THEY WILL APPEAR IN A TRAGEDY OR IN COMEDY,
 WHETHER THEY WILL SUFFER OF MAKE MERRY,
 LAUGH OR SHED TEARS.  BUT IN REAL LIFE IT IS DIFFERENT.
 MOST MEN AND WOMEN ARE FORCED TO PERFORM
 PARTS FOR WHICH THEY HAVE NO QUALIFICATIONS.
 THE WORLD IS A STAGE, BUT THE PLAY IS BADLY CAST.

                                   -- OSCAR WILDE
 Job cpu time:  0 days  6 hours 58 minutes 17.2 seconds.
 File lengths (MBytes):  RWF=    380 Int=      0 D2E=      0 Chk=     52 Scr=      1
 Normal termination of Gaussian 09 at Fri Oct  1 05:35:28 2021.
