 Entering Gaussian System, Link 0=g09
 Input=C17H15NO2_4d27_conf_0.com
 Output=C17H15NO2_4d27_conf_0.log
 Initial command:
 /sw/target/amd/app/gaussian/Gaussian09RevA.02_gcc-4.9.2/g09/l1.exe /home/jschleinitz/gaussian/Gau-1875908.inp -scrdir=/home/jschleinitz/gaussian/
 Entering Link 1 = /sw/target/amd/app/gaussian/Gaussian09RevA.02_gcc-4.9.2/g09/l1.exe PID=   1875918.
  
 Copyright (c) 1988,1990,1992,1993,1995,1998,2003,2009, Gaussian, Inc.
                  All Rights Reserved.
  
 This is part of the Gaussian(R) 09 program.  It is based on
 the Gaussian(R) 03 system (copyright 2003, Gaussian, Inc.),
 the Gaussian(R) 98 system (copyright 1998, Gaussian, Inc.),
 the Gaussian(R) 94 system (copyright 1995, Gaussian, Inc.),
 the Gaussian 92(TM) system (copyright 1992, Gaussian, Inc.),
 the Gaussian 90(TM) system (copyright 1990, Gaussian, Inc.),
 the Gaussian 88(TM) system (copyright 1988, Gaussian, Inc.),
 the Gaussian 86(TM) system (copyright 1986, Carnegie Mellon
 University), and the Gaussian 82(TM) system (copyright 1983,
 Carnegie Mellon University). Gaussian is a federally registered
 trademark of Gaussian, Inc.
  
 This software contains proprietary and confidential information,
 including trade secrets, belonging to Gaussian, Inc.
  
 This software is provided under written license and may be
 used, copied, transmitted, or stored only in accord with that
 written license.
  
 The following legend is applicable only to US Government
 contracts under FAR:
  
                    RESTRICTED RIGHTS LEGEND
  
 Use, reproduction and disclosure by the US Government is
 subject to restrictions as set forth in subparagraphs (a)
 and (c) of the Commercial Computer Software - Restricted
 Rights clause in FAR 52.227-19.
  
 Gaussian, Inc.
 340 Quinnipiac St., Bldg. 40, Wallingford CT 06492
  
  
 ---------------------------------------------------------------
 Warning -- This program may not be used in any manner that
 competes with the business of Gaussian, Inc. or will provide
 assistance to any competitor of Gaussian, Inc.  The licensee
 of this program is prohibited from giving any competitor of
 Gaussian, Inc. access to this program.  By using this program,
 the user acknowledges that Gaussian, Inc. is engaged in the
 business of creating and licensing software in the field of
 computational chemistry and represents and warrants to the
 licensee that it is not a competitor of Gaussian, Inc. and that
 it will not use this program in any manner prohibited above.
 ---------------------------------------------------------------
  

 Cite this work as:
 Gaussian 09, Revision A.02,
 M. J. Frisch, G. W. Trucks, H. B. Schlegel, G. E. Scuseria, 
 M. A. Robb, J. R. Cheeseman, G. Scalmani, V. Barone, B. Mennucci, 
 G. A. Petersson, H. Nakatsuji, M. Caricato, X. Li, H. P. Hratchian, 
 A. F. Izmaylov, J. Bloino, G. Zheng, J. L. Sonnenberg, M. Hada, 
 M. Ehara, K. Toyota, R. Fukuda, J. Hasegawa, M. Ishida, T. Nakajima, 
 Y. Honda, O. Kitao, H. Nakai, T. Vreven, J. A. Montgomery, Jr., 
 J. E. Peralta, F. Ogliaro, M. Bearpark, J. J. Heyd, E. Brothers, 
 K. N. Kudin, V. N. Staroverov, R. Kobayashi, J. Normand, 
 K. Raghavachari, A. Rendell, J. C. Burant, S. S. Iyengar, J. Tomasi, 
 M. Cossi, N. Rega, J. M. Millam, M. Klene, J. E. Knox, J. B. Cross, 
 V. Bakken, C. Adamo, J. Jaramillo, R. Gomperts, R. E. Stratmann, 
 O. Yazyev, A. J. Austin, R. Cammi, C. Pomelli, J. W. Ochterski, 
 R. L. Martin, K. Morokuma, V. G. Zakrzewski, G. A. Voth, 
 P. Salvador, J. J. Dannenberg, S. Dapprich, A. D. Daniels, 
 O. Farkas, J. B. Foresman, J. V. Ortiz, J. Cioslowski, 
 and D. J. Fox, Gaussian, Inc., Wallingford CT, 2009.
 
 ******************************************
 Gaussian 09:  AM64L-G09RevA.02 11-Jun-2009
                30-Sep-2021 
 ******************************************
 %nproc=5
 Will use up to    5 processors via shared memory.
 %mem=10gb
 %chk=C17H15NO2_4d27_conf_0.chk
 -----------------------------------
 #p opt b3lyp/6-31G* scf=(xqc,tight)
 -----------------------------------
 1/14=-1,18=20,19=15,26=3,38=1/1,3;
 2/9=110,12=2,17=6,18=5,40=1/2;
 3/5=1,6=6,7=1,11=2,16=1,25=1,30=1,71=1,74=-5/1,2,3;
 4//1;
 5/5=2,8=3,13=1,32=2,38=5/2,8;
 6/7=2,8=2,9=2,10=2,28=1/1;
 7//1,2,3,16;
 1/14=-1,18=20,19=15/3(2);
 2/9=110/2;
 99//99;
 2/9=110/2;
 3/5=1,6=6,7=1,11=2,16=1,25=1,30=1,71=1,74=-5/1,2,3;
 4/5=5,16=3/1;
 5/5=2,8=3,13=1,32=2,38=5/2,8;
 7//1,2,3,16;
 1/14=-1,18=20,19=15/3(-5);
 2/9=110/2;
 6/7=2,8=2,9=2,10=2,19=2,28=1/1;
 99/9=1/99;
 Leave Link    1 at Thu Sep 30 05:35:12 2021, MaxMem= 1342177280 cpu:       0.1
 (Enter /sw/target/amd/app/gaussian/Gaussian09RevA.02_gcc-4.9.2/g09/l101.exe)
 --------------------------------------
 CN(C(=O)Oc1cc2ccccc2c2c1cccc2)C_conf_0
 --------------------------------------
 Symbolic Z-matrix:
 Charge =  0 Multiplicity = 1
 C                     1.4782    0.27391  -0.41257 
 N                     2.34631  -0.83689  -0.07796 
 C                     2.95841  -1.54034  -1.10783 
 O                     3.04123  -1.12516  -2.25704 
 O                     3.42827  -2.78479  -0.6783 
 C                     3.96015  -3.78094  -1.5412 
 C                     3.50002  -3.91063  -2.84784 
 C                     4.018    -4.90048  -3.67979 
 C                     3.58001  -4.9672   -5.01335 
 C                     4.07984  -5.93026  -5.88442 
 C                     5.01633  -6.84263  -5.42532 
 C                     5.45312  -6.78848  -4.09841 
 C                     4.97771  -5.81786  -3.18216 
 C                     5.4123   -5.71428  -1.81023 
 C                     4.89989  -4.67489  -0.99085 
 C                     5.34127  -4.56026   0.34869 
 C                     6.2625   -5.44976   0.8955 
 C                     6.761    -6.47706   0.11372 
 C                     6.34379  -6.60332  -1.21362 
 C                     2.25785  -1.36467   1.27086 
 H                     1.6378    0.62633  -1.43493 
 H                     1.6603    1.09688   0.28279 
 H                     0.44056  -0.0628   -0.31874 
 H                     2.73951  -3.23678  -3.23085 
 H                     2.85049  -4.25201  -5.38948 
 H                     3.74156  -5.95988  -6.91522 
 H                     5.41645  -7.59752  -6.0974 
 H                     6.19169  -7.52544  -3.79623 
 H                     4.96589  -3.76082   0.98353 
 H                     6.58752  -5.33729   1.92615 
 H                     7.47747  -7.18201   0.52694 
 H                     6.76864  -7.42643  -1.78108 
 H                     2.23302  -0.53656   1.98407 
 H                     3.11918  -1.99552   1.50783 
 H                     1.34397  -1.95851   1.35453 
 
 NAtoms=     35 NQM=     35 NQMF=      0 NMic=      0 NMicF=      0 NTot=     35.
                    Isotopes and Nuclear Properties:
 (Nuclear quadrupole moments (NQMom) in fm**2, nuclear magnetic moments (NMagM)
  in nuclear magnetons)

  Atom         1           2           3           4           5           6           7           8           9          10
 IAtWgt=          12          14          12          16          16          12          12          12          12          12
 AtmWgt=  12.0000000  14.0030740  12.0000000  15.9949146  15.9949146  12.0000000  12.0000000  12.0000000  12.0000000  12.0000000
 NucSpn=           0           2           0           0           0           0           0           0           0           0
 AtZEff=   0.0000000   0.0000000   0.0000000   0.0000000   0.0000000   0.0000000   0.0000000   0.0000000   0.0000000   0.0000000
 NQMom=    0.0000000   2.0440000   0.0000000   0.0000000   0.0000000   0.0000000   0.0000000   0.0000000   0.0000000   0.0000000
 NMagM=    0.0000000   0.4037610   0.0000000   0.0000000   0.0000000   0.0000000   0.0000000   0.0000000   0.0000000   0.0000000

  Atom        11          12          13          14          15          16          17          18          19          20
 IAtWgt=          12          12          12          12          12          12          12          12          12          12
 AtmWgt=  12.0000000  12.0000000  12.0000000  12.0000000  12.0000000  12.0000000  12.0000000  12.0000000  12.0000000  12.0000000
 NucSpn=           0           0           0           0           0           0           0           0           0           0
 AtZEff=   0.0000000   0.0000000   0.0000000   0.0000000   0.0000000   0.0000000   0.0000000   0.0000000   0.0000000   0.0000000
 NQMom=    0.0000000   0.0000000   0.0000000   0.0000000   0.0000000   0.0000000   0.0000000   0.0000000   0.0000000   0.0000000
 NMagM=    0.0000000   0.0000000   0.0000000   0.0000000   0.0000000   0.0000000   0.0000000   0.0000000   0.0000000   0.0000000

  Atom        21          22          23          24          25          26          27          28          29          30
 IAtWgt=           1           1           1           1           1           1           1           1           1           1
 AtmWgt=   1.0078250   1.0078250   1.0078250   1.0078250   1.0078250   1.0078250   1.0078250   1.0078250   1.0078250   1.0078250
 NucSpn=           1           1           1           1           1           1           1           1           1           1
 AtZEff=   0.0000000   0.0000000   0.0000000   0.0000000   0.0000000   0.0000000   0.0000000   0.0000000   0.0000000   0.0000000
 NQMom=    0.0000000   0.0000000   0.0000000   0.0000000   0.0000000   0.0000000   0.0000000   0.0000000   0.0000000   0.0000000
 NMagM=    2.7928460   2.7928460   2.7928460   2.7928460   2.7928460   2.7928460   2.7928460   2.7928460   2.7928460   2.7928460

  Atom        31          32          33          34          35
 IAtWgt=           1           1           1           1           1
 AtmWgt=   1.0078250   1.0078250   1.0078250   1.0078250   1.0078250
 NucSpn=           1           1           1           1           1
 AtZEff=   0.0000000   0.0000000   0.0000000   0.0000000   0.0000000
 NQMom=    0.0000000   0.0000000   0.0000000   0.0000000   0.0000000
 NMagM=    2.7928460   2.7928460   2.7928460   2.7928460   2.7928460
 Leave Link  101 at Thu Sep 30 05:35:13 2021, MaxMem= 1342177280 cpu:       0.1
 (Enter /sw/target/amd/app/gaussian/Gaussian09RevA.02_gcc-4.9.2/g09/l103.exe)

 GradGradGradGradGradGradGradGradGradGradGradGradGradGradGradGradGradGrad
 Berny optimization.
 Initialization pass.
                           ----------------------------
                           !    Initial Parameters    !
                           ! (Angstroms and Degrees)  !
 --------------------------                            --------------------------
 ! Name  Definition              Value          Derivative Info.                !
 --------------------------------------------------------------------------------
 ! R1    R(1,2)                  1.449          estimate D2E/DX2                !
 ! R2    R(1,21)                 1.0931         estimate D2E/DX2                !
 ! R3    R(1,22)                 1.0927         estimate D2E/DX2                !
 ! R4    R(1,23)                 1.0949         estimate D2E/DX2                !
 ! R5    R(2,3)                  1.3893         estimate D2E/DX2                !
 ! R6    R(2,20)                 1.4511         estimate D2E/DX2                !
 ! R7    R(3,4)                  1.2247         estimate D2E/DX2                !
 ! R8    R(3,5)                  1.3978         estimate D2E/DX2                !
 ! R9    R(5,6)                  1.4212         estimate D2E/DX2                !
 ! R10   R(6,7)                  1.3913         estimate D2E/DX2                !
 ! R11   R(6,15)                 1.4089         estimate D2E/DX2                !
 ! R12   R(7,8)                  1.3929         estimate D2E/DX2                !
 ! R13   R(7,24)                 1.0859         estimate D2E/DX2                !
 ! R14   R(8,9)                  1.4052         estimate D2E/DX2                !
 ! R15   R(8,13)                 1.4178         estimate D2E/DX2                !
 ! R16   R(9,10)                 1.3914         estimate D2E/DX2                !
 ! R17   R(9,25)                 1.0887         estimate D2E/DX2                !
 ! R18   R(10,11)                1.3857         estimate D2E/DX2                !
 ! R19   R(10,26)                1.0853         estimate D2E/DX2                !
 ! R20   R(11,12)                1.398          estimate D2E/DX2                !
 ! R21   R(11,27)                1.087          estimate D2E/DX2                !
 ! R22   R(12,13)                1.4169         estimate D2E/DX2                !
 ! R23   R(12,28)                1.0862         estimate D2E/DX2                !
 ! R24   R(13,14)                1.4428         estimate D2E/DX2                !
 ! R25   R(14,15)                1.4193         estimate D2E/DX2                !
 ! R26   R(14,19)                1.4192         estimate D2E/DX2                !
 ! R27   R(15,16)                1.415          estimate D2E/DX2                !
 ! R28   R(16,17)                1.3924         estimate D2E/DX2                !
 ! R29   R(16,29)                1.0877         estimate D2E/DX2                !
 ! R30   R(17,18)                1.3839         estimate D2E/DX2                !
 ! R31   R(17,30)                1.0865         estimate D2E/DX2                !
 ! R32   R(18,19)                1.3971         estimate D2E/DX2                !
 ! R33   R(18,31)                1.0868         estimate D2E/DX2                !
 ! R34   R(19,32)                1.0863         estimate D2E/DX2                !
 ! R35   R(20,33)                1.0932         estimate D2E/DX2                !
 ! R36   R(20,34)                1.0936         estimate D2E/DX2                !
 ! R37   R(20,35)                1.0931         estimate D2E/DX2                !
 ! A1    A(2,1,21)             112.0654         estimate D2E/DX2                !
 ! A2    A(2,1,22)             109.3045         estimate D2E/DX2                !
 ! A3    A(2,1,23)             108.1942         estimate D2E/DX2                !
 ! A4    A(21,1,22)            109.1494         estimate D2E/DX2                !
 ! A5    A(21,1,23)            108.5217         estimate D2E/DX2                !
 ! A6    A(22,1,23)            109.5731         estimate D2E/DX2                !
 ! A7    A(1,2,3)              118.7475         estimate D2E/DX2                !
 ! A8    A(1,2,20)             117.191          estimate D2E/DX2                !
 ! A9    A(3,2,20)             122.1231         estimate D2E/DX2                !
 ! A10   A(2,3,4)              123.6234         estimate D2E/DX2                !
 ! A11   A(2,3,5)              111.7827         estimate D2E/DX2                !
 ! A12   A(4,3,5)              124.5705         estimate D2E/DX2                !
 ! A13   A(3,5,6)              124.2803         estimate D2E/DX2                !
 ! A14   A(5,6,7)              120.781          estimate D2E/DX2                !
 ! A15   A(5,6,15)             117.205          estimate D2E/DX2                !
 ! A16   A(7,6,15)             121.8885         estimate D2E/DX2                !
 ! A17   A(6,7,8)              120.2756         estimate D2E/DX2                !
 ! A18   A(6,7,24)             120.3325         estimate D2E/DX2                !
 ! A19   A(8,7,24)             119.3904         estimate D2E/DX2                !
 ! A20   A(7,8,9)              118.9886         estimate D2E/DX2                !
 ! A21   A(7,8,13)             120.1245         estimate D2E/DX2                !
 ! A22   A(9,8,13)             120.886          estimate D2E/DX2                !
 ! A23   A(8,9,10)             120.9969         estimate D2E/DX2                !
 ! A24   A(8,9,25)             120.3682         estimate D2E/DX2                !
 ! A25   A(10,9,25)            118.6282         estimate D2E/DX2                !
 ! A26   A(9,10,11)            119.4107         estimate D2E/DX2                !
 ! A27   A(9,10,26)            120.1004         estimate D2E/DX2                !
 ! A28   A(11,10,26)           120.4878         estimate D2E/DX2                !
 ! A29   A(10,11,12)           120.0075         estimate D2E/DX2                !
 ! A30   A(10,11,27)           120.0757         estimate D2E/DX2                !
 ! A31   A(12,11,27)           119.9158         estimate D2E/DX2                !
 ! A32   A(11,12,13)           122.3758         estimate D2E/DX2                !
 ! A33   A(11,12,28)           116.7563         estimate D2E/DX2                !
 ! A34   A(13,12,28)           120.8645         estimate D2E/DX2                !
 ! A35   A(8,13,12)            116.3202         estimate D2E/DX2                !
 ! A36   A(8,13,14)            119.4167         estimate D2E/DX2                !
 ! A37   A(12,13,14)           124.2624         estimate D2E/DX2                !
 ! A38   A(13,14,15)           119.5235         estimate D2E/DX2                !
 ! A39   A(13,14,19)           123.5364         estimate D2E/DX2                !
 ! A40   A(15,14,19)           116.9399         estimate D2E/DX2                !
 ! A41   A(6,15,14)            118.6827         estimate D2E/DX2                !
 ! A42   A(6,15,16)            121.7634         estimate D2E/DX2                !
 ! A43   A(14,15,16)           119.5538         estimate D2E/DX2                !
 ! A44   A(15,16,17)           121.7603         estimate D2E/DX2                !
 ! A45   A(15,16,29)           120.2932         estimate D2E/DX2                !
 ! A46   A(17,16,29)           117.9461         estimate D2E/DX2                !
 ! A47   A(16,17,18)           119.386          estimate D2E/DX2                !
 ! A48   A(16,17,30)           120.2845         estimate D2E/DX2                !
 ! A49   A(18,17,30)           120.3294         estimate D2E/DX2                !
 ! A50   A(17,18,19)           119.7522         estimate D2E/DX2                !
 ! A51   A(17,18,31)           120.2798         estimate D2E/DX2                !
 ! A52   A(19,18,31)           119.9676         estimate D2E/DX2                !
 ! A53   A(14,19,18)           122.6024         estimate D2E/DX2                !
 ! A54   A(14,19,32)           120.7823         estimate D2E/DX2                !
 ! A55   A(18,19,32)           116.6152         estimate D2E/DX2                !
 ! A56   A(2,20,33)            109.4084         estimate D2E/DX2                !
 ! A57   A(2,20,34)            111.2967         estimate D2E/DX2                !
 ! A58   A(2,20,35)            108.6453         estimate D2E/DX2                !
 ! A59   A(33,20,34)           108.2702         estimate D2E/DX2                !
 ! A60   A(33,20,35)           110.0359         estimate D2E/DX2                !
 ! A61   A(34,20,35)           109.1781         estimate D2E/DX2                !
 ! D1    D(21,1,2,3)           -17.4655         estimate D2E/DX2                !
 ! D2    D(21,1,2,20)          178.0291         estimate D2E/DX2                !
 ! D3    D(22,1,2,3)          -138.5989         estimate D2E/DX2                !
 ! D4    D(22,1,2,20)           56.8956         estimate D2E/DX2                !
 ! D5    D(23,1,2,3)           102.1409         estimate D2E/DX2                !
 ! D6    D(23,1,2,20)          -62.3646         estimate D2E/DX2                !
 ! D7    D(1,2,3,4)             15.8268         estimate D2E/DX2                !
 ! D8    D(1,2,3,5)           -162.4807         estimate D2E/DX2                !
 ! D9    D(20,2,3,4)           179.5321         estimate D2E/DX2                !
 ! D10   D(20,2,3,5)             1.2246         estimate D2E/DX2                !
 ! D11   D(1,2,20,33)          -44.7768         estimate D2E/DX2                !
 ! D12   D(1,2,20,34)         -164.3864         estimate D2E/DX2                !
 ! D13   D(1,2,20,35)           75.3722         estimate D2E/DX2                !
 ! D14   D(3,2,20,33)          151.2781         estimate D2E/DX2                !
 ! D15   D(3,2,20,34)           31.6685         estimate D2E/DX2                !
 ! D16   D(3,2,20,35)          -88.5728         estimate D2E/DX2                !
 ! D17   D(2,3,5,6)            172.5757         estimate D2E/DX2                !
 ! D18   D(4,3,5,6)             -5.7128         estimate D2E/DX2                !
 ! D19   D(3,5,6,7)            -31.5426         estimate D2E/DX2                !
 ! D20   D(3,5,6,15)           152.4549         estimate D2E/DX2                !
 ! D21   D(5,6,7,8)           -179.2717         estimate D2E/DX2                !
 ! D22   D(5,6,7,24)             1.1892         estimate D2E/DX2                !
 ! D23   D(15,6,7,8)            -3.4592         estimate D2E/DX2                !
 ! D24   D(15,6,7,24)          177.0017         estimate D2E/DX2                !
 ! D25   D(5,6,15,14)          177.5842         estimate D2E/DX2                !
 ! D26   D(5,6,15,16)           -2.4578         estimate D2E/DX2                !
 ! D27   D(7,6,15,14)            1.6291         estimate D2E/DX2                !
 ! D28   D(7,6,15,16)         -178.4129         estimate D2E/DX2                !
 ! D29   D(6,7,8,9)           -177.0178         estimate D2E/DX2                !
 ! D30   D(6,7,8,13)             2.6368         estimate D2E/DX2                !
 ! D31   D(24,7,8,9)             2.5257         estimate D2E/DX2                !
 ! D32   D(24,7,8,13)         -177.8197         estimate D2E/DX2                !
 ! D33   D(7,8,9,10)           179.3369         estimate D2E/DX2                !
 ! D34   D(7,8,9,25)             0.2924         estimate D2E/DX2                !
 ! D35   D(13,8,9,10)           -0.315          estimate D2E/DX2                !
 ! D36   D(13,8,9,25)         -179.3595         estimate D2E/DX2                !
 ! D37   D(7,8,13,12)         -179.8181         estimate D2E/DX2                !
 ! D38   D(7,8,13,14)           -0.1012         estimate D2E/DX2                !
 ! D39   D(9,8,13,12)           -0.1701         estimate D2E/DX2                !
 ! D40   D(9,8,13,14)          179.5468         estimate D2E/DX2                !
 ! D41   D(8,9,10,11)            0.4784         estimate D2E/DX2                !
 ! D42   D(8,9,10,26)         -179.1502         estimate D2E/DX2                !
 ! D43   D(25,9,10,11)         179.5391         estimate D2E/DX2                !
 ! D44   D(25,9,10,26)          -0.0895         estimate D2E/DX2                !
 ! D45   D(9,10,11,12)          -0.1475         estimate D2E/DX2                !
 ! D46   D(9,10,11,27)        -179.7993         estimate D2E/DX2                !
 ! D47   D(26,10,11,12)        179.4796         estimate D2E/DX2                !
 ! D48   D(26,10,11,27)         -0.1722         estimate D2E/DX2                !
 ! D49   D(10,11,12,13)         -0.3571         estimate D2E/DX2                !
 ! D50   D(10,11,12,28)       -179.6918         estimate D2E/DX2                !
 ! D51   D(27,11,12,13)        179.2953         estimate D2E/DX2                !
 ! D52   D(27,11,12,28)         -0.0394         estimate D2E/DX2                !
 ! D53   D(11,12,13,8)           0.5058         estimate D2E/DX2                !
 ! D54   D(11,12,13,14)       -179.1959         estimate D2E/DX2                !
 ! D55   D(28,12,13,8)         179.8137         estimate D2E/DX2                !
 ! D56   D(28,12,13,14)          0.112          estimate D2E/DX2                !
 ! D57   D(8,13,14,15)          -1.674          estimate D2E/DX2                !
 ! D58   D(8,13,14,19)         178.5026         estimate D2E/DX2                !
 ! D59   D(12,13,14,15)        178.019          estimate D2E/DX2                !
 ! D60   D(12,13,14,19)         -1.8045         estimate D2E/DX2                !
 ! D61   D(13,14,15,6)           0.9293         estimate D2E/DX2                !
 ! D62   D(13,14,15,16)       -179.0297         estimate D2E/DX2                !
 ! D63   D(19,14,15,6)        -179.2357         estimate D2E/DX2                !
 ! D64   D(19,14,15,16)          0.8053         estimate D2E/DX2                !
 ! D65   D(13,14,19,18)        179.3623         estimate D2E/DX2                !
 ! D66   D(13,14,19,32)         -0.72           estimate D2E/DX2                !
 ! D67   D(15,14,19,18)         -0.4654         estimate D2E/DX2                !
 ! D68   D(15,14,19,32)        179.4523         estimate D2E/DX2                !
 ! D69   D(6,15,16,17)         179.5137         estimate D2E/DX2                !
 ! D70   D(6,15,16,29)          -0.7236         estimate D2E/DX2                !
 ! D71   D(14,15,16,17)         -0.5286         estimate D2E/DX2                !
 ! D72   D(14,15,16,29)        179.234          estimate D2E/DX2                !
 ! D73   D(15,16,17,18)         -0.1446         estimate D2E/DX2                !
 ! D74   D(15,16,17,30)        179.7882         estimate D2E/DX2                !
 ! D75   D(29,16,17,18)       -179.9126         estimate D2E/DX2                !
 ! D76   D(29,16,17,30)          0.0202         estimate D2E/DX2                !
 ! D77   D(16,17,18,19)          0.5005         estimate D2E/DX2                !
 ! D78   D(16,17,18,31)       -179.745          estimate D2E/DX2                !
 ! D79   D(30,17,18,19)       -179.4322         estimate D2E/DX2                !
 ! D80   D(30,17,18,31)          0.3223         estimate D2E/DX2                !
 ! D81   D(17,18,19,14)         -0.1921         estimate D2E/DX2                !
 ! D82   D(17,18,19,32)        179.887          estimate D2E/DX2                !
 ! D83   D(31,18,19,14)       -179.9474         estimate D2E/DX2                !
 ! D84   D(31,18,19,32)          0.1317         estimate D2E/DX2                !
 --------------------------------------------------------------------------------
 Trust Radius=3.00D-01 FncErr=1.00D-07 GrdErr=1.00D-06
 Number of steps in this run= 192 maximum allowed number of steps= 210.
 GradGradGradGradGradGradGradGradGradGradGradGradGradGradGradGradGradGrad

 Leave Link  103 at Thu Sep 30 05:35:14 2021, MaxMem= 1342177280 cpu:       0.0
 (Enter /sw/target/amd/app/gaussian/Gaussian09RevA.02_gcc-4.9.2/g09/l202.exe)
                          Input orientation:                          
 ---------------------------------------------------------------------
 Center     Atomic      Atomic             Coordinates (Angstroms)
 Number     Number       Type             X           Y           Z
 ---------------------------------------------------------------------
      1          6           0        1.478201    0.273911   -0.412570
      2          7           0        2.346313   -0.836890   -0.077962
      3          6           0        2.958413   -1.540344   -1.107834
      4          8           0        3.041229   -1.125162   -2.257043
      5          8           0        3.428272   -2.784789   -0.678303
      6          6           0        3.960153   -3.780945   -1.541199
      7          6           0        3.500021   -3.910627   -2.847842
      8          6           0        4.018000   -4.900479   -3.679789
      9          6           0        3.580005   -4.967195   -5.013351
     10          6           0        4.079838   -5.930258   -5.884424
     11          6           0        5.016327   -6.842626   -5.425317
     12          6           0        5.453117   -6.788476   -4.098408
     13          6           0        4.977705   -5.817863   -3.182165
     14          6           0        5.412303   -5.714285   -1.810228
     15          6           0        4.899895   -4.674890   -0.990852
     16          6           0        5.341266   -4.560259    0.348685
     17          6           0        6.262504   -5.449756    0.895501
     18          6           0        6.760998   -6.477064    0.113717
     19          6           0        6.343790   -6.603325   -1.213618
     20          6           0        2.257852   -1.364668    1.270864
     21          1           0        1.637805    0.626330   -1.434932
     22          1           0        1.660299    1.096884    0.282787
     23          1           0        0.440561   -0.062803   -0.318737
     24          1           0        2.739512   -3.236777   -3.230849
     25          1           0        2.850491   -4.252006   -5.389481
     26          1           0        3.741560   -5.959881   -6.915221
     27          1           0        5.416448   -7.597516   -6.097403
     28          1           0        6.191687   -7.525445   -3.796231
     29          1           0        4.965892   -3.760823    0.983526
     30          1           0        6.587523   -5.337288    1.926154
     31          1           0        7.477466   -7.182013    0.526940
     32          1           0        6.768639   -7.426433   -1.781081
     33          1           0        2.233019   -0.536559    1.984073
     34          1           0        3.119184   -1.995520    1.507830
     35          1           0        1.343972   -1.958508    1.354534
 ---------------------------------------------------------------------
                    Distance matrix (angstroms):
                    1          2          3          4          5
     1  C    0.000000
     2  N    1.448952   0.000000
     3  C    2.442528   1.389299   0.000000
     4  O    2.793303   2.305299   1.224710   0.000000
     5  O    3.637174   2.307672   1.397822   2.323055   0.000000
     6  C    4.886281   3.662376   2.492304   2.900006   1.421202
     7  C    5.246776   4.295478   2.989850   2.884154   2.445314
     8  C    6.625678   5.681589   4.362130   4.151061   3.719253
     9  C    7.283815   6.552823   5.232853   4.759068   4.855777
    10  C    8.671875   7.915965   6.583672   6.109464   6.117370
    11  C    9.396333   8.473019   7.140719   6.828497   6.443765
    12  C    8.902958   7.825445   6.535286   6.425025   5.641509
    13  C    7.551615   6.431982   5.165032   5.160158   4.227246
    14  C    7.299938   6.015814   4.892515   5.184754   3.714779
    15  C    6.044256   4.699403   3.688958   4.202195   2.415749
    16  C    6.234740   4.797421   4.113310   4.886704   2.804736
    17  C    7.573703   6.128843   5.496714   6.246380   4.196639
    18  C    8.588399   7.165037   6.350043   6.935419   5.036592
    19  C    8.462388   7.107834   6.091448   6.481197   4.834049
    20  C    2.475227   1.451105   2.485931   3.621764   2.680648
    21  H    1.093113   2.117632   2.558413   2.390228   3.926066
    22  H    1.092687   2.083323   3.251753   3.646257   4.372276
    23  H    1.094932   2.071007   3.024133   3.413079   4.057697
    24  H    4.675310   3.981803   2.726351   2.344834   2.682196
    25  H    6.865621   6.334781   5.069246   4.430090   4.968074
    26  H    9.288026   8.656781   7.339711   6.750081   7.005606
    27  H   10.477904   9.558528   8.223567   7.891856   7.515440
    28  H    9.720909   8.564415   7.314572   7.297815   6.311241
    29  H    5.512908   4.066735   3.651614   4.599165   2.465480
    30  H    7.941055   6.500609   6.065666   6.915008   4.824864
    31  H    9.615855   8.182617   7.410988   8.007259   6.097882
    32  H    9.442291   8.116628   7.043942   7.336630   5.824005
    33  H    2.640173   2.086869   3.330717   4.357376   3.683939
    34  H    3.395744   2.110566   2.659837   3.864954   2.344708
    35  H    2.850328   2.077200   2.973977   4.076596   3.026461
                    6          7          8          9         10
     6  C    0.000000
     7  C    1.391350   0.000000
     8  C    2.414596   1.392927   0.000000
     9  C    3.688841   2.410844   1.405233   0.000000
    10  C    4.847419   3.692686   2.434067   1.391435   0.000000
    11  C    5.057250   4.187981   2.795615   2.397912   1.385715
    12  C    4.220605   3.696014   2.408181   2.768164   2.410868
    13  C    2.806638   2.435749   1.417835   2.455697   2.849737
    14  C    2.432883   2.826065   2.470145   3.765031   4.291990
    15  C    1.408948   2.447888   2.838840   4.243589   5.118152
    16  C    2.467076   3.745663   4.253868   5.658540   6.505363
    17  C    3.744764   4.900290   5.125698   6.507165   7.138788
    18  C    4.225227   5.098176   4.939671   6.219747   6.592822
    19  C    3.708756   4.243623   3.793545   4.975280   5.234016
    20  C    4.079696   4.998862   6.333170   7.363264   8.681151
    21  H    4.982837   5.103738   6.422642   6.918436   8.291583
    22  H    5.692931   6.185513   7.564993   8.276920   9.657607
    23  H    5.263697   5.528328   6.891868   7.479878   8.868384
    24  H    2.154298   1.085883   2.145690   2.622612   4.011581
    25  H    4.032682   2.645441   2.169480   1.088651   2.138409
    26  H    5.803073   4.560851   3.415666   2.151426   1.085290
    27  H    6.119315   5.274988   3.882592   3.386189   2.147472
    28  H    4.907769   4.605586   3.410120   3.853168   3.371213
    29  H    2.717747   4.104948   4.893242   6.272045   7.256739
    30  H    4.620369   5.861661   6.182220   7.572243   8.224671
    31  H    5.311869   6.157206   5.905071   7.126742   7.363175
    32  H    4.608115   4.917594   4.189457   5.163604   5.128899
    33  H    5.092796   6.028020   7.369484   8.390998   9.716788
    34  H    3.632017   4.773316   6.013156   7.181157   8.429142
    35  H    4.307081   5.110702   6.414829   7.389317   8.698406
                   11         12         13         14         15
    11  C    0.000000
    12  C    1.398001   0.000000
    13  C    2.466448   1.416900   0.000000
    14  C    3.807732   2.528106   1.442849   0.000000
    15  C    4.937319   3.798711   2.472710   1.419253   0.000000
    16  C    6.217225   4.975349   3.765720   2.449026   1.415030
    17  C    6.591342   5.233202   4.291103   2.848471   2.452641
    18  C    5.818798   4.421484   3.804933   2.470299   2.816312
    19  C    4.422424   3.024830   2.521570   1.419157   2.419364
    20  C    9.080532   8.273844   6.859884   6.193775   4.801387
    21  H    9.117176   8.753860   7.465613   7.388577   6.240302
    22  H   10.338336   9.785664   8.415747   8.052965   6.740215
    23  H    9.642655   9.200342   7.868011   7.673460   6.450483
    24  H    4.796012   4.553118   3.416707   3.911524   3.428266
    25  H    3.376899   3.856710   3.442266   4.638124   4.871019
    26  H    2.150369   3.398593   3.934963   5.377049   6.171798
    27  H    1.087039   2.156820   3.443585   4.682569   5.906389
    28  H    2.121705   1.086241   2.183270   2.798563   4.202921
    29  H    7.111492   5.935496   4.645915   3.438074   2.176704
    30  H    7.666735   6.299855   5.377489   3.934948   3.434499
    31  H    6.449942   5.064257   4.676234   3.446952   3.902977
    32  H    4.085570   2.739998   2.785314   2.184479   3.418721
    33  H   10.119899   9.297960   7.881338   7.163337   5.752233
    34  H    8.669609   7.736251   6.329333   5.486084   4.073496
    35  H    9.127277   8.363506   6.977125   6.377530   5.052143
                   16         17         18         19         20
    16  C    0.000000
    17  C    1.392441   0.000000
    18  C    2.396872   1.383852   0.000000
    19  C    2.760428   2.405350   1.397076   0.000000
    20  C    4.535378   5.732894   6.910420   7.093029   0.000000
    21  H    6.617977   7.983582   8.894022   8.629206   3.416119
    22  H    6.749601   8.025846   9.132929   9.136056   2.718934
    23  H    6.685018   8.024254   9.015414   8.855922   2.743033
    24  H    4.618852   5.859651   6.152880   5.328573   4.899204
    25  H    6.263029   7.251030   7.108315   5.930403   7.283415
    26  H    7.568510   8.223306   7.667493   6.300310   9.504176
    27  H    7.126194   7.364061   6.453002   5.069491  10.154629
    28  H    5.166806   5.130872   4.087898   2.746513   8.894138
    29  H    1.087670   2.131067   3.370006   3.847838   3.627341
    30  H    2.155305   1.086523   2.148049   3.394175   5.912458
    31  H    3.386549   2.147716   1.086753   2.156303   7.851069
    32  H    3.845550   3.365637   2.119344   1.086286   8.149022
    33  H    5.340960   6.446801   7.700028   7.995581   1.093183
    34  H    3.585966   4.710325   5.940590   6.247898   1.093626
    35  H    4.874340   6.049089   7.162482   7.291633   1.093080
                   21         22         23         24         25
    21  H    0.000000
    22  H    1.781147   0.000000
    23  H    1.776003   1.787307   0.000000
    24  H    4.400303   5.682512   4.882589   0.000000
    25  H    6.395876   7.886812   7.004971   2.388033   0.000000
    26  H    8.822558  10.292759   9.443819   4.689776   2.457381
    27  H   10.180787  11.419635  10.720276   5.865081   4.275246
    28  H    9.631460  10.560133  10.042880   5.534424   4.941401
    29  H    6.014334   5.917372   5.987475   4.795033   6.732859
    30  H    8.447564   8.269023   8.405049   6.768605   8.286239
    31  H    9.945894  10.121223  10.045712   7.220393   8.062126
    32  H    9.554699  10.148971   9.818658   5.990735   6.200759
    33  H    3.660080   2.427039   2.956397   5.894329   8.279802
    34  H    4.210514   3.632084   3.774488   4.913242   7.262013
    35  H    3.814295   3.253325   2.685086   4.960568   7.280898
                   26         27         28         29         30
    26  H    0.000000
    27  H    2.481114   0.000000
    28  H    4.264061   2.429317   0.000000
    29  H    8.290057   8.066149   6.206531   0.000000
    30  H    9.308977   8.417691   6.139252   2.450199   0.000000
    31  H    8.416434   6.949990   4.523382   4.268608   2.480485
    32  H    6.137864   4.526403   2.098453   4.932509   4.259216
    33  H   10.530221  11.193819   9.895832   4.343451   6.481670
    34  H    9.330129   9.721078   8.255508   2.607973   4.834437
    35  H    9.494644  10.193863   9.001195   4.062547   6.264002
                   31         32         33         34         35
    31  H    0.000000
    32  H    2.426755   0.000000
    33  H    8.590082   9.067447   0.000000
    34  H    6.845179   7.323269   1.772191   0.000000
    35  H    8.098744   8.316086   1.791274   1.782202   0.000000
 Stoichiometry    C17H15NO2
 Framework group  C1[X(C17H15NO2)]
 Deg. of freedom    99
 Full point group                 C1      NOp   1
 Largest Abelian subgroup         C1      NOp   1
 Largest concise Abelian subgroup C1      NOp   1
                         Standard orientation:                         
 ---------------------------------------------------------------------
 Center     Atomic      Atomic             Coordinates (Angstroms)
 Number     Number       Type             X           Y           Z
 ---------------------------------------------------------------------
      1          6           0       -5.097975   -1.348816   -0.057041
      2          7           0       -4.056825   -0.342291   -0.008310
      3          6           0       -2.757191   -0.708931   -0.334925
      4          8           0       -2.472423   -1.743743   -0.924829
      5          8           0       -1.823853    0.224796    0.124358
      6          6           0       -0.415503    0.041840    0.070565
      7          6           0        0.142138   -1.228317    0.178234
      8          6           0        1.524640   -1.393914    0.139320
      9          6           0        2.056439   -2.693768    0.186742
     10          6           0        3.430348   -2.908164    0.136755
     11          6           0        4.285859   -1.821624    0.048788
     12          6           0        3.766486   -0.524324    0.007896
     13          6           0        2.374439   -0.262833    0.045769
     14          6           0        1.794008    1.056911   -0.010729
     15          6           0        0.382057    1.200667   -0.007860
     16          6           0       -0.188026    2.493535   -0.084065
     17          6           0        0.600291    3.639351   -0.151539
     18          6           0        1.978671    3.516840   -0.141203
     19          6           0        2.561525    2.248932   -0.074050
     20          6           0       -4.356461    0.887894    0.700613
     21          1           0       -4.796449   -2.223689   -0.638913
     22          1           0       -5.998101   -0.916267   -0.500482
     23          1           0       -5.311695   -1.669518    0.967825
     24          1           0       -0.496187   -2.100157    0.285834
     25          1           0        1.395739   -3.556828    0.248091
     26          1           0        3.824709   -3.918989    0.160535
     27          1           0        5.360905   -1.976804    0.005786
     28          1           0        4.484194    0.287652   -0.066334
     29          1           0       -1.268621    2.616880   -0.095284
     30          1           0        0.137096    4.620282   -0.212834
     31          1           0        2.607814    4.401666   -0.189080
     32          1           0        3.647177    2.211940   -0.070900
     33          1           0       -5.354164    1.235301    0.419639
     34          1           0       -3.637463    1.673998    0.453430
     35          1           0       -4.317436    0.690479    1.775009
 ---------------------------------------------------------------------
 Rotational constants (GHZ):      0.5224264      0.2373913      0.1662947
 Leave Link  202 at Thu Sep 30 05:35:14 2021, MaxMem= 1342177280 cpu:       0.1
 (Enter /sw/target/amd/app/gaussian/Gaussian09RevA.02_gcc-4.9.2/g09/l301.exe)
 Standard basis: 6-31G(d) (6D, 7F)
 Ernie: Thresh=  0.10000D-02 Tol=  0.10000D-05 Strict=F.
 There are   330 symmetry adapted basis functions of A   symmetry.
 Integral buffers will be    131072 words long.
 Raffenetti 2 integral format.
 Two-electron integral symmetry is turned on.
   330 basis functions,   620 primitive gaussians,   330 cartesian basis functions
    70 alpha electrons       70 beta electrons
       nuclear repulsion energy      1445.5273866615 Hartrees.
 IExCor=  402 DFT=T Ex+Corr=B3LYP ExCW=0 ScaHFX=  0.200000
 ScaDFX=  0.800000  0.720000  1.000000  0.810000 ScalE2=  1.000000  1.000000
 IRadAn=      0 IRanWt=     -1 IRanGd=            0 ICorTp=0
 NAtoms=   35 NActive=   35 NUniq=   35 SFac= 7.50D-01 NAtFMM=   80 NAOKFM=F Big=F
 Leave Link  301 at Thu Sep 30 05:35:14 2021, MaxMem= 1342177280 cpu:       0.1
 (Enter /sw/target/amd/app/gaussian/Gaussian09RevA.02_gcc-4.9.2/g09/l302.exe)
 NPDir=0 NMtPBC=     1 NCelOv=     1 NCel=       1 NClECP=     1 NCelD=      1
         NCelK=      1 NCelE2=     1 NClLst=     1 CellRange=     0.0.
 One-electron integrals computed using PRISM.
 NBasis=   330 RedAO= T  NBF=   330
 NBsUse=   330 1.00D-06 NBFU=   330
 Precomputing XC quadrature grid using
 IXCGrd= 2 IRadAn=           0 IRanWt=          -1 IRanGd=           0 AccXCQ= 1.00D-10.
 NRdTot=    2223 NPtTot=      283440 NUsed=      299469 NTot=      299501
 NSgBfM=   327   327   327   327   327 NAtAll=    35    35.
 Leave Link  302 at Thu Sep 30 05:35:19 2021, MaxMem= 1342177280 cpu:       3.3
 (Enter /sw/target/amd/app/gaussian/Gaussian09RevA.02_gcc-4.9.2/g09/l303.exe)
 DipDrv:  MaxL=1.
 Leave Link  303 at Thu Sep 30 05:35:20 2021, MaxMem= 1342177280 cpu:       0.2
 (Enter /sw/target/amd/app/gaussian/Gaussian09RevA.02_gcc-4.9.2/g09/l401.exe)
 Harris functional with IExCor=  402 diagonalized for initial guess.
 ExpMin= 1.61D-01 ExpMax= 5.48D+03 ExpMxC= 8.25D+02 IAcc=1 IRadAn=         1 AccDes= 0.00D+00
 HarFok:  IExCor=  402 AccDes= 0.00D+00 IRadAn=         1 IDoV= 1
 ScaDFX=  1.000000  1.000000  1.000000  1.000000
 FoFCou: FMM=F IPFlag=           0 FMFlag=      100000 FMFlg1=           0
         NFxFlg=           0 DoJE=T BraDBF=F KetDBF=T FulRan=T
         Omega=  0.000000  0.000000  1.000000  0.000000  0.000000 ICntrl=     500 IOpCl=  0
         NMat0=    1 NMatS0=    1 NMatT0=    0 NMatD0=    1 NMtDS0=    0 NMtDT0=    0
         I1Cent=           4 NGrid=           0.
 Petite list used in FoFCou.
 Harris En= -862.176224318227    
 Initial guess orbital symmetries:
       Occupied  (A) (A) (A) (A) (A) (A) (A) (A) (A) (A) (A) (A)
                 (A) (A) (A) (A) (A) (A) (A) (A) (A) (A) (A) (A)
                 (A) (A) (A) (A) (A) (A) (A) (A) (A) (A) (A) (A)
                 (A) (A) (A) (A) (A) (A) (A) (A) (A) (A) (A) (A)
                 (A) (A) (A) (A) (A) (A) (A) (A) (A) (A) (A) (A)
                 (A) (A) (A) (A) (A) (A) (A) (A) (A) (A)
       Virtual   (A) (A) (A) (A) (A) (A) (A) (A) (A) (A) (A) (A)
                 (A) (A) (A) (A) (A) (A) (A) (A) (A) (A) (A) (A)
                 (A) (A) (A) (A) (A) (A) (A) (A) (A) (A) (A) (A)
                 (A) (A) (A) (A) (A) (A) (A) (A) (A) (A) (A) (A)
                 (A) (A) (A) (A) (A) (A) (A) (A) (A) (A) (A) (A)
                 (A) (A) (A) (A) (A) (A) (A) (A) (A) (A) (A) (A)
                 (A) (A) (A) (A) (A) (A) (A) (A) (A) (A) (A) (A)
                 (A) (A) (A) (A) (A) (A) (A) (A) (A) (A) (A) (A)
                 (A) (A) (A) (A) (A) (A) (A) (A) (A) (A) (A) (A)
                 (A) (A) (A) (A) (A) (A) (A) (A) (A) (A) (A) (A)
                 (A) (A) (A) (A) (A) (A) (A) (A) (A) (A) (A) (A)
                 (A) (A) (A) (A) (A) (A) (A) (A) (A) (A) (A) (A)
                 (A) (A) (A) (A) (A) (A) (A) (A) (A) (A) (A) (A)
                 (A) (A) (A) (A) (A) (A) (A) (A) (A) (A) (A) (A)
                 (A) (A) (A) (A) (A) (A) (A) (A) (A) (A) (A) (A)
                 (A) (A) (A) (A) (A) (A) (A) (A) (A) (A) (A) (A)
                 (A) (A) (A) (A) (A) (A) (A) (A) (A) (A) (A) (A)
                 (A) (A) (A) (A) (A) (A) (A) (A) (A) (A) (A) (A)
                 (A) (A) (A) (A) (A) (A) (A) (A) (A) (A) (A) (A)
                 (A) (A) (A) (A) (A) (A) (A) (A) (A) (A) (A) (A)
                 (A) (A) (A) (A) (A) (A) (A) (A) (A) (A) (A) (A)
                 (A) (A) (A) (A) (A) (A) (A) (A)
 The electronic state of the initial guess is 1-A.
 Leave Link  401 at Thu Sep 30 05:35:34 2021, MaxMem= 1342177280 cpu:      14.3
 (Enter /sw/target/amd/app/gaussian/Gaussian09RevA.02_gcc-4.9.2/g09/l502.exe)
 Closed shell SCF:
 Requested convergence on RMS density matrix=1.00D-08 within  64 cycles.
 Requested convergence on MAX density matrix=1.00D-06.
 Requested convergence on             energy=1.00D-06.
 No special actions if energy rises.
 Using DIIS extrapolation, IDIIS=  1040.
 Integral symmetry usage will be decided dynamically.
       299141 words used for storage of precomputed grid.
 IEnd=      635849 IEndB=      635849 NGot=  1342177280 MDV=  1341654886
 LenX=  1341654886 LenY=  1341545545
 Fock matrices will be formed incrementally for  20 cycles.
 Integral accuracy reduced to 1.0D-05 until final iterations.

 Cycle   1  Pass 0  IDiag  1:
 FoFCou: FMM=F IPFlag=           0 FMFlag=      100000 FMFlg1=           0
         NFxFlg=           0 DoJE=F BraDBF=F KetDBF=F FulRan=T
         Omega=  0.000000  0.000000  1.000000  0.000000  0.000000 ICntrl=       0 IOpCl=  0
         NMat0=    1 NMatS0=    1 NMatT0=    0 NMatD0=    1 NMtDS0=    0 NMtDT0=    0
         I1Cent=           0 NGrid=           0.
 Symmetry not used in FoFCou.
 E= -861.584077048449    
 DIIS: error= 4.04D-02 at cycle   1 NSaved=   1.
 NSaved= 1 IEnMin= 1 EnMin= -861.584077048449     IErMin= 1 ErrMin= 4.04D-02
 ErrMax= 4.04D-02 EMaxC= 1.00D-01 BMatC= 4.85D-01 BMatP= 4.85D-01
 IDIUse=3 WtCom= 5.96D-01 WtEn= 4.04D-01
 Coeff-Com:  0.100D+01
 Coeff-En:   0.100D+01
 Coeff:      0.100D+01
 Gap=     0.176 Goal=   None    Shift=    0.000
 GapD=    0.176 DampG=1.000 DampE=0.500 DampFc=0.5000 IDamp=-1.
 Damping current iteration by 5.00D-01
 RMSDP=5.39D-03 MaxDP=2.13D-01              OVMax= 2.51D-01

 Cycle   2  Pass 0  IDiag  1:
 RMSU=  1.84D-03    CP:  9.63D-01
 E= -861.746241423203     Delta-E=       -0.162164374754 Rises=F Damp=T
 DIIS: error= 1.18D-02 at cycle   2 NSaved=   2.
 NSaved= 2 IEnMin= 2 EnMin= -861.746241423203     IErMin= 2 ErrMin= 1.18D-02
 ErrMax= 1.18D-02 EMaxC= 1.00D-01 BMatC= 7.22D-02 BMatP= 4.85D-01
 IDIUse=3 WtCom= 8.82D-01 WtEn= 1.18D-01
 Coeff-Com:  0.182D+00 0.818D+00
 Coeff-En:   0.272D+00 0.728D+00
 Coeff:      0.193D+00 0.807D+00
 Gap=     0.176 Goal=   None    Shift=    0.000
 RMSDP=2.07D-03 MaxDP=7.47D-02 DE=-1.62D-01 OVMax= 2.65D-01

 Cycle   3  Pass 0  IDiag  1:
 RMSU=  1.42D-03    CP:  9.38D-01  9.39D-01
 E= -861.986632707319     Delta-E=       -0.240391284116 Rises=F Damp=F
 DIIS: error= 1.57D-02 at cycle   3 NSaved=   3.
 NSaved= 3 IEnMin= 3 EnMin= -861.986632707319     IErMin= 2 ErrMin= 1.18D-02
 ErrMax= 1.57D-02 EMaxC= 1.00D-01 BMatC= 9.48D-02 BMatP= 7.22D-02
 IDIUse=2 WtCom= 0.00D+00 WtEn= 1.00D+00
 Coeff-En:   0.000D+00 0.000D+00 0.100D+01
 Coeff:      0.000D+00 0.000D+00 0.100D+01
 Gap=     0.178 Goal=   None    Shift=    0.000
 RMSDP=3.04D-03 MaxDP=1.68D-01 DE=-2.40D-01 OVMax= 2.80D-01

 Cycle   4  Pass 0  IDiag  1:
 RMSU=  1.25D-03    CP:  9.45D-01  1.31D+00 -1.35D-01
 E= -861.552818155385     Delta-E=        0.433814551935 Rises=F Damp=F
 DIIS: error= 3.88D-02 at cycle   4 NSaved=   4.
 NSaved= 4 IEnMin= 3 EnMin= -861.986632707319     IErMin= 2 ErrMin= 1.18D-02
 ErrMax= 3.88D-02 EMaxC= 1.00D-01 BMatC= 6.17D-01 BMatP= 7.22D-02
 IDIUse=2 WtCom= 0.00D+00 WtEn= 1.00D+00
 Coeff-En:   0.000D+00 0.000D+00 0.805D+00 0.195D+00
 Coeff:      0.000D+00 0.000D+00 0.805D+00 0.195D+00
 Gap=     0.194 Goal=   None    Shift=    0.000
 RMSDP=1.61D-03 MaxDP=9.00D-02 DE= 4.34D-01 OVMax= 1.49D-01

 Cycle   5  Pass 0  IDiag  1:
 RMSU=  2.36D-04    CP:  9.44D-01  1.04D+00  4.27D-01  5.14D-01
 E= -862.032525583548     Delta-E=       -0.479707428164 Rises=F Damp=F
 DIIS: error= 1.01D-02 at cycle   5 NSaved=   5.
 NSaved= 5 IEnMin= 5 EnMin= -862.032525583548     IErMin= 5 ErrMin= 1.01D-02
 ErrMax= 1.01D-02 EMaxC= 1.00D-01 BMatC= 4.43D-02 BMatP= 7.22D-02
 IDIUse=3 WtCom= 8.99D-01 WtEn= 1.01D-01
 Coeff-Com: -0.215D-02 0.498D-01 0.335D+00-0.678D-01 0.685D+00
 Coeff-En:   0.000D+00 0.000D+00 0.357D+00 0.000D+00 0.643D+00
 Coeff:     -0.193D-02 0.447D-01 0.338D+00-0.610D-01 0.681D+00
 Gap=     0.161 Goal=   None    Shift=    0.000
 RMSDP=6.62D-04 MaxDP=2.94D-02 DE=-4.80D-01 OVMax= 6.79D-02

 Cycle   6  Pass 0  IDiag  1:
 RMSU=  1.05D-04    CP:  9.43D-01  9.80D-01  6.62D-01  2.92D-01  6.28D-01
 E= -862.070555558863     Delta-E=       -0.038029975314 Rises=F Damp=F
 DIIS: error= 1.48D-03 at cycle   6 NSaved=   6.
 NSaved= 6 IEnMin= 6 EnMin= -862.070555558863     IErMin= 6 ErrMin= 1.48D-03
 ErrMax= 1.48D-03 EMaxC= 1.00D-01 BMatC= 8.44D-04 BMatP= 4.43D-02
 IDIUse=3 WtCom= 9.85D-01 WtEn= 1.48D-02
 Coeff-Com: -0.620D-02 0.261D-01 0.175D+00-0.648D-01 0.470D+00 0.400D+00
 Coeff-En:   0.000D+00 0.000D+00 0.000D+00 0.000D+00 0.000D+00 0.100D+01
 Coeff:     -0.611D-02 0.258D-01 0.173D+00-0.638D-01 0.463D+00 0.409D+00
 Gap=     0.159 Goal=   None    Shift=    0.000
 RMSDP=1.03D-04 MaxDP=5.50D-03 DE=-3.80D-02 OVMax= 1.35D-02

 Cycle   7  Pass 0  IDiag  1:
 RMSU=  2.44D-05    CP:  9.43D-01  9.91D-01  6.48D-01  3.03D-01  7.57D-01
                    CP:  4.99D-01
 E= -862.071361364401     Delta-E=       -0.000805805538 Rises=F Damp=F
 DIIS: error= 2.92D-04 at cycle   7 NSaved=   7.
 NSaved= 7 IEnMin= 7 EnMin= -862.071361364401     IErMin= 7 ErrMin= 2.92D-04
 ErrMax= 2.92D-04 EMaxC= 1.00D-01 BMatC= 2.64D-05 BMatP= 8.44D-04
 IDIUse=3 WtCom= 9.97D-01 WtEn= 2.92D-03
 Coeff-Com: -0.135D-02 0.425D-02 0.473D-01-0.195D-01 0.128D+00 0.170D+00
 Coeff-Com:  0.671D+00
 Coeff-En:   0.000D+00 0.000D+00 0.000D+00 0.000D+00 0.000D+00 0.000D+00
 Coeff-En:   0.100D+01
 Coeff:     -0.134D-02 0.423D-02 0.471D-01-0.194D-01 0.128D+00 0.169D+00
 Coeff:      0.672D+00
 Gap=     0.159 Goal=   None    Shift=    0.000
 RMSDP=2.21D-05 MaxDP=9.59D-04 DE=-8.06D-04 OVMax= 2.55D-03

 Cycle   8  Pass 0  IDiag  1:
 RMSU=  1.04D-05    CP:  9.43D-01  9.89D-01  6.52D-01  3.00D-01  7.49D-01
                    CP:  5.47D-01  7.27D-01
 E= -862.071384357209     Delta-E=       -0.000022992808 Rises=F Damp=F
 DIIS: error= 1.03D-04 at cycle   8 NSaved=   8.
 NSaved= 8 IEnMin= 8 EnMin= -862.071384357209     IErMin= 8 ErrMin= 1.03D-04
 ErrMax= 1.03D-04 EMaxC= 1.00D-01 BMatC= 5.89D-06 BMatP= 2.64D-05
 IDIUse=3 WtCom= 9.99D-01 WtEn= 1.03D-03
 Coeff-Com:  0.759D-04-0.879D-03 0.116D-01-0.445D-02 0.271D-01 0.623D-01
 Coeff-Com:  0.437D+00 0.467D+00
 Coeff-En:   0.000D+00 0.000D+00 0.000D+00 0.000D+00 0.000D+00 0.000D+00
 Coeff-En:   0.113D+00 0.887D+00
 Coeff:      0.758D-04-0.878D-03 0.116D-01-0.444D-02 0.271D-01 0.622D-01
 Coeff:      0.437D+00 0.467D+00
 Gap=     0.159 Goal=   None    Shift=    0.000
 RMSDP=8.75D-06 MaxDP=4.25D-04 DE=-2.30D-05 OVMax= 7.10D-04

 Initial convergence to 1.0D-05 achieved.  Increase integral accuracy.
 Cycle   9  Pass 1  IDiag  1:
 E= -862.071489790295     Delta-E=       -0.000105433086 Rises=F Damp=F
 DIIS: error= 4.81D-05 at cycle   1 NSaved=   1.
 NSaved= 1 IEnMin= 1 EnMin= -862.071489790295     IErMin= 1 ErrMin= 4.81D-05
 ErrMax= 4.81D-05 EMaxC= 1.00D-01 BMatC= 5.43D-07 BMatP= 5.43D-07
 IDIUse=1 WtCom= 1.00D+00 WtEn= 0.00D+00
 Coeff-Com:  0.100D+01
 Coeff:      0.100D+01
 Gap=     0.159 Goal=   None    Shift=    0.000
 RMSDP=8.75D-06 MaxDP=4.25D-04 DE=-1.05D-04 OVMax= 3.24D-04

 Cycle  10  Pass 1  IDiag  1:
 RMSU=  2.52D-05    CP:  1.00D+00
 E= -862.071489889985     Delta-E=       -0.000000099690 Rises=F Damp=F
 DIIS: error= 3.16D-05 at cycle   2 NSaved=   2.
 NSaved= 2 IEnMin= 2 EnMin= -862.071489889985     IErMin= 2 ErrMin= 3.16D-05
 ErrMax= 3.16D-05 EMaxC= 1.00D-01 BMatC= 4.26D-07 BMatP= 5.43D-07
 IDIUse=1 WtCom= 1.00D+00 WtEn= 0.00D+00
 Coeff-Com:  0.458D+00 0.542D+00
 Coeff:      0.458D+00 0.542D+00
 Gap=     0.159 Goal=   None    Shift=    0.000
 RMSDP=3.55D-06 MaxDP=1.69D-04 DE=-9.97D-08 OVMax= 4.15D-04

 Cycle  11  Pass 1  IDiag  1:
 RMSU=  2.51D-06    CP:  1.00D+00  1.00D+00
 E= -862.071490099968     Delta-E=       -0.000000209983 Rises=F Damp=F
 DIIS: error= 2.27D-05 at cycle   3 NSaved=   3.
 NSaved= 3 IEnMin= 3 EnMin= -862.071490099968     IErMin= 3 ErrMin= 2.27D-05
 ErrMax= 2.27D-05 EMaxC= 1.00D-01 BMatC= 2.18D-07 BMatP= 4.26D-07
 IDIUse=1 WtCom= 1.00D+00 WtEn= 0.00D+00
 Coeff-Com:  0.283D-01 0.411D+00 0.560D+00
 Coeff:      0.283D-01 0.411D+00 0.560D+00
 Gap=     0.159 Goal=   None    Shift=    0.000
 RMSDP=1.71D-06 MaxDP=7.48D-05 DE=-2.10D-07 OVMax= 2.16D-04

 Cycle  12  Pass 1  IDiag  1:
 RMSU=  5.00D-07    CP:  1.00D+00  1.01D+00  5.66D-01
 E= -862.071490313890     Delta-E=       -0.000000213922 Rises=F Damp=F
 DIIS: error= 5.84D-06 at cycle   4 NSaved=   4.
 NSaved= 4 IEnMin= 4 EnMin= -862.071490313890     IErMin= 4 ErrMin= 5.84D-06
 ErrMax= 5.84D-06 EMaxC= 1.00D-01 BMatC= 1.79D-08 BMatP= 2.18D-07
 IDIUse=1 WtCom= 1.00D+00 WtEn= 0.00D+00
 Coeff-Com: -0.591D-02 0.239D+00 0.365D+00 0.402D+00
 Coeff:     -0.591D-02 0.239D+00 0.365D+00 0.402D+00
 Gap=     0.159 Goal=   None    Shift=    0.000
 RMSDP=4.12D-07 MaxDP=2.41D-05 DE=-2.14D-07 OVMax= 3.43D-05

 Cycle  13  Pass 1  IDiag  1:
 RMSU=  1.31D-07    CP:  1.00D+00  1.01D+00  5.91D-01  4.98D-01
 E= -862.071490328605     Delta-E=       -0.000000014715 Rises=F Damp=F
 DIIS: error= 6.57D-07 at cycle   5 NSaved=   5.
 NSaved= 5 IEnMin= 5 EnMin= -862.071490328605     IErMin= 5 ErrMin= 6.57D-07
 ErrMax= 6.57D-07 EMaxC= 1.00D-01 BMatC= 4.75D-10 BMatP= 1.79D-08
 IDIUse=1 WtCom= 1.00D+00 WtEn= 0.00D+00
 Coeff-Com: -0.479D-02 0.109D+00 0.172D+00 0.219D+00 0.504D+00
 Coeff:     -0.479D-02 0.109D+00 0.172D+00 0.219D+00 0.504D+00
 Gap=     0.159 Goal=   None    Shift=    0.000
 RMSDP=7.91D-08 MaxDP=3.33D-06 DE=-1.47D-08 OVMax= 5.06D-06

 Cycle  14  Pass 1  IDiag  1:
 RMSU=  4.11D-08    CP:  1.00D+00  1.01D+00  5.96D-01  5.04D-01  7.31D-01
 E= -862.071490328976     Delta-E=       -0.000000000371 Rises=F Damp=F
 DIIS: error= 2.35D-07 at cycle   6 NSaved=   6.
 NSaved= 6 IEnMin= 6 EnMin= -862.071490328976     IErMin= 6 ErrMin= 2.35D-07
 ErrMax= 2.35D-07 EMaxC= 1.00D-01 BMatC= 3.99D-11 BMatP= 4.75D-10
 IDIUse=1 WtCom= 1.00D+00 WtEn= 0.00D+00
 Coeff-Com: -0.200D-02 0.360D-01 0.577D-01 0.797D-01 0.274D+00 0.555D+00
 Coeff:     -0.200D-02 0.360D-01 0.577D-01 0.797D-01 0.274D+00 0.555D+00
 Gap=     0.159 Goal=   None    Shift=    0.000
 RMSDP=2.32D-08 MaxDP=1.12D-06 DE=-3.71D-10 OVMax= 1.49D-06

 Cycle  15  Pass 1  IDiag  1:
 RMSU=  1.38D-08    CP:  1.00D+00  1.01D+00  5.95D-01  5.05D-01  7.68D-01
                    CP:  8.41D-01
 E= -862.071490328995     Delta-E=       -0.000000000019 Rises=F Damp=F
 DIIS: error= 8.46D-08 at cycle   7 NSaved=   7.
 NSaved= 7 IEnMin= 7 EnMin= -862.071490328995     IErMin= 7 ErrMin= 8.46D-08
 ErrMax= 8.46D-08 EMaxC= 1.00D-01 BMatC= 4.86D-12 BMatP= 3.99D-11
 IDIUse=1 WtCom= 1.00D+00 WtEn= 0.00D+00
 Coeff-Com: -0.506D-03 0.673D-02 0.109D-01 0.176D-01 0.885D-01 0.304D+00
 Coeff-Com:  0.573D+00
 Coeff:     -0.506D-03 0.673D-02 0.109D-01 0.176D-01 0.885D-01 0.304D+00
 Coeff:      0.573D+00
 Gap=     0.159 Goal=   None    Shift=    0.000
 RMSDP=9.07D-09 MaxDP=4.60D-07 DE=-1.91D-11 OVMax= 8.22D-07

 SCF Done:  E(RB3LYP) =  -862.071490329     A.U. after   15 cycles
             Convg  =    0.9071D-08             -V/T =  2.0096
 KE= 8.538547812692D+02 PE=-4.894106435221D+03 EE= 1.732652776961D+03
 Leave Link  502 at Thu Sep 30 05:45:34 2021, MaxMem= 1342177280 cpu:     599.7
 (Enter /sw/target/amd/app/gaussian/Gaussian09RevA.02_gcc-4.9.2/g09/l508.exe)
 QCSCF skips out because SCF is already converged.
 Leave Link  508 at Thu Sep 30 05:45:34 2021, MaxMem= 1342177280 cpu:       0.0
 (Enter /sw/target/amd/app/gaussian/Gaussian09RevA.02_gcc-4.9.2/g09/l601.exe)
 Copying SCF densities to generalized density rwf, IOpCl= 0 IROHF=0.

 **********************************************************************

            Population analysis using the SCF density.

 **********************************************************************

 Orbital symmetries:
       Occupied  (A) (A) (A) (A) (A) (A) (A) (A) (A) (A) (A) (A)
                 (A) (A) (A) (A) (A) (A) (A) (A) (A) (A) (A) (A)
                 (A) (A) (A) (A) (A) (A) (A) (A) (A) (A) (A) (A)
                 (A) (A) (A) (A) (A) (A) (A) (A) (A) (A) (A) (A)
                 (A) (A) (A) (A) (A) (A) (A) (A) (A) (A) (A) (A)
                 (A) (A) (A) (A) (A) (A) (A) (A) (A) (A)
       Virtual   (A) (A) (A) (A) (A) (A) (A) (A) (A) (A) (A) (A)
                 (A) (A) (A) (A) (A) (A) (A) (A) (A) (A) (A) (A)
                 (A) (A) (A) (A) (A) (A) (A) (A) (A) (A) (A) (A)
                 (A) (A) (A) (A) (A) (A) (A) (A) (A) (A) (A) (A)
                 (A) (A) (A) (A) (A) (A) (A) (A) (A) (A) (A) (A)
                 (A) (A) (A) (A) (A) (A) (A) (A) (A) (A) (A) (A)
                 (A) (A) (A) (A) (A) (A) (A) (A) (A) (A) (A) (A)
                 (A) (A) (A) (A) (A) (A) (A) (A) (A) (A) (A) (A)
                 (A) (A) (A) (A) (A) (A) (A) (A) (A) (A) (A) (A)
                 (A) (A) (A) (A) (A) (A) (A) (A) (A) (A) (A) (A)
                 (A) (A) (A) (A) (A) (A) (A) (A) (A) (A) (A) (A)
                 (A) (A) (A) (A) (A) (A) (A) (A) (A) (A) (A) (A)
                 (A) (A) (A) (A) (A) (A) (A) (A) (A) (A) (A) (A)
                 (A) (A) (A) (A) (A) (A) (A) (A) (A) (A) (A) (A)
                 (A) (A) (A) (A) (A) (A) (A) (A) (A) (A) (A) (A)
                 (A) (A) (A) (A) (A) (A) (A) (A) (A) (A) (A) (A)
                 (A) (A) (A) (A) (A) (A) (A) (A) (A) (A) (A) (A)
                 (A) (A) (A) (A) (A) (A) (A) (A) (A) (A) (A) (A)
                 (A) (A) (A) (A) (A) (A) (A) (A) (A) (A) (A) (A)
                 (A) (A) (A) (A) (A) (A) (A) (A) (A) (A) (A) (A)
                 (A) (A) (A) (A) (A) (A) (A) (A) (A) (A) (A) (A)
                 (A) (A) (A) (A) (A) (A) (A) (A)
 The electronic state is 1-A.
 Alpha  occ. eigenvalues --  -19.19677 -19.11962 -14.37075 -10.33885 -10.25376
 Alpha  occ. eigenvalues --  -10.22339 -10.21996 -10.20332 -10.20130 -10.19731
 Alpha  occ. eigenvalues --  -10.19249 -10.19218 -10.19121 -10.19022 -10.18942
 Alpha  occ. eigenvalues --  -10.18934 -10.18648 -10.18580 -10.18526 -10.18405
 Alpha  occ. eigenvalues --   -1.09275  -1.01029  -0.94028  -0.88265  -0.84660
 Alpha  occ. eigenvalues --   -0.80765  -0.77348  -0.76024  -0.73155  -0.72169
 Alpha  occ. eigenvalues --   -0.71931  -0.69476  -0.64022  -0.63278  -0.60968
 Alpha  occ. eigenvalues --   -0.58574  -0.56882  -0.53893  -0.52701  -0.51749
 Alpha  occ. eigenvalues --   -0.48853  -0.48414  -0.48236  -0.47414  -0.46201
 Alpha  occ. eigenvalues --   -0.43977  -0.43822  -0.42880  -0.42613  -0.42194
 Alpha  occ. eigenvalues --   -0.41866  -0.41290  -0.40500  -0.39967  -0.39894
 Alpha  occ. eigenvalues --   -0.39455  -0.37377  -0.36511  -0.35802  -0.35625
 Alpha  occ. eigenvalues --   -0.34095  -0.32916  -0.32641  -0.29483  -0.27936
 Alpha  occ. eigenvalues --   -0.27116  -0.25853  -0.24254  -0.22187  -0.20031
 Alpha virt. eigenvalues --   -0.04084  -0.03183   0.01219   0.03430   0.04404
 Alpha virt. eigenvalues --    0.07849   0.09009   0.09507   0.09987   0.10914
 Alpha virt. eigenvalues --    0.11702   0.14003   0.14401   0.14897   0.15589
 Alpha virt. eigenvalues --    0.15819   0.16030   0.16828   0.17126   0.17646
 Alpha virt. eigenvalues --    0.18502   0.19751   0.22148   0.23055   0.23394
 Alpha virt. eigenvalues --    0.24263   0.24707   0.25935   0.27960   0.28547
 Alpha virt. eigenvalues --    0.29627   0.30378   0.32156   0.33286   0.35333
 Alpha virt. eigenvalues --    0.36879   0.38068   0.38854   0.40192   0.45546
 Alpha virt. eigenvalues --    0.48212   0.48287   0.49449   0.49690   0.50702
 Alpha virt. eigenvalues --    0.51003   0.51259   0.53180   0.53494   0.54465
 Alpha virt. eigenvalues --    0.55084   0.55448   0.55988   0.56578   0.57282
 Alpha virt. eigenvalues --    0.57504   0.57984   0.58269   0.58934   0.59734
 Alpha virt. eigenvalues --    0.60993   0.61173   0.61538   0.62157   0.62597
 Alpha virt. eigenvalues --    0.63066   0.63457   0.63519   0.64415   0.64921
 Alpha virt. eigenvalues --    0.66191   0.66476   0.67458   0.69950   0.70222
 Alpha virt. eigenvalues --    0.72952   0.73836   0.74019   0.76333   0.79443
 Alpha virt. eigenvalues --    0.79644   0.80509   0.80809   0.82197   0.83271
 Alpha virt. eigenvalues --    0.83691   0.84129   0.84359   0.85560   0.86798
 Alpha virt. eigenvalues --    0.87642   0.88178   0.88612   0.90131   0.90525
 Alpha virt. eigenvalues --    0.90748   0.91503   0.92343   0.93605   0.94724
 Alpha virt. eigenvalues --    0.95517   0.96493   0.96919   0.97741   0.99168
 Alpha virt. eigenvalues --    1.00209   1.02391   1.04296   1.06080   1.06636
 Alpha virt. eigenvalues --    1.07262   1.10174   1.10377   1.10703   1.12378
 Alpha virt. eigenvalues --    1.15259   1.15970   1.17839   1.19055   1.20890
 Alpha virt. eigenvalues --    1.22310   1.23583   1.23995   1.26296   1.26515
 Alpha virt. eigenvalues --    1.27541   1.30108   1.32336   1.34225   1.36150
 Alpha virt. eigenvalues --    1.38014   1.39072   1.40756   1.42271   1.43590
 Alpha virt. eigenvalues --    1.44508   1.44729   1.46443   1.47421   1.47606
 Alpha virt. eigenvalues --    1.48137   1.49407   1.49699   1.50266   1.50471
 Alpha virt. eigenvalues --    1.50924   1.52743   1.54612   1.60040   1.64062
 Alpha virt. eigenvalues --    1.67596   1.72335   1.73319   1.76291   1.77375
 Alpha virt. eigenvalues --    1.78531   1.78785   1.79696   1.82130   1.82500
 Alpha virt. eigenvalues --    1.84738   1.84812   1.86102   1.89022   1.90462
 Alpha virt. eigenvalues --    1.91414   1.92356   1.92557   1.93769   1.94251
 Alpha virt. eigenvalues --    1.95154   1.95478   1.96528   1.98211   1.98673
 Alpha virt. eigenvalues --    2.01403   2.01843   2.03168   2.05859   2.07498
 Alpha virt. eigenvalues --    2.08188   2.08683   2.09492   2.11142   2.11387
 Alpha virt. eigenvalues --    2.13998   2.15194   2.16173   2.19803   2.20793
 Alpha virt. eigenvalues --    2.21796   2.22844   2.24166   2.24332   2.25260
 Alpha virt. eigenvalues --    2.25880   2.29343   2.30705   2.31408   2.32909
 Alpha virt. eigenvalues --    2.35872   2.36266   2.37835   2.38271   2.40588
 Alpha virt. eigenvalues --    2.41526   2.43701   2.47145   2.52499   2.53503
 Alpha virt. eigenvalues --    2.57705   2.58971   2.61584   2.61720   2.62703
 Alpha virt. eigenvalues --    2.63069   2.64843   2.67843   2.68467   2.69348
 Alpha virt. eigenvalues --    2.69574   2.72533   2.74622   2.77159   2.79194
 Alpha virt. eigenvalues --    2.81697   2.84296   2.85360   2.88237   2.89899
 Alpha virt. eigenvalues --    2.95398   2.96111   3.01122   3.04788   3.15508
 Alpha virt. eigenvalues --    3.19122   3.25719   3.35773   3.44014   3.55136
 Alpha virt. eigenvalues --    3.98248   4.07905   4.08802   4.10005   4.11119
 Alpha virt. eigenvalues --    4.12177   4.13879   4.15683   4.17841   4.24292
 Alpha virt. eigenvalues --    4.28691   4.29789   4.32057   4.37312   4.39932
 Alpha virt. eigenvalues --    4.42580   4.53498   4.58157   4.65175   4.91456
          Condensed to atoms (all electrons):
              1          2          3          4          5          6
     1  C    4.967695   0.304288  -0.031203  -0.007150   0.002242  -0.000018
     2  N    0.304288   6.933358   0.334971  -0.085420  -0.091387   0.002065
     3  C   -0.031203   0.334971   4.152713   0.547409   0.257506  -0.010116
     4  O   -0.007150  -0.085420   0.547409   8.090166  -0.069353  -0.003302
     5  O    0.002242  -0.091387   0.257506  -0.069353   8.360009   0.217479
     6  C   -0.000018   0.002065  -0.010116  -0.003302   0.217479   4.917261
     7  C   -0.000004   0.000041  -0.002710  -0.003113  -0.053922   0.369475
     8  C   -0.000000  -0.000008   0.000293   0.000164   0.003045   0.049749
     9  C    0.000000  -0.000000  -0.000022  -0.000053  -0.000068   0.008831
    10  C   -0.000000   0.000000   0.000000  -0.000000   0.000000  -0.000398
    11  C    0.000000  -0.000000  -0.000000  -0.000000  -0.000000   0.000083
    12  C   -0.000000   0.000000   0.000000   0.000000   0.000002  -0.002143
    13  C    0.000000   0.000000  -0.000004   0.000022   0.000337  -0.083774
    14  C   -0.000000   0.000001   0.000020  -0.000023   0.002553   0.038343
    15  C    0.000002  -0.000182   0.000330  -0.000159  -0.058572   0.341271
    16  C   -0.000000  -0.000033   0.000134   0.000050   0.000436  -0.106425
    17  C   -0.000000  -0.000000   0.000010   0.000000   0.000594   0.007724
    18  C    0.000000   0.000000  -0.000000  -0.000000  -0.000002  -0.000567
    19  C    0.000000  -0.000000   0.000002  -0.000000  -0.000068   0.016779
    20  C   -0.052372   0.285576  -0.028504   0.002681   0.001366   0.000029
    21  H    0.372292  -0.028143  -0.002029   0.015637   0.000283   0.000000
    22  H    0.378144  -0.043953   0.002342   0.000341  -0.000050   0.000001
    23  H    0.380212  -0.058457   0.000442   0.000860   0.000055  -0.000004
    24  H    0.000030  -0.000244   0.001180   0.016248  -0.006979  -0.030853
    25  H    0.000000  -0.000000  -0.000004  -0.000026  -0.000001   0.000501
    26  H    0.000000  -0.000000  -0.000000   0.000000  -0.000000   0.000003
    27  H   -0.000000  -0.000000  -0.000000  -0.000000   0.000000  -0.000000
    28  H    0.000000  -0.000000   0.000000  -0.000000   0.000000   0.000019
    29  H   -0.000000  -0.000020  -0.000006   0.000005   0.006472  -0.010998
    30  H    0.000000  -0.000000  -0.000000  -0.000000  -0.000002  -0.000188
    31  H    0.000000   0.000000  -0.000000   0.000000   0.000000   0.000014
    32  H   -0.000000   0.000000  -0.000000   0.000000   0.000000  -0.000209
    33  H   -0.004052  -0.038900   0.002204  -0.000054   0.000426   0.000005
    34  H    0.003911  -0.026339  -0.005805   0.000062   0.005005   0.000330
    35  H    0.000702  -0.054805  -0.000930   0.000007   0.000958  -0.000023
              7          8          9         10         11         12
     1  C   -0.000004  -0.000000   0.000000  -0.000000   0.000000  -0.000000
     2  N    0.000041  -0.000008  -0.000000   0.000000  -0.000000   0.000000
     3  C   -0.002710   0.000293  -0.000022   0.000000  -0.000000   0.000000
     4  O   -0.003113   0.000164  -0.000053  -0.000000  -0.000000   0.000000
     5  O   -0.053922   0.003045  -0.000068   0.000000  -0.000000   0.000002
     6  C    0.369475   0.049749   0.008831  -0.000398   0.000083  -0.002143
     7  C    5.443319   0.319874  -0.086333   0.009089  -0.000545   0.019114
     8  C    0.319874   4.784428   0.458289  -0.002996  -0.036968  -0.060888
     9  C   -0.086333   0.458289   5.113821   0.501663  -0.023068  -0.074457
    10  C    0.009089  -0.002996   0.501663   4.892488   0.517022  -0.018022
    11  C   -0.000545  -0.036968  -0.023068   0.517022   4.884214   0.510307
    12  C    0.019114  -0.060888  -0.074457  -0.018022   0.510307   5.164555
    13  C   -0.005879   0.424962  -0.023740  -0.040715  -0.004196   0.468006
    14  C   -0.104374   0.025664   0.015565  -0.000889   0.007797  -0.103727
    15  C   -0.013041  -0.056383  -0.000284   0.000040  -0.000216   0.012547
    16  C    0.016114  -0.002125  -0.000009   0.000000   0.000000  -0.000022
    17  C   -0.000396   0.000080   0.000000  -0.000000   0.000000  -0.000023
    18  C    0.000063  -0.000231   0.000000   0.000000  -0.000006   0.000494
    19  C   -0.002008   0.012261  -0.000102  -0.000013   0.000447  -0.023010
    20  C   -0.000030   0.000000   0.000000  -0.000000   0.000000  -0.000000
    21  H   -0.000001  -0.000000   0.000000   0.000000   0.000000  -0.000000
    22  H   -0.000000  -0.000000   0.000000   0.000000  -0.000000   0.000000
    23  H   -0.000000   0.000000  -0.000000  -0.000000   0.000000  -0.000000
    24  H    0.342504  -0.036662  -0.008846   0.000274   0.000013  -0.000181
    25  H   -0.008181  -0.041801   0.357791  -0.045975   0.004854   0.000461
    26  H   -0.000232   0.002611  -0.036023   0.355403  -0.041955   0.004356
    27  H    0.000008   0.000972   0.004501  -0.042244   0.358449  -0.037108
    28  H   -0.000225   0.004906   0.000759   0.004678  -0.047063   0.344055
    29  H    0.000361  -0.000008   0.000000  -0.000000  -0.000000   0.000002
    30  H    0.000003  -0.000001  -0.000000   0.000000  -0.000000  -0.000000
    31  H   -0.000001   0.000002  -0.000000  -0.000000  -0.000000   0.000002
    32  H    0.000023  -0.000182   0.000002  -0.000001   0.000196   0.004943
    33  H    0.000000  -0.000000   0.000000  -0.000000  -0.000000   0.000000
    34  H    0.000009  -0.000001   0.000000  -0.000000  -0.000000   0.000000
    35  H    0.000007   0.000000  -0.000000  -0.000000   0.000000   0.000000
             13         14         15         16         17         18
     1  C    0.000000  -0.000000   0.000002  -0.000000  -0.000000   0.000000
     2  N    0.000000   0.000001  -0.000182  -0.000033  -0.000000   0.000000
     3  C   -0.000004   0.000020   0.000330   0.000134   0.000010  -0.000000
     4  O    0.000022  -0.000023  -0.000159   0.000050   0.000000  -0.000000
     5  O    0.000337   0.002553  -0.058572   0.000436   0.000594  -0.000002
     6  C   -0.083774   0.038343   0.341271  -0.106425   0.007724  -0.000567
     7  C   -0.005879  -0.104374  -0.013041   0.016114  -0.000396   0.000063
     8  C    0.424962   0.025664  -0.056383  -0.002125   0.000080  -0.000231
     9  C   -0.023740   0.015565  -0.000284  -0.000009   0.000000   0.000000
    10  C   -0.040715  -0.000889   0.000040   0.000000  -0.000000   0.000000
    11  C   -0.004196   0.007797  -0.000216   0.000000   0.000000  -0.000006
    12  C    0.468006  -0.103727   0.012547  -0.000022  -0.000023   0.000494
    13  C    5.000559   0.266286   0.010169   0.017061  -0.000841   0.007552
    14  C    0.266286   5.014649   0.428688  -0.050363  -0.038094  -0.004236
    15  C    0.010169   0.428688   4.927737   0.434825  -0.002320  -0.036458
    16  C    0.017061  -0.050363   0.434825   5.164391   0.495058  -0.021247
    17  C   -0.000841  -0.038094  -0.002320   0.495058   4.897424   0.513475
    18  C    0.007552  -0.004236  -0.036458  -0.021247   0.513475   4.884708
    19  C   -0.096241   0.475354  -0.064676  -0.074436  -0.019692   0.510394
    20  C   -0.000000   0.000000   0.000108  -0.000372  -0.000001   0.000000
    21  H   -0.000000   0.000000   0.000000  -0.000000  -0.000000   0.000000
    22  H    0.000000   0.000000  -0.000000   0.000000   0.000000  -0.000000
    23  H    0.000000   0.000000   0.000000  -0.000000  -0.000000   0.000000
    24  H    0.004447   0.000539   0.004017  -0.000123   0.000002  -0.000000
    25  H    0.004070  -0.000133  -0.000001  -0.000000  -0.000000  -0.000000
    26  H    0.001170   0.000017  -0.000001   0.000000   0.000000  -0.000000
    27  H    0.002620  -0.000176   0.000002  -0.000000  -0.000000  -0.000000
    28  H   -0.029087  -0.013261  -0.000228  -0.000001  -0.000001   0.000189
    29  H   -0.000138   0.003788  -0.036956   0.357630  -0.047581   0.004892
    30  H    0.000017   0.001136   0.002249  -0.036780   0.357826  -0.041572
    31  H   -0.000188   0.002444   0.001057   0.004316  -0.041870   0.358031
    32  H   -0.013673  -0.029188   0.005061   0.000758   0.004737  -0.047502
    33  H   -0.000000  -0.000000  -0.000003   0.000005   0.000000  -0.000000
    34  H    0.000000   0.000001  -0.000156  -0.000182   0.000005   0.000000
    35  H    0.000000  -0.000000   0.000002   0.000010  -0.000000   0.000000
             19         20         21         22         23         24
     1  C    0.000000  -0.052372   0.372292   0.378144   0.380212   0.000030
     2  N   -0.000000   0.285576  -0.028143  -0.043953  -0.058457  -0.000244
     3  C    0.000002  -0.028504  -0.002029   0.002342   0.000442   0.001180
     4  O   -0.000000   0.002681   0.015637   0.000341   0.000860   0.016248
     5  O   -0.000068   0.001366   0.000283  -0.000050   0.000055  -0.006979
     6  C    0.016779   0.000029   0.000000   0.000001  -0.000004  -0.030853
     7  C   -0.002008  -0.000030  -0.000001  -0.000000  -0.000000   0.342504
     8  C    0.012261   0.000000  -0.000000  -0.000000   0.000000  -0.036662
     9  C   -0.000102   0.000000   0.000000   0.000000  -0.000000  -0.008846
    10  C   -0.000013  -0.000000   0.000000   0.000000  -0.000000   0.000274
    11  C    0.000447   0.000000   0.000000  -0.000000   0.000000   0.000013
    12  C   -0.023010  -0.000000  -0.000000   0.000000  -0.000000  -0.000181
    13  C   -0.096241  -0.000000  -0.000000   0.000000   0.000000   0.004447
    14  C    0.475354   0.000000   0.000000   0.000000   0.000000   0.000539
    15  C   -0.064676   0.000108   0.000000  -0.000000   0.000000   0.004017
    16  C   -0.074436  -0.000372  -0.000000   0.000000  -0.000000  -0.000123
    17  C   -0.019692  -0.000001  -0.000000   0.000000  -0.000000   0.000002
    18  C    0.510394   0.000000   0.000000  -0.000000   0.000000  -0.000000
    19  C    5.150541  -0.000000   0.000000  -0.000000   0.000000   0.000010
    20  C   -0.000000   4.972385   0.004235  -0.002660  -0.000131  -0.000016
    21  H    0.000000   0.004235   0.483231  -0.022435  -0.027169  -0.000003
    22  H   -0.000000  -0.002660  -0.022435   0.569337  -0.042900  -0.000001
    23  H    0.000000  -0.000131  -0.027169  -0.042900   0.589142   0.000010
    24  H    0.000010  -0.000016  -0.000003  -0.000001   0.000010   0.543241
    25  H    0.000002   0.000000   0.000000  -0.000000   0.000000   0.006073
    26  H   -0.000000   0.000000  -0.000000   0.000000  -0.000000  -0.000016
    27  H    0.000003  -0.000000   0.000000  -0.000000   0.000000   0.000000
    28  H    0.004959   0.000000   0.000000   0.000000  -0.000000   0.000002
    29  H    0.000547   0.000117  -0.000000   0.000000  -0.000000  -0.000003
    30  H    0.004353   0.000000  -0.000000   0.000000   0.000000  -0.000000
    31  H   -0.036418   0.000000  -0.000000  -0.000000  -0.000000   0.000000
    32  H    0.346502  -0.000000  -0.000000   0.000000  -0.000000   0.000000
    33  H    0.000000   0.373145   0.000048   0.006388  -0.002088  -0.000000
    34  H   -0.000000   0.377518  -0.000174   0.000165  -0.000184  -0.000003
    35  H   -0.000000   0.377073  -0.000200  -0.001387   0.006589   0.000012
             25         26         27         28         29         30
     1  C    0.000000   0.000000  -0.000000   0.000000  -0.000000   0.000000
     2  N   -0.000000  -0.000000  -0.000000  -0.000000  -0.000020  -0.000000
     3  C   -0.000004  -0.000000  -0.000000   0.000000  -0.000006  -0.000000
     4  O   -0.000026   0.000000  -0.000000  -0.000000   0.000005  -0.000000
     5  O   -0.000001  -0.000000   0.000000   0.000000   0.006472  -0.000002
     6  C    0.000501   0.000003  -0.000000   0.000019  -0.010998  -0.000188
     7  C   -0.008181  -0.000232   0.000008  -0.000225   0.000361   0.000003
     8  C   -0.041801   0.002611   0.000972   0.004906  -0.000008  -0.000001
     9  C    0.357791  -0.036023   0.004501   0.000759   0.000000  -0.000000
    10  C   -0.045975   0.355403  -0.042244   0.004678  -0.000000   0.000000
    11  C    0.004854  -0.041955   0.358449  -0.047063  -0.000000  -0.000000
    12  C    0.000461   0.004356  -0.037108   0.344055   0.000002  -0.000000
    13  C    0.004070   0.001170   0.002620  -0.029087  -0.000138   0.000017
    14  C   -0.000133   0.000017  -0.000176  -0.013261   0.003788   0.001136
    15  C   -0.000001  -0.000001   0.000002  -0.000228  -0.036956   0.002249
    16  C   -0.000000   0.000000  -0.000000  -0.000001   0.357630  -0.036780
    17  C   -0.000000   0.000000  -0.000000  -0.000001  -0.047581   0.357826
    18  C   -0.000000  -0.000000  -0.000000   0.000189   0.004892  -0.041572
    19  C    0.000002  -0.000000   0.000003   0.004959   0.000547   0.004353
    20  C    0.000000   0.000000  -0.000000   0.000000   0.000117   0.000000
    21  H    0.000000  -0.000000   0.000000   0.000000  -0.000000  -0.000000
    22  H   -0.000000   0.000000  -0.000000   0.000000   0.000000   0.000000
    23  H    0.000000  -0.000000   0.000000  -0.000000  -0.000000   0.000000
    24  H    0.006073  -0.000016   0.000000   0.000002  -0.000003  -0.000000
    25  H    0.591872  -0.005239  -0.000207   0.000019   0.000000  -0.000000
    26  H   -0.005239   0.596012  -0.005127  -0.000217  -0.000000  -0.000000
    27  H   -0.000207  -0.005127   0.595162  -0.005427   0.000000  -0.000000
    28  H    0.000019  -0.000217  -0.005427   0.600174   0.000000  -0.000000
    29  H    0.000000  -0.000000   0.000000   0.000000   0.581248  -0.005059
    30  H   -0.000000  -0.000000  -0.000000  -0.000000  -0.005059   0.593298
    31  H    0.000000  -0.000000   0.000000   0.000000  -0.000208  -0.004995
    32  H    0.000000  -0.000000   0.000000   0.005635   0.000017  -0.000221
    33  H   -0.000000   0.000000  -0.000000   0.000000  -0.000008   0.000000
    34  H   -0.000000   0.000000   0.000000   0.000000   0.003374  -0.000003
    35  H   -0.000000   0.000000   0.000000  -0.000000  -0.000023  -0.000000
             31         32         33         34         35
     1  C    0.000000  -0.000000  -0.004052   0.003911   0.000702
     2  N    0.000000   0.000000  -0.038900  -0.026339  -0.054805
     3  C   -0.000000  -0.000000   0.002204  -0.005805  -0.000930
     4  O    0.000000   0.000000  -0.000054   0.000062   0.000007
     5  O    0.000000   0.000000   0.000426   0.005005   0.000958
     6  C    0.000014  -0.000209   0.000005   0.000330  -0.000023
     7  C   -0.000001   0.000023   0.000000   0.000009   0.000007
     8  C    0.000002  -0.000182  -0.000000  -0.000001   0.000000
     9  C   -0.000000   0.000002   0.000000   0.000000  -0.000000
    10  C   -0.000000  -0.000001  -0.000000  -0.000000  -0.000000
    11  C   -0.000000   0.000196  -0.000000  -0.000000   0.000000
    12  C    0.000002   0.004943   0.000000   0.000000   0.000000
    13  C   -0.000188  -0.013673  -0.000000   0.000000   0.000000
    14  C    0.002444  -0.029188  -0.000000   0.000001  -0.000000
    15  C    0.001057   0.005061  -0.000003  -0.000156   0.000002
    16  C    0.004316   0.000758   0.000005  -0.000182   0.000010
    17  C   -0.041870   0.004737   0.000000   0.000005  -0.000000
    18  C    0.358031  -0.047502  -0.000000   0.000000   0.000000
    19  C   -0.036418   0.346502   0.000000  -0.000000  -0.000000
    20  C    0.000000  -0.000000   0.373145   0.377518   0.377073
    21  H   -0.000000  -0.000000   0.000048  -0.000174  -0.000200
[...]
    72    O    5  dxz    Ryd( 3d)     0.00089
    73    O    5  dyz    Ryd( 3d)     0.00102
    74    O    5  dx2y2  Ryd( 3d)     0.00106
    75    O    5  dz2    Ryd( 3d)     0.00123

    76    C    6  S      Cor( 1S)     1.99867
    77    C    6  S      Val( 2S)     0.82705
    78    C    6  S      Ryd( 3S)     0.00117
    79    C    6  S      Ryd( 4S)     0.00014
    80    C    6  px     Val( 2p)     0.73310
    81    C    6  px     Ryd( 3p)     0.00678
    82    C    6  py     Val( 2p)     1.08046
    83    C    6  py     Ryd( 3p)     0.00552
    84    C    6  pz     Val( 2p)     0.97616
    85    C    6  pz     Ryd( 3p)     0.00245
    86    C    6  dxy    Ryd( 3d)     0.00136
    87    C    6  dxz    Ryd( 3d)     0.00139
    88    C    6  dyz    Ryd( 3d)     0.00090
    89    C    6  dx2y2  Ryd( 3d)     0.00172
    90    C    6  dz2    Ryd( 3d)     0.00050

    91    C    7  S      Cor( 1S)     1.99896
    92    C    7  S      Val( 2S)     0.95518
    93    C    7  S      Ryd( 3S)     0.00084
    94    C    7  S      Ryd( 4S)     0.00007
    95    C    7  px     Val( 2p)     1.09350
    96    C    7  px     Ryd( 3p)     0.00390
    97    C    7  py     Val( 2p)     1.17159
    98    C    7  py     Ryd( 3p)     0.00402
    99    C    7  pz     Val( 2p)     0.96944
   100    C    7  pz     Ryd( 3p)     0.00176
   101    C    7  dxy    Ryd( 3d)     0.00081
   102    C    7  dxz    Ryd( 3d)     0.00051
   103    C    7  dyz    Ryd( 3d)     0.00065
   104    C    7  dx2y2  Ryd( 3d)     0.00060
   105    C    7  dz2    Ryd( 3d)     0.00043

   106    C    8  S      Cor( 1S)     1.99903
   107    C    8  S      Val( 2S)     0.86789
   108    C    8  S      Ryd( 3S)     0.00049
   109    C    8  S      Ryd( 4S)     0.00007
   110    C    8  px     Val( 2p)     1.07360
   111    C    8  px     Ryd( 3p)     0.00507
   112    C    8  py     Val( 2p)     1.09303
   113    C    8  py     Ryd( 3p)     0.00511
   114    C    8  pz     Val( 2p)     1.01138
   115    C    8  pz     Ryd( 3p)     0.00093
   116    C    8  dxy    Ryd( 3d)     0.00071
   117    C    8  dxz    Ryd( 3d)     0.00062
   118    C    8  dyz    Ryd( 3d)     0.00072
   119    C    8  dx2y2  Ryd( 3d)     0.00071
   120    C    8  dz2    Ryd( 3d)     0.00035

   121    C    9  S      Cor( 1S)     1.99907
   122    C    9  S      Val( 2S)     0.95094
   123    C    9  S      Ryd( 3S)     0.00065
   124    C    9  S      Ryd( 4S)     0.00004
   125    C    9  px     Val( 2p)     1.10807
   126    C    9  px     Ryd( 3p)     0.00427
   127    C    9  py     Val( 2p)     1.13430
   128    C    9  py     Ryd( 3p)     0.00462
   129    C    9  pz     Val( 2p)     0.98831
   130    C    9  pz     Ryd( 3p)     0.00174
   131    C    9  dxy    Ryd( 3d)     0.00086
   132    C    9  dxz    Ryd( 3d)     0.00065
   133    C    9  dyz    Ryd( 3d)     0.00036
   134    C    9  dx2y2  Ryd( 3d)     0.00063
   135    C    9  dz2    Ryd( 3d)     0.00042

   136    C   10  S      Cor( 1S)     1.99911
   137    C   10  S      Val( 2S)     0.95958
   138    C   10  S      Ryd( 3S)     0.00058
   139    C   10  S      Ryd( 4S)     0.00003
   140    C   10  px     Val( 2p)     1.08668
   141    C   10  px     Ryd( 3p)     0.00482
   142    C   10  py     Val( 2p)     1.16588
   143    C   10  py     Ryd( 3p)     0.00489
   144    C   10  pz     Val( 2p)     1.03464
   145    C   10  pz     Ryd( 3p)     0.00258
   146    C   10  dxy    Ryd( 3d)     0.00076
   147    C   10  dxz    Ryd( 3d)     0.00053
   148    C   10  dyz    Ryd( 3d)     0.00035
   149    C   10  dx2y2  Ryd( 3d)     0.00072
   150    C   10  dz2    Ryd( 3d)     0.00043

   151    C   11  S      Cor( 1S)     1.99911
   152    C   11  S      Val( 2S)     0.96465
   153    C   11  S      Ryd( 3S)     0.00059
   154    C   11  S      Ryd( 4S)     0.00003
   155    C   11  px     Val( 2p)     1.19286
   156    C   11  px     Ryd( 3p)     0.00513
   157    C   11  py     Val( 2p)     1.06064
   158    C   11  py     Ryd( 3p)     0.00456
   159    C   11  pz     Val( 2p)     0.96883
   160    C   11  pz     Ryd( 3p)     0.00131
   161    C   11  dxy    Ryd( 3d)     0.00064
   162    C   11  dxz    Ryd( 3d)     0.00033
   163    C   11  dyz    Ryd( 3d)     0.00073
   164    C   11  dx2y2  Ryd( 3d)     0.00089
   165    C   11  dz2    Ryd( 3d)     0.00044

   166    C   12  S      Cor( 1S)     1.99908
   167    C   12  S      Val( 2S)     0.94572
   168    C   12  S      Ryd( 3S)     0.00063
   169    C   12  S      Ryd( 4S)     0.00005
   170    C   12  px     Val( 2p)     1.09364
   171    C   12  px     Ryd( 3p)     0.00430
   172    C   12  py     Val( 2p)     1.15364
   173    C   12  py     Ryd( 3p)     0.00407
   174    C   12  pz     Val( 2p)     1.01600
   175    C   12  pz     Ryd( 3p)     0.00230
   176    C   12  dxy    Ryd( 3d)     0.00080
   177    C   12  dxz    Ryd( 3d)     0.00045
   178    C   12  dyz    Ryd( 3d)     0.00045
   179    C   12  dx2y2  Ryd( 3d)     0.00067
   180    C   12  dz2    Ryd( 3d)     0.00041

   181    C   13  S      Cor( 1S)     1.99901
   182    C   13  S      Val( 2S)     0.85971
   183    C   13  S      Ryd( 3S)     0.00042
   184    C   13  S      Ryd( 4S)     0.00007
   185    C   13  px     Val( 2p)     1.08913
   186    C   13  px     Ryd( 3p)     0.00475
   187    C   13  py     Val( 2p)     1.06592
   188    C   13  py     Ryd( 3p)     0.00493
   189    C   13  pz     Val( 2p)     1.00921
   190    C   13  pz     Ryd( 3p)     0.00153
   191    C   13  dxy    Ryd( 3d)     0.00074
   192    C   13  dxz    Ryd( 3d)     0.00063
   193    C   13  dyz    Ryd( 3d)     0.00061
   194    C   13  dx2y2  Ryd( 3d)     0.00066
   195    C   13  dz2    Ryd( 3d)     0.00034

   196    C   14  S      Cor( 1S)     1.99903
   197    C   14  S      Val( 2S)     0.85852
   198    C   14  S      Ryd( 3S)     0.00046
   199    C   14  S      Ryd( 4S)     0.00007
   200    C   14  px     Val( 2p)     1.06656
   201    C   14  px     Ryd( 3p)     0.00527
   202    C   14  py     Val( 2p)     1.08279
   203    C   14  py     Ryd( 3p)     0.00458
   204    C   14  pz     Val( 2p)     1.01544
   205    C   14  pz     Ryd( 3p)     0.00165
   206    C   14  dxy    Ryd( 3d)     0.00063
   207    C   14  dxz    Ryd( 3d)     0.00048
   208    C   14  dyz    Ryd( 3d)     0.00076
   209    C   14  dx2y2  Ryd( 3d)     0.00075
   210    C   14  dz2    Ryd( 3d)     0.00035

   211    C   15  S      Cor( 1S)     1.99896
   212    C   15  S      Val( 2S)     0.86978
   213    C   15  S      Ryd( 3S)     0.00054
   214    C   15  S      Ryd( 4S)     0.00007
   215    C   15  px     Val( 2p)     1.08637
   216    C   15  px     Ryd( 3p)     0.00525
   217    C   15  py     Val( 2p)     1.08910
   218    C   15  py     Ryd( 3p)     0.00456
   219    C   15  pz     Val( 2p)     1.03470
   220    C   15  pz     Ryd( 3p)     0.00124
   221    C   15  dxy    Ryd( 3d)     0.00068
   222    C   15  dxz    Ryd( 3d)     0.00062
   223    C   15  dyz    Ryd( 3d)     0.00071
   224    C   15  dx2y2  Ryd( 3d)     0.00067
   225    C   15  dz2    Ryd( 3d)     0.00036

   226    C   16  S      Cor( 1S)     1.99908
   227    C   16  S      Val( 2S)     0.94741
   228    C   16  S      Ryd( 3S)     0.00067
   229    C   16  S      Ryd( 4S)     0.00005
   230    C   16  px     Val( 2p)     1.19766
   231    C   16  px     Ryd( 3p)     0.00483
   232    C   16  py     Val( 2p)     1.05160
   233    C   16  py     Ryd( 3p)     0.00428
   234    C   16  pz     Val( 2p)     1.00004
   235    C   16  pz     Ryd( 3p)     0.00206
   236    C   16  dxy    Ryd( 3d)     0.00063
   237    C   16  dxz    Ryd( 3d)     0.00031
   238    C   16  dyz    Ryd( 3d)     0.00068
   239    C   16  dx2y2  Ryd( 3d)     0.00084
   240    C   16  dz2    Ryd( 3d)     0.00043

   241    C   17  S      Cor( 1S)     1.99910
   242    C   17  S      Val( 2S)     0.95747
   243    C   17  S      Ryd( 3S)     0.00059
   244    C   17  S      Ryd( 4S)     0.00003
   245    C   17  px     Val( 2p)     1.08741
   246    C   17  px     Ryd( 3p)     0.00480
   247    C   17  py     Val( 2p)     1.16310
   248    C   17  py     Ryd( 3p)     0.00485
   249    C   17  pz     Val( 2p)     1.04004
   250    C   17  pz     Ryd( 3p)     0.00272
   251    C   17  dxy    Ryd( 3d)     0.00080
   252    C   17  dxz    Ryd( 3d)     0.00046
   253    C   17  dyz    Ryd( 3d)     0.00042
   254    C   17  dx2y2  Ryd( 3d)     0.00068
   255    C   17  dz2    Ryd( 3d)     0.00044

   256    C   18  S      Cor( 1S)     1.99911
   257    C   18  S      Val( 2S)     0.96289
   258    C   18  S      Ryd( 3S)     0.00059
   259    C   18  S      Ryd( 4S)     0.00003
   260    C   18  px     Val( 2p)     1.09553
   261    C   18  px     Ryd( 3p)     0.00475
   262    C   18  py     Val( 2p)     1.15808
   263    C   18  py     Ryd( 3p)     0.00495
   264    C   18  pz     Val( 2p)     0.97497
   265    C   18  pz     Ryd( 3p)     0.00130
   266    C   18  dxy    Ryd( 3d)     0.00084
   267    C   18  dxz    Ryd( 3d)     0.00062
   268    C   18  dyz    Ryd( 3d)     0.00047
   269    C   18  dx2y2  Ryd( 3d)     0.00068
   270    C   18  dz2    Ryd( 3d)     0.00042

   271    C   19  S      Cor( 1S)     1.99908
   272    C   19  S      Val( 2S)     0.94344
   273    C   19  S      Ryd( 3S)     0.00065
   274    C   19  S      Ryd( 4S)     0.00005
   275    C   19  px     Val( 2p)     1.18991
   276    C   19  px     Ryd( 3p)     0.00452
   277    C   19  py     Val( 2p)     1.05718
   278    C   19  py     Ryd( 3p)     0.00384
   279    C   19  pz     Val( 2p)     1.02624
   280    C   19  pz     Ryd( 3p)     0.00239
   281    C   19  dxy    Ryd( 3d)     0.00061
   282    C   19  dxz    Ryd( 3d)     0.00030
   283    C   19  dyz    Ryd( 3d)     0.00057
   284    C   19  dx2y2  Ryd( 3d)     0.00086
   285    C   19  dz2    Ryd( 3d)     0.00042

   286    C   20  S      Cor( 1S)     1.99946
   287    C   20  S      Val( 2S)     1.08576
   288    C   20  S      Ryd( 3S)     0.00099
   289    C   20  S      Ryd( 4S)     0.00002
   290    C   20  px     Val( 2p)     1.23526
   291    C   20  px     Ryd( 3p)     0.00303
   292    C   20  py     Val( 2p)     1.05589
   293    C   20  py     Ryd( 3p)     0.00148
   294    C   20  pz     Val( 2p)     1.08415
   295    C   20  pz     Ryd( 3p)     0.00141
   296    C   20  dxy    Ryd( 3d)     0.00087
   297    C   20  dxz    Ryd( 3d)     0.00118
   298    C   20  dyz    Ryd( 3d)     0.00123
   299    C   20  dx2y2  Ryd( 3d)     0.00077
   300    C   20  dz2    Ryd( 3d)     0.00060

   301    H   21  S      Val( 1S)     0.73467
   302    H   21  S      Ryd( 2S)     0.00146

   303    H   22  S      Val( 1S)     0.77804
   304    H   22  S      Ryd( 2S)     0.00140

   305    H   23  S      Val( 1S)     0.77661
   306    H   23  S      Ryd( 2S)     0.00122

   307    H   24  S      Val( 1S)     0.74207
   308    H   24  S      Ryd( 2S)     0.00136

   309    H   25  S      Val( 1S)     0.76588
   310    H   25  S      Ryd( 2S)     0.00106

   311    H   26  S      Val( 1S)     0.76434
   312    H   26  S      Ryd( 2S)     0.00080

   313    H   27  S      Val( 1S)     0.76392
   314    H   27  S      Ryd( 2S)     0.00081

   315    H   28  S      Val( 1S)     0.76976
   316    H   28  S      Ryd( 2S)     0.00097

   317    H   29  S      Val( 1S)     0.76041
   318    H   29  S      Ryd( 2S)     0.00126

   319    H   30  S      Val( 1S)     0.76694
   320    H   30  S      Ryd( 2S)     0.00080

   321    H   31  S      Val( 1S)     0.76515
   322    H   31  S      Ryd( 2S)     0.00082

   323    H   32  S      Val( 1S)     0.77160
   324    H   32  S      Ryd( 2S)     0.00098

   325    H   33  S      Val( 1S)     0.77737
   326    H   33  S      Ryd( 2S)     0.00165

   327    H   34  S      Val( 1S)     0.74262
   328    H   34  S      Ryd( 2S)     0.00089

   329    H   35  S      Val( 1S)     0.77244
   330    H   35  S      Ryd( 2S)     0.00131

 WARNING:  1 low occupancy (<1.9990e) core orbital  found on  C    6
           1 low occupancy (<1.9990e) core orbital  found on  C    7
           1 low occupancy (<1.9990e) core orbital  found on  C   15


 Summary of Natural Population Analysis:                  
                                                          
                                       Natural Population 
                Natural  -----------------------------------------------
    Atom  No    Charge         Core      Valence    Rydberg      Total
 -----------------------------------------------------------------------
      C    1   -0.46947      1.99947     4.45814    0.01186     6.46947
      N    2   -0.48538      1.99932     5.47507    0.01099     7.48538
      C    3    0.94283      1.99937     3.01280    0.04500     5.05717
      O    4   -0.63894      1.99978     6.61998    0.01919     8.63894
      O    5   -0.55200      1.99969     6.54227    0.01004     8.55200
      C    6    0.36262      1.99867     3.61678    0.02193     5.63738
      C    7   -0.20226      1.99896     4.18971    0.01359     6.20226
      C    8   -0.05972      1.99903     4.04591    0.01478     6.05972
      C    9   -0.19495      1.99907     4.18163    0.01425     6.19495
      C   10   -0.26160      1.99911     4.24678    0.01571     6.26160
      C   11   -0.20075      1.99911     4.18699    0.01464     6.20075
      C   12   -0.22222      1.99908     4.20900    0.01414     6.22222
      C   13   -0.03767      1.99901     4.02398    0.01468     6.03767
      C   14   -0.03732      1.99903     4.02330    0.01499     6.03732
      C   15   -0.09363      1.99896     4.07996    0.01470     6.09363
      C   16   -0.21057      1.99908     4.19672    0.01478     6.21057
      C   17   -0.26293      1.99910     4.24802    0.01580     6.26293
      C   18   -0.20524      1.99911     4.19147    0.01466     6.20524
      C   19   -0.23008      1.99908     4.21677    0.01423     6.23008
      C   20   -0.47210      1.99946     4.46105    0.01159     6.47210
      H   21    0.26387      0.00000     0.73467    0.00146     0.73613
      H   22    0.22056      0.00000     0.77804    0.00140     0.77944
      H   23    0.22216      0.00000     0.77661    0.00122     0.77784
      H   24    0.25657      0.00000     0.74207    0.00136     0.74343
      H   25    0.23306      0.00000     0.76588    0.00106     0.76694
      H   26    0.23486      0.00000     0.76434    0.00080     0.76514
      H   27    0.23527      0.00000     0.76392    0.00081     0.76473
      H   28    0.22927      0.00000     0.76976    0.00097     0.77073
      H   29    0.23833      0.00000     0.76041    0.00126     0.76167
      H   30    0.23226      0.00000     0.76694    0.00080     0.76774
      H   31    0.23403      0.00000     0.76515    0.00082     0.76597
      H   32    0.22742      0.00000     0.77160    0.00098     0.77258
      H   33    0.22098      0.00000     0.77737    0.00165     0.77902
      H   34    0.25649      0.00000     0.74262    0.00089     0.74351
      H   35    0.22624      0.00000     0.77244    0.00131     0.77376
 =======================================================================
   * Total *   -0.00000     39.98349    99.67816    0.33836   140.00000

                                 Natural Population      
 --------------------------------------------------------
   Core                      39.98349 ( 99.9587% of  40)
   Valence                   99.67816 ( 99.6782% of 100)
   Natural Minimal Basis    139.66164 ( 99.7583% of 140)
   Natural Rydberg Basis      0.33836 (  0.2417% of 140)
 --------------------------------------------------------

    Atom  No          Natural Electron Configuration
 ----------------------------------------------------------------------------
      C    1      [core]2S( 1.09)2p( 3.37)3p( 0.01)
      N    2      [core]2S( 1.21)2p( 4.27)3p( 0.01)
      C    3      [core]2S( 0.69)2p( 2.32)3p( 0.03)3d( 0.01)
      O    4      [core]2S( 1.70)2p( 4.92)3d( 0.02)
      O    5      [core]2S( 1.59)2p( 4.95)3d( 0.01)
      C    6      [core]2S( 0.83)2p( 2.79)3p( 0.01)3d( 0.01)
      C    7      [core]2S( 0.96)2p( 3.23)3p( 0.01)
      C    8      [core]2S( 0.87)2p( 3.18)3p( 0.01)
      C    9      [core]2S( 0.95)2p( 3.23)3p( 0.01)
      C   10      [core]2S( 0.96)2p( 3.29)3p( 0.01)
      C   11      [core]2S( 0.96)2p( 3.22)3p( 0.01)
      C   12      [core]2S( 0.95)2p( 3.26)3p( 0.01)
      C   13      [core]2S( 0.86)2p( 3.16)3p( 0.01)
      C   14      [core]2S( 0.86)2p( 3.16)3p( 0.01)
      C   15      [core]2S( 0.87)2p( 3.21)3p( 0.01)
      C   16      [core]2S( 0.95)2p( 3.25)3p( 0.01)
      C   17      [core]2S( 0.96)2p( 3.29)3p( 0.01)
      C   18      [core]2S( 0.96)2p( 3.23)3p( 0.01)
      C   19      [core]2S( 0.94)2p( 3.27)3p( 0.01)
      C   20      [core]2S( 1.09)2p( 3.38)3p( 0.01)
      H   21            1S( 0.73)
      H   22            1S( 0.78)
      H   23            1S( 0.78)
      H   24            1S( 0.74)
      H   25            1S( 0.77)
      H   26            1S( 0.76)
      H   27            1S( 0.76)
      H   28            1S( 0.77)
      H   29            1S( 0.76)
      H   30            1S( 0.77)
      H   31            1S( 0.77)
      H   32            1S( 0.77)
      H   33            1S( 0.78)
      H   34            1S( 0.74)
      H   35            1S( 0.77)


 NBO analysis skipped by request.
 Leave Link  607 at Thu Sep 30 19:13:43 2021, MaxMem= 1342177280 cpu:      22.4
 (Enter /sw/target/amd/app/gaussian/Gaussian09RevA.02_gcc-4.9.2/g09/l9999.exe)
 1\1\GINC-HERMITE\SP\RTD-B3LYP-FC\6-31G(d)\C17H15N1O2\JSCHLEINITZ\30-Se
 p-2021\0\\#p TD(NStates=10, Root=1) b3lyp/6-31G* volume pop=NPA densit
 y=current Geom=AllCheck Guess=Read\\CN(C(=O)Oc1cc2ccccc2c2c1cccc2)C_co
 nf_0\\0,1\C,0,1.9242094235,0.4100291562,-0.2616358227\N,0,2.2071327174
 ,-1.0057476328,-0.0822133313\C,0,2.874034935,-1.6649389862,-1.07507192
 22\O,0,3.1904743692,-1.1904534279,-2.1477834094\O,0,3.1429482628,-2.96
 5882433,-0.6933406591\C,0,3.7507283213,-3.848429018,-1.5801127809\C,0,
 3.3280605715,-4.0092118915,-2.8611097829\C,0,3.9401154049,-4.985542648
 3,-3.71181867\C,0,3.4999459596,-5.1409049489,-5.0475706756\C,0,4.07092
 65499,-6.0822620677,-5.8804381778\C,0,5.107696064,-6.9017082296,-5.396
 3754416\C,0,5.5541096603,-6.7667419318,-4.0941760558\C,0,4.9898814282,
 -5.8128615552,-3.2155459147\C,0,5.4310067695,-5.6369710289,-1.83817510
 75\C,0,4.8112453241,-4.6449075627,-1.0196211143\C,0,5.2434202441,-4.46
 27849828,0.3142456097\C,0,6.2593274684,-5.2356977328,0.8412871343\C,0,
 6.8728405535,-6.2195031743,0.0455758776\C,0,6.4651788945,-6.4109712911
 ,-1.2615863802\C,0,1.8764216389,-1.5749639802,1.2155484465\H,0,2.21050
 6135,0.7010761612,-1.271000153\H,0,2.4873301153,1.0139542483,0.4631274
 503\H,0,0.8541438104,0.6029999465,-0.1140667916\H,0,2.5358121961,-3.38
 66762124,-3.2583786282\H,0,2.7003070497,-4.4990178088,-5.4089813431\H,
 0,3.7235585753,-6.1898987272,-6.9043406599\H,0,5.5618491507,-7.6439224
 143,-6.0472146846\H,0,6.355811805,-7.4117240805,-3.7510017488\H,0,4.76
 39485579,-3.7003475702,0.9173136057\H,0,6.5833961291,-5.0833394045,1.8
 671802296\H,0,7.6711697053,-6.8315651567,0.4564571299\H,0,6.957417545,
 -7.1753274136,-1.8526738034\H,0,2.5332680107,-1.1771033526,2.002468860
 4\H,0,1.9697559181,-2.6580646729,1.1882433209\H,0,0.8422794855,-1.3149
 345613,1.4725548518\\Version=AM64L-G09RevA.02\State=1-A\HF=-862.082665
 \RMSD=5.388e-09\Dipole=-0.7336,0.3033243,0.868501\Quadrupole=-1.237323
 ,-1.2350724,2.4723954,-8.7157911,-2.1668985,9.3974495\PG=C01 [X(C17H15
 N1O2)]\\@


 WE TEND TO MEET ANY NEW SITUATION BY REORGANIZING. IT CAN BE A
 WONDERFUL METHOD FOR CREATING THE ILLUSION OF PROGRESS WHILE PRODUCING
 CONFUSION, INEFFICIENCY, AND DEMORALIZATION.
     -- PETRONIUS ARBITER, 210 B.C.
 Job cpu time:  0 days  6 hours  1 minutes 23.7 seconds.
 File lengths (MBytes):  RWF=    350 Int=      0 D2E=      0 Chk=     49 Scr=      1
 Normal termination of Gaussian 09 at Thu Sep 30 19:13:46 2021.
