 Entering Gaussian System, Link 0=g09
 Input=C17H14O2_5f6d_conf_0.com
 Output=C17H14O2_5f6d_conf_0.log
 Initial command:
 /sw/target/amd/app/gaussian/Gaussian09RevA.02_gcc-4.9.2/g09/l1.exe /home/jschleinitz/gaussian/Gau-3791142.inp -scrdir=/home/jschleinitz/gaussian/
 Entering Link 1 = /sw/target/amd/app/gaussian/Gaussian09RevA.02_gcc-4.9.2/g09/l1.exe PID=   3791149.
  
 Copyright (c) 1988,1990,1992,1993,1995,1998,2003,2009, Gaussian, Inc.
                  All Rights Reserved.
  
 This is part of the Gaussian(R) 09 program.  It is based on
 the Gaussian(R) 03 system (copyright 2003, Gaussian, Inc.),
 the Gaussian(R) 98 system (copyright 1998, Gaussian, Inc.),
 the Gaussian(R) 94 system (copyright 1995, Gaussian, Inc.),
 the Gaussian 92(TM) system (copyright 1992, Gaussian, Inc.),
 the Gaussian 90(TM) system (copyright 1990, Gaussian, Inc.),
 the Gaussian 88(TM) system (copyright 1988, Gaussian, Inc.),
 the Gaussian 86(TM) system (copyright 1986, Carnegie Mellon
 University), and the Gaussian 82(TM) system (copyright 1983,
 Carnegie Mellon University). Gaussian is a federally registered
 trademark of Gaussian, Inc.
  
 This software contains proprietary and confidential information,
 including trade secrets, belonging to Gaussian, Inc.
  
 This software is provided under written license and may be
 used, copied, transmitted, or stored only in accord with that
 written license.
  
 The following legend is applicable only to US Government
 contracts under FAR:
  
                    RESTRICTED RIGHTS LEGEND
  
 Use, reproduction and disclosure by the US Government is
 subject to restrictions as set forth in subparagraphs (a)
 and (c) of the Commercial Computer Software - Restricted
 Rights clause in FAR 52.227-19.
  
 Gaussian, Inc.
 340 Quinnipiac St., Bldg. 40, Wallingford CT 06492
  
  
 ---------------------------------------------------------------
 Warning -- This program may not be used in any manner that
 competes with the business of Gaussian, Inc. or will provide
 assistance to any competitor of Gaussian, Inc.  The licensee
 of this program is prohibited from giving any competitor of
 Gaussian, Inc. access to this program.  By using this program,
 the user acknowledges that Gaussian, Inc. is engaged in the
 business of creating and licensing software in the field of
 computational chemistry and represents and warrants to the
 licensee that it is not a competitor of Gaussian, Inc. and that
 it will not use this program in any manner prohibited above.
 ---------------------------------------------------------------
  

 Cite this work as:
 Gaussian 09, Revision A.02,
 M. J. Frisch, G. W. Trucks, H. B. Schlegel, G. E. Scuseria, 
 M. A. Robb, J. R. Cheeseman, G. Scalmani, V. Barone, B. Mennucci, 
 G. A. Petersson, H. Nakatsuji, M. Caricato, X. Li, H. P. Hratchian, 
 A. F. Izmaylov, J. Bloino, G. Zheng, J. L. Sonnenberg, M. Hada, 
 M. Ehara, K. Toyota, R. Fukuda, J. Hasegawa, M. Ishida, T. Nakajima, 
 Y. Honda, O. Kitao, H. Nakai, T. Vreven, J. A. Montgomery, Jr., 
 J. E. Peralta, F. Ogliaro, M. Bearpark, J. J. Heyd, E. Brothers, 
 K. N. Kudin, V. N. Staroverov, R. Kobayashi, J. Normand, 
 K. Raghavachari, A. Rendell, J. C. Burant, S. S. Iyengar, J. Tomasi, 
 M. Cossi, N. Rega, J. M. Millam, M. Klene, J. E. Knox, J. B. Cross, 
 V. Bakken, C. Adamo, J. Jaramillo, R. Gomperts, R. E. Stratmann, 
 O. Yazyev, A. J. Austin, R. Cammi, C. Pomelli, J. W. Ochterski, 
 R. L. Martin, K. Morokuma, V. G. Zakrzewski, G. A. Voth, 
 P. Salvador, J. J. Dannenberg, S. Dapprich, A. D. Daniels, 
 O. Farkas, J. B. Foresman, J. V. Ortiz, J. Cioslowski, 
 and D. J. Fox, Gaussian, Inc., Wallingford CT, 2009.
 
 ******************************************
 Gaussian 09:  AM64L-G09RevA.02 11-Jun-2009
                29-Sep-2021 
 ******************************************
 %nproc=5
 Will use up to    5 processors via shared memory.
 %mem=10gb
 %chk=C17H14O2_5f6d_conf_0.chk
 -----------------------------------
 #p opt b3lyp/6-31G* scf=(xqc,tight)
 -----------------------------------
 1/14=-1,18=20,19=15,26=3,38=1/1,3;
 2/9=110,12=2,17=6,18=5,40=1/2;
 3/5=1,6=6,7=1,11=2,16=1,25=1,30=1,71=1,74=-5/1,2,3;
 4//1;
 5/5=2,8=3,13=1,32=2,38=5/2,8;
 6/7=2,8=2,9=2,10=2,28=1/1;
 7//1,2,3,16;
 1/14=-1,18=20,19=15/3(2);
 2/9=110/2;
 99//99;
 2/9=110/2;
 3/5=1,6=6,7=1,11=2,16=1,25=1,30=1,71=1,74=-5/1,2,3;
 4/5=5,16=3/1;
 5/5=2,8=3,13=1,32=2,38=5/2,8;
 7//1,2,3,16;
 1/14=-1,18=20,19=15/3(-5);
 2/9=110/2;
 6/7=2,8=2,9=2,10=2,19=2,28=1/1;
 99/9=1/99;
 Leave Link    1 at Wed Sep 29 16:13:10 2021, MaxMem= 1342177280 cpu:       0.1
 (Enter /sw/target/amd/app/gaussian/Gaussian09RevA.02_gcc-4.9.2/g09/l101.exe)
 -----------------------------------
 CCC(=O)Oc1c2ccccc2cc2c1cccc2_conf_0
 -----------------------------------
 Symbolic Z-matrix:
 Charge =  0 Multiplicity = 1
 C                     4.91956  -2.30657  -2.44215 
 C                     5.84203  -2.89764  -1.38956 
 C                     5.2412   -2.85087  -0.00105 
 O                     4.10735  -2.48196   0.26748 
 O                     6.19657  -3.33092   0.89787 
 C                     5.80777  -3.3922    2.25869 
 C                     4.89369  -4.39142   2.68466 
 C                     4.30104  -5.34995   1.82846 
 C                     3.39919  -6.3012    2.30791 
 C                     3.06986  -6.32245   3.65617 
 C                     3.6515   -5.4003    4.52456 
 C                     4.56558  -4.44183   4.05645 
 C                     5.17136  -3.54508   4.95284 
 C                     6.12018  -2.60158   4.53045 
 C                     6.45733  -2.51082   3.16438 
 C                     7.43284  -1.56071   2.7817 
 C                     8.05834  -0.74001   3.72563 
 C                     7.71468  -0.84053   5.06758 
 C                     6.75012  -1.76167   5.46685 
 H                     5.40202  -2.3252   -3.42474 
 H                     4.66523  -1.26818  -2.20584 
 H                     3.98498  -2.87318  -2.51162 
 H                     6.78009  -2.3331   -1.37823 
 H                     6.05496  -3.94245  -1.64003 
 H                     4.53838  -5.36477   0.76846 
 H                     2.95262  -7.01851   1.62507 
 H                     2.36489  -7.0577    4.03496 
 H                     3.3883   -5.44056   5.57937 
 H                     4.91378  -3.6003    6.00964 
 H                     7.72516  -1.46413   1.73972 
 H                     8.81677  -0.02733   3.4106 
 H                     8.20267  -0.20876   5.80744 
 H                     6.49597  -1.82826   6.52271 
 
 NAtoms=     33 NQM=     33 NQMF=      0 NMic=      0 NMicF=      0 NTot=     33.
                    Isotopes and Nuclear Properties:
 (Nuclear quadrupole moments (NQMom) in fm**2, nuclear magnetic moments (NMagM)
  in nuclear magnetons)

  Atom         1           2           3           4           5           6           7           8           9          10
 IAtWgt=          12          12          12          16          16          12          12          12          12          12
 AtmWgt=  12.0000000  12.0000000  12.0000000  15.9949146  15.9949146  12.0000000  12.0000000  12.0000000  12.0000000  12.0000000
 NucSpn=           0           0           0           0           0           0           0           0           0           0
 AtZEff=   0.0000000   0.0000000   0.0000000   0.0000000   0.0000000   0.0000000   0.0000000   0.0000000   0.0000000   0.0000000
 NQMom=    0.0000000   0.0000000   0.0000000   0.0000000   0.0000000   0.0000000   0.0000000   0.0000000   0.0000000   0.0000000
 NMagM=    0.0000000   0.0000000   0.0000000   0.0000000   0.0000000   0.0000000   0.0000000   0.0000000   0.0000000   0.0000000

  Atom        11          12          13          14          15          16          17          18          19          20
 IAtWgt=          12          12          12          12          12          12          12          12          12           1
 AtmWgt=  12.0000000  12.0000000  12.0000000  12.0000000  12.0000000  12.0000000  12.0000000  12.0000000  12.0000000   1.0078250
 NucSpn=           0           0           0           0           0           0           0           0           0           1
 AtZEff=   0.0000000   0.0000000   0.0000000   0.0000000   0.0000000   0.0000000   0.0000000   0.0000000   0.0000000   0.0000000
 NQMom=    0.0000000   0.0000000   0.0000000   0.0000000   0.0000000   0.0000000   0.0000000   0.0000000   0.0000000   0.0000000
 NMagM=    0.0000000   0.0000000   0.0000000   0.0000000   0.0000000   0.0000000   0.0000000   0.0000000   0.0000000   2.7928460

  Atom        21          22          23          24          25          26          27          28          29          30
 IAtWgt=           1           1           1           1           1           1           1           1           1           1
 AtmWgt=   1.0078250   1.0078250   1.0078250   1.0078250   1.0078250   1.0078250   1.0078250   1.0078250   1.0078250   1.0078250
 NucSpn=           1           1           1           1           1           1           1           1           1           1
 AtZEff=   0.0000000   0.0000000   0.0000000   0.0000000   0.0000000   0.0000000   0.0000000   0.0000000   0.0000000   0.0000000
 NQMom=    0.0000000   0.0000000   0.0000000   0.0000000   0.0000000   0.0000000   0.0000000   0.0000000   0.0000000   0.0000000
 NMagM=    2.7928460   2.7928460   2.7928460   2.7928460   2.7928460   2.7928460   2.7928460   2.7928460   2.7928460   2.7928460

  Atom        31          32          33
 IAtWgt=           1           1           1
 AtmWgt=   1.0078250   1.0078250   1.0078250
 NucSpn=           1           1           1
 AtZEff=   0.0000000   0.0000000   0.0000000
 NQMom=    0.0000000   0.0000000   0.0000000
 NMagM=    2.7928460   2.7928460   2.7928460
 Leave Link  101 at Wed Sep 29 16:13:10 2021, MaxMem= 1342177280 cpu:       0.2
 (Enter /sw/target/amd/app/gaussian/Gaussian09RevA.02_gcc-4.9.2/g09/l103.exe)

 GradGradGradGradGradGradGradGradGradGradGradGradGradGradGradGradGradGrad
 Berny optimization.
 Initialization pass.
                           ----------------------------
                           !    Initial Parameters    !
                           ! (Angstroms and Degrees)  !
 --------------------------                            --------------------------
 ! Name  Definition              Value          Derivative Info.                !
 --------------------------------------------------------------------------------
 ! R1    R(1,2)                  1.5193         estimate D2E/DX2                !
 ! R2    R(1,20)                 1.0948         estimate D2E/DX2                !
 ! R3    R(1,21)                 1.0949         estimate D2E/DX2                !
 ! R4    R(1,22)                 1.0951         estimate D2E/DX2                !
 ! R5    R(2,3)                  1.5137         estimate D2E/DX2                !
 ! R6    R(2,23)                 1.0949         estimate D2E/DX2                !
 ! R7    R(2,24)                 1.0953         estimate D2E/DX2                !
 ! R8    R(3,4)                  1.2222         estimate D2E/DX2                !
 ! R9    R(3,5)                  1.3969         estimate D2E/DX2                !
 ! R10   R(5,6)                  1.4166         estimate D2E/DX2                !
 ! R11   R(6,7)                  1.4197         estimate D2E/DX2                !
 ! R12   R(6,15)                 1.4209         estimate D2E/DX2                !
 ! R13   R(7,8)                  1.4153         estimate D2E/DX2                !
 ! R14   R(7,12)                 1.4114         estimate D2E/DX2                !
 ! R15   R(8,9)                  1.3957         estimate D2E/DX2                !
 ! R16   R(8,25)                 1.0864         estimate D2E/DX2                !
 ! R17   R(9,10)                 1.3881         estimate D2E/DX2                !
 ! R18   R(9,26)                 1.0864         estimate D2E/DX2                !
 ! R19   R(10,11)                1.3938         estimate D2E/DX2                !
 ! R20   R(10,27)                1.0868         estimate D2E/DX2                !
 ! R21   R(11,12)                1.4047         estimate D2E/DX2                !
 ! R22   R(11,28)                1.0879         estimate D2E/DX2                !
 ! R23   R(12,13)                1.4052         estimate D2E/DX2                !
 ! R24   R(13,14)                1.4032         estimate D2E/DX2                !
 ! R25   R(13,29)                1.0891         estimate D2E/DX2                !
 ! R26   R(14,15)                1.41           estimate D2E/DX2                !
 ! R27   R(14,19)                1.4068         estimate D2E/DX2                !
 ! R28   R(15,16)                1.4145         estimate D2E/DX2                !
 ! R29   R(16,17)                1.3985         estimate D2E/DX2                !
 ! R30   R(16,30)                1.0865         estimate D2E/DX2                !
 ! R31   R(17,18)                1.3889         estimate D2E/DX2                !
 ! R32   R(17,31)                1.0874         estimate D2E/DX2                !
 ! R33   R(18,19)                1.3922         estimate D2E/DX2                !
 ! R34   R(18,32)                1.0884         estimate D2E/DX2                !
 ! R35   R(19,33)                1.0881         estimate D2E/DX2                !
 ! A1    A(2,1,20)             110.3416         estimate D2E/DX2                !
 ! A2    A(2,1,21)             111.1292         estimate D2E/DX2                !
 ! A3    A(2,1,22)             111.1506         estimate D2E/DX2                !
 ! A4    A(20,1,21)            108.1924         estimate D2E/DX2                !
 ! A5    A(20,1,22)            108.0801         estimate D2E/DX2                !
 ! A6    A(21,1,22)            107.8269         estimate D2E/DX2                !
 ! A7    A(1,2,3)              112.4889         estimate D2E/DX2                !
 ! A8    A(1,2,23)             109.0736         estimate D2E/DX2                !
 ! A9    A(1,2,24)             109.3118         estimate D2E/DX2                !
 ! A10   A(3,2,23)             108.3398         estimate D2E/DX2                !
 ! A11   A(3,2,24)             108.446          estimate D2E/DX2                !
 ! A12   A(23,2,24)            109.1261         estimate D2E/DX2                !
 ! A13   A(2,3,4)              125.388          estimate D2E/DX2                !
 ! A14   A(2,3,5)              107.9518         estimate D2E/DX2                !
 ! A15   A(4,3,5)              126.6434         estimate D2E/DX2                !
 ! A16   A(3,5,6)              116.4447         estimate D2E/DX2                !
 ! A17   A(5,6,7)              119.6963         estimate D2E/DX2                !
 ! A18   A(5,6,15)             117.3866         estimate D2E/DX2                !
 ! A19   A(7,6,15)             122.6616         estimate D2E/DX2                !
 ! A20   A(6,7,8)              124.3876         estimate D2E/DX2                !
 ! A21   A(6,7,12)             117.8045         estimate D2E/DX2                !
 ! A22   A(8,7,12)             117.8039         estimate D2E/DX2                !
 ! A23   A(7,8,9)              121.6241         estimate D2E/DX2                !
 ! A24   A(7,8,25)             120.5334         estimate D2E/DX2                !
 ! A25   A(9,8,25)             117.8425         estimate D2E/DX2                !
 ! A26   A(8,9,10)             119.828          estimate D2E/DX2                !
 ! A27   A(8,9,26)             119.9803         estimate D2E/DX2                !
 ! A28   A(10,9,26)            120.1907         estimate D2E/DX2                !
 ! A29   A(9,10,11)            119.7368         estimate D2E/DX2                !
 ! A30   A(9,10,27)            120.1871         estimate D2E/DX2                !
 ! A31   A(11,10,27)           120.0755         estimate D2E/DX2                !
 ! A32   A(10,11,12)           121.0202         estimate D2E/DX2                !
 ! A33   A(10,11,28)           118.5958         estimate D2E/DX2                !
 ! A34   A(12,11,28)           120.3828         estimate D2E/DX2                !
 ! A35   A(7,12,11)            119.9685         estimate D2E/DX2                !
 ! A36   A(7,12,13)            119.8013         estimate D2E/DX2                !
 ! A37   A(11,12,13)           120.2228         estimate D2E/DX2                !
 ! A38   A(12,13,14)           121.9094         estimate D2E/DX2                !
 ! A39   A(12,13,29)           118.9901         estimate D2E/DX2                !
 ! A40   A(14,13,29)           119.0845         estimate D2E/DX2                !
 ! A41   A(13,14,15)           119.7775         estimate D2E/DX2                !
 ! A42   A(13,14,19)           120.2562         estimate D2E/DX2                !
 ! A43   A(15,14,19)           119.9589         estimate D2E/DX2                !
 ! A44   A(6,15,14)            117.9238         estimate D2E/DX2                !
 ! A45   A(6,15,16)            124.0195         estimate D2E/DX2                !
 ! A46   A(14,15,16)           118.0515         estimate D2E/DX2                !
 ! A47   A(15,16,17)           121.335          estimate D2E/DX2                !
 ! A48   A(15,16,30)           120.3122         estimate D2E/DX2                !
 ! A49   A(17,16,30)           118.346          estimate D2E/DX2                !
 ! A50   A(16,17,18)           119.9338         estimate D2E/DX2                !
 ! A51   A(16,17,31)           120.0691         estimate D2E/DX2                !
 ! A52   A(18,17,31)           119.9963         estimate D2E/DX2                !
 ! A53   A(17,18,19)           119.7622         estimate D2E/DX2                !
 ! A54   A(17,18,32)           120.2535         estimate D2E/DX2                !
 ! A55   A(19,18,32)           119.982          estimate D2E/DX2                !
 ! A56   A(14,19,18)           120.9547         estimate D2E/DX2                !
 ! A57   A(14,19,33)           120.3171         estimate D2E/DX2                !
 ! A58   A(18,19,33)           118.726          estimate D2E/DX2                !
 ! D1    D(20,1,2,3)           177.9632         estimate D2E/DX2                !
 ! D2    D(20,1,2,23)           57.7331         estimate D2E/DX2                !
 ! D3    D(20,1,2,24)          -61.51           estimate D2E/DX2                !
 ! D4    D(21,1,2,3)            57.9468         estimate D2E/DX2                !
 ! D5    D(21,1,2,23)          -62.2833         estimate D2E/DX2                !
 ! D6    D(21,1,2,24)          178.4737         estimate D2E/DX2                !
 ! D7    D(22,1,2,3)           -62.1476         estimate D2E/DX2                !
 ! D8    D(22,1,2,23)          177.6223         estimate D2E/DX2                !
 ! D9    D(22,1,2,24)           58.3793         estimate D2E/DX2                !
 ! D10   D(1,2,3,4)              5.333          estimate D2E/DX2                !
 ! D11   D(1,2,3,5)           -176.0791         estimate D2E/DX2                !
 ! D12   D(23,2,3,4)           125.9859         estimate D2E/DX2                !
 ! D13   D(23,2,3,5)           -55.4262         estimate D2E/DX2                !
 ! D14   D(24,2,3,4)          -115.691          estimate D2E/DX2                !
 ! D15   D(24,2,3,5)            62.8969         estimate D2E/DX2                !
 ! D16   D(2,3,5,6)           -178.6926         estimate D2E/DX2                !
 ! D17   D(4,3,5,6)             -0.1274         estimate D2E/DX2                !
 ! D18   D(3,5,6,7)             73.1069         estimate D2E/DX2                !
 ! D19   D(3,5,6,15)          -112.5445         estimate D2E/DX2                !
 ! D20   D(5,6,7,8)             -1.1659         estimate D2E/DX2                !
 ! D21   D(5,6,7,12)           178.0856         estimate D2E/DX2                !
 ! D22   D(15,6,7,8)          -175.2042         estimate D2E/DX2                !
 ! D23   D(15,6,7,12)            4.0472         estimate D2E/DX2                !
 ! D24   D(5,6,15,14)         -177.3527         estimate D2E/DX2                !
 ! D25   D(5,6,15,16)            1.8084         estimate D2E/DX2                !
 ! D26   D(7,6,15,14)           -3.1845         estimate D2E/DX2                !
 ! D27   D(7,6,15,16)          175.9766         estimate D2E/DX2                !
 ! D28   D(6,7,8,9)           -179.4468         estimate D2E/DX2                !
 ! D29   D(6,7,8,25)             0.5275         estimate D2E/DX2                !
 ! D30   D(12,7,8,9)             1.3017         estimate D2E/DX2                !
 ! D31   D(12,7,8,25)         -178.724          estimate D2E/DX2                !
 ! D32   D(6,7,12,11)          179.1091         estimate D2E/DX2                !
 ! D33   D(6,7,12,13)           -1.8781         estimate D2E/DX2                !
 ! D34   D(8,7,12,11)           -1.5892         estimate D2E/DX2                !
 ! D35   D(8,7,12,13)          177.4236         estimate D2E/DX2                !
 ! D36   D(7,8,9,10)            -0.2344         estimate D2E/DX2                !
 ! D37   D(7,8,9,26)           179.4009         estimate D2E/DX2                !
 ! D38   D(25,8,9,10)          179.7905         estimate D2E/DX2                !
 ! D39   D(25,8,9,26)           -0.5741         estimate D2E/DX2                !
 ! D40   D(8,9,10,11)           -0.557          estimate D2E/DX2                !
 ! D41   D(8,9,10,27)          179.7229         estimate D2E/DX2                !
 ! D42   D(26,9,10,11)         179.8084         estimate D2E/DX2                !
 ! D43   D(26,9,10,27)           0.0883         estimate D2E/DX2                !
 ! D44   D(9,10,11,12)           0.2486         estimate D2E/DX2                !
 ! D45   D(9,10,11,28)        -179.3471         estimate D2E/DX2                !
 ! D46   D(27,10,11,12)        179.9691         estimate D2E/DX2                !
 ! D47   D(27,10,11,28)          0.3733         estimate D2E/DX2                !
 ! D48   D(10,11,12,7)           0.8533         estimate D2E/DX2                !
 ! D49   D(10,11,12,13)       -178.1553         estimate D2E/DX2                !
 ! D50   D(28,11,12,7)        -179.5582         estimate D2E/DX2                !
 ! D51   D(28,11,12,13)          1.4332         estimate D2E/DX2                !
 ! D52   D(7,12,13,14)          -1.0375         estimate D2E/DX2                !
 ! D53   D(7,12,13,29)        -179.5699         estimate D2E/DX2                !
 ! D54   D(11,12,13,14)        177.9728         estimate D2E/DX2                !
 ! D55   D(11,12,13,29)         -0.5596         estimate D2E/DX2                !
 ! D56   D(12,13,14,15)          1.9332         estimate D2E/DX2                !
 ! D57   D(12,13,14,19)       -177.079          estimate D2E/DX2                !
 ! D58   D(29,13,14,15)       -179.5358         estimate D2E/DX2                !
 ! D59   D(29,13,14,19)          1.452          estimate D2E/DX2                !
 ! D60   D(13,14,15,6)           0.1471         estimate D2E/DX2                !
 ! D61   D(13,14,15,16)       -179.065          estimate D2E/DX2                !
 ! D62   D(19,14,15,6)         179.1622         estimate D2E/DX2                !
 ! D63   D(19,14,15,16)         -0.0499         estimate D2E/DX2                !
 ! D64   D(13,14,19,18)        178.5931         estimate D2E/DX2                !
 ! D65   D(13,14,19,33)         -0.8568         estimate D2E/DX2                !
 ! D66   D(15,14,19,18)         -0.4173         estimate D2E/DX2                !
 ! D67   D(15,14,19,33)       -179.8672         estimate D2E/DX2                !
 ! D68   D(6,15,16,17)        -178.5849         estimate D2E/DX2                !
 ! D69   D(6,15,16,30)           0.4419         estimate D2E/DX2                !
 ! D70   D(14,15,16,17)          0.5752         estimate D2E/DX2                !
 ! D71   D(14,15,16,30)        179.6019         estimate D2E/DX2                !
 ! D72   D(15,16,17,18)         -0.6379         estimate D2E/DX2                !
 ! D73   D(15,16,17,31)        179.043          estimate D2E/DX2                !
 ! D74   D(30,16,17,18)       -179.6833         estimate D2E/DX2                !
 ! D75   D(30,16,17,31)         -0.0024         estimate D2E/DX2                !
 ! D76   D(16,17,18,19)          0.1601         estimate D2E/DX2                !
 ! D77   D(16,17,18,32)        179.6139         estimate D2E/DX2                !
 ! D78   D(31,17,18,19)       -179.5211         estimate D2E/DX2                !
 ! D79   D(31,17,18,32)         -0.0673         estimate D2E/DX2                !
 ! D80   D(17,18,19,14)          0.3641         estimate D2E/DX2                !
 ! D81   D(17,18,19,33)        179.8226         estimate D2E/DX2                !
 ! D82   D(32,18,19,14)       -179.0911         estimate D2E/DX2                !
 ! D83   D(32,18,19,33)          0.3674         estimate D2E/DX2                !
 --------------------------------------------------------------------------------
 Trust Radius=3.00D-01 FncErr=1.00D-07 GrdErr=1.00D-06
 Number of steps in this run= 186 maximum allowed number of steps= 198.
 GradGradGradGradGradGradGradGradGradGradGradGradGradGradGradGradGradGrad

 Leave Link  103 at Wed Sep 29 16:13:11 2021, MaxMem= 1342177280 cpu:       0.0
 (Enter /sw/target/amd/app/gaussian/Gaussian09RevA.02_gcc-4.9.2/g09/l202.exe)
                          Input orientation:                          
 ---------------------------------------------------------------------
 Center     Atomic      Atomic             Coordinates (Angstroms)
 Number     Number       Type             X           Y           Z
 ---------------------------------------------------------------------
      1          6           0        4.919561   -2.306574   -2.442151
      2          6           0        5.842029   -2.897639   -1.389565
      3          6           0        5.241197   -2.850865   -0.001047
      4          8           0        4.107351   -2.481962    0.267483
      5          8           0        6.196569   -3.330921    0.897868
      6          6           0        5.807765   -3.392204    2.258689
      7          6           0        4.893694   -4.391422    2.684656
      8          6           0        4.301040   -5.349949    1.828460
      9          6           0        3.399187   -6.301197    2.307905
     10          6           0        3.069857   -6.322452    3.656167
     11          6           0        3.651504   -5.400297    4.524556
     12          6           0        4.565578   -4.441830    4.056453
     13          6           0        5.171359   -3.545083    4.952843
     14          6           0        6.120175   -2.601584    4.530447
     15          6           0        6.457331   -2.510818    3.164379
     16          6           0        7.432843   -1.560714    2.781703
     17          6           0        8.058340   -0.740007    3.725628
     18          6           0        7.714676   -0.840529    5.067584
     19          6           0        6.750123   -1.761671    5.466849
     20          1           0        5.402020   -2.325199   -3.424739
     21          1           0        4.665229   -1.268183   -2.205839
     22          1           0        3.984975   -2.873180   -2.511617
     23          1           0        6.780093   -2.333103   -1.378229
     24          1           0        6.054956   -3.942446   -1.640034
     25          1           0        4.538376   -5.364771    0.768455
     26          1           0        2.952620   -7.018510    1.625071
     27          1           0        2.364889   -7.057697    4.034961
     28          1           0        3.388300   -5.440557    5.579374
     29          1           0        4.913783   -3.600297    6.009645
     30          1           0        7.725158   -1.464126    1.739715
     31          1           0        8.816774   -0.027331    3.410598
     32          1           0        8.202669   -0.208756    5.807441
     33          1           0        6.495967   -1.828260    6.522705
 ---------------------------------------------------------------------
                    Distance matrix (angstroms):
                    1          2          3          4          5
     1  C    0.000000
     2  C    1.519290   0.000000
     3  C    2.521645   1.513661   0.000000
     4  O    2.834178   2.434687   1.222213   0.000000
     5  O    3.719645   2.354948   1.396867   2.341570   0.000000
     6  C    4.905649   3.681783   2.391747   2.772157   1.416601
     7  C    5.534565   4.441847   3.115618   3.179167   2.452500
     8  C    5.280419   4.329452   3.236729   3.271012   2.921559
     9  C    6.389960   5.587752   4.541921   4.387639   4.316954
    10  C    7.532474   6.698783   5.490159   5.225796   5.131647
    11  C    7.727490   6.785169   5.432109   5.181423   4.890045
    12  C    6.849560   5.802841   4.410321   4.290379   3.724367
    13  C    7.502216   6.410547   5.002783   4.920868   4.188048
    14  C    7.081359   5.933933   4.622682   4.715786   3.705861
    15  C    5.817184   4.611576   3.408010   3.730315   2.424384
    16  C    5.844788   4.660208   3.769814   4.269532   2.865457
    17  C    7.095602   5.977676   5.126414   5.532042   4.263244
    18  C    8.146047   7.030881   5.987535   6.224795   5.088540
    19  C    8.136348   7.008956   5.775906   5.876774   4.862567
    20  H    1.094802   2.159451   3.467543   3.915768   4.508626
    21  H    1.094890   2.169398   2.774478   2.811016   4.029005
    22  H    1.095134   2.169849   2.807410   2.809168   4.089652
    23  H    2.143412   1.094894   2.129063   3.142304   2.552793
    24  H    2.146763   1.095306   2.130735   3.092701   2.614376
    25  H    4.450378   3.527506   2.721362   2.957591   2.627336
    26  H    6.527901   5.866710   5.025048   4.874086   4.964911
    27  H    8.429265   7.669554   6.500765   6.177979   6.197740
    28  H    8.747084   7.813663   6.425016   6.122623   5.852644
    29  H    8.550240   7.490238   6.066075   5.905373   5.277155
    30  H    5.105791   3.923459   3.335170   4.036334   2.555428
    31  H    7.391745   6.334773   5.691786   6.171147   4.908462
    32  H    9.123345   8.037389   7.034884   7.254670   6.154370
    33  H    9.114960   8.010944   6.721571   6.727602   5.829788
                    6          7          8          9         10
     6  C    0.000000
     7  C    1.419652   0.000000
     8  C    2.507605   1.415304   0.000000
     9  C    3.777024   2.454126   1.395736   0.000000
    10  C    4.246816   2.828267   2.408752   1.388063   0.000000
    11  C    3.716995   2.438462   2.773691   2.405998   1.393838
    12  C    2.424191   1.411392   2.420457   2.806267   2.436011
    13  C    2.772517   2.436813   3.711707   4.210992   3.716377
    14  C    2.425607   2.848635   4.261866   5.102020   4.890160
    15  C    1.420933   2.492341   3.807221   4.944973   5.123025
    16  C    2.503752   3.803893   5.007511   6.242358   6.517245
    17  C    3.775069   4.942816   6.242444   7.392190   7.486887
    18  C    4.247028   5.122999   6.517646   7.487200   7.322426
    19  C    3.720076   4.254705   5.666712   6.466451   6.133812
    20  H    5.796937   6.469341   6.160955   7.258313   8.459092
    21  H    5.074334   5.807216   5.750567   6.878080   7.902782
    22  H    5.133007   5.489270   5.007050   5.943252   7.125761
    23  H    3.910791   4.929727   5.052714   6.384659   7.417944
    24  H    3.945112   4.500339   4.133732   5.310654   6.528782
    25  H    2.779058   2.178413   1.086351   2.131796   3.378251
    26  H    4.658693   3.433960   2.154924   1.086380   2.150254
    27  H    5.333327   3.914997   3.396134   2.150531   1.086761
    28  H    4.590917   3.427286   3.861433   3.382799   2.139596
    29  H    3.861629   3.417869   4.573734   4.826151   4.043396
    30  H    2.768251   4.180808   5.179969   6.514147   6.996281
    31  H    4.658691   5.912938   7.157184   8.362271   8.527363
    32  H    5.335124   6.180275   7.582010   8.511054   8.267468
    33  H    4.593624   4.885458   6.265456   6.881987   6.336642
                   11         12         13         14         15
    11  C    0.000000
    12  C    1.404746   0.000000
    13  C    2.436228   1.405219   0.000000
    14  C    3.731912   2.455188   1.403161   0.000000
    15  C    4.251098   2.846635   2.433523   1.409984   0.000000
    16  C    5.663784   4.259932   3.710239   2.421696   1.414483
    17  C    6.463496   5.100227   4.208225   2.805295   2.452346
    18  C    6.131535   4.889639   3.714329   2.435624   2.827185
    19  C    4.871237   3.734261   2.436649   1.406818   2.438917
    20  H    8.701254   7.819718   8.469073   7.992316   6.675673
    21  H    7.962425   7.021272   7.529088   7.019429   5.796120
    22  H    7.483665   6.777706   7.587959   7.363662   6.201675
    23  H    7.351096   6.235910   6.643748   5.951473   4.557526
    24  H    6.775255   5.909111   6.663683   6.314824   5.029299
    25  H    3.859546   3.415185   4.606629   4.928476   4.191406
    26  H    3.393238   3.892625   5.297316   6.163104   5.913692
    27  H    2.154544   3.418517   4.588817   5.848472   6.179005
    28  H    1.087906   2.168578   2.676689   4.077151   4.882062
    29  H    2.653080   2.155083   1.089139   2.154260   3.415413
    30  H    6.312165   4.921071   4.601789   3.414376   2.175457
    31  H    7.535893   6.162597   5.295484   3.892620   3.434429
    32  H    7.022179   5.849215   4.588056   3.419521   3.915543
    33  H    4.984277   4.079161   2.677039   2.169871   3.427205
                   16         17         18         19         20
    16  C    0.000000
    17  C    1.398499   0.000000
    18  C    2.413161   1.388904   0.000000
    19  C    2.777858   2.405634   1.392220   0.000000
    20  H    6.574846   7.790803   8.925927   9.010842   0.000000
    21  H    5.711466   6.853793   7.898398   7.966207   1.773657
    22  H    6.452100   7.748932   8.688304   8.516890   1.772594
    23  H    4.281087   5.497383   6.682045   6.868953   2.467256
    24  H    5.207973   6.561973   7.574213   7.466379   2.495393
    25  H    5.186709   6.521000   7.002867   6.320526   5.250500
    26  H    7.155259   8.360640   8.526167   7.537549   7.316236
    27  H    7.581004   8.510245   8.266784   7.023423   9.341725
    28  H    6.264062   6.880466   6.335591   4.984849   9.738305
    29  H    4.574403   4.825580   4.043365   2.654679   9.532672
    30  H    1.086516   2.139909   3.385808   3.864033   5.728002
    31  H    2.159176   1.087371   2.149771   3.392219   7.978883
    32  H    3.402281   2.153371   1.088423   2.153471   9.877050
    33  H    3.865800   3.383628   2.139682   1.088054  10.019746
                   21         22         23         24         25
    21  H    0.000000
    22  H    1.769820   0.000000
    23  H    2.508315   3.064137   0.000000
    24  H    3.066457   2.487530   1.784474   0.000000
    25  H    5.064045   4.156098   4.338727   3.181799   0.000000
    26  H    7.118649   5.946571   6.754435   5.454133   2.446072
    27  H    8.818028   7.936784   8.433175   7.451641   4.273184
    28  H    8.924618   8.509500   8.340789   7.840615   4.947056
    29  H    8.543694   8.602516   7.724608   7.741894   5.542956
    30  H    4.996895   5.835086   3.371920   4.511579   5.129712
    31  H    7.093617   8.155843   5.691882   6.961656   7.333067
    32  H    8.823182   9.700249   7.626954   8.603371   8.087207
    33  H    8.936038   9.434825   7.922143   8.443612   7.032102
                   26         27         28         29         30
    26  H    0.000000
    27  H    2.480833   0.000000
    28  H    4.279751   2.459213   0.000000
    29  H    5.895322   4.727563   2.428742   0.000000
    30  H    7.324031   8.080140   7.025903   5.540700   0.000000
    31  H    9.298010   9.562568   7.967116   5.895292   2.459239
    32  H    9.561798   9.172206   7.113502   4.728659   4.283733
    33  H    7.967485   7.113487   4.857588   2.430361   4.951817
                   31         32         33
    31  H    0.000000
    32  H    2.480907   0.000000
    33  H    4.279568   2.459111   0.000000
 Stoichiometry    C17H14O2
 Framework group  C1[X(C17H14O2)]
 Deg. of freedom    93
 Full point group                 C1      NOp   1
 Largest Abelian subgroup         C1      NOp   1
 Largest concise Abelian subgroup C1      NOp   1
                         Standard orientation:                         
 ---------------------------------------------------------------------
 Center     Atomic      Atomic             Coordinates (Angstroms)
 Number     Number       Type             X           Y           Z
 ---------------------------------------------------------------------
      1          6           0        4.605871   -1.792718    0.511190
      2          6           0        3.450838   -1.596817   -0.456158
      3          6           0        2.276253   -0.885780    0.180982
      4          8           0        2.260034   -0.417218    1.309694
      5          8           0        1.242453   -0.836400   -0.757131
      6          6           0        0.055319   -0.177151   -0.353571
      7          6           0        0.037942    1.238501   -0.248511
      8          6           0        1.153355    2.072486   -0.500320
      9          6           0        1.074566    3.459720   -0.368218
     10          6           0       -0.122124    4.049989    0.014191
     11          6           0       -1.240813    3.253415    0.252494
     12          6           0       -1.177113    1.856680    0.116900
     13          6           0       -2.324962    1.072871    0.323598
     14          6           0       -2.311646   -0.320286    0.156877
     15          6           0       -1.110493   -0.972681   -0.189057
     16          6           0       -1.143007   -2.375467   -0.367648
     17          6           0       -2.329861   -3.100173   -0.219395
     18          6           0       -3.504852   -2.443339    0.122684
     19          6           0       -3.495381   -1.064246    0.313184
     20          1           0        5.419960   -2.340740    0.025882
     21          1           0        4.290258   -2.359650    1.393097
     22          1           0        5.001072   -0.830880    0.854704
     23          1           0        3.110475   -2.575499   -0.809893
     24          1           0        3.791708   -1.004497   -1.312114
     25          1           0        2.104572    1.645009   -0.804637
     26          1           0        1.950228    4.073802   -0.558855
     27          1           0       -0.188800    5.129211    0.123203
     28          1           0       -2.172040    3.736344    0.540827
     29          1           0       -3.257293    1.564315    0.598310
     30          1           0       -0.240093   -2.914561   -0.640853
     31          1           0       -2.334521   -4.176092   -0.376720
     32          1           0       -4.432792   -3.001335    0.233281
     33          1           0       -4.425986   -0.566505    0.577929
 ---------------------------------------------------------------------
 Rotational constants (GHZ):      0.4407854      0.3660446      0.2105789
 Leave Link  202 at Wed Sep 29 16:13:11 2021, MaxMem= 1342177280 cpu:       0.1
 (Enter /sw/target/amd/app/gaussian/Gaussian09RevA.02_gcc-4.9.2/g09/l301.exe)
 Standard basis: 6-31G(d) (6D, 7F)
 Ernie: Thresh=  0.10000D-02 Tol=  0.10000D-05 Strict=F.
 There are   313 symmetry adapted basis functions of A   symmetry.
 Integral buffers will be    131072 words long.
 Raffenetti 2 integral format.
 Two-electron integral symmetry is turned on.
   313 basis functions,   588 primitive gaussians,   313 cartesian basis functions
    66 alpha electrons       66 beta electrons
       nuclear repulsion energy      1332.1826500580 Hartrees.
 IExCor=  402 DFT=T Ex+Corr=B3LYP ExCW=0 ScaHFX=  0.200000
 ScaDFX=  0.800000  0.720000  1.000000  0.810000 ScalE2=  1.000000  1.000000
 IRadAn=      0 IRanWt=     -1 IRanGd=            0 ICorTp=0
 NAtoms=   33 NActive=   33 NUniq=   33 SFac= 7.50D-01 NAtFMM=   80 NAOKFM=F Big=F
 Leave Link  301 at Wed Sep 29 16:13:12 2021, MaxMem= 1342177280 cpu:       0.1
 (Enter /sw/target/amd/app/gaussian/Gaussian09RevA.02_gcc-4.9.2/g09/l302.exe)
 NPDir=0 NMtPBC=     1 NCelOv=     1 NCel=       1 NClECP=     1 NCelD=      1
         NCelK=      1 NCelE2=     1 NClLst=     1 CellRange=     0.0.
 One-electron integrals computed using PRISM.
 NBasis=   313 RedAO= T  NBF=   313
 NBsUse=   313 1.00D-06 NBFU=   313
 Precomputing XC quadrature grid using
 IXCGrd= 2 IRadAn=           0 IRanWt=          -1 IRanGd=           0 AccXCQ= 1.00D-10.
 NRdTot=    2091 NPtTot=      266496 NUsed=      281575 NTot=      281607
 NSgBfM=   311   311   311   311   311 NAtAll=    33    33.
 Leave Link  302 at Wed Sep 29 16:13:17 2021, MaxMem= 1342177280 cpu:       3.0
 (Enter /sw/target/amd/app/gaussian/Gaussian09RevA.02_gcc-4.9.2/g09/l303.exe)
 DipDrv:  MaxL=1.
 Leave Link  303 at Wed Sep 29 16:13:18 2021, MaxMem= 1342177280 cpu:       0.2
 (Enter /sw/target/amd/app/gaussian/Gaussian09RevA.02_gcc-4.9.2/g09/l401.exe)
 Harris functional with IExCor=  402 diagonalized for initial guess.
 ExpMin= 1.61D-01 ExpMax= 5.48D+03 ExpMxC= 8.25D+02 IAcc=1 IRadAn=         1 AccDes= 0.00D+00
 HarFok:  IExCor=  402 AccDes= 0.00D+00 IRadAn=         1 IDoV= 1
 ScaDFX=  1.000000  1.000000  1.000000  1.000000
 FoFCou: FMM=F IPFlag=           0 FMFlag=      100000 FMFlg1=           0
         NFxFlg=           0 DoJE=T BraDBF=F KetDBF=T FulRan=T
         Omega=  0.000000  0.000000  1.000000  0.000000  0.000000 ICntrl=     500 IOpCl=  0
         NMat0=    1 NMatS0=    1 NMatT0=    0 NMatD0=    1 NMtDS0=    0 NMtDT0=    0
         I1Cent=           4 NGrid=           0.
 Petite list used in FoFCou.
 Harris En= -806.820040308104    
 Initial guess orbital symmetries:
       Occupied  (A) (A) (A) (A) (A) (A) (A) (A) (A) (A) (A) (A)
                 (A) (A) (A) (A) (A) (A) (A) (A) (A) (A) (A) (A)
                 (A) (A) (A) (A) (A) (A) (A) (A) (A) (A) (A) (A)
                 (A) (A) (A) (A) (A) (A) (A) (A) (A) (A) (A) (A)
                 (A) (A) (A) (A) (A) (A) (A) (A) (A) (A) (A) (A)
                 (A) (A) (A) (A) (A) (A)
       Virtual   (A) (A) (A) (A) (A) (A) (A) (A) (A) (A) (A) (A)
                 (A) (A) (A) (A) (A) (A) (A) (A) (A) (A) (A) (A)
                 (A) (A) (A) (A) (A) (A) (A) (A) (A) (A) (A) (A)
                 (A) (A) (A) (A) (A) (A) (A) (A) (A) (A) (A) (A)
                 (A) (A) (A) (A) (A) (A) (A) (A) (A) (A) (A) (A)
                 (A) (A) (A) (A) (A) (A) (A) (A) (A) (A) (A) (A)
                 (A) (A) (A) (A) (A) (A) (A) (A) (A) (A) (A) (A)
                 (A) (A) (A) (A) (A) (A) (A) (A) (A) (A) (A) (A)
                 (A) (A) (A) (A) (A) (A) (A) (A) (A) (A) (A) (A)
                 (A) (A) (A) (A) (A) (A) (A) (A) (A) (A) (A) (A)
                 (A) (A) (A) (A) (A) (A) (A) (A) (A) (A) (A) (A)
                 (A) (A) (A) (A) (A) (A) (A) (A) (A) (A) (A) (A)
                 (A) (A) (A) (A) (A) (A) (A) (A) (A) (A) (A) (A)
                 (A) (A) (A) (A) (A) (A) (A) (A) (A) (A) (A) (A)
                 (A) (A) (A) (A) (A) (A) (A) (A) (A) (A) (A) (A)
                 (A) (A) (A) (A) (A) (A) (A) (A) (A) (A) (A) (A)
                 (A) (A) (A) (A) (A) (A) (A) (A) (A) (A) (A) (A)
                 (A) (A) (A) (A) (A) (A) (A) (A) (A) (A) (A) (A)
                 (A) (A) (A) (A) (A) (A) (A) (A) (A) (A) (A) (A)
                 (A) (A) (A) (A) (A) (A) (A) (A) (A) (A) (A) (A)
                 (A) (A) (A) (A) (A) (A) (A)
 The electronic state of the initial guess is 1-A.
 Leave Link  401 at Wed Sep 29 16:13:35 2021, MaxMem= 1342177280 cpu:      13.9
 (Enter /sw/target/amd/app/gaussian/Gaussian09RevA.02_gcc-4.9.2/g09/l502.exe)
 Closed shell SCF:
 Requested convergence on RMS density matrix=1.00D-08 within  64 cycles.
 Requested convergence on MAX density matrix=1.00D-06.
 Requested convergence on             energy=1.00D-06.
 No special actions if energy rises.
 Using DIIS extrapolation, IDIIS=  1040.
 Integral symmetry usage will be decided dynamically.
       281265 words used for storage of precomputed grid.
 Keep R1 ints in memory in canonical form, NReq=1223507889.
 IEnd=      584949 IEndB=      584949 NGot=  1342177280 MDV=   134251299
 LenX=   134251299 LenY=   134152889
 Symmetry not used in FoFDir.
 MinBra= 0 MaxBra= 2 Meth= 1.
 IRaf=       0 NMat=   1 IRICut=       1 DoRegI=T DoRafI=F ISym2E= 0 JSym2E=0.
 Integral accuracy reduced to 1.0D-05 until final iterations.

 Cycle   1  Pass 0  IDiag  1:
 E= -806.212174864326    
 DIIS: error= 3.12D-02 at cycle   1 NSaved=   1.
 NSaved= 1 IEnMin= 1 EnMin= -806.212174864326     IErMin= 1 ErrMin= 3.12D-02
 ErrMax= 3.12D-02 EMaxC= 1.00D-01 BMatC= 4.83D-01 BMatP= 4.83D-01
 IDIUse=3 WtCom= 6.88D-01 WtEn= 3.12D-01
 Coeff-Com:  0.100D+01
 Coeff-En:   0.100D+01
 Coeff:      0.100D+01
 Gap=     0.114 Goal=   None    Shift=    0.000
 GapD=    0.114 DampG=1.000 DampE=0.500 DampFc=0.5000 IDamp=-1.
 Damping current iteration by 5.00D-01
 RMSDP=5.85D-03 MaxDP=2.09D-01              OVMax= 3.49D-01

 Cycle   2  Pass 0  IDiag  1:
 E= -806.349785460918     Delta-E=       -0.137610596592 Rises=F Damp=T
 DIIS: error= 1.56D-02 at cycle   2 NSaved=   2.
 NSaved= 2 IEnMin= 2 EnMin= -806.349785460918     IErMin= 2 ErrMin= 1.56D-02
 ErrMax= 1.56D-02 EMaxC= 1.00D-01 BMatC= 9.11D-02 BMatP= 4.83D-01
 IDIUse=3 WtCom= 8.44D-01 WtEn= 1.56D-01
 Coeff-Com:  0.220D+00 0.780D+00
 Coeff-En:   0.332D+00 0.668D+00
 Coeff:      0.238D+00 0.762D+00
 Gap=     0.111 Goal=   None    Shift=    0.000
 RMSDP=2.51D-03 MaxDP=1.13D-01 DE=-1.38D-01 OVMax= 4.29D-01

 Cycle   3  Pass 0  IDiag  1:
 E= -806.591074988509     Delta-E=       -0.241289527591 Rises=F Damp=F
 DIIS: error= 1.79D-02 at cycle   3 NSaved=   3.
 NSaved= 3 IEnMin= 3 EnMin= -806.591074988509     IErMin= 2 ErrMin= 1.56D-02
 ErrMax= 1.79D-02 EMaxC= 1.00D-01 BMatC= 1.22D-01 BMatP= 9.11D-02
 IDIUse=2 WtCom= 0.00D+00 WtEn= 1.00D+00
 Coeff-En:   0.000D+00 0.789D-02 0.992D+00
 Coeff:      0.000D+00 0.789D-02 0.992D+00
 Gap=     0.111 Goal=   None    Shift=    0.000
 RMSDP=3.97D-03 MaxDP=1.81D-01 DE=-2.41D-01 OVMax= 3.84D-01

 Cycle   4  Pass 0  IDiag  1:
 E= -805.945715778565     Delta-E=        0.645359209944 Rises=F Damp=F
 DIIS: error= 4.90D-02 at cycle   4 NSaved=   4.
 NSaved= 4 IEnMin= 3 EnMin= -806.591074988509     IErMin= 2 ErrMin= 1.56D-02
 ErrMax= 4.90D-02 EMaxC= 1.00D-01 BMatC= 8.49D-01 BMatP= 9.11D-02
 IDIUse=2 WtCom= 0.00D+00 WtEn= 1.00D+00
 Coeff-En:   0.000D+00 0.000D+00 0.808D+00 0.192D+00
 Coeff:      0.000D+00 0.000D+00 0.808D+00 0.192D+00
 Gap=     0.124 Goal=   None    Shift=    0.000
 RMSDP=2.12D-03 MaxDP=9.88D-02 DE= 6.45D-01 OVMax= 2.41D-01

 Cycle   5  Pass 0  IDiag  1:
 E= -806.646425193509     Delta-E=       -0.700709414945 Rises=F Damp=F
 DIIS: error= 1.26D-02 at cycle   5 NSaved=   5.
 NSaved= 5 IEnMin= 5 EnMin= -806.646425193509     IErMin= 5 ErrMin= 1.26D-02
 ErrMax= 1.26D-02 EMaxC= 1.00D-01 BMatC= 6.64D-02 BMatP= 9.11D-02
 IDIUse=3 WtCom= 8.74D-01 WtEn= 1.26D-01
 Coeff-Com: -0.325D-02 0.708D-01 0.333D+00-0.884D-01 0.688D+00
 Coeff-En:   0.000D+00 0.000D+00 0.385D+00 0.000D+00 0.615D+00
 Coeff:     -0.284D-02 0.618D-01 0.340D+00-0.772D-01 0.679D+00
 Gap=     0.114 Goal=   None    Shift=    0.000
 RMSDP=8.93D-04 MaxDP=4.42D-02 DE=-7.01D-01 OVMax= 1.18D-01

 Cycle   6  Pass 0  IDiag  1:
 E= -806.707237077472     Delta-E=       -0.060811883963 Rises=F Damp=F
 DIIS: error= 1.12D-03 at cycle   6 NSaved=   6.
 NSaved= 6 IEnMin= 6 EnMin= -806.707237077472     IErMin= 6 ErrMin= 1.12D-03
 ErrMax= 1.12D-03 EMaxC= 1.00D-01 BMatC= 9.04D-04 BMatP= 6.64D-02
 IDIUse=3 WtCom= 9.89D-01 WtEn= 1.12D-02
 Coeff-Com: -0.646D-02 0.316D-01 0.177D+00-0.666D-01 0.441D+00 0.423D+00
 Coeff-En:   0.000D+00 0.000D+00 0.000D+00 0.000D+00 0.000D+00 0.100D+01
 Coeff:     -0.639D-02 0.313D-01 0.175D+00-0.658D-01 0.436D+00 0.430D+00
 Gap=     0.116 Goal=   None    Shift=    0.000
 RMSDP=1.23D-04 MaxDP=7.42D-03 DE=-6.08D-02 OVMax= 1.90D-02

 Cycle   7  Pass 0  IDiag  1:
 E= -806.707982454667     Delta-E=       -0.000745377195 Rises=F Damp=F
 DIIS: error= 5.55D-04 at cycle   7 NSaved=   7.
 NSaved= 7 IEnMin= 7 EnMin= -806.707982454667     IErMin= 7 ErrMin= 5.55D-04
 ErrMax= 5.55D-04 EMaxC= 1.00D-01 BMatC= 9.40D-05 BMatP= 9.04D-04
 IDIUse=3 WtCom= 9.94D-01 WtEn= 5.55D-03
 Coeff-Com: -0.170D-02 0.634D-02 0.589D-01-0.242D-01 0.147D+00 0.243D+00
 Coeff-Com:  0.571D+00
 Coeff-En:   0.000D+00 0.000D+00 0.000D+00 0.000D+00 0.000D+00 0.107D+00
 Coeff-En:   0.893D+00
 Coeff:     -0.169D-02 0.631D-02 0.585D-01-0.240D-01 0.146D+00 0.242D+00
 Coeff:      0.573D+00
 Gap=     0.116 Goal=   None    Shift=    0.000
 RMSDP=4.69D-05 MaxDP=2.27D-03 DE=-7.45D-04 OVMax= 8.38D-03

 Cycle   8  Pass 0  IDiag  1:
 E= -806.708074014022     Delta-E=       -0.000091559355 Rises=F Damp=F
 DIIS: error= 1.61D-04 at cycle   8 NSaved=   8.
 NSaved= 8 IEnMin= 8 EnMin= -806.708074014022     IErMin= 8 ErrMin= 1.61D-04
 ErrMax= 1.61D-04 EMaxC= 1.00D-01 BMatC= 2.02D-05 BMatP= 9.40D-05
 IDIUse=3 WtCom= 9.98D-01 WtEn= 1.61D-03
 Coeff-Com:  0.296D-03-0.209D-02 0.128D-01-0.455D-02 0.250D-01 0.102D+00
 Coeff-Com:  0.409D+00 0.458D+00
 Coeff-En:   0.000D+00 0.000D+00 0.000D+00 0.000D+00 0.000D+00 0.000D+00
 Coeff-En:   0.111D+00 0.889D+00
 Coeff:      0.295D-03-0.208D-02 0.128D-01-0.454D-02 0.250D-01 0.102D+00
 Coeff:      0.408D+00 0.458D+00
 Gap=     0.116 Goal=   None    Shift=    0.000
 RMSDP=1.76D-05 MaxDP=6.11D-04 DE=-9.16D-05 OVMax= 2.31D-03

 Cycle   9  Pass 0  IDiag  1:
 E= -806.708092905344     Delta-E=       -0.000018891322 Rises=F Damp=F
 DIIS: error= 3.57D-05 at cycle   9 NSaved=   9.
 NSaved= 9 IEnMin= 9 EnMin= -806.708092905344     IErMin= 9 ErrMin= 3.57D-05
 ErrMax= 3.57D-05 EMaxC= 1.00D-01 BMatC= 6.17D-07 BMatP= 2.02D-05
 IDIUse=1 WtCom= 1.00D+00 WtEn= 0.00D+00
 Coeff-Com:  0.345D-03-0.130D-02 0.179D-02-0.554D-03 0.537D-03 0.339D-01
 Coeff-Com:  0.162D+00 0.228D+00 0.576D+00
 Coeff:      0.345D-03-0.130D-02 0.179D-02-0.554D-03 0.537D-03 0.339D-01
 Coeff:      0.162D+00 0.228D+00 0.576D+00
 Gap=     0.116 Goal=   None    Shift=    0.000
 RMSDP=3.46D-06 MaxDP=1.17D-04 DE=-1.89D-05 OVMax= 4.26D-04

 Initial convergence to 1.0D-05 achieved.  Increase integral accuracy.
 Cycle  10  Pass 1  IDiag  1:
 E= -806.708048865090     Delta-E=        0.000044040254 Rises=F Damp=F
 DIIS: error= 2.66D-05 at cycle   1 NSaved=   1.
 NSaved= 1 IEnMin= 1 EnMin= -806.708048865090     IErMin= 1 ErrMin= 2.66D-05
 ErrMax= 2.66D-05 EMaxC= 1.00D-01 BMatC= 2.32D-07 BMatP= 2.32D-07
 IDIUse=1 WtCom= 1.00D+00 WtEn= 0.00D+00
 Coeff-Com:  0.100D+01
 Coeff:      0.100D+01
 Gap=     0.116 Goal=   None    Shift=    0.000
 RMSDP=3.46D-06 MaxDP=1.17D-04 DE= 4.40D-05 OVMax= 3.25D-04

 Cycle  11  Pass 1  IDiag  1:
 E= -806.708048746544     Delta-E=        0.000000118546 Rises=F Damp=F
 DIIS: error= 3.71D-05 at cycle   2 NSaved=   2.
 NSaved= 2 IEnMin= 1 EnMin= -806.708048865090     IErMin= 1 ErrMin= 2.66D-05
 ErrMax= 3.71D-05 EMaxC= 1.00D-01 BMatC= 3.62D-07 BMatP= 2.32D-07
 IDIUse=1 WtCom= 1.00D+00 WtEn= 0.00D+00
 Coeff-Com:  0.570D+00 0.430D+00
 Coeff:      0.570D+00 0.430D+00
 Gap=     0.116 Goal=   None    Shift=    0.000
 RMSDP=3.00D-06 MaxDP=9.87D-05 DE= 1.19D-07 OVMax= 2.66D-04

 Cycle  12  Pass 1  IDiag  1:
 E= -806.708049114622     Delta-E=       -0.000000368078 Rises=F Damp=F
 DIIS: error= 1.38D-05 at cycle   3 NSaved=   3.
 NSaved= 3 IEnMin= 3 EnMin= -806.708049114622     IErMin= 3 ErrMin= 1.38D-05
 ErrMax= 1.38D-05 EMaxC= 1.00D-01 BMatC= 4.32D-08 BMatP= 2.32D-07
 IDIUse=1 WtCom= 1.00D+00 WtEn= 0.00D+00
 Coeff-Com:  0.296D-01 0.253D+00 0.717D+00
 Coeff:      0.296D-01 0.253D+00 0.717D+00
 Gap=     0.116 Goal=   None    Shift=    0.000
 RMSDP=8.85D-07 MaxDP=2.91D-05 DE=-3.68D-07 OVMax= 7.63D-05

 Cycle  13  Pass 1  IDiag  1:
 E= -806.708049159411     Delta-E=       -0.000000044789 Rises=F Damp=F
 DIIS: error= 2.86D-06 at cycle   4 NSaved=   4.
 NSaved= 4 IEnMin= 4 EnMin= -806.708049159411     IErMin= 4 ErrMin= 2.86D-06
 ErrMax= 2.86D-06 EMaxC= 1.00D-01 BMatC= 5.24D-09 BMatP= 4.32D-08
 IDIUse=1 WtCom= 1.00D+00 WtEn= 0.00D+00
 Coeff-Com: -0.159D-01 0.129D+00 0.429D+00 0.458D+00
 Coeff:     -0.159D-01 0.129D+00 0.429D+00 0.458D+00
 Gap=     0.116 Goal=   None    Shift=    0.000
 RMSDP=2.70D-07 MaxDP=1.66D-05 DE=-4.48D-08 OVMax= 2.58D-05

 Cycle  14  Pass 1  IDiag  1:
 E= -806.708049164170     Delta-E=       -0.000000004759 Rises=F Damp=F
 DIIS: error= 5.58D-07 at cycle   5 NSaved=   5.
 NSaved= 5 IEnMin= 5 EnMin= -806.708049164170     IErMin= 5 ErrMin= 5.58D-07
 ErrMax= 5.58D-07 EMaxC= 1.00D-01 BMatC= 2.10D-10 BMatP= 5.24D-09
 IDIUse=1 WtCom= 1.00D+00 WtEn= 0.00D+00
 Coeff-Com: -0.946D-02 0.626D-01 0.208D+00 0.261D+00 0.477D+00
 Coeff:     -0.946D-02 0.626D-01 0.208D+00 0.261D+00 0.477D+00
 Gap=     0.116 Goal=   None    Shift=    0.000
 RMSDP=8.16D-08 MaxDP=4.08D-06 DE=-4.76D-09 OVMax= 1.23D-05

 Cycle  15  Pass 1  IDiag  1:
 E= -806.708049164421     Delta-E=       -0.000000000251 Rises=F Damp=F
 DIIS: error= 3.99D-07 at cycle   6 NSaved=   6.
 NSaved= 6 IEnMin= 6 EnMin= -806.708049164421     IErMin= 6 ErrMin= 3.99D-07
 ErrMax= 3.99D-07 EMaxC= 1.00D-01 BMatC= 6.27D-11 BMatP= 2.10D-10
 IDIUse=1 WtCom= 1.00D+00 WtEn= 0.00D+00
 Coeff-Com: -0.417D-02 0.230D-01 0.755D-01 0.110D+00 0.352D+00 0.444D+00
 Coeff:     -0.417D-02 0.230D-01 0.755D-01 0.110D+00 0.352D+00 0.444D+00
 Gap=     0.116 Goal=   None    Shift=    0.000
 RMSDP=3.37D-08 MaxDP=1.76D-06 DE=-2.51D-10 OVMax= 5.62D-06

 Cycle  16  Pass 1  IDiag  1:
 E= -806.708049164456     Delta-E=       -0.000000000035 Rises=F Damp=F
 DIIS: error= 8.30D-08 at cycle   7 NSaved=   7.
 NSaved= 7 IEnMin= 7 EnMin= -806.708049164456     IErMin= 7 ErrMin= 8.30D-08
 ErrMax= 8.30D-08 EMaxC= 1.00D-01 BMatC= 3.84D-12 BMatP= 6.27D-11
 IDIUse=1 WtCom= 1.00D+00 WtEn= 0.00D+00
 Coeff-Com: -0.117D-02 0.506D-02 0.162D-01 0.302D-01 0.138D+00 0.255D+00
 Coeff-Com:  0.557D+00
 Coeff:     -0.117D-02 0.506D-02 0.162D-01 0.302D-01 0.138D+00 0.255D+00
 Coeff:      0.557D+00
 Gap=     0.116 Goal=   None    Shift=    0.000
 RMSDP=8.82D-09 MaxDP=3.99D-07 DE=-3.55D-11 OVMax= 1.05D-06

 SCF Done:  E(RB3LYP) =  -806.708049164     A.U. after   16 cycles
             Convg  =    0.8823D-08             -V/T =  2.0095
 KE= 7.991074216617D+02 PE=-4.538188499793D+03 EE= 1.600190378908D+03
 Leave Link  502 at Wed Sep 29 16:27:34 2021, MaxMem= 1342177280 cpu:     481.8
 (Enter /sw/target/amd/app/gaussian/Gaussian09RevA.02_gcc-4.9.2/g09/l508.exe)
 QCSCF skips out because SCF is already converged.
 Leave Link  508 at Wed Sep 29 16:27:37 2021, MaxMem= 1342177280 cpu:       0.0
 (Enter /sw/target/amd/app/gaussian/Gaussian09RevA.02_gcc-4.9.2/g09/l601.exe)
 Copying SCF densities to generalized density rwf, IOpCl= 0 IROHF=0.

 **********************************************************************

            Population analysis using the SCF density.

 **********************************************************************

 Orbital symmetries:
       Occupied  (A) (A) (A) (A) (A) (A) (A) (A) (A) (A) (A) (A)
                 (A) (A) (A) (A) (A) (A) (A) (A) (A) (A) (A) (A)
                 (A) (A) (A) (A) (A) (A) (A) (A) (A) (A) (A) (A)
                 (A) (A) (A) (A) (A) (A) (A) (A) (A) (A) (A) (A)
                 (A) (A) (A) (A) (A) (A) (A) (A) (A) (A) (A) (A)
                 (A) (A) (A) (A) (A) (A)
       Virtual   (A) (A) (A) (A) (A) (A) (A) (A) (A) (A) (A) (A)
                 (A) (A) (A) (A) (A) (A) (A) (A) (A) (A) (A) (A)
                 (A) (A) (A) (A) (A) (A) (A) (A) (A) (A) (A) (A)
                 (A) (A) (A) (A) (A) (A) (A) (A) (A) (A) (A) (A)
                 (A) (A) (A) (A) (A) (A) (A) (A) (A) (A) (A) (A)
                 (A) (A) (A) (A) (A) (A) (A) (A) (A) (A) (A) (A)
                 (A) (A) (A) (A) (A) (A) (A) (A) (A) (A) (A) (A)
                 (A) (A) (A) (A) (A) (A) (A) (A) (A) (A) (A) (A)
                 (A) (A) (A) (A) (A) (A) (A) (A) (A) (A) (A) (A)
                 (A) (A) (A) (A) (A) (A) (A) (A) (A) (A) (A) (A)
                 (A) (A) (A) (A) (A) (A) (A) (A) (A) (A) (A) (A)
                 (A) (A) (A) (A) (A) (A) (A) (A) (A) (A) (A) (A)
                 (A) (A) (A) (A) (A) (A) (A) (A) (A) (A) (A) (A)
                 (A) (A) (A) (A) (A) (A) (A) (A) (A) (A) (A) (A)
                 (A) (A) (A) (A) (A) (A) (A) (A) (A) (A) (A) (A)
                 (A) (A) (A) (A) (A) (A) (A) (A) (A) (A) (A) (A)
                 (A) (A) (A) (A) (A) (A) (A) (A) (A) (A) (A) (A)
                 (A) (A) (A) (A) (A) (A) (A) (A) (A) (A) (A) (A)
                 (A) (A) (A) (A) (A) (A) (A) (A) (A) (A) (A) (A)
                 (A) (A) (A) (A) (A) (A) (A) (A) (A) (A) (A) (A)
                 (A) (A) (A) (A) (A) (A) (A)
 The electronic state is 1-A.
 Alpha  occ. eigenvalues --  -19.20305 -19.14645 -10.32384 -10.25407 -10.20392
 Alpha  occ. eigenvalues --  -10.20287 -10.20269 -10.19825 -10.19819 -10.19386
 Alpha  occ. eigenvalues --  -10.19367 -10.19328 -10.19293 -10.19243 -10.19218
 Alpha  occ. eigenvalues --  -10.19205 -10.19167 -10.19095 -10.18026  -1.09639
 Alpha  occ. eigenvalues --   -1.02046  -0.88597  -0.85537  -0.80530  -0.79424
 Alpha  occ. eigenvalues --   -0.77393  -0.75077  -0.74845  -0.70446  -0.66986
 Alpha  occ. eigenvalues --   -0.64945  -0.61808  -0.60680  -0.59707  -0.56104
 Alpha  occ. eigenvalues --   -0.53581  -0.53166  -0.50168  -0.49258  -0.48185
 Alpha  occ. eigenvalues --   -0.46922  -0.46780  -0.46387  -0.45486  -0.43193
 Alpha  occ. eigenvalues --   -0.43060  -0.41965  -0.41341  -0.39939  -0.39787
 Alpha  occ. eigenvalues --   -0.39188  -0.37750  -0.37476  -0.36674  -0.36475
 Alpha  occ. eigenvalues --   -0.35543  -0.35259  -0.34043  -0.33714  -0.31486
 Alpha  occ. eigenvalues --   -0.30332  -0.28737  -0.27823  -0.25248  -0.24849
 Alpha  occ. eigenvalues --   -0.18700
 Alpha virt. eigenvalues --   -0.07120  -0.00861  -0.00046   0.00287   0.04243
 Alpha virt. eigenvalues --    0.06459   0.08014   0.09889   0.10152   0.12111
 Alpha virt. eigenvalues --    0.12832   0.13310   0.14834   0.15653   0.15742
 Alpha virt. eigenvalues --    0.16172   0.17220   0.17433   0.18520   0.19694
 Alpha virt. eigenvalues --    0.20366   0.20616   0.21647   0.22963   0.23671
 Alpha virt. eigenvalues --    0.25341   0.25428   0.27489   0.28557   0.30062
 Alpha virt. eigenvalues --    0.31259   0.32155   0.33359   0.34954   0.35725
 Alpha virt. eigenvalues --    0.36813   0.38873   0.46803   0.47001   0.48757
 Alpha virt. eigenvalues --    0.50169   0.50480   0.50978   0.52120   0.53081
 Alpha virt. eigenvalues --    0.53415   0.54314   0.54859   0.55080   0.55852
 Alpha virt. eigenvalues --    0.56106   0.56190   0.56602   0.57673   0.58031
 Alpha virt. eigenvalues --    0.58996   0.59805   0.60636   0.61004   0.61238
 Alpha virt. eigenvalues --    0.61721   0.61899   0.62135   0.62476   0.63291
 Alpha virt. eigenvalues --    0.63580   0.64292   0.65617   0.66353   0.67872
 Alpha virt. eigenvalues --    0.67959   0.70213   0.73051   0.73295   0.74975
 Alpha virt. eigenvalues --    0.77022   0.79864   0.80816   0.81645   0.81926
 Alpha virt. eigenvalues --    0.82924   0.83601   0.83768   0.85347   0.85902
 Alpha virt. eigenvalues --    0.86393   0.86736   0.87299   0.87698   0.89319
 Alpha virt. eigenvalues --    0.90227   0.90804   0.92035   0.92930   0.93618
 Alpha virt. eigenvalues --    0.94532   0.95247   0.96671   0.97031   0.97112
 Alpha virt. eigenvalues --    0.98943   1.00019   1.02660   1.03290   1.04960
 Alpha virt. eigenvalues --    1.06787   1.08665   1.09158   1.10161   1.12009
 Alpha virt. eigenvalues --    1.12964   1.14856   1.16656   1.18799   1.21154
 Alpha virt. eigenvalues --    1.21917   1.22127   1.24918   1.25316   1.26301
 Alpha virt. eigenvalues --    1.32029   1.33048   1.35193   1.36765   1.39002
 Alpha virt. eigenvalues --    1.39586   1.40264   1.43171   1.43756   1.46256
 Alpha virt. eigenvalues --    1.46554   1.47602   1.48195   1.48328   1.49588
 Alpha virt. eigenvalues --    1.50025   1.51031   1.52157   1.54284   1.55625
 Alpha virt. eigenvalues --    1.57405   1.58119   1.60828   1.68869   1.72806
 Alpha virt. eigenvalues --    1.73939   1.75558   1.77285   1.78726   1.80085
 Alpha virt. eigenvalues --    1.81346   1.81811   1.83166   1.84014   1.85877
 Alpha virt. eigenvalues --    1.87048   1.89648   1.90829   1.91494   1.92338
 Alpha virt. eigenvalues --    1.92673   1.93195   1.93707   1.95178   1.96344
 Alpha virt. eigenvalues --    1.96672   1.99287   2.00691   2.01194   2.02499
 Alpha virt. eigenvalues --    2.03251   2.05256   2.06947   2.08245   2.10380
 Alpha virt. eigenvalues --    2.12486   2.13836   2.16039   2.19181   2.20442
 Alpha virt. eigenvalues --    2.21462   2.23476   2.23897   2.26778   2.28106
 Alpha virt. eigenvalues --    2.29561   2.30017   2.30236   2.31677   2.32795
 Alpha virt. eigenvalues --    2.34725   2.35679   2.36486   2.40040   2.40343
 Alpha virt. eigenvalues --    2.41722   2.42081   2.45917   2.48368   2.54413
 Alpha virt. eigenvalues --    2.57727   2.59174   2.63162   2.65000   2.66448
 Alpha virt. eigenvalues --    2.67115   2.67563   2.68212   2.70303   2.72392
 Alpha virt. eigenvalues --    2.73757   2.74054   2.75188   2.81928   2.83201
 Alpha virt. eigenvalues --    2.83700   2.86218   2.89615   2.94056   2.95306
 Alpha virt. eigenvalues --    2.96713   3.06693   3.09216   3.16179   3.19197
 Alpha virt. eigenvalues --    3.31537   3.47008   3.52240   4.04271   4.08739
 Alpha virt. eigenvalues --    4.09316   4.10446   4.11038   4.12599   4.13328
 Alpha virt. eigenvalues --    4.14668   4.17061   4.24859   4.32382   4.33562
 Alpha virt. eigenvalues --    4.36228   4.42079   4.44414   4.48522   4.59419
 Alpha virt. eigenvalues --    4.66483   4.90688
          Condensed to atoms (all electrons):
              1          2          3          4          5          6
     1  C    5.061540   0.343409  -0.035606   0.005814   0.003465  -0.000049
     2  C    0.343409   5.214292   0.347502  -0.085140  -0.095099   0.002540
     3  C   -0.035606   0.347502   4.372794   0.553381   0.208043  -0.003121
     4  O    0.005814  -0.085140   0.553381   8.021043  -0.064273   0.009801
     5  O    0.003465  -0.095099   0.208043  -0.064273   8.419821   0.192931
     6  C   -0.000049   0.002540  -0.003121   0.009801   0.192931   5.280856
     7  C   -0.000002   0.000480  -0.009700   0.000904  -0.063992   0.291505
     8  C    0.000013  -0.000751   0.002902   0.000693  -0.004509  -0.102849
     9  C    0.000000  -0.000012  -0.000001  -0.000131   0.000500   0.007127
    10  C   -0.000000   0.000000  -0.000001   0.000002  -0.000006  -0.000871
    11  C    0.000000  -0.000000  -0.000008  -0.000001  -0.000056   0.015764
    12  C   -0.000000   0.000008   0.000054  -0.000411   0.004273   0.039027
    13  C   -0.000000  -0.000000  -0.000016   0.000014  -0.000035  -0.128147
    14  C   -0.000000   0.000008   0.000108  -0.000059   0.003977   0.038038
    15  C    0.000003  -0.000210  -0.004689  -0.000723  -0.072216   0.309974
    16  C    0.000003  -0.000244   0.000304   0.000054  -0.003024  -0.108912
    17  C    0.000000  -0.000001   0.000023  -0.000001   0.000526   0.007371
    18  C   -0.000000   0.000000  -0.000001  -0.000000  -0.000002  -0.000902
    19  C    0.000000  -0.000000  -0.000001   0.000000  -0.000063   0.016000
    20  H    0.365606  -0.029208   0.004750   0.000432  -0.000039  -0.000000
    21  H    0.383464  -0.034442  -0.004221   0.002624   0.000068  -0.000006
    22  H    0.382106  -0.033347  -0.004151   0.003139   0.000054   0.000001
    23  H   -0.036972   0.360768  -0.025054   0.001437   0.002469  -0.000194
    24  H   -0.035564   0.363738  -0.026040   0.000637   0.001549  -0.000090
    25  H   -0.000015   0.000150   0.002982  -0.001108   0.004496  -0.011762
    26  H    0.000000  -0.000000  -0.000001  -0.000002   0.000000  -0.000149
    27  H    0.000000   0.000000  -0.000000   0.000000   0.000000   0.000017
    28  H   -0.000000   0.000000   0.000000   0.000000   0.000000  -0.000163
    29  H   -0.000000   0.000000   0.000000   0.000000   0.000002   0.000670
    30  H   -0.000005   0.000102   0.000189  -0.000060   0.009107  -0.012071
    31  H    0.000000  -0.000000  -0.000000  -0.000000  -0.000002  -0.000154
    32  H    0.000000   0.000000  -0.000000   0.000000   0.000000   0.000016
    33  H   -0.000000   0.000000   0.000000   0.000000   0.000000  -0.000165
              7          8          9         10         11         12
     1  C   -0.000002   0.000013   0.000000  -0.000000   0.000000  -0.000000
     2  C    0.000480  -0.000751  -0.000012   0.000000  -0.000000   0.000008
     3  C   -0.009700   0.002902  -0.000001  -0.000001  -0.000008   0.000054
     4  O    0.000904   0.000693  -0.000131   0.000002  -0.000001  -0.000411
     5  O   -0.063992  -0.004509   0.000500  -0.000006  -0.000056   0.004273
     6  C    0.291505  -0.102849   0.007127  -0.000871   0.015764   0.039027
     7  C    4.894383   0.419798  -0.001392  -0.038943  -0.026481   0.423667
     8  C    0.419798   5.158379   0.521061  -0.019483  -0.073377  -0.052732
     9  C   -0.001392   0.521061   4.886913   0.492676  -0.023124  -0.034502
    10  C   -0.038943  -0.019483   0.492676   4.903858   0.521711  -0.003168
    11  C   -0.026481  -0.073377  -0.023124   0.521711   5.107020   0.435785
    12  C    0.423667  -0.052732  -0.034502  -0.003168   0.435785   4.768712
    13  C   -0.014113   0.018438  -0.000617   0.007716  -0.085244   0.373292
    14  C   -0.058103  -0.001825   0.000085  -0.000334   0.007704   0.037697
    15  C    0.007644   0.013873  -0.000313   0.000030   0.000203  -0.058173
    16  C    0.014390  -0.000042  -0.000001   0.000000  -0.000002  -0.001909
    17  C   -0.000348  -0.000001   0.000000  -0.000000   0.000000   0.000092
    18  C    0.000037   0.000000  -0.000000  -0.000000   0.000003  -0.000333
    19  C   -0.000053  -0.000004   0.000000   0.000002  -0.000353   0.007902
    20  H    0.000000  -0.000000  -0.000000  -0.000000  -0.000000   0.000000
    21  H    0.000001  -0.000001   0.000000   0.000000  -0.000000   0.000000
    22  H   -0.000004   0.000002   0.000000   0.000000  -0.000000  -0.000000
    23  H   -0.000046   0.000015   0.000000  -0.000000   0.000000  -0.000000
    24  H    0.000087  -0.000091  -0.000001   0.000000  -0.000000   0.000001
    25  H   -0.037720   0.352083  -0.043337   0.004865   0.000617   0.004854
    26  H    0.002593  -0.036041   0.359757  -0.042554   0.004384   0.000960
    27  H    0.001152   0.004288  -0.041870   0.356078  -0.035242   0.002508
    28  H    0.004383   0.000533   0.004757  -0.045446   0.356927  -0.041802
    29  H    0.004171  -0.000203   0.000016   0.000195  -0.007465  -0.041406
    30  H    0.000187   0.000001  -0.000000   0.000000   0.000000   0.000004
    31  H    0.000002  -0.000000  -0.000000   0.000000   0.000000  -0.000001
    32  H   -0.000001  -0.000000   0.000000  -0.000000  -0.000000   0.000004
    33  H    0.000014  -0.000000  -0.000000   0.000000  -0.000002   0.000312
             13         14         15         16         17         18
     1  C   -0.000000  -0.000000   0.000003   0.000003   0.000000  -0.000000
     2  C   -0.000000   0.000008  -0.000210  -0.000244  -0.000001   0.000000
     3  C   -0.000016   0.000108  -0.004689   0.000304   0.000023  -0.000001
     4  O    0.000014  -0.000059  -0.000723   0.000054  -0.000001  -0.000000
     5  O   -0.000035   0.003977  -0.072216  -0.003024   0.000526  -0.000002
     6  C   -0.128147   0.038038   0.309974  -0.108912   0.007371  -0.000902
     7  C   -0.014113  -0.058103   0.007644   0.014390  -0.000348   0.000037
     8  C    0.018438  -0.001825   0.013873  -0.000042  -0.000001   0.000000
     9  C   -0.000617   0.000085  -0.000313  -0.000001   0.000000  -0.000000
    10  C    0.007716  -0.000334   0.000030   0.000000  -0.000000  -0.000000
    11  C   -0.085244   0.007704   0.000203  -0.000002   0.000000   0.000003
    12  C    0.373292   0.037697  -0.058173  -0.001909   0.000092  -0.000333
    13  C    5.476415   0.374598  -0.014854   0.018770  -0.000688   0.007814
    14  C    0.374598   4.764549   0.425928  -0.052424  -0.035162  -0.003339
    15  C   -0.014854   0.425928   4.917846   0.416371  -0.001356  -0.039036
    16  C    0.018770  -0.052424   0.416371   5.178637   0.511928  -0.018454
    17  C   -0.000688  -0.035162  -0.001356   0.511928   4.899666   0.491084
    18  C    0.007814  -0.003339  -0.039036  -0.018454   0.491084   4.904064
    19  C   -0.086336   0.436088  -0.026534  -0.074632  -0.022371   0.521726
    20  H   -0.000000   0.000000   0.000000  -0.000000  -0.000000  -0.000000
    21  H    0.000000  -0.000000  -0.000001   0.000000   0.000000  -0.000000
    22  H    0.000000   0.000000   0.000001  -0.000000  -0.000000   0.000000
    23  H    0.000000   0.000001   0.000109  -0.000086  -0.000001   0.000000
    24  H    0.000000  -0.000000  -0.000028   0.000008   0.000000  -0.000000
    25  H   -0.000189   0.000009   0.000057   0.000002  -0.000000  -0.000000
    26  H    0.000009  -0.000001   0.000003  -0.000000  -0.000000   0.000000
    27  H   -0.000210   0.000004  -0.000001  -0.000000   0.000000  -0.000000
    28  H   -0.008657   0.000347   0.000008  -0.000000   0.000000   0.000000
    29  H    0.350861  -0.041281   0.004207  -0.000210   0.000019   0.000188
    30  H   -0.000188   0.004927  -0.037252   0.355132  -0.044954   0.004763
    31  H    0.000009   0.000970   0.002559  -0.036057   0.359574  -0.042535
    32  H   -0.000209   0.002549   0.001099   0.004144  -0.041967   0.356384
    33  H   -0.008667  -0.041639   0.004475   0.000525   0.004764  -0.045500
             19         20         21         22         23         24
     1  C    0.000000   0.365606   0.383464   0.382106  -0.036972  -0.035564
     2  C   -0.000000  -0.029208  -0.034442  -0.033347   0.360768   0.363738
     3  C   -0.000001   0.004750  -0.004221  -0.004151  -0.025054  -0.026040
     4  O    0.000000   0.000432   0.002624   0.003139   0.001437   0.000637
     5  O   -0.000063  -0.000039   0.000068   0.000054   0.002469   0.001549
     6  C    0.016000  -0.000000  -0.000006   0.000001  -0.000194  -0.000090
     7  C   -0.000053   0.000000   0.000001  -0.000004  -0.000046   0.000087
     8  C   -0.000004  -0.000000  -0.000001   0.000002   0.000015  -0.000091
     9  C    0.000000  -0.000000   0.000000   0.000000   0.000000  -0.000001
    10  C    0.000002  -0.000000   0.000000   0.000000  -0.000000   0.000000
    11  C   -0.000353  -0.000000  -0.000000  -0.000000   0.000000  -0.000000
    12  C    0.007902   0.000000   0.000000  -0.000000  -0.000000   0.000001
    13  C   -0.086336  -0.000000   0.000000   0.000000   0.000000   0.000000
    14  C    0.436088   0.000000  -0.000000   0.000000   0.000001  -0.000000
    15  C   -0.026534   0.000000  -0.000001   0.000001   0.000109  -0.000028
    16  C   -0.074632  -0.000000   0.000000  -0.000000  -0.000086   0.000008
    17  C   -0.022371  -0.000000   0.000000  -0.000000  -0.000001   0.000000
    18  C    0.521726  -0.000000  -0.000000   0.000000   0.000000  -0.000000
    19  C    5.107823   0.000000   0.000000  -0.000000  -0.000000   0.000000
    20  H    0.000000   0.580753  -0.029998  -0.030191  -0.003121  -0.002485
    21  H    0.000000  -0.029998   0.545590  -0.027168  -0.003368   0.004741
    22  H   -0.000000  -0.030191  -0.027168   0.546428   0.004800  -0.003961
    23  H   -0.000000  -0.003121  -0.003368   0.004800   0.548824  -0.025101
    24  H    0.000000  -0.002485   0.004741  -0.003961  -0.025101   0.544135
    25  H    0.000000  -0.000000   0.000003   0.000019  -0.000004   0.000752
    26  H    0.000000   0.000000  -0.000000  -0.000000  -0.000000  -0.000000
    27  H   -0.000000  -0.000000   0.000000  -0.000000  -0.000000  -0.000000
    28  H   -0.000001   0.000000  -0.000000   0.000000   0.000000  -0.000000
    29  H   -0.007430  -0.000000  -0.000000   0.000000   0.000000   0.000000
    30  H    0.000536  -0.000000  -0.000001   0.000000   0.000632  -0.000007
    31  H    0.004391   0.000000   0.000000  -0.000000  -0.000000   0.000000
    32  H   -0.035095  -0.000000  -0.000000   0.000000  -0.000000  -0.000000
    33  H    0.356719   0.000000   0.000000  -0.000000  -0.000000   0.000000
             25         26         27         28         29         30
     1  C   -0.000015   0.000000   0.000000  -0.000000  -0.000000  -0.000005
     2  C    0.000150  -0.000000   0.000000   0.000000   0.000000   0.000102
     3  C    0.002982  -0.000001  -0.000000   0.000000   0.000000   0.000189
     4  O   -0.001108  -0.000002   0.000000   0.000000   0.000000  -0.000060
     5  O    0.004496   0.000000   0.000000   0.000000   0.000002   0.009107
     6  C   -0.011762  -0.000149   0.000017  -0.000163   0.000670  -0.012071
     7  C   -0.037720   0.002593   0.001152   0.004383   0.004171   0.000187
     8  C    0.352083  -0.036041   0.004288   0.000533  -0.000203   0.000001
     9  C   -0.043337   0.359757  -0.041870   0.004757   0.000016  -0.000000
    10  C    0.004865  -0.042554   0.356078  -0.045446   0.000195   0.000000
    11  C    0.000617   0.004384  -0.035242   0.356927  -0.007465   0.000000
    12  C    0.004854   0.000960   0.002508  -0.041802  -0.041406   0.000004
    13  C   -0.000189   0.000009  -0.000210  -0.008657   0.350861  -0.000188
    14  C    0.000009  -0.000001   0.000004   0.000347  -0.041281   0.004927
    15  C    0.000057   0.000003  -0.000001   0.000008   0.004207  -0.037252
    16  C    0.000002  -0.000000  -0.000000  -0.000000  -0.000210   0.355132
    17  C   -0.000000  -0.000000   0.000000   0.000000   0.000019  -0.044954
    18  C   -0.000000   0.000000  -0.000000   0.000000   0.000188   0.004763
    19  C    0.000000   0.000000  -0.000000  -0.000001  -0.007430   0.000536
    20  H   -0.000000   0.000000  -0.000000   0.000000  -0.000000  -0.000000
    21  H    0.000003  -0.000000   0.000000  -0.000000  -0.000000  -0.000001
    22  H    0.000019  -0.000000  -0.000000   0.000000   0.000000   0.000000
    23  H   -0.000004  -0.000000  -0.000000   0.000000   0.000000   0.000632
    24  H    0.000752  -0.000000  -0.000000  -0.000000   0.000000  -0.000007
    25  H    0.598923  -0.005473  -0.000207   0.000018   0.000002   0.000000
    26  H   -0.005473   0.588466  -0.005070  -0.000201   0.000000  -0.000000
    27  H   -0.000207  -0.005070   0.592238  -0.005289  -0.000015  -0.000000
    28  H    0.000018  -0.000201  -0.005289   0.595642   0.006496  -0.000000
    29  H    0.000002   0.000000  -0.000015   0.006496   0.594519   0.000002
    30  H    0.000000  -0.000000  -0.000000  -0.000000   0.000002   0.588851
    31  H    0.000000  -0.000000   0.000000   0.000000   0.000000  -0.005204
    32  H   -0.000000   0.000000  -0.000000  -0.000000  -0.000015  -0.000193
    33  H    0.000000  -0.000000  -0.000000   0.000001   0.006536   0.000018
             31         32         33
     1  C    0.000000   0.000000  -0.000000
     2  C   -0.000000   0.000000   0.000000
     3  C   -0.000000  -0.000000   0.000000
     4  O   -0.000000   0.000000   0.000000
     5  O   -0.000002   0.000000   0.000000
     6  C   -0.000154   0.000016  -0.000165
     7  C    0.000002  -0.000001   0.000014
     8  C   -0.000000  -0.000000  -0.000000
     9  C   -0.000000   0.000000  -0.000000
    10  C    0.000000  -0.000000   0.000000
    11  C    0.000000  -0.000000  -0.000002
    12  C   -0.000001   0.000004   0.000312
    13  C    0.000009  -0.000209  -0.008667
    14  C    0.000970   0.002549  -0.041639
    15  C    0.002559   0.001099   0.004475
    16  C   -0.036057   0.004144   0.000525
    17  C    0.359574  -0.041967   0.004764
    18  C   -0.042535   0.356384  -0.045500
    19  C    0.004391  -0.035095   0.356719
    20  H    0.000000  -0.000000   0.000000
    21  H    0.000000  -0.000000   0.000000
    22  H   -0.000000   0.000000  -0.000000
    23  H   -0.000000  -0.000000  -0.000000
    24  H    0.000000  -0.000000   0.000000
    25  H    0.000000  -0.000000   0.000000
    26  H   -0.000000   0.000000  -0.000000
    27  H    0.000000  -0.000000  -0.000000
    28  H    0.000000  -0.000000   0.000001
    29  H    0.000000  -0.000015   0.006536
    30  H   -0.005204  -0.000193   0.000018
    31  H    0.588924  -0.005086  -0.000201
    32  H   -0.005086   0.592100  -0.005298
    33  H   -0.000201  -0.005298   0.595346
 Mulliken atomic charges:
              1
     1  C   -0.437208
     2  C   -0.354542
     3  C    0.619578
     4  O   -0.448066
     5  O   -0.547965
     6  C    0.157968
     7  C    0.185498
     8  C   -0.200171
     9  C   -0.127592
    10  C   -0.136328
    11  C   -0.198763
    12  C    0.135285
    13  C   -0.279765
    14  C    0.136581
    15  C    0.150997
    16  C   -0.204270
    17  C   -0.128198
    18  C   -0.135960
    19  C   -0.198314
    20  H    0.143502
    21  H    0.162714
    22  H    0.162272
    23  H    0.174894
    24  H    0.177722
    25  H    0.129986
    26  H    0.133320
    27  H    0.131620
    28  H    0.132445
    29  H    0.130137
    30  H    0.135483
    31  H    0.132810
    32  H    0.131567
    33  H    0.132761
 Sum of Mulliken atomic charges =  -0.00000
 Mulliken charges with hydrogens summed into heavy atoms:
              1
     1  C    0.031281
     2  C   -0.001926
     3  C    0.619578
     4  O   -0.448066
     5  O   -0.547965
     6  C    0.157968
     7  C    0.185498
     8  C   -0.070185
     9  C    0.005728
    10  C   -0.004708
    11  C   -0.066318
    12  C    0.135285
    13  C   -0.149628
    14  C    0.136581
    15  C    0.150997
    16  C   -0.068787
    17  C    0.004612
    18  C   -0.004393
    19  C   -0.065553
 Sum of Mulliken charges with hydrogens summed into heavy atoms =  -0.00000
 Electronic spatial extent (au):  <R**2>=           5139.0706
 Charge=             -0.0000 electrons
 Dipole moment (field-independent basis, Debye):
    X=             -0.1924    Y=             -0.3318    Z=             -1.3844  Tot=              1.4365
 Quadrupole moment (field-independent basis, Debye-Ang):
   XX=            -94.3682   YY=            -94.1411   ZZ=           -116.5113
   XY=             -1.3823   XZ=             -7.3456   YZ=              1.2435
 Traceless Quadrupole moment (field-independent basis, Debye-Ang):
   XX=              7.3053   YY=              7.5325   ZZ=            -14.8378
   XY=             -1.3823   XZ=             -7.3456   YZ=              1.2435
 Octapole moment (field-independent basis, Debye-Ang**2):
  XXX=             12.3970  YYY=              2.5346  ZZZ=             -0.6096  XYY=              4.0453
  XXY=            -12.9214  XXZ=             -5.0437  XZZ=              7.0281  YZZ=             -3.7183
  YYZ=              0.4544  XYZ=             -4.2326
 Hexadecapole moment (field-independent basis, Debye-Ang**3):
 XXXX=          -3428.2486 YYYY=          -2749.1749 ZZZZ=           -279.0538 XXXY=             -9.5768
 XXXZ=            -76.6898 YYYX=             28.4358 YYYZ=             27.0875 ZZZX=              0.3344
 ZZZY=              1.0176 XXYY=          -1016.8871 XXZZ=           -694.5242 YYZZ=           -591.3213
 XXYZ=              6.0206 YYXZ=            -14.1363 ZZXY=            -14.4309
 N-N= 1.332182650058D+03 E-N=-4.538188502519D+03  KE= 7.991074216617D+02
 No NMR shielding tensors so no spin-rotation constants.
 Leave Link  601 at Wed Sep 29 16:27:40 2021, MaxMem= 1342177280 cpu:       1.9
 (Enter /sw/target/amd/app/gaussian/Gaussian09RevA.02_gcc-4.9.2/g09/l701.exe)
 Compute integral first derivatives.
 ... and contract with generalized density number  0.
 Leave Link  701 at Wed Sep 29 16:27:43 2021, MaxMem= 1342177280 cpu:       1.7
 (Enter /sw/target/amd/app/gaussian/Gaussian09RevA.02_gcc-4.9.2/g09/l702.exe)
 L702 exits ... SP integral derivatives will be done elsewhere.
 Leave Link  702 at Wed Sep 29 16:27:43 2021, MaxMem= 1342177280 cpu:       0.1
 (Enter /sw/target/amd/app/gaussian/Gaussian09RevA.02_gcc-4.9.2/g09/l703.exe)
[...]
    49    O    4  S      Ryd( 4S)     0.00010
    50    O    4  px     Val( 2p)     1.82280
    51    O    4  px     Ryd( 3p)     0.00161
    52    O    4  py     Val( 2p)     1.41852
    53    O    4  py     Ryd( 3p)     0.00051
    54    O    4  pz     Val( 2p)     1.60660
    55    O    4  pz     Ryd( 3p)     0.00042
    56    O    4  dxy    Ryd( 3d)     0.00026
    57    O    4  dxz    Ryd( 3d)     0.00505
    58    O    4  dyz    Ryd( 3d)     0.00497
    59    O    4  dx2y2  Ryd( 3d)     0.00020
    60    O    4  dz2    Ryd( 3d)     0.00650

    61    O    5  S      Cor( 1S)     1.99971
    62    O    5  S      Val( 2S)     1.60361
    63    O    5  S      Ryd( 3S)     0.00123
    64    O    5  S      Ryd( 4S)     0.00012
    65    O    5  px     Val( 2p)     1.41299
    66    O    5  px     Ryd( 3p)     0.00084
    67    O    5  py     Val( 2p)     1.81735
    68    O    5  py     Ryd( 3p)     0.00202
    69    O    5  pz     Val( 2p)     1.70806
    70    O    5  pz     Ryd( 3p)     0.00135
    71    O    5  dxy    Ryd( 3d)     0.00020
    72    O    5  dxz    Ryd( 3d)     0.00145
    73    O    5  dyz    Ryd( 3d)     0.00162
    74    O    5  dx2y2  Ryd( 3d)     0.00060
    75    O    5  dz2    Ryd( 3d)     0.00152

    76    C    6  S      Cor( 1S)     1.99861
    77    C    6  S      Val( 2S)     0.81583
    78    C    6  S      Ryd( 3S)     0.00148
    79    C    6  S      Ryd( 4S)     0.00016
    80    C    6  px     Val( 2p)     0.75390
    81    C    6  px     Ryd( 3p)     0.00762
    82    C    6  py     Val( 2p)     1.06532
    83    C    6  py     Ryd( 3p)     0.00340
    84    C    6  pz     Val( 2p)     0.98819
    85    C    6  pz     Ryd( 3p)     0.00577
    86    C    6  dxy    Ryd( 3d)     0.00144
    87    C    6  dxz    Ryd( 3d)     0.00118
    88    C    6  dyz    Ryd( 3d)     0.00080
    89    C    6  dx2y2  Ryd( 3d)     0.00159
    90    C    6  dz2    Ryd( 3d)     0.00054

    91    C    7  S      Cor( 1S)     1.99894
    92    C    7  S      Val( 2S)     0.87087
    93    C    7  S      Ryd( 3S)     0.00066
    94    C    7  S      Ryd( 4S)     0.00007
    95    C    7  px     Val( 2p)     1.07953
    96    C    7  px     Ryd( 3p)     0.00529
    97    C    7  py     Val( 2p)     1.10062
    98    C    7  py     Ryd( 3p)     0.00457
    99    C    7  pz     Val( 2p)     1.01466
   100    C    7  pz     Ryd( 3p)     0.00104
   101    C    7  dxy    Ryd( 3d)     0.00068
   102    C    7  dxz    Ryd( 3d)     0.00046
   103    C    7  dyz    Ryd( 3d)     0.00097
   104    C    7  dx2y2  Ryd( 3d)     0.00067
   105    C    7  dz2    Ryd( 3d)     0.00038

   106    C    8  S      Cor( 1S)     1.99906
   107    C    8  S      Val( 2S)     0.94854
   108    C    8  S      Ryd( 3S)     0.00071
   109    C    8  S      Ryd( 4S)     0.00005
   110    C    8  px     Val( 2p)     1.18277
   111    C    8  px     Ryd( 3p)     0.00455
   112    C    8  py     Val( 2p)     1.04922
   113    C    8  py     Ryd( 3p)     0.00429
   114    C    8  pz     Val( 2p)     1.01687
   115    C    8  pz     Ryd( 3p)     0.00268
   116    C    8  dxy    Ryd( 3d)     0.00063
   117    C    8  dxz    Ryd( 3d)     0.00041
   118    C    8  dyz    Ryd( 3d)     0.00061
   119    C    8  dx2y2  Ryd( 3d)     0.00080
   120    C    8  dz2    Ryd( 3d)     0.00038

   121    C    9  S      Cor( 1S)     1.99910
   122    C    9  S      Val( 2S)     0.96303
   123    C    9  S      Ryd( 3S)     0.00063
   124    C    9  S      Ryd( 4S)     0.00003
   125    C    9  px     Val( 2p)     1.08080
   126    C    9  px     Ryd( 3p)     0.00448
   127    C    9  py     Val( 2p)     1.16682
   128    C    9  py     Ryd( 3p)     0.00502
   129    C    9  pz     Val( 2p)     1.00267
   130    C    9  pz     Ryd( 3p)     0.00177
   131    C    9  dxy    Ryd( 3d)     0.00081
   132    C    9  dxz    Ryd( 3d)     0.00050
   133    C    9  dyz    Ryd( 3d)     0.00051
   134    C    9  dx2y2  Ryd( 3d)     0.00067
   135    C    9  dz2    Ryd( 3d)     0.00046

   136    C   10  S      Cor( 1S)     1.99910
   137    C   10  S      Val( 2S)     0.96358
   138    C   10  S      Ryd( 3S)     0.00060
   139    C   10  S      Ryd( 4S)     0.00003
   140    C   10  px     Val( 2p)     1.08284
   141    C   10  px     Ryd( 3p)     0.00450
   142    C   10  py     Val( 2p)     1.16726
   143    C   10  py     Ryd( 3p)     0.00499
   144    C   10  pz     Val( 2p)     1.00038
   145    C   10  pz     Ryd( 3p)     0.00165
   146    C   10  dxy    Ryd( 3d)     0.00082
   147    C   10  dxz    Ryd( 3d)     0.00050
   148    C   10  dyz    Ryd( 3d)     0.00051
   149    C   10  dx2y2  Ryd( 3d)     0.00066
   150    C   10  dz2    Ryd( 3d)     0.00046

   151    C   11  S      Cor( 1S)     1.99906
   152    C   11  S      Val( 2S)     0.95064
   153    C   11  S      Ryd( 3S)     0.00069
   154    C   11  S      Ryd( 4S)     0.00004
   155    C   11  px     Val( 2p)     1.17926
   156    C   11  px     Ryd( 3p)     0.00456
   157    C   11  py     Val( 2p)     1.05133
   158    C   11  py     Ryd( 3p)     0.00410
   159    C   11  pz     Val( 2p)     1.01579
   160    C   11  pz     Ryd( 3p)     0.00234
   161    C   11  dxy    Ryd( 3d)     0.00063
   162    C   11  dxz    Ryd( 3d)     0.00039
   163    C   11  dyz    Ryd( 3d)     0.00061
   164    C   11  dx2y2  Ryd( 3d)     0.00082
   165    C   11  dz2    Ryd( 3d)     0.00039

   166    C   12  S      Cor( 1S)     1.99903
   167    C   12  S      Val( 2S)     0.86836
   168    C   12  S      Ryd( 3S)     0.00053
   169    C   12  S      Ryd( 4S)     0.00007
   170    C   12  px     Val( 2p)     1.06690
   171    C   12  px     Ryd( 3p)     0.00526
   172    C   12  py     Val( 2p)     1.09866
   173    C   12  py     Ryd( 3p)     0.00499
   174    C   12  pz     Val( 2p)     1.00291
   175    C   12  pz     Ryd( 3p)     0.00090
   176    C   12  dxy    Ryd( 3d)     0.00068
   177    C   12  dxz    Ryd( 3d)     0.00047
   178    C   12  dyz    Ryd( 3d)     0.00095
   179    C   12  dx2y2  Ryd( 3d)     0.00072
   180    C   12  dz2    Ryd( 3d)     0.00037

   181    C   13  S      Cor( 1S)     1.99901
   182    C   13  S      Val( 2S)     0.93646
   183    C   13  S      Ryd( 3S)     0.00059
   184    C   13  S      Ryd( 4S)     0.00005
   185    C   13  px     Val( 2p)     1.17841
   186    C   13  px     Ryd( 3p)     0.00444
   187    C   13  py     Val( 2p)     1.04461
   188    C   13  py     Ryd( 3p)     0.00323
   189    C   13  pz     Val( 2p)     0.99920
   190    C   13  pz     Ryd( 3p)     0.00244
   191    C   13  dxy    Ryd( 3d)     0.00064
   192    C   13  dxz    Ryd( 3d)     0.00039
   193    C   13  dyz    Ryd( 3d)     0.00063
   194    C   13  dx2y2  Ryd( 3d)     0.00082
   195    C   13  dz2    Ryd( 3d)     0.00039

   196    C   14  S      Cor( 1S)     1.99903
   197    C   14  S      Val( 2S)     0.86836
   198    C   14  S      Ryd( 3S)     0.00053
   199    C   14  S      Ryd( 4S)     0.00007
   200    C   14  px     Val( 2p)     1.06690
   201    C   14  px     Ryd( 3p)     0.00526
   202    C   14  py     Val( 2p)     1.09866
   203    C   14  py     Ryd( 3p)     0.00499
   204    C   14  pz     Val( 2p)     1.00292
   205    C   14  pz     Ryd( 3p)     0.00090
   206    C   14  dxy    Ryd( 3d)     0.00068
   207    C   14  dxz    Ryd( 3d)     0.00047
   208    C   14  dyz    Ryd( 3d)     0.00095
   209    C   14  dx2y2  Ryd( 3d)     0.00072
   210    C   14  dz2    Ryd( 3d)     0.00037

   211    C   15  S      Cor( 1S)     1.99894
   212    C   15  S      Val( 2S)     0.87086
   213    C   15  S      Ryd( 3S)     0.00066
   214    C   15  S      Ryd( 4S)     0.00007
   215    C   15  px     Val( 2p)     1.07953
   216    C   15  px     Ryd( 3p)     0.00529
   217    C   15  py     Val( 2p)     1.10062
   218    C   15  py     Ryd( 3p)     0.00457
   219    C   15  pz     Val( 2p)     1.01466
   220    C   15  pz     Ryd( 3p)     0.00104
   221    C   15  dxy    Ryd( 3d)     0.00068
   222    C   15  dxz    Ryd( 3d)     0.00046
   223    C   15  dyz    Ryd( 3d)     0.00097
   224    C   15  dx2y2  Ryd( 3d)     0.00067
   225    C   15  dz2    Ryd( 3d)     0.00038

   226    C   16  S      Cor( 1S)     1.99906
   227    C   16  S      Val( 2S)     0.94855
   228    C   16  S      Ryd( 3S)     0.00071
   229    C   16  S      Ryd( 4S)     0.00005
   230    C   16  px     Val( 2p)     1.18278
   231    C   16  px     Ryd( 3p)     0.00455
   232    C   16  py     Val( 2p)     1.04921
   233    C   16  py     Ryd( 3p)     0.00429
   234    C   16  pz     Val( 2p)     1.01685
   235    C   16  pz     Ryd( 3p)     0.00268
   236    C   16  dxy    Ryd( 3d)     0.00063
   237    C   16  dxz    Ryd( 3d)     0.00041
   238    C   16  dyz    Ryd( 3d)     0.00061
   239    C   16  dx2y2  Ryd( 3d)     0.00080
   240    C   16  dz2    Ryd( 3d)     0.00038

   241    C   17  S      Cor( 1S)     1.99910
   242    C   17  S      Val( 2S)     0.96303
   243    C   17  S      Ryd( 3S)     0.00063
   244    C   17  S      Ryd( 4S)     0.00003
   245    C   17  px     Val( 2p)     1.08077
   246    C   17  px     Ryd( 3p)     0.00448
   247    C   17  py     Val( 2p)     1.16685
   248    C   17  py     Ryd( 3p)     0.00502
   249    C   17  pz     Val( 2p)     1.00267
   250    C   17  pz     Ryd( 3p)     0.00177
   251    C   17  dxy    Ryd( 3d)     0.00081
   252    C   17  dxz    Ryd( 3d)     0.00050
   253    C   17  dyz    Ryd( 3d)     0.00051
   254    C   17  dx2y2  Ryd( 3d)     0.00067
   255    C   17  dz2    Ryd( 3d)     0.00046

   256    C   18  S      Cor( 1S)     1.99910
   257    C   18  S      Val( 2S)     0.96358
   258    C   18  S      Ryd( 3S)     0.00060
   259    C   18  S      Ryd( 4S)     0.00003
   260    C   18  px     Val( 2p)     1.08288
   261    C   18  px     Ryd( 3p)     0.00450
   262    C   18  py     Val( 2p)     1.16723
   263    C   18  py     Ryd( 3p)     0.00499
   264    C   18  pz     Val( 2p)     1.00037
   265    C   18  pz     Ryd( 3p)     0.00165
   266    C   18  dxy    Ryd( 3d)     0.00082
   267    C   18  dxz    Ryd( 3d)     0.00050
   268    C   18  dyz    Ryd( 3d)     0.00051
   269    C   18  dx2y2  Ryd( 3d)     0.00066
   270    C   18  dz2    Ryd( 3d)     0.00046

   271    C   19  S      Cor( 1S)     1.99906
   272    C   19  S      Val( 2S)     0.95064
   273    C   19  S      Ryd( 3S)     0.00069
   274    C   19  S      Ryd( 4S)     0.00004
   275    C   19  px     Val( 2p)     1.17925
   276    C   19  px     Ryd( 3p)     0.00456
   277    C   19  py     Val( 2p)     1.05133
   278    C   19  py     Ryd( 3p)     0.00410
   279    C   19  pz     Val( 2p)     1.01578
   280    C   19  pz     Ryd( 3p)     0.00234
   281    C   19  dxy    Ryd( 3d)     0.00063
   282    C   19  dxz    Ryd( 3d)     0.00039
   283    C   19  dyz    Ryd( 3d)     0.00061
   284    C   19  dx2y2  Ryd( 3d)     0.00082
   285    C   19  dz2    Ryd( 3d)     0.00039

   286    H   20  S      Val( 1S)     0.76442
   287    H   20  S      Ryd( 2S)     0.00080

   288    H   21  S      Val( 1S)     0.75820
   289    H   21  S      Ryd( 2S)     0.00109

   290    H   22  S      Val( 1S)     0.75817
   291    H   22  S      Ryd( 2S)     0.00109

   292    H   23  S      Val( 1S)     0.73821
   293    H   23  S      Ryd( 2S)     0.00138

   294    H   24  S      Val( 1S)     0.73820
   295    H   24  S      Ryd( 2S)     0.00137

   296    H   25  S      Val( 1S)     0.76149
   297    H   25  S      Ryd( 2S)     0.00127

   298    H   26  S      Val( 1S)     0.76236
   299    H   26  S      Ryd( 2S)     0.00081

   300    H   27  S      Val( 1S)     0.76197
   301    H   27  S      Ryd( 2S)     0.00081

   302    H   28  S      Val( 1S)     0.76534
   303    H   28  S      Ryd( 2S)     0.00110

   304    H   29  S      Val( 1S)     0.76523
   305    H   29  S      Ryd( 2S)     0.00132

   306    H   30  S      Val( 1S)     0.76148
   307    H   30  S      Ryd( 2S)     0.00127

   308    H   31  S      Val( 1S)     0.76236
   309    H   31  S      Ryd( 2S)     0.00081

   310    H   32  S      Val( 1S)     0.76197
   311    H   32  S      Ryd( 2S)     0.00081

   312    H   33  S      Val( 1S)     0.76534
   313    H   33  S      Ryd( 2S)     0.00110

 WARNING:  1 low occupancy (<1.9990e) core orbital  found on  C    6
           1 low occupancy (<1.9990e) core orbital  found on  C    7
           1 low occupancy (<1.9990e) core orbital  found on  C   15


 Summary of Natural Population Analysis:                  
                                                          
                                       Natural Population 
                Natural  -----------------------------------------------
    Atom  No    Charge         Core      Valence    Rydberg      Total
 -----------------------------------------------------------------------
      C    1   -0.67794      1.99947     4.66955    0.00892     6.67794
      C    2   -0.55972      1.99922     4.55082    0.00967     6.55972
      C    3    0.82715      1.99941     3.12776    0.04568     5.17285
      O    4   -0.56466      1.99977     6.54475    0.02015     8.56466
      O    5   -0.55266      1.99971     6.54200    0.01095     8.55266
      C    6    0.35418      1.99861     3.62323    0.02398     5.64582
      C    7   -0.07941      1.99894     4.06568    0.01480     6.07941
      C    8   -0.21157      1.99906     4.19741    0.01510     6.21157
      C    9   -0.22730      1.99910     4.21332    0.01488     6.22730
      C   10   -0.22790      1.99910     4.21407    0.01474     6.22790
      C   11   -0.21065      1.99906     4.19701    0.01458     6.21065
      C   12   -0.05081      1.99903     4.03683    0.01495     6.05081
      C   13   -0.17131      1.99901     4.15869    0.01361     6.17131
      C   14   -0.05082      1.99903     4.03684    0.01495     6.05082
      C   15   -0.07942      1.99894     4.06568    0.01480     6.07942
      C   16   -0.21156      1.99906     4.19739    0.01510     6.21156
      C   17   -0.22730      1.99910     4.21332    0.01488     6.22730
      C   18   -0.22790      1.99910     4.21407    0.01474     6.22790
      C   19   -0.21064      1.99906     4.19701    0.01458     6.21064
      H   20    0.23478      0.00000     0.76442    0.00080     0.76522
      H   21    0.24071      0.00000     0.75820    0.00109     0.75929
      H   22    0.24074      0.00000     0.75817    0.00109     0.75926
      H   23    0.26041      0.00000     0.73821    0.00138     0.73959
      H   24    0.26043      0.00000     0.73820    0.00137     0.73957
      H   25    0.23724      0.00000     0.76149    0.00127     0.76276
      H   26    0.23683      0.00000     0.76236    0.00081     0.76317
      H   27    0.23722      0.00000     0.76197    0.00081     0.76278
      H   28    0.23357      0.00000     0.76534    0.00110     0.76643
      H   29    0.23345      0.00000     0.76523    0.00132     0.76655
      H   30    0.23725      0.00000     0.76148    0.00127     0.76275
      H   31    0.23683      0.00000     0.76236    0.00081     0.76317
      H   32    0.23722      0.00000     0.76197    0.00081     0.76278
      H   33    0.23357      0.00000     0.76534    0.00110     0.76643
 =======================================================================
   * Total *    0.00000     37.98377    93.69015    0.32608   132.00000

                                 Natural Population      
 --------------------------------------------------------
   Core                      37.98377 ( 99.9573% of  38)
   Valence                   93.69015 ( 99.6704% of  94)
   Natural Minimal Basis    131.67392 ( 99.7530% of 132)
   Natural Rydberg Basis      0.32608 (  0.2470% of 132)
 --------------------------------------------------------

    Atom  No          Natural Electron Configuration
 ----------------------------------------------------------------------------
      C    1      [core]2S( 1.10)2p( 3.57)3p( 0.01)
      C    2      [core]2S( 1.07)2p( 3.48)3p( 0.01)
      C    3      [core]2S( 0.79)2p( 2.34)3p( 0.03)3d( 0.01)
      O    4      [core]2S( 1.70)2p( 4.85)3d( 0.02)
      O    5      [core]2S( 1.60)2p( 4.94)3d( 0.01)
      C    6      [core]2S( 0.82)2p( 2.81)3p( 0.02)3d( 0.01)
      C    7      [core]2S( 0.87)2p( 3.19)3p( 0.01)
      C    8      [core]2S( 0.95)2p( 3.25)3p( 0.01)
      C    9      [core]2S( 0.96)2p( 3.25)3p( 0.01)
      C   10      [core]2S( 0.96)2p( 3.25)3p( 0.01)
      C   11      [core]2S( 0.95)2p( 3.25)3p( 0.01)
      C   12      [core]2S( 0.87)2p( 3.17)3p( 0.01)
      C   13      [core]2S( 0.94)2p( 3.22)3p( 0.01)
      C   14      [core]2S( 0.87)2p( 3.17)3p( 0.01)
      C   15      [core]2S( 0.87)2p( 3.19)3p( 0.01)
      C   16      [core]2S( 0.95)2p( 3.25)3p( 0.01)
      C   17      [core]2S( 0.96)2p( 3.25)3p( 0.01)
      C   18      [core]2S( 0.96)2p( 3.25)3p( 0.01)
      C   19      [core]2S( 0.95)2p( 3.25)3p( 0.01)
      H   20            1S( 0.76)
      H   21            1S( 0.76)
      H   22            1S( 0.76)
      H   23            1S( 0.74)
      H   24            1S( 0.74)
      H   25            1S( 0.76)
      H   26            1S( 0.76)
      H   27            1S( 0.76)
      H   28            1S( 0.77)
      H   29            1S( 0.77)
      H   30            1S( 0.76)
      H   31            1S( 0.76)
      H   32            1S( 0.76)
      H   33            1S( 0.77)


 NBO analysis skipped by request.
 Leave Link  607 at Thu Sep 30 08:48:35 2021, MaxMem= 1342177280 cpu:      21.3
 (Enter /sw/target/amd/app/gaussian/Gaussian09RevA.02_gcc-4.9.2/g09/l9999.exe)
 1\1\GINC-HERMITE\SP\RTD-B3LYP-FC\6-31G(d)\C17H14O2\JSCHLEINITZ\30-Sep-
 2021\0\\#p TD(NStates=10, Root=1) b3lyp/6-31G* volume pop=NPA density=
 current Geom=AllCheck Guess=Read\\CCC(=O)Oc1c2ccccc2cc2c1cccc2_conf_0\
 \0,1\C,0,5.0886801245,-2.0601777693,-2.3772885523\C,0,5.8761054773,-2.
 8937167832,-1.3685085563\C,0,5.3494017899,-2.7526545448,0.0449803974\O
 ,0,4.417805013,-2.0763908251,0.3974046984\O,0,6.1023334798,-3.52635633
 17,0.9017780026\C,0,5.7655484194,-3.5272008686,2.2607005766\C,0,4.8716
 391359,-4.5008286659,2.7283413532\C,0,4.2547417198,-5.4650309706,1.873
 1130574\C,0,3.3841814182,-6.3936896992,2.379583244\C,0,3.0759591008,-6
 .4182623447,3.7707914103\C,0,3.6538710323,-5.5147852855,4.6220934984\C
 ,0,4.5711597491,-4.5291851489,4.1408795287\C,0,5.1773659248,-3.6003913
 93,4.9939795184\C,0,6.0811710726,-2.6449570934,4.5162684433\C,0,6.3933
 395241,-2.6020113538,3.1066396601\C,0,7.3287220516,-1.629164238,2.6373
 062843\C,0,7.9117917122,-0.7439082105,3.5051524535\C,0,7.5982572191,-0
 .775143187,4.8950373156\C,0,6.7122608402,-1.6984258435,5.382410084\H,0
 ,5.5007007852,-2.1905816714,-3.38308521\H,0,5.1267050755,-0.99683864,-
 2.1229741516\H,0,4.0354486602,-2.3555306683,-2.3938190729\H,0,6.938169
 8546,-2.6161656836,-1.3590145446\H,0,5.8583416578,-3.9604798485,-1.627
 0770765\H,0,4.4960316059,-5.4572032114,0.8158283102\H,0,2.9231540399,-
 7.1218299612,1.7178460802\H,0,2.3808907885,-7.1614443917,4.1516967417\
 H,0,3.4258870966,-5.5307472934,5.685121716\H,0,4.9433467899,-3.6244160
 814,6.0559998778\H,0,7.5789713761,-1.6101029277,1.5822515434\H,0,8.622
 3283403,-0.010077841,3.134661656\H,0,8.0698898507,-0.0624563038,5.5659
 825946\H,0,6.4717897667,-1.7299773328,6.4423348493\\Version=AM64L-G09R
 evA.02\State=1-A\HF=-806.7190447\RMSD=8.757e-10\Dipole=0.4367916,-0.31
 68149,-0.1671951\Quadrupole=-5.2782114,-2.8083114,8.0865228,8.0355407,
 -3.1394154,1.6978319\PG=C01 [X(C17H14O2)]\\@


 IT PROBABLY IS NOT POSSIBLE FOR A SCIENTIST TO INTERROGATE NATURE 
 FROM A WHOLLY DISINTERESTED VIEWPOINT.
 EVEN IF HE HAS NO PARTICULAR AXE TO GRIND, HE IS LIKELY TO HAVE 
 A DISTINCTIVE WAY OF VIEWING NATURE.

                                                   -- JOHN LOSEE
 Job cpu time:  0 days  5 hours 16 minutes 11.9 seconds.
 File lengths (MBytes):  RWF=    314 Int=      0 D2E=      0 Chk=     44 Scr=      1
 Normal termination of Gaussian 09 at Thu Sep 30 08:48:41 2021.
