 Entering Gaussian System, Link 0=g09
 Input=C18H18O3_868d_conf_0.com
 Output=C18H18O3_868d_conf_0.log
 Initial command:
 /sw/target/amd/app/gaussian/Gaussian09RevA.02_gcc-4.9.2/g09/l1.exe /home/jschleinitz/gaussian/Gau-558175.inp -scrdir=/home/jschleinitz/gaussian/
 Entering Link 1 = /sw/target/amd/app/gaussian/Gaussian09RevA.02_gcc-4.9.2/g09/l1.exe PID=    558177.
  
 Copyright (c) 1988,1990,1992,1993,1995,1998,2003,2009, Gaussian, Inc.
                  All Rights Reserved.
  
 This is part of the Gaussian(R) 09 program.  It is based on
 the Gaussian(R) 03 system (copyright 2003, Gaussian, Inc.),
 the Gaussian(R) 98 system (copyright 1998, Gaussian, Inc.),
 the Gaussian(R) 94 system (copyright 1995, Gaussian, Inc.),
 the Gaussian 92(TM) system (copyright 1992, Gaussian, Inc.),
 the Gaussian 90(TM) system (copyright 1990, Gaussian, Inc.),
 the Gaussian 88(TM) system (copyright 1988, Gaussian, Inc.),
 the Gaussian 86(TM) system (copyright 1986, Carnegie Mellon
 University), and the Gaussian 82(TM) system (copyright 1983,
 Carnegie Mellon University). Gaussian is a federally registered
 trademark of Gaussian, Inc.
  
 This software contains proprietary and confidential information,
 including trade secrets, belonging to Gaussian, Inc.
  
 This software is provided under written license and may be
 used, copied, transmitted, or stored only in accord with that
 written license.
  
 The following legend is applicable only to US Government
 contracts under FAR:
  
                    RESTRICTED RIGHTS LEGEND
  
 Use, reproduction and disclosure by the US Government is
 subject to restrictions as set forth in subparagraphs (a)
 and (c) of the Commercial Computer Software - Restricted
 Rights clause in FAR 52.227-19.
  
 Gaussian, Inc.
 340 Quinnipiac St., Bldg. 40, Wallingford CT 06492
  
  
 ---------------------------------------------------------------
 Warning -- This program may not be used in any manner that
 competes with the business of Gaussian, Inc. or will provide
 assistance to any competitor of Gaussian, Inc.  The licensee
 of this program is prohibited from giving any competitor of
 Gaussian, Inc. access to this program.  By using this program,
 the user acknowledges that Gaussian, Inc. is engaged in the
 business of creating and licensing software in the field of
 computational chemistry and represents and warrants to the
 licensee that it is not a competitor of Gaussian, Inc. and that
 it will not use this program in any manner prohibited above.
 ---------------------------------------------------------------
  

 Cite this work as:
 Gaussian 09, Revision A.02,
 M. J. Frisch, G. W. Trucks, H. B. Schlegel, G. E. Scuseria, 
 M. A. Robb, J. R. Cheeseman, G. Scalmani, V. Barone, B. Mennucci, 
 G. A. Petersson, H. Nakatsuji, M. Caricato, X. Li, H. P. Hratchian, 
 A. F. Izmaylov, J. Bloino, G. Zheng, J. L. Sonnenberg, M. Hada, 
 M. Ehara, K. Toyota, R. Fukuda, J. Hasegawa, M. Ishida, T. Nakajima, 
 Y. Honda, O. Kitao, H. Nakai, T. Vreven, J. A. Montgomery, Jr., 
 J. E. Peralta, F. Ogliaro, M. Bearpark, J. J. Heyd, E. Brothers, 
 K. N. Kudin, V. N. Staroverov, R. Kobayashi, J. Normand, 
 K. Raghavachari, A. Rendell, J. C. Burant, S. S. Iyengar, J. Tomasi, 
 M. Cossi, N. Rega, J. M. Millam, M. Klene, J. E. Knox, J. B. Cross, 
 V. Bakken, C. Adamo, J. Jaramillo, R. Gomperts, R. E. Stratmann, 
 O. Yazyev, A. J. Austin, R. Cammi, C. Pomelli, J. W. Ochterski, 
 R. L. Martin, K. Morokuma, V. G. Zakrzewski, G. A. Voth, 
 P. Salvador, J. J. Dannenberg, S. Dapprich, A. D. Daniels, 
 O. Farkas, J. B. Foresman, J. V. Ortiz, J. Cioslowski, 
 and D. J. Fox, Gaussian, Inc., Wallingford CT, 2009.
 
 ******************************************
 Gaussian 09:  AM64L-G09RevA.02 11-Jun-2009
                30-Sep-2021 
 ******************************************
 %nproc=6
 Will use up to    6 processors via shared memory.
 %mem=12gb
 %chk=C18H18O3_868d_conf_0.chk
 -----------------------------------
 #p opt b3lyp/6-31G* scf=(xqc,tight)
 -----------------------------------
 1/14=-1,18=20,19=15,26=3,38=1/1,3;
 2/9=110,12=2,17=6,18=5,40=1/2;
 3/5=1,6=6,7=1,11=2,16=1,25=1,30=1,71=1,74=-5/1,2,3;
 4//1;
 5/5=2,8=3,13=1,32=2,38=5/2,8;
 6/7=2,8=2,9=2,10=2,28=1/1;
 7//1,2,3,16;
 1/14=-1,18=20,19=15/3(2);
 2/9=110/2;
 99//99;
 2/9=110/2;
 3/5=1,6=6,7=1,11=2,16=1,25=1,30=1,71=1,74=-5/1,2,3;
 4/5=5,16=3/1;
 5/5=2,8=3,13=1,32=2,38=5/2,8;
 7//1,2,3,16;
 1/14=-1,18=20,19=15/3(-5);
 2/9=110/2;
 6/7=2,8=2,9=2,10=2,19=2,28=1/1;
 99/9=1/99;
 Leave Link    1 at Thu Sep 30 21:37:01 2021, MaxMem= 1610612736 cpu:       0.1
 (Enter /sw/target/amd/app/gaussian/Gaussian09RevA.02_gcc-4.9.2/g09/l101.exe)
 --------------------------------------------
 O=C(c1ccccc1)c1ccc(cc1)OC(=O)C(C)(C)C_conf_0
 --------------------------------------------
 Symbolic Z-matrix:
 Charge =  0 Multiplicity = 1
 O                     1.63319   1.19015  -0.87914 
 C                     1.78635   0.3143   -0.03617 
 C                     1.26498  -1.06066  -0.30877 
 C                     1.89451  -2.21716   0.1746 
 C                     1.31045  -3.47227  -0.02427 
 C                     0.12701  -3.58649  -0.75151 
 C                    -0.4663   -2.44761  -1.29549 
 C                     0.10034  -1.18937  -1.07514 
 C                     2.45675   0.65655   1.25669 
 C                     2.17998  -0.04586   2.43904 
 C                     2.85043   0.2693    3.62481 
 C                     3.78258   1.30279   3.62951 
 C                     3.99971   2.07011   2.4871 
 C                     3.34441   1.74356   1.2992 
 O                     4.38218   1.62321   4.85743 
 C                     5.70047   2.08583   4.8693 
 O                     6.51676   1.93729   3.96251 
 C                     6.00978   2.75072   6.2084 
 C                     6.43704   1.64573   7.1775 
 C                     7.15365   3.76098   6.01848 
 C                     4.78569   3.50872   6.75212 
 H                     2.83684  -2.16096   0.71343 
 H                     1.77922  -4.36366   0.38675 
 H                    -0.3283   -4.56276  -0.90405 
 H                    -1.37379  -2.53879  -1.8872 
 H                    -0.37682  -0.30624  -1.49437 
 H                     1.43378  -0.83447   2.46029 
 H                     2.62786  -0.28333   4.53384 
 H                     4.67353   2.92146   2.50521 
 H                     3.52647   2.34429   0.41134 
 H                     7.35687   1.158     6.83198 
 H                     5.66913   0.86605   7.25092 
 H                     6.62001   2.03938   8.18348 
 H                     8.06373   3.27289   5.64974 
 H                     7.40433   4.26482   6.95779 
 H                     6.88088   4.52973   5.28577 
 H                     3.93563   2.84091   6.93144 
 H                     4.45314   4.27424   6.04146 
 H                     5.01273   4.00476   7.70109 
 
 NAtoms=     39 NQM=     39 NQMF=      0 NMic=      0 NMicF=      0 NTot=     39.
                    Isotopes and Nuclear Properties:
 (Nuclear quadrupole moments (NQMom) in fm**2, nuclear magnetic moments (NMagM)
  in nuclear magnetons)

  Atom         1           2           3           4           5           6           7           8           9          10
 IAtWgt=          16          12          12          12          12          12          12          12          12          12
 AtmWgt=  15.9949146  12.0000000  12.0000000  12.0000000  12.0000000  12.0000000  12.0000000  12.0000000  12.0000000  12.0000000
 NucSpn=           0           0           0           0           0           0           0           0           0           0
 AtZEff=   0.0000000   0.0000000   0.0000000   0.0000000   0.0000000   0.0000000   0.0000000   0.0000000   0.0000000   0.0000000
 NQMom=    0.0000000   0.0000000   0.0000000   0.0000000   0.0000000   0.0000000   0.0000000   0.0000000   0.0000000   0.0000000
 NMagM=    0.0000000   0.0000000   0.0000000   0.0000000   0.0000000   0.0000000   0.0000000   0.0000000   0.0000000   0.0000000

  Atom        11          12          13          14          15          16          17          18          19          20
 IAtWgt=          12          12          12          12          16          12          16          12          12          12
 AtmWgt=  12.0000000  12.0000000  12.0000000  12.0000000  15.9949146  12.0000000  15.9949146  12.0000000  12.0000000  12.0000000
 NucSpn=           0           0           0           0           0           0           0           0           0           0
 AtZEff=   0.0000000   0.0000000   0.0000000   0.0000000   0.0000000   0.0000000   0.0000000   0.0000000   0.0000000   0.0000000
 NQMom=    0.0000000   0.0000000   0.0000000   0.0000000   0.0000000   0.0000000   0.0000000   0.0000000   0.0000000   0.0000000
 NMagM=    0.0000000   0.0000000   0.0000000   0.0000000   0.0000000   0.0000000   0.0000000   0.0000000   0.0000000   0.0000000

  Atom        21          22          23          24          25          26          27          28          29          30
 IAtWgt=          12           1           1           1           1           1           1           1           1           1
 AtmWgt=  12.0000000   1.0078250   1.0078250   1.0078250   1.0078250   1.0078250   1.0078250   1.0078250   1.0078250   1.0078250
 NucSpn=           0           1           1           1           1           1           1           1           1           1
 AtZEff=   0.0000000   0.0000000   0.0000000   0.0000000   0.0000000   0.0000000   0.0000000   0.0000000   0.0000000   0.0000000
 NQMom=    0.0000000   0.0000000   0.0000000   0.0000000   0.0000000   0.0000000   0.0000000   0.0000000   0.0000000   0.0000000
 NMagM=    0.0000000   2.7928460   2.7928460   2.7928460   2.7928460   2.7928460   2.7928460   2.7928460   2.7928460   2.7928460

  Atom        31          32          33          34          35          36          37          38          39
 IAtWgt=           1           1           1           1           1           1           1           1           1
 AtmWgt=   1.0078250   1.0078250   1.0078250   1.0078250   1.0078250   1.0078250   1.0078250   1.0078250   1.0078250
 NucSpn=           1           1           1           1           1           1           1           1           1
 AtZEff=   0.0000000   0.0000000   0.0000000   0.0000000   0.0000000   0.0000000   0.0000000   0.0000000   0.0000000
 NQMom=    0.0000000   0.0000000   0.0000000   0.0000000   0.0000000   0.0000000   0.0000000   0.0000000   0.0000000
 NMagM=    2.7928460   2.7928460   2.7928460   2.7928460   2.7928460   2.7928460   2.7928460   2.7928460   2.7928460
 Leave Link  101 at Thu Sep 30 21:37:02 2021, MaxMem= 1610612736 cpu:       0.2
 (Enter /sw/target/amd/app/gaussian/Gaussian09RevA.02_gcc-4.9.2/g09/l103.exe)

 GradGradGradGradGradGradGradGradGradGradGradGradGradGradGradGradGradGrad
 Berny optimization.
 Initialization pass.
                           ----------------------------
                           !    Initial Parameters    !
                           ! (Angstroms and Degrees)  !
 --------------------------                            --------------------------
 ! Name  Definition              Value          Derivative Info.                !
 --------------------------------------------------------------------------------
 ! R1    R(1,2)                  1.2252         estimate D2E/DX2                !
 ! R2    R(2,3)                  1.4955         estimate D2E/DX2                !
 ! R3    R(2,9)                  1.496          estimate D2E/DX2                !
 ! R4    R(3,4)                  1.4027         estimate D2E/DX2                !
 ! R5    R(3,8)                  1.4001         estimate D2E/DX2                !
 ! R6    R(4,5)                  1.3986         estimate D2E/DX2                !
 ! R7    R(4,22)                 1.087          estimate D2E/DX2                !
 ! R8    R(5,6)                  1.3937         estimate D2E/DX2                !
 ! R9    R(5,23)                 1.0878         estimate D2E/DX2                !
 ! R10   R(6,7)                  1.3946         estimate D2E/DX2                !
 ! R11   R(6,24)                 1.088          estimate D2E/DX2                !
 ! R12   R(7,8)                  1.3974         estimate D2E/DX2                !
 ! R13   R(7,25)                 1.0872         estimate D2E/DX2                !
 ! R14   R(8,26)                 1.0878         estimate D2E/DX2                !
 ! R15   R(9,10)                 1.4028         estimate D2E/DX2                !
 ! R16   R(9,14)                 1.404          estimate D2E/DX2                !
 ! R17   R(10,11)                1.3982         estimate D2E/DX2                !
 ! R18   R(10,27)                1.0859         estimate D2E/DX2                !
 ! R19   R(11,12)                1.3918         estimate D2E/DX2                !
 ! R20   R(11,28)                1.0869         estimate D2E/DX2                !
 ! R21   R(12,13)                1.3932         estimate D2E/DX2                !
 ! R22   R(12,15)                1.4036         estimate D2E/DX2                !
 ! R23   R(13,14)                1.3954         estimate D2E/DX2                !
 ! R24   R(13,29)                1.0859         estimate D2E/DX2                !
 ! R25   R(14,30)                1.0873         estimate D2E/DX2                !
 ! R26   R(15,16)                1.3972         estimate D2E/DX2                !
 ! R27   R(16,17)                1.2291         estimate D2E/DX2                !
 ! R28   R(16,18)                1.5267         estimate D2E/DX2                !
 ! R29   R(18,19)                1.5306         estimate D2E/DX2                !
 ! R30   R(18,20)                1.5379         estimate D2E/DX2                !
 ! R31   R(18,21)                1.539          estimate D2E/DX2                !
 ! R32   R(19,31)                1.097          estimate D2E/DX2                !
 ! R33   R(19,32)                1.0968         estimate D2E/DX2                !
 ! R34   R(19,33)                1.0956         estimate D2E/DX2                !
 ! R35   R(20,34)                1.0966         estimate D2E/DX2                !
 ! R36   R(20,35)                1.095          estimate D2E/DX2                !
 ! R37   R(20,36)                1.0965         estimate D2E/DX2                !
 ! R38   R(21,37)                1.0958         estimate D2E/DX2                !
 ! R39   R(21,38)                1.0962         estimate D2E/DX2                !
 ! R40   R(21,39)                1.0946         estimate D2E/DX2                !
 ! A1    A(1,2,3)              119.2244         estimate D2E/DX2                !
 ! A2    A(1,2,9)              119.1474         estimate D2E/DX2                !
 ! A3    A(3,2,9)              121.6059         estimate D2E/DX2                !
 ! A4    A(2,3,4)              122.5988         estimate D2E/DX2                !
 ! A5    A(2,3,8)              118.312          estimate D2E/DX2                !
 ! A6    A(4,3,8)              119.089          estimate D2E/DX2                !
 ! A7    A(3,4,5)              120.2322         estimate D2E/DX2                !
 ! A8    A(3,4,22)             121.1509         estimate D2E/DX2                !
 ! A9    A(5,4,22)             118.6159         estimate D2E/DX2                !
 ! A10   A(4,5,6)              120.1558         estimate D2E/DX2                !
 ! A11   A(4,5,23)             120.1135         estimate D2E/DX2                !
 ! A12   A(6,5,23)             119.7306         estimate D2E/DX2                !
 ! A13   A(5,6,7)              119.857          estimate D2E/DX2                !
 ! A14   A(5,6,24)             120.1362         estimate D2E/DX2                !
 ! A15   A(7,6,24)             120.0037         estimate D2E/DX2                !
 ! A16   A(6,7,8)              120.0845         estimate D2E/DX2                !
 ! A17   A(6,7,25)             119.9277         estimate D2E/DX2                !
 ! A18   A(8,7,25)             119.9869         estimate D2E/DX2                !
 ! A19   A(3,8,7)              120.4229         estimate D2E/DX2                !
 ! A20   A(3,8,26)             120.0784         estimate D2E/DX2                !
 ! A21   A(7,8,26)             119.4949         estimate D2E/DX2                !
 ! A22   A(2,9,10)             121.6958         estimate D2E/DX2                !
 ! A23   A(2,9,14)             119.117          estimate D2E/DX2                !
 ! A24   A(10,9,14)            119.135          estimate D2E/DX2                !
 ! A25   A(9,10,11)            120.4855         estimate D2E/DX2                !
 ! A26   A(9,10,27)            121.0445         estimate D2E/DX2                !
 ! A27   A(11,10,27)           118.4645         estimate D2E/DX2                !
 ! A28   A(10,11,12)           119.433          estimate D2E/DX2                !
 ! A29   A(10,11,28)           119.7695         estimate D2E/DX2                !
 ! A30   A(12,11,28)           120.7907         estimate D2E/DX2                !
 ! A31   A(11,12,13)           120.7031         estimate D2E/DX2                !
 ! A32   A(11,12,15)           117.2964         estimate D2E/DX2                !
 ! A33   A(13,12,15)           121.6727         estimate D2E/DX2                !
 ! A34   A(12,13,14)           119.734          estimate D2E/DX2                !
 ! A35   A(12,13,29)           120.9859         estimate D2E/DX2                !
 ! A36   A(14,13,29)           119.2801         estimate D2E/DX2                !
 ! A37   A(9,14,13)            120.2547         estimate D2E/DX2                !
 ! A38   A(9,14,30)            120.5882         estimate D2E/DX2                !
 ! A39   A(13,14,30)           119.1563         estimate D2E/DX2                !
 ! A40   A(12,15,16)           119.0848         estimate D2E/DX2                !
 ! A41   A(15,16,17)           125.4768         estimate D2E/DX2                !
 ! A42   A(15,16,18)           110.0481         estimate D2E/DX2                !
 ! A43   A(17,16,18)           124.4144         estimate D2E/DX2                !
 ! A44   A(16,18,19)           107.3071         estimate D2E/DX2                !
 ! A45   A(16,18,20)           109.1752         estimate D2E/DX2                !
 ! A46   A(16,18,21)           111.2981         estimate D2E/DX2                !
 ! A47   A(19,18,20)           110.1704         estimate D2E/DX2                !
 ! A48   A(19,18,21)           110.7262         estimate D2E/DX2                !
 ! A49   A(20,18,21)           108.1598         estimate D2E/DX2                !
 ! A50   A(18,19,31)           110.8314         estimate D2E/DX2                !
 ! A51   A(18,19,32)           111.1093         estimate D2E/DX2                !
 ! A52   A(18,19,33)           111.6279         estimate D2E/DX2                !
 ! A53   A(31,19,32)           106.9834         estimate D2E/DX2                !
 ! A54   A(31,19,33)           107.9933         estimate D2E/DX2                !
 ! A55   A(32,19,33)           108.1115         estimate D2E/DX2                !
 ! A56   A(18,20,34)           111.4953         estimate D2E/DX2                !
 ! A57   A(18,20,35)           111.5066         estimate D2E/DX2                !
 ! A58   A(18,20,36)           110.9811         estimate D2E/DX2                !
 ! A59   A(34,20,35)           107.6539         estimate D2E/DX2                !
 ! A60   A(34,20,36)           107.0875         estimate D2E/DX2                !
 ! A61   A(35,20,36)           107.9138         estimate D2E/DX2                !
 ! A62   A(18,21,37)           112.0037         estimate D2E/DX2                !
 ! A63   A(18,21,38)           110.8671         estimate D2E/DX2                !
 ! A64   A(18,21,39)           111.3773         estimate D2E/DX2                !
 ! A65   A(37,21,38)           107.2383         estimate D2E/DX2                !
 ! A66   A(37,21,39)           107.1701         estimate D2E/DX2                !
 ! A67   A(38,21,39)           107.9692         estimate D2E/DX2                !
 ! D1    D(1,2,3,4)            147.4244         estimate D2E/DX2                !
 ! D2    D(1,2,3,8)            -32.7182         estimate D2E/DX2                !
 ! D3    D(9,2,3,4)            -34.31           estimate D2E/DX2                !
 ! D4    D(9,2,3,8)            145.5475         estimate D2E/DX2                !
 ! D5    D(1,2,9,10)           152.1847         estimate D2E/DX2                !
 ! D6    D(1,2,9,14)           -25.1654         estimate D2E/DX2                !
 ! D7    D(3,2,9,10)           -26.0823         estimate D2E/DX2                !
 ! D8    D(3,2,9,14)           156.5676         estimate D2E/DX2                !
 ! D9    D(2,3,4,5)            175.1829         estimate D2E/DX2                !
 ! D10   D(2,3,4,22)            -4.4504         estimate D2E/DX2                !
 ! D11   D(8,3,4,5)             -4.6735         estimate D2E/DX2                !
 ! D12   D(8,3,4,22)           175.6932         estimate D2E/DX2                !
 ! D13   D(2,3,8,7)           -176.494          estimate D2E/DX2                !
 ! D14   D(2,3,8,26)             2.7968         estimate D2E/DX2                !
 ! D15   D(4,3,8,7)              3.3686         estimate D2E/DX2                !
 ! D16   D(4,3,8,26)          -177.3406         estimate D2E/DX2                !
 ! D17   D(3,4,5,6)              2.627          estimate D2E/DX2                !
 ! D18   D(3,4,5,23)          -177.4802         estimate D2E/DX2                !
 ! D19   D(22,4,5,6)          -177.7304         estimate D2E/DX2                !
 ! D20   D(22,4,5,23)            2.1623         estimate D2E/DX2                !
 ! D21   D(4,5,6,7)              0.785          estimate D2E/DX2                !
 ! D22   D(4,5,6,24)          -179.8566         estimate D2E/DX2                !
 ! D23   D(23,5,6,7)          -179.1082         estimate D2E/DX2                !
 ! D24   D(23,5,6,24)            0.2503         estimate D2E/DX2                !
 ! D25   D(5,6,7,8)             -2.0948         estimate D2E/DX2                !
 ! D26   D(5,6,7,25)           178.2339         estimate D2E/DX2                !
 ! D27   D(24,6,7,8)           178.5459         estimate D2E/DX2                !
 ! D28   D(24,6,7,25)           -1.1254         estimate D2E/DX2                !
 ! D29   D(6,7,8,3)             -0.0028         estimate D2E/DX2                !
 ! D30   D(6,7,8,26)          -179.2977         estimate D2E/DX2                !
 ! D31   D(25,7,8,3)           179.6682         estimate D2E/DX2                !
 ! D32   D(25,7,8,26)            0.3733         estimate D2E/DX2                !
 ! D33   D(2,9,10,11)          178.0953         estimate D2E/DX2                !
 ! D34   D(2,9,10,27)           -2.7712         estimate D2E/DX2                !
 ! D35   D(14,9,10,11)          -4.5551         estimate D2E/DX2                !
 ! D36   D(14,9,10,27)         174.5784         estimate D2E/DX2                !
 ! D37   D(2,9,14,13)         -178.9334         estimate D2E/DX2                !
 ! D38   D(2,9,14,30)            1.3944         estimate D2E/DX2                !
 ! D39   D(10,9,14,13)           3.6479         estimate D2E/DX2                !
 ! D40   D(10,9,14,30)        -176.0244         estimate D2E/DX2                !
 ! D41   D(9,10,11,12)           1.0207         estimate D2E/DX2                !
 ! D42   D(9,10,11,28)        -179.9164         estimate D2E/DX2                !
 ! D43   D(27,10,11,12)       -178.1348         estimate D2E/DX2                !
 ! D44   D(27,10,11,28)          0.9281         estimate D2E/DX2                !
 ! D45   D(10,11,12,13)          3.5008         estimate D2E/DX2                !
 ! D46   D(10,11,12,15)        177.0348         estimate D2E/DX2                !
 ! D47   D(28,11,12,13)       -175.5522         estimate D2E/DX2                !
 ! D48   D(28,11,12,15)         -2.0183         estimate D2E/DX2                !
 ! D49   D(11,12,13,14)         -4.4029         estimate D2E/DX2                !
 ! D50   D(11,12,13,29)        175.6261         estimate D2E/DX2                !
 ! D51   D(15,12,13,14)       -177.65           estimate D2E/DX2                !
 ! D52   D(15,12,13,29)          2.379          estimate D2E/DX2                !
 ! D53   D(11,12,15,16)        147.4946         estimate D2E/DX2                !
 ! D54   D(13,12,15,16)        -39.0383         estimate D2E/DX2                !
 ! D55   D(12,13,14,9)           0.7763         estimate D2E/DX2                !
 ! D56   D(12,13,14,30)       -179.5467         estimate D2E/DX2                !
 ! D57   D(29,13,14,9)        -179.2522         estimate D2E/DX2                !
 ! D58   D(29,13,14,30)          0.4247         estimate D2E/DX2                !
 ! D59   D(12,15,16,17)        -19.3548         estimate D2E/DX2                !
 ! D60   D(12,15,16,18)        163.3841         estimate D2E/DX2                !
 ! D61   D(15,16,18,19)         85.379          estimate D2E/DX2                !
 ! D62   D(15,16,18,20)       -155.2318         estimate D2E/DX2                !
 ! D63   D(15,16,18,21)        -35.9087         estimate D2E/DX2                !
 ! D64   D(17,16,18,19)        -91.9174         estimate D2E/DX2                !
 ! D65   D(17,16,18,20)         27.4718         estimate D2E/DX2                !
 ! D66   D(17,16,18,21)        146.795          estimate D2E/DX2                !
 ! D67   D(16,18,19,31)         62.9495         estimate D2E/DX2                !
 ! D68   D(16,18,19,32)        -55.8599         estimate D2E/DX2                !
 ! D69   D(16,18,19,33)       -176.6259         estimate D2E/DX2                !
 ! D70   D(20,18,19,31)        -55.7997         estimate D2E/DX2                !
 ! D71   D(20,18,19,32)       -174.609          estimate D2E/DX2                !
 ! D72   D(20,18,19,33)         64.625          estimate D2E/DX2                !
 ! D73   D(21,18,19,31)       -175.404          estimate D2E/DX2                !
 ! D74   D(21,18,19,32)         65.7867         estimate D2E/DX2                !
 ! D75   D(21,18,19,33)        -54.9793         estimate D2E/DX2                !
 ! D76   D(16,18,20,34)        -59.8809         estimate D2E/DX2                !
 ! D77   D(16,18,20,35)        179.754          estimate D2E/DX2                !
 ! D78   D(16,18,20,36)         59.41           estimate D2E/DX2                !
 ! D79   D(19,18,20,34)         57.7187         estimate D2E/DX2                !
 ! D80   D(19,18,20,35)        -62.6464         estimate D2E/DX2                !
 ! D81   D(19,18,20,36)        177.0096         estimate D2E/DX2                !
 ! D82   D(21,18,20,34)        178.8687         estimate D2E/DX2                !
 ! D83   D(21,18,20,35)         58.5036         estimate D2E/DX2                !
 ! D84   D(21,18,20,36)        -61.8405         estimate D2E/DX2                !
 ! D85   D(16,18,21,37)         61.2778         estimate D2E/DX2                !
 ! D86   D(16,18,21,38)        -58.4651         estimate D2E/DX2                !
 ! D87   D(16,18,21,39)       -178.715          estimate D2E/DX2                !
 ! D88   D(19,18,21,37)        -57.991          estimate D2E/DX2                !
 ! D89   D(19,18,21,38)       -177.734          estimate D2E/DX2                !
 ! D90   D(19,18,21,39)         62.0161         estimate D2E/DX2                !
 ! D91   D(20,18,21,37)       -178.7958         estimate D2E/DX2                !
 ! D92   D(20,18,21,38)         61.4612         estimate D2E/DX2                !
 ! D93   D(20,18,21,39)        -58.7887         estimate D2E/DX2                !
 --------------------------------------------------------------------------------
 Trust Radius=3.00D-01 FncErr=1.00D-07 GrdErr=1.00D-06
 Number of steps in this run= 210 maximum allowed number of steps= 234.
 GradGradGradGradGradGradGradGradGradGradGradGradGradGradGradGradGradGrad

 Leave Link  103 at Thu Sep 30 21:37:02 2021, MaxMem= 1610612736 cpu:       0.0
 (Enter /sw/target/amd/app/gaussian/Gaussian09RevA.02_gcc-4.9.2/g09/l202.exe)
                          Input orientation:                          
 ---------------------------------------------------------------------
 Center     Atomic      Atomic             Coordinates (Angstroms)
 Number     Number       Type             X           Y           Z
 ---------------------------------------------------------------------
      1          8           0        1.633188    1.190153   -0.879138
      2          6           0        1.786347    0.314302   -0.036171
      3          6           0        1.264978   -1.060665   -0.308768
      4          6           0        1.894505   -2.217162    0.174604
      5          6           0        1.310454   -3.472267   -0.024270
      6          6           0        0.127012   -3.586494   -0.751513
      7          6           0       -0.466297   -2.447608   -1.295489
      8          6           0        0.100335   -1.189374   -1.075135
      9          6           0        2.456753    0.656555    1.256690
     10          6           0        2.179981   -0.045861    2.439035
     11          6           0        2.850432    0.269301    3.624810
     12          6           0        3.782581    1.302793    3.629508
     13          6           0        3.999714    2.070108    2.487095
     14          6           0        3.344410    1.743562    1.299196
     15          8           0        4.382175    1.623214    4.857432
     16          6           0        5.700471    2.085826    4.869301
     17          8           0        6.516762    1.937289    3.962514
     18          6           0        6.009783    2.750717    6.208397
     19          6           0        6.437035    1.645734    7.177499
     20          6           0        7.153648    3.760979    6.018479
     21          6           0        4.785689    3.508721    6.752117
     22          1           0        2.836838   -2.160962    0.713429
     23          1           0        1.779222   -4.363659    0.386747
     24          1           0       -0.328302   -4.562758   -0.904045
     25          1           0       -1.373791   -2.538791   -1.887200
     26          1           0       -0.376818   -0.306240   -1.494372
     27          1           0        1.433780   -0.834469    2.460288
     28          1           0        2.627863   -0.283332    4.533838
     29          1           0        4.673534    2.921455    2.505211
     30          1           0        3.526472    2.344289    0.411343
     31          1           0        7.356873    1.158003    6.831979
     32          1           0        5.669125    0.866045    7.250920
     33          1           0        6.620010    2.039385    8.183477
     34          1           0        8.063729    3.272886    5.649745
     35          1           0        7.404328    4.264820    6.957793
     36          1           0        6.880877    4.529732    5.285766
     37          1           0        3.935626    2.840909    6.931439
     38          1           0        4.453137    4.274237    6.041457
     39          1           0        5.012728    4.004758    7.701088
 ---------------------------------------------------------------------
                    Distance matrix (angstroms):
                    1          2          3          4          5
     1  O    0.000000
     2  C    1.225221   0.000000
     3  C    2.350974   1.495549   0.000000
     4  C    3.576095   2.542525   1.402654   0.000000
     5  C    4.751118   3.816375   2.428752   1.398554   0.000000
     6  C    5.010111   4.298989   2.805495   2.420081   1.393724
     7  C    4.220722   3.780004   2.427868   2.790639   2.413042
     8  C    2.837288   2.486588   1.400099   2.416038   2.789320
     9  C    2.350478   1.496019   2.611480   3.121744   4.472363
    10  C    3.582874   2.532057   3.068792   3.150190   4.308621
    11  C    4.755544   3.812754   4.444718   4.358924   5.448546
    12  C    4.996045   4.289437   5.237774   5.281220   6.500977
    13  C    4.207885   3.787971   5.009728   5.306620   6.652593
    14  C    2.824833   2.500711   3.843602   4.365120   5.752687
    15  O    6.375948   5.692006   6.603768   6.547204   7.696130
    16  C    7.098562   6.520915   7.509089   7.418981   8.608815
    17  O    6.917304   6.403156   7.403568   7.278255   8.500787
    18  C    8.474850   7.922636   8.917020   8.833006   9.982753
    19  C    9.391161   8.685543   9.493101   9.197668  10.214756
    20  C    9.201182   8.794675   9.897412   9.876621  11.089526
    21  C    8.576134   8.079680   9.117609   9.187403  10.331064
    22  H    3.900643   2.791481   2.174003   1.086961   2.143261
    23  H    5.698124   4.697044   3.414375   2.160033   1.087776
    24  H    6.078161   5.386154   3.893270   3.406783   2.156083
    25  H    4.895215   4.642512   3.411657   3.877659   3.398097
    26  H    2.580278   2.681549   2.161089   3.405292   3.877089
    27  H    3.910322   2.770611   2.783403   2.710804   3.625771
    28  H    5.697442   4.685115   5.090436   4.824981   5.716749
    29  H    4.867744   4.646690   5.949287   6.289684   7.654297
    30  H    2.565520   2.710932   4.150497   4.850381   6.239617
    31  H    9.603276   8.883360   9.644892   9.249316  10.247279
    32  H    9.082493   8.275391   8.958661   8.592333   9.526141
    33  H   10.378852   9.690347  10.507374  10.226957  11.222156
    34  H    9.397656   8.971532  10.025296   9.908437  11.103975
    35  H   10.206720   9.802237  10.902079  10.880529  12.072573
    36  H    8.757687   8.488057   9.699984   9.823873  11.102166
    37  H    8.308510   7.716913   8.647268   8.683610   9.753441
    38  H    8.084450   7.728546   8.885432   9.116185  10.328496
    39  H    9.641762   9.159377  10.191268  10.251028  11.370747
                    6          7          8          9         10
     6  C    0.000000
     7  C    1.394627   0.000000
     8  C    2.419013   1.397420   0.000000
     9  C    5.240614   4.969273   3.794412   0.000000
    10  C    5.189448   5.168932   4.240512   1.402829   0.000000
    11  C    6.437109   6.526227   5.637398   2.431655   1.398175
    12  C    7.514097   7.508267   6.473291   2.793870   2.409236
    13  C    7.581791   7.393441   6.206357   2.427501   2.791247
    14  C    6.554888   6.230553   4.976302   1.404040   2.420157
    15  O    8.758295   8.828234   7.838378   4.196073   3.672072
    16  C    9.738184   9.827803   8.799136   5.061175   4.779553
    17  O    9.672804   9.779419   8.736387   5.044347   5.006150
    18  C   11.099891  11.192431  10.173285   6.444295   6.057748
    19  C   11.404466  11.670603  10.784136   7.202576   6.590678
    20  C   12.214409  12.251705  11.161299   7.373800   7.214001
    21  C   11.329158  11.305980  10.261117   6.615022   6.166639
    22  H    3.394312   3.876677   3.410483   2.894477   2.807638
    23  H    2.151608   3.397576   3.877092   5.139882   4.797486
    24  H    1.087965   2.155488   3.404809   6.298137   6.153863
    25  H    2.154037   1.087189   2.157179   5.896384   6.128647
    26  H    3.400845   2.152445   1.087824   4.065027   4.698587
    27  H    4.426844   4.507591   3.795161   2.172158   1.085896
    28  H    6.715659   6.945429   6.218512   3.413556   2.155270
    29  H    8.580823   8.348056   7.115613   3.406274   3.876487
    30  H    6.934172   6.466666   5.141479   2.169644   3.411361
    31  H   11.501760  11.843064  10.985899   7.439521   6.895466
    32  H   10.704161  11.030178  10.225428   6.803971   6.013313
    33  H   12.395305  12.657000  11.775098   8.199104   7.553854
    34  H   12.288965  12.398455  11.338052   7.588300   7.479386
    35  H   13.192265  13.233295  12.150082   8.366639   8.142170
    36  H   12.162917  12.082102  10.915356   7.127962   7.151108
    37  H   10.716567  10.725096   9.749762   6.257895   5.621158
    38  H   11.253928  11.100217   9.972152   6.321960   6.066953
    39  H   12.367045  12.352779  11.319572   7.698944   7.219499
                   11         12         13         14         15
    11  C    0.000000
    12  C    1.391772   0.000000
    13  C    2.420362   1.393207   0.000000
    14  C    2.797488   2.411768   1.395407   0.000000
    15  O    2.387190   1.403560   2.442230   3.708434   0.000000
    16  C    3.601562   2.414235   2.927068   4.291133   1.397160
    17  O    4.042054   2.826521   2.920622   4.146638   2.335804
    18  C    4.776384   3.702375   4.283887   5.676163   2.396972
    19  C    5.232579   4.444319   5.302878   6.642917   3.099301
    20  C    6.036484   4.807698   5.027626   6.391549   3.687700
    21  C    4.900930   3.952598   4.569221   5.909943   2.703293
    22  H    3.792427   4.625532   4.732877   3.980711   5.820723
    23  H    5.752987   6.829174   7.122879   6.370284   7.912334
    24  H    7.345997   8.476859   8.615478   7.623172   9.677265
    25  H    7.490774   8.472308   8.321716   7.124120   9.795075
    26  H    6.078851   6.792919   6.375982   5.084610   8.168001
    27  H    2.140402   3.384055   3.875732   3.412460   4.525432
    28  H    1.086863   2.160319   3.407317   3.883896   2.610985
    29  H    3.407510   2.162848   1.085889   2.146736   2.702455
    30  H    3.884453   3.392181   2.146597   1.087337   4.584745
    31  H    5.602118   4.801285   5.566009   6.859622   3.600567
    32  H    4.631394   4.106631   5.189482   6.449601   2.821051
    33  H    6.174492   5.415921   6.270220   7.629573   4.030344
    34  H    6.348255   5.127460   5.288217   6.598339   4.111327
    35  H    6.914544   5.741789   6.032851   7.406713   4.530232
    36  H    6.095452   4.770301   4.709927   6.013492   3.856790
    37  H    4.327194   3.645816   4.511145   5.768524   2.446159
    38  H    4.944528   3.885437   4.206812   5.488409   2.904285
    39  H    5.936767   5.039012   5.652857   6.991460   3.762410
                   16         17         18         19         20
    16  C    0.000000
    17  O    1.229088   0.000000
    18  C    1.526738   2.441860   0.000000
    19  C    2.462516   3.229162   1.530585   0.000000
    20  C    2.497693   2.821075   1.537897   2.516172   0.000000
    21  C    2.531097   3.639767   1.539028   2.525592   2.491805
    22  H    6.595974   6.394846   8.024141   8.320850   9.046977
    23  H    8.778687   8.656347  10.119466  10.194231  11.252138
    24  H   10.671518  10.620212  12.010206  12.232192  13.159997
    25  H   10.820470  10.794224  12.166953  12.676278  13.225131
    26  H    9.118759   9.073725  10.462615  11.200007  11.388290
    27  H    5.704044   5.981306   6.916768   7.309997   8.154493
    28  H    3.894402   4.514544   4.842208   5.021955   6.248468
    29  H    2.709575   2.547509   3.940596   5.154384   4.381646
    30  H    4.966535   4.660289   6.319640   7.398664   6.826668
    31  H    2.730682   3.089806   2.177210   1.096981   2.734697
    32  H    2.675996   3.560852   2.180571   1.096810   3.478989
    33  H    3.439690   4.223460   2.186164   1.095642   2.817068
    34  H    2.757388   2.650221   2.191677   2.761845   1.096562
    35  H    3.465969   3.895750   2.190630   2.800631   1.094991
    36  H    2.745811   2.933315   2.185165   3.477512   1.096473
    37  H    2.817311   4.036497   2.198420   2.783171   3.469250
    38  H    2.778296   3.747249   2.184519   3.483600   2.748949
    39  H    3.489170   4.529181   2.189718   2.804958   2.733887
                   21         22         23         24         25
    21  C    0.000000
    22  H    8.509353   0.000000
    23  H   10.560831   2.465187   0.000000
    24  H   12.244121   4.289867   2.479403   0.000000
    25  H   12.212673   4.963409   4.294470   2.481146   0.000000
    26  H   10.450359   4.317635   4.964853   4.297532   2.476398
    27  H    6.965514   2.603780   4.107807   5.322012   5.448653
    28  H    4.894552   4.262005   5.879423   7.524824   7.894939
    29  H    4.288784   5.693409   8.120210   9.625738   9.256225
    30  H    6.568634   4.567728   6.931814   8.018530   7.289743
    31  H    3.484715   8.299572  10.155784  12.314020  12.880794
    32  H    2.830724   7.741021   9.465623  11.486709  12.029165
    33  H    2.751813   9.367866  11.190227  13.207966  13.648409
    34  H    3.466467   9.011898  11.203169  13.220274  13.403280
    35  H    2.733360  10.057073  12.217655  14.125445  14.197831
    36  H    2.753628   9.056815  11.363084  13.151403  13.021329
    37  H    1.095781   8.055414   9.969396  11.592677  11.614623
    38  H    1.096194   8.509529  10.664840  12.214526  11.968043
    39  H    1.094598   9.569638  11.575212  13.265642  13.249186
                   26         27         28         29         30
    26  H    0.000000
    27  H    4.381396   0.000000
    28  H    6.735574   2.455442   0.000000
    29  H    7.205605   4.960341   4.309381   0.000000
    30  H    5.088490   4.322271   4.970599   2.456248   0.000000
    31  H   11.457840   7.626575   5.451828   5.388041   7.569928
    32  H   10.696159   6.616650   4.237084   5.266656   7.318195
    33  H   12.170387   8.240807   5.886605   6.067085   8.370723
    34  H   11.622882   8.426103   6.590946   4.637350   6.992127
    35  H   12.364462   9.048632   7.026796   5.393269   7.847434
    36  H   11.046767   8.150389   6.466770   3.897487   6.307789
    37  H    9.974769   6.305460   4.149652   4.488038   6.551770
    38  H   10.054749   6.931101   5.135755   3.792575   6.023420
    39  H   11.497322   7.980788   5.840100   5.318433   7.622762
                   31         32         33         34         35
    31  H    0.000000
    32  H    1.763305   0.000000
    33  H    1.773794   1.774984   0.000000
    34  H    2.523896   3.753768   3.166330   0.000000
    35  H    3.109725   3.827339   2.658950   1.769105   0.000000
    36  H    3.739773   4.330447   3.829701   1.763882   1.771963
    37  H    3.814052   2.647107   3.068544   4.344028   3.749681
    38  H    4.332149   3.815389   3.778644   3.767295   3.090192
    39  H    3.788717   3.238059   2.584327   3.748634   2.517910
                   36         37         38         39
    36  H    0.000000
    37  H    3.772913   0.000000
    38  H    2.555439   1.764742   0.000000
    39  H    3.098284   1.762684   1.772043   0.000000
 Stoichiometry    C18H18O3
 Framework group  C1[X(C18H18O3)]
 Deg. of freedom   111
 Full point group                 C1      NOp   1
 Largest Abelian subgroup         C1      NOp   1
 Largest concise Abelian subgroup C1      NOp   1
                         Standard orientation:                         
 ---------------------------------------------------------------------
 Center     Atomic      Atomic             Coordinates (Angstroms)
 Number     Number       Type             X           Y           Z
 ---------------------------------------------------------------------
      1          8           0       -3.024608    2.440301   -0.013976
      2          6           0       -2.778540    1.240044   -0.013506
      3          6           0       -3.906489    0.263400   -0.116287
      4          6           0       -3.777856   -0.974215   -0.763745
      5          6           0       -4.832819   -1.892162   -0.744220
      6          6           0       -6.038086   -1.560597   -0.127890
      7          6           0       -6.196686   -0.304061    0.456018
      8          6           0       -5.135107    0.604673    0.461908
      9          6           0       -1.359792    0.787157    0.128340
     10          6           0       -1.035525   -0.453778    0.696550
     11          6           0        0.296938   -0.868943    0.780661
     12          6           0        1.305261   -0.030493    0.314489
     13          6           0        1.006358    1.242600   -0.166051
     14          6           0       -0.324625    1.649313   -0.267190
     15          8           0        2.630071   -0.463917    0.478805
     16          6           0        3.584750   -0.107550   -0.477043
     17          8           0        3.342261    0.266592   -1.622414
     18          6           0        4.989556   -0.314090    0.084018
     19          6           0        5.364261   -1.778833   -0.154339
     20          6           0        5.970079    0.611269   -0.655856
     21          6           0        5.048056    0.025954    1.583870
     22          1           0       -2.862269   -1.244377   -1.283549
     23          1           0       -4.716376   -2.867422   -1.211730
     24          1           0       -6.857754   -2.275805   -0.110853
     25          1           0       -7.145965   -0.033662    0.911797
     26          1           0       -5.265734    1.577842    0.930136
     27          1           0       -1.807145   -1.106985    1.092900
     28          1           0        0.534870   -1.833288    1.221908
     29          1           0        1.794905    1.926684   -0.465009
     30          1           0       -0.547501    2.642159   -0.650444
     31          1           0        5.402458   -2.002038   -1.227692
     32          1           0        4.620688   -2.453633    0.286950
     33          1           0        6.342063   -2.020817    0.276680
     34          1           0        5.986808    0.400946   -1.731928
     35          1           0        6.991871    0.496870   -0.279213
     36          1           0        5.682771    1.662795   -0.537534
     37          1           0        4.385006   -0.614533    2.176219
     38          1           0        4.741382    1.063311    1.761308
     39          1           0        6.059731   -0.099970    1.982371
 ---------------------------------------------------------------------
 Rotational constants (GHZ):      0.9758653      0.1104750      0.1051894
 Leave Link  202 at Thu Sep 30 21:37:03 2021, MaxMem= 1610612736 cpu:       0.1
 (Enter /sw/target/amd/app/gaussian/Gaussian09RevA.02_gcc-4.9.2/g09/l301.exe)
 Standard basis: 6-31G(d) (6D, 7F)
 Ernie: Thresh=  0.10000D-02 Tol=  0.10000D-05 Strict=F.
 There are   351 symmetry adapted basis functions of A   symmetry.
 Integral buffers will be    131072 words long.
 Raffenetti 2 integral format.
 Two-electron integral symmetry is turned on.
   351 basis functions,   660 primitive gaussians,   351 cartesian basis functions
    75 alpha electrons       75 beta electrons
       nuclear repulsion energy      1524.5845493513 Hartrees.
 IExCor=  402 DFT=T Ex+Corr=B3LYP ExCW=0 ScaHFX=  0.200000
 ScaDFX=  0.800000  0.720000  1.000000  0.810000 ScalE2=  1.000000  1.000000
 IRadAn=      0 IRanWt=     -1 IRanGd=            0 ICorTp=0
 NAtoms=   39 NActive=   39 NUniq=   39 SFac= 7.50D-01 NAtFMM=   80 NAOKFM=F Big=F
 Leave Link  301 at Thu Sep 30 21:37:03 2021, MaxMem= 1610612736 cpu:       0.1
 (Enter /sw/target/amd/app/gaussian/Gaussian09RevA.02_gcc-4.9.2/g09/l302.exe)
 NPDir=0 NMtPBC=     1 NCelOv=     1 NCel=       1 NClECP=     1 NCelD=      1
         NCelK=      1 NCelE2=     1 NClLst=     1 CellRange=     0.0.
 One-electron integrals computed using PRISM.
 NBasis=   351 RedAO= T  NBF=   351
 NBsUse=   351 1.00D-06 NBFU=   351
 Precomputing XC quadrature grid using
 IXCGrd= 2 IRadAn=           0 IRanWt=          -1 IRanGd=           0 AccXCQ= 1.00D-10.
 NRdTot=    2505 NPtTot=      319640 NUsed=      337695 NTot=      337727
 NSgBfM=   343   343   344   344   344 NAtAll=    39    39.
 Leave Link  302 at Thu Sep 30 21:37:09 2021, MaxMem= 1610612736 cpu:       4.0
 (Enter /sw/target/amd/app/gaussian/Gaussian09RevA.02_gcc-4.9.2/g09/l303.exe)
 DipDrv:  MaxL=1.
 Leave Link  303 at Thu Sep 30 21:37:10 2021, MaxMem= 1610612736 cpu:       0.3
 (Enter /sw/target/amd/app/gaussian/Gaussian09RevA.02_gcc-4.9.2/g09/l401.exe)
 Harris functional with IExCor=  402 diagonalized for initial guess.
 ExpMin= 1.61D-01 ExpMax= 5.48D+03 ExpMxC= 8.25D+02 IAcc=1 IRadAn=         1 AccDes= 0.00D+00
 HarFok:  IExCor=  402 AccDes= 0.00D+00 IRadAn=         1 IDoV= 1
 ScaDFX=  1.000000  1.000000  1.000000  1.000000
 FoFCou: FMM=F IPFlag=           0 FMFlag=      100000 FMFlg1=           0
         NFxFlg=           0 DoJE=T BraDBF=F KetDBF=T FulRan=T
         Omega=  0.000000  0.000000  1.000000  0.000000  0.000000 ICntrl=     500 IOpCl=  0
         NMat0=    1 NMatS0=    1 NMatT0=    0 NMatD0=    1 NMtDS0=    0 NMtDT0=    0
         I1Cent=           4 NGrid=           0.
 Petite list used in FoFCou.
 Harris En= -922.580535328314    
 Initial guess orbital symmetries:
       Occupied  (A) (A) (A) (A) (A) (A) (A) (A) (A) (A) (A) (A)
                 (A) (A) (A) (A) (A) (A) (A) (A) (A) (A) (A) (A)
                 (A) (A) (A) (A) (A) (A) (A) (A) (A) (A) (A) (A)
                 (A) (A) (A) (A) (A) (A) (A) (A) (A) (A) (A) (A)
                 (A) (A) (A) (A) (A) (A) (A) (A) (A) (A) (A) (A)
                 (A) (A) (A) (A) (A) (A) (A) (A) (A) (A) (A) (A)
                 (A) (A) (A)
       Virtual   (A) (A) (A) (A) (A) (A) (A) (A) (A) (A) (A) (A)
                 (A) (A) (A) (A) (A) (A) (A) (A) (A) (A) (A) (A)
                 (A) (A) (A) (A) (A) (A) (A) (A) (A) (A) (A) (A)
                 (A) (A) (A) (A) (A) (A) (A) (A) (A) (A) (A) (A)
                 (A) (A) (A) (A) (A) (A) (A) (A) (A) (A) (A) (A)
                 (A) (A) (A) (A) (A) (A) (A) (A) (A) (A) (A) (A)
                 (A) (A) (A) (A) (A) (A) (A) (A) (A) (A) (A) (A)
                 (A) (A) (A) (A) (A) (A) (A) (A) (A) (A) (A) (A)
                 (A) (A) (A) (A) (A) (A) (A) (A) (A) (A) (A) (A)
                 (A) (A) (A) (A) (A) (A) (A) (A) (A) (A) (A) (A)
                 (A) (A) (A) (A) (A) (A) (A) (A) (A) (A) (A) (A)
                 (A) (A) (A) (A) (A) (A) (A) (A) (A) (A) (A) (A)
                 (A) (A) (A) (A) (A) (A) (A) (A) (A) (A) (A) (A)
                 (A) (A) (A) (A) (A) (A) (A) (A) (A) (A) (A) (A)
                 (A) (A) (A) (A) (A) (A) (A) (A) (A) (A) (A) (A)
                 (A) (A) (A) (A) (A) (A) (A) (A) (A) (A) (A) (A)
                 (A) (A) (A) (A) (A) (A) (A) (A) (A) (A) (A) (A)
                 (A) (A) (A) (A) (A) (A) (A) (A) (A) (A) (A) (A)
                 (A) (A) (A) (A) (A) (A) (A) (A) (A) (A) (A) (A)
                 (A) (A) (A) (A) (A) (A) (A) (A) (A) (A) (A) (A)
                 (A) (A) (A) (A) (A) (A) (A) (A) (A) (A) (A) (A)
                 (A) (A) (A) (A) (A) (A) (A) (A) (A) (A) (A) (A)
                 (A) (A) (A) (A) (A) (A) (A) (A) (A) (A) (A) (A)
 The electronic state of the initial guess is 1-A.
 Leave Link  401 at Thu Sep 30 21:37:24 2021, MaxMem= 1610612736 cpu:      15.6
 (Enter /sw/target/amd/app/gaussian/Gaussian09RevA.02_gcc-4.9.2/g09/l502.exe)
 Closed shell SCF:
 Requested convergence on RMS density matrix=1.00D-08 within  64 cycles.
 Requested convergence on MAX density matrix=1.00D-06.
 Requested convergence on             energy=1.00D-06.
 No special actions if energy rises.
 Using DIIS extrapolation, IDIIS=  1040.
 Integral symmetry usage will be decided dynamically.
       337331 words used for storage of precomputed grid.
 IEnd=      717233 IEndB=      717233 NGot=  1610612736 MDV=  1610023280
 LenX=  1610023280 LenY=  1609899638
 Fock matrices will be formed incrementally for  20 cycles.
 Integral accuracy reduced to 1.0D-05 until final iterations.

 Cycle   1  Pass 0  IDiag  1:
 FoFCou: FMM=F IPFlag=           0 FMFlag=      100000 FMFlg1=           0
         NFxFlg=           0 DoJE=F BraDBF=F KetDBF=F FulRan=T
         Omega=  0.000000  0.000000  1.000000  0.000000  0.000000 ICntrl=       0 IOpCl=  0
         NMat0=    1 NMatS0=    1 NMatT0=    0 NMatD0=    1 NMtDS0=    0 NMtDT0=    0
         I1Cent=           0 NGrid=           0.
 Symmetry not used in FoFCou.
 E= -921.862357880526    
 DIIS: error= 4.02D-02 at cycle   1 NSaved=   1.
 NSaved= 1 IEnMin= 1 EnMin= -921.862357880526     IErMin= 1 ErrMin= 4.02D-02
 ErrMax= 4.02D-02 EMaxC= 1.00D-01 BMatC= 5.92D-01 BMatP= 5.92D-01
 IDIUse=3 WtCom= 5.98D-01 WtEn= 4.02D-01
 Coeff-Com:  0.100D+01
 Coeff-En:   0.100D+01
 Coeff:      0.100D+01
 Gap=     0.200 Goal=   None    Shift=    0.000
 GapD=    0.200 DampG=1.000 DampE=0.500 DampFc=0.5000 IDamp=-1.
 Damping current iteration by 5.00D-01
 RMSDP=4.99D-03 MaxDP=2.14D-01              OVMax= 2.19D-01

 Cycle   2  Pass 0  IDiag  1:
 RMSU=  1.74D-03    CP:  9.78D-01
 E= -922.049716112517     Delta-E=       -0.187358231991 Rises=F Damp=T
 DIIS: error= 1.30D-02 at cycle   2 NSaved=   2.
 NSaved= 2 IEnMin= 2 EnMin= -922.049716112517     IErMin= 2 ErrMin= 1.30D-02
 ErrMax= 1.30D-02 EMaxC= 1.00D-01 BMatC= 8.95D-02 BMatP= 5.92D-01
 IDIUse=3 WtCom= 8.70D-01 WtEn= 1.30D-01
 Coeff-Com:  0.201D+00 0.799D+00
 Coeff-En:   0.292D+00 0.708D+00
 Coeff:      0.213D+00 0.787D+00
 Gap=     0.198 Goal=   None    Shift=    0.000
 RMSDP=1.56D-03 MaxDP=7.90D-02 DE=-1.87D-01 OVMax= 1.83D-01

 Cycle   3  Pass 0  IDiag  1:
 RMSU=  1.04D-03    CP:  9.69D-01  8.03D-01
 E= -922.350564230477     Delta-E=       -0.300848117960 Rises=F Damp=F
 DIIS: error= 1.71D-02 at cycle   3 NSaved=   3.
 NSaved= 3 IEnMin= 3 EnMin= -922.350564230477     IErMin= 2 ErrMin= 1.30D-02
 ErrMax= 1.71D-02 EMaxC= 1.00D-01 BMatC= 1.08D-01 BMatP= 8.95D-02
 IDIUse=2 WtCom= 0.00D+00 WtEn= 1.00D+00
 Coeff-En:   0.000D+00 0.000D+00 0.100D+01
 Coeff:      0.000D+00 0.000D+00 0.100D+01
 Gap=     0.217 Goal=   None    Shift=    0.000
 RMSDP=2.86D-03 MaxDP=1.81D-01 DE=-3.01D-01 OVMax= 3.07D-01

 Cycle   4  Pass 0  IDiag  1:
 RMSU=  1.02D-03    CP:  9.77D-01  1.18D+00 -5.43D-01
 E= -921.872372217648     Delta-E=        0.478192012829 Rises=F Damp=F
 DIIS: error= 4.69D-02 at cycle   4 NSaved=   4.
 NSaved= 4 IEnMin= 3 EnMin= -922.350564230477     IErMin= 2 ErrMin= 1.30D-02
 ErrMax= 4.69D-02 EMaxC= 1.00D-01 BMatC= 7.09D-01 BMatP= 8.95D-02
 IDIUse=2 WtCom= 0.00D+00 WtEn= 1.00D+00
 Coeff-En:   0.000D+00 0.000D+00 0.805D+00 0.195D+00
 Coeff:      0.000D+00 0.000D+00 0.805D+00 0.195D+00
 Gap=     0.166 Goal=   None    Shift=    0.000
 RMSDP=1.54D-03 MaxDP=9.52D-02 DE= 4.78D-01 OVMax= 1.67D-01

 Cycle   5  Pass 0  IDiag  1:
 RMSU=  1.97D-04    CP:  9.75D-01  8.97D-01  2.25D-01  4.93D-01
 E= -922.400435188038     Delta-E=       -0.528062970390 Rises=F Damp=F
 DIIS: error= 1.15D-02 at cycle   5 NSaved=   5.
 NSaved= 5 IEnMin= 5 EnMin= -922.400435188038     IErMin= 5 ErrMin= 1.15D-02
 ErrMax= 1.15D-02 EMaxC= 1.00D-01 BMatC= 5.20D-02 BMatP= 8.95D-02
 IDIUse=3 WtCom= 8.85D-01 WtEn= 1.15D-01
 Coeff-Com: -0.332D-02 0.466D-01 0.331D+00-0.766D-01 0.702D+00
 Coeff-En:   0.000D+00 0.000D+00 0.359D+00 0.000D+00 0.641D+00
 Coeff:     -0.294D-02 0.412D-01 0.334D+00-0.679D-01 0.695D+00
 Gap=     0.182 Goal=   None    Shift=    0.000
 RMSDP=5.93D-04 MaxDP=3.14D-02 DE=-5.28D-01 OVMax= 5.11D-02

 Cycle   6  Pass 0  IDiag  1:
 RMSU=  7.20D-05    CP:  9.73D-01  8.43D-01  5.43D-01  2.79D-01  7.34D-01
 E= -922.442903920838     Delta-E=       -0.042468732800 Rises=F Damp=F
 DIIS: error= 8.56D-04 at cycle   6 NSaved=   6.
 NSaved= 6 IEnMin= 6 EnMin= -922.442903920838     IErMin= 6 ErrMin= 8.56D-04
 ErrMax= 8.56D-04 EMaxC= 1.00D-01 BMatC= 5.79D-04 BMatP= 5.20D-02
 IDIUse=3 WtCom= 9.91D-01 WtEn= 8.56D-03
 Coeff-Com: -0.620D-02 0.255D-01 0.173D+00-0.649D-01 0.461D+00 0.412D+00
 Coeff-En:   0.000D+00 0.000D+00 0.000D+00 0.000D+00 0.000D+00 0.100D+01
 Coeff:     -0.615D-02 0.253D-01 0.172D+00-0.643D-01 0.457D+00 0.417D+00
 Gap=     0.177 Goal=   None    Shift=    0.000
 RMSDP=6.68D-05 MaxDP=4.81D-03 DE=-4.25D-02 OVMax= 4.46D-03

 Cycle   7  Pass 0  IDiag  1:
 RMSU=  2.09D-05    CP:  9.73D-01  8.52D-01  5.31D-01  2.87D-01  7.90D-01
                    CP:  5.09D-01
 E= -922.443349423406     Delta-E=       -0.000445502568 Rises=F Damp=F
 DIIS: error= 2.64D-04 at cycle   7 NSaved=   7.
 NSaved= 7 IEnMin= 7 EnMin= -922.443349423406     IErMin= 7 ErrMin= 2.64D-04
 ErrMax= 2.64D-04 EMaxC= 1.00D-01 BMatC= 2.86D-05 BMatP= 5.79D-04
 IDIUse=3 WtCom= 9.97D-01 WtEn= 2.64D-03
 Coeff-Com: -0.163D-02 0.498D-02 0.527D-01-0.211D-01 0.140D+00 0.193D+00
 Coeff-Com:  0.632D+00
 Coeff-En:   0.000D+00 0.000D+00 0.000D+00 0.000D+00 0.000D+00 0.000D+00
 Coeff-En:   0.100D+01
 Coeff:     -0.162D-02 0.496D-02 0.526D-01-0.211D-01 0.140D+00 0.192D+00
 Coeff:      0.633D+00
 Gap=     0.178 Goal=   None    Shift=    0.000
 RMSDP=1.95D-05 MaxDP=1.51D-03 DE=-4.46D-04 OVMax= 1.52D-03

 Cycle   8  Pass 0  IDiag  1:
 RMSU=  8.84D-06    CP:  9.73D-01  8.50D-01  5.36D-01  2.84D-01  7.91D-01
                    CP:  5.51D-01  6.19D-01
 E= -922.443366134421     Delta-E=       -0.000016711015 Rises=F Damp=F
 DIIS: error= 1.09D-04 at cycle   8 NSaved=   8.
 NSaved= 8 IEnMin= 8 EnMin= -922.443366134421     IErMin= 8 ErrMin= 1.09D-04
 ErrMax= 1.09D-04 EMaxC= 1.00D-01 BMatC= 8.54D-06 BMatP= 2.86D-05
 IDIUse=3 WtCom= 9.99D-01 WtEn= 1.09D-03
 Coeff-Com: -0.195D-03 0.124D-04 0.150D-01-0.617D-02 0.369D-01 0.803D-01
 Coeff-Com:  0.451D+00 0.423D+00
 Coeff-En:   0.000D+00 0.000D+00 0.000D+00 0.000D+00 0.000D+00 0.000D+00
 Coeff-En:   0.193D+00 0.807D+00
 Coeff:     -0.195D-03 0.124D-04 0.150D-01-0.616D-02 0.369D-01 0.802D-01
 Coeff:      0.451D+00 0.424D+00
 Gap=     0.177 Goal=   None    Shift=    0.000
 RMSDP=8.22D-06 MaxDP=3.80D-04 DE=-1.67D-05 OVMax= 6.45D-04

 Initial convergence to 1.0D-05 achieved.  Increase integral accuracy.
 Cycle   9  Pass 1  IDiag  1:
 E= -922.443514568490     Delta-E=       -0.000148434069 Rises=F Damp=F
 DIIS: error= 3.40D-05 at cycle   1 NSaved=   1.
 NSaved= 1 IEnMin= 1 EnMin= -922.443514568490     IErMin= 1 ErrMin= 3.40D-05
 ErrMax= 3.40D-05 EMaxC= 1.00D-01 BMatC= 4.31D-07 BMatP= 4.31D-07
 IDIUse=1 WtCom= 1.00D+00 WtEn= 0.00D+00
 Coeff-Com:  0.100D+01
 Coeff:      0.100D+01
 Gap=     0.178 Goal=   None    Shift=    0.000
 RMSDP=8.22D-06 MaxDP=3.80D-04 DE=-1.48D-04 OVMax= 3.07D-04

 Cycle  10  Pass 1  IDiag  1:
 RMSU=  9.04D-06    CP:  1.00D+00
 E= -922.443514283839     Delta-E=        0.000000284651 Rises=F Damp=F
 DIIS: error= 4.03D-05 at cycle   2 NSaved=   2.
 NSaved= 2 IEnMin= 1 EnMin= -922.443514568490     IErMin= 1 ErrMin= 3.40D-05
 ErrMax= 4.03D-05 EMaxC= 1.00D-01 BMatC= 8.06D-07 BMatP= 4.31D-07
 IDIUse=1 WtCom= 1.00D+00 WtEn= 0.00D+00
 Coeff-Com:  0.593D+00 0.407D+00
 Coeff:      0.593D+00 0.407D+00
 Gap=     0.177 Goal=   None    Shift=    0.000
 RMSDP=3.20D-06 MaxDP=1.77D-04 DE= 2.85D-07 OVMax= 2.49D-04

 Cycle  11  Pass 1  IDiag  1:
 RMSU=  2.19D-06    CP:  1.00D+00  9.37D-01
 E= -922.443514934987     Delta-E=       -0.000000651148 Rises=F Damp=F
 DIIS: error= 1.34D-05 at cycle   3 NSaved=   3.
 NSaved= 3 IEnMin= 3 EnMin= -922.443514934987     IErMin= 3 ErrMin= 1.34D-05
 ErrMax= 1.34D-05 EMaxC= 1.00D-01 BMatC= 8.93D-08 BMatP= 4.31D-07
 IDIUse=1 WtCom= 1.00D+00 WtEn= 0.00D+00
 Coeff-Com:  0.987D-01 0.249D+00 0.653D+00
 Coeff:      0.987D-01 0.249D+00 0.653D+00
 Gap=     0.177 Goal=   None    Shift=    0.000
 RMSDP=1.07D-06 MaxDP=8.14D-05 DE=-6.51D-07 OVMax= 6.53D-05

 Cycle  12  Pass 1  IDiag  1:
 RMSU=  5.41D-07    CP:  1.00D+00  9.58D-01  7.74D-01
 E= -922.443514995830     Delta-E=       -0.000000060843 Rises=F Damp=F
 DIIS: error= 4.60D-06 at cycle   4 NSaved=   4.
 NSaved= 4 IEnMin= 4 EnMin= -922.443514995830     IErMin= 4 ErrMin= 4.60D-06
 ErrMax= 4.60D-06 EMaxC= 1.00D-01 BMatC= 1.86D-08 BMatP= 8.93D-08
 IDIUse=1 WtCom= 1.00D+00 WtEn= 0.00D+00
 Coeff-Com: -0.322D-02 0.116D+00 0.423D+00 0.464D+00
 Coeff:     -0.322D-02 0.116D+00 0.423D+00 0.464D+00
 Gap=     0.177 Goal=   None    Shift=    0.000
 RMSDP=4.24D-07 MaxDP=2.64D-05 DE=-6.08D-08 OVMax= 3.12D-05

 Cycle  13  Pass 1  IDiag  1:
 RMSU=  1.19D-07    CP:  1.00D+00  9.61D-01  7.85D-01  4.96D-01
 E= -922.443515011435     Delta-E=       -0.000000015606 Rises=F Damp=F
 DIIS: error= 8.45D-07 at cycle   5 NSaved=   5.
 NSaved= 5 IEnMin= 5 EnMin= -922.443515011435     IErMin= 5 ErrMin= 8.45D-07
 ErrMax= 8.45D-07 EMaxC= 1.00D-01 BMatC= 6.39D-10 BMatP= 1.86D-08
 IDIUse=1 WtCom= 1.00D+00 WtEn= 0.00D+00
 Coeff-Com: -0.651D-02 0.548D-01 0.212D+00 0.265D+00 0.475D+00
 Coeff:     -0.651D-02 0.548D-01 0.212D+00 0.265D+00 0.475D+00
 Gap=     0.177 Goal=   None    Shift=    0.000
 RMSDP=8.46D-08 MaxDP=3.14D-06 DE=-1.56D-08 OVMax= 5.35D-06

 Cycle  14  Pass 1  IDiag  1:
 RMSU=  4.31D-08    CP:  1.00D+00  9.62D-01  7.85D-01  5.07D-01  6.58D-01
 E= -922.443515012050     Delta-E=       -0.000000000614 Rises=F Damp=F
 DIIS: error= 2.10D-07 at cycle   6 NSaved=   6.
 NSaved= 6 IEnMin= 6 EnMin= -922.443515012050     IErMin= 6 ErrMin= 2.10D-07
 ErrMax= 2.10D-07 EMaxC= 1.00D-01 BMatC= 4.81D-11 BMatP= 6.39D-10
 IDIUse=1 WtCom= 1.00D+00 WtEn= 0.00D+00
 Coeff-Com: -0.335D-02 0.214D-01 0.858D-01 0.113D+00 0.269D+00 0.515D+00
 Coeff:     -0.335D-02 0.214D-01 0.858D-01 0.113D+00 0.269D+00 0.515D+00
 Gap=     0.177 Goal=   None    Shift=    0.000
 RMSDP=2.27D-08 MaxDP=1.07D-06 DE=-6.14D-10 OVMax= 1.65D-06

 Cycle  15  Pass 1  IDiag  1:
 RMSU=  1.26D-08    CP:  1.00D+00  9.62D-01  7.85D-01  5.07D-01  6.86D-01
                    CP:  7.84D-01
 E= -922.443515012162     Delta-E=       -0.000000000113 Rises=F Damp=F
 DIIS: error= 6.82D-08 at cycle   7 NSaved=   7.
 NSaved= 7 IEnMin= 7 EnMin= -922.443515012162     IErMin= 7 ErrMin= 6.82D-08
 ErrMax= 6.82D-08 EMaxC= 1.00D-01 BMatC= 3.94D-12 BMatP= 4.81D-11
 IDIUse=1 WtCom= 1.00D+00 WtEn= 0.00D+00
 Coeff-Com: -0.811D-03 0.341D-02 0.152D-01 0.217D-01 0.704D-01 0.260D+00
 Coeff-Com:  0.630D+00
 Coeff:     -0.811D-03 0.341D-02 0.152D-01 0.217D-01 0.704D-01 0.260D+00
 Coeff:      0.630D+00
 Gap=     0.177 Goal=   None    Shift=    0.000
 RMSDP=7.26D-09 MaxDP=4.02D-07 DE=-1.13D-10 OVMax= 6.08D-07

 SCF Done:  E(RB3LYP) =  -922.443515012     A.U. after   15 cycles
             Convg  =    0.7260D-08             -V/T =  2.0097
 KE= 9.136259500633D+02 PE=-5.193296865482D+03 EE= 1.832642851055D+03
 Leave Link  502 at Thu Sep 30 21:46:47 2021, MaxMem= 1610612736 cpu:     686.5
 (Enter /sw/target/amd/app/gaussian/Gaussian09RevA.02_gcc-4.9.2/g09/l508.exe)
 QCSCF skips out because SCF is already converged.
 Leave Link  508 at Thu Sep 30 21:46:47 2021, MaxMem= 1610612736 cpu:       0.0
 (Enter /sw/target/amd/app/gaussian/Gaussian09RevA.02_gcc-4.9.2/g09/l601.exe)
 Copying SCF densities to generalized density rwf, IOpCl= 0 IROHF=0.

 **********************************************************************

            Population analysis using the SCF density.

 **********************************************************************

 Orbital symmetries:
       Occupied  (A) (A) (A) (A) (A) (A) (A) (A) (A) (A) (A) (A)
                 (A) (A) (A) (A) (A) (A) (A) (A) (A) (A) (A) (A)
                 (A) (A) (A) (A) (A) (A) (A) (A) (A) (A) (A) (A)
                 (A) (A) (A) (A) (A) (A) (A) (A) (A) (A) (A) (A)
                 (A) (A) (A) (A) (A) (A) (A) (A) (A) (A) (A) (A)
                 (A) (A) (A) (A) (A) (A) (A) (A) (A) (A) (A) (A)
                 (A) (A) (A)
       Virtual   (A) (A) (A) (A) (A) (A) (A) (A) (A) (A) (A) (A)
                 (A) (A) (A) (A) (A) (A) (A) (A) (A) (A) (A) (A)
                 (A) (A) (A) (A) (A) (A) (A) (A) (A) (A) (A) (A)
                 (A) (A) (A) (A) (A) (A) (A) (A) (A) (A) (A) (A)
                 (A) (A) (A) (A) (A) (A) (A) (A) (A) (A) (A) (A)
                 (A) (A) (A) (A) (A) (A) (A) (A) (A) (A) (A) (A)
                 (A) (A) (A) (A) (A) (A) (A) (A) (A) (A) (A) (A)
                 (A) (A) (A) (A) (A) (A) (A) (A) (A) (A) (A) (A)
                 (A) (A) (A) (A) (A) (A) (A) (A) (A) (A) (A) (A)
                 (A) (A) (A) (A) (A) (A) (A) (A) (A) (A) (A) (A)
                 (A) (A) (A) (A) (A) (A) (A) (A) (A) (A) (A) (A)
                 (A) (A) (A) (A) (A) (A) (A) (A) (A) (A) (A) (A)
                 (A) (A) (A) (A) (A) (A) (A) (A) (A) (A) (A) (A)
                 (A) (A) (A) (A) (A) (A) (A) (A) (A) (A) (A) (A)
                 (A) (A) (A) (A) (A) (A) (A) (A) (A) (A) (A) (A)
                 (A) (A) (A) (A) (A) (A) (A) (A) (A) (A) (A) (A)
                 (A) (A) (A) (A) (A) (A) (A) (A) (A) (A) (A) (A)
                 (A) (A) (A) (A) (A) (A) (A) (A) (A) (A) (A) (A)
                 (A) (A) (A) (A) (A) (A) (A) (A) (A) (A) (A) (A)
                 (A) (A) (A) (A) (A) (A) (A) (A) (A) (A) (A) (A)
                 (A) (A) (A) (A) (A) (A) (A) (A) (A) (A) (A) (A)
                 (A) (A) (A) (A) (A) (A) (A) (A) (A) (A) (A) (A)
                 (A) (A) (A) (A) (A) (A) (A) (A) (A) (A) (A) (A)
 The electronic state is 1-A.
 Alpha  occ. eigenvalues --  -19.21318 -19.15355 -19.13056 -10.33030 -10.27299
 Alpha  occ. eigenvalues --  -10.26722 -10.21964 -10.20803 -10.20449 -10.20431
 Alpha  occ. eigenvalues --  -10.20378 -10.20292 -10.20228 -10.20225 -10.20094
 Alpha  occ. eigenvalues --  -10.19912 -10.19843 -10.19764 -10.18891 -10.18327
 Alpha  occ. eigenvalues --  -10.18066  -1.10680  -1.03161  -1.02715  -0.86944
 Alpha  occ. eigenvalues --   -0.86123  -0.83175  -0.77828  -0.76269  -0.75535
 Alpha  occ. eigenvalues --   -0.75100  -0.69896  -0.69282  -0.67750  -0.64130
 Alpha  occ. eigenvalues --   -0.62341  -0.61268  -0.60198  -0.56328  -0.56161
 Alpha  occ. eigenvalues --   -0.52985  -0.49986  -0.49366  -0.48282  -0.47960
 Alpha  occ. eigenvalues --   -0.46096  -0.45909  -0.45289  -0.44729  -0.43799
 Alpha  occ. eigenvalues --   -0.43540  -0.43382  -0.42956  -0.42735  -0.40838
 Alpha  occ. eigenvalues --   -0.40083  -0.39759  -0.39196  -0.38521  -0.37513
 Alpha  occ. eigenvalues --   -0.37268  -0.36867  -0.36402  -0.35640  -0.35467
 Alpha  occ. eigenvalues --   -0.34875  -0.34086  -0.33609  -0.32472  -0.28114
 Alpha  occ. eigenvalues --   -0.26382  -0.26117  -0.25760  -0.25071  -0.23997
 Alpha virt. eigenvalues --   -0.06249  -0.02386  -0.01530  -0.00595  -0.00206
 Alpha virt. eigenvalues --    0.05762   0.07818   0.08794   0.09294   0.12085
 Alpha virt. eigenvalues --    0.13200   0.13917   0.14298   0.14349   0.14689
 Alpha virt. eigenvalues --    0.15020   0.15350   0.15638   0.16336   0.17077
 Alpha virt. eigenvalues --    0.17728   0.18198   0.18234   0.18560   0.19131
 Alpha virt. eigenvalues --    0.19587   0.21201   0.21656   0.22696   0.23431
 Alpha virt. eigenvalues --    0.23992   0.25321   0.27249   0.27413   0.29254
 Alpha virt. eigenvalues --    0.30195   0.30545   0.31635   0.32320   0.33459
 Alpha virt. eigenvalues --    0.34584   0.35643   0.39003   0.39806   0.46560
 Alpha virt. eigenvalues --    0.48605   0.49066   0.49651   0.50236   0.50352
 Alpha virt. eigenvalues --    0.51329   0.52375   0.52644   0.52918   0.53591
 Alpha virt. eigenvalues --    0.54298   0.55126   0.55790   0.56908   0.57825
 Alpha virt. eigenvalues --    0.58002   0.58245   0.58805   0.59505   0.59724
 Alpha virt. eigenvalues --    0.60125   0.60236   0.60446   0.61483   0.62354
 Alpha virt. eigenvalues --    0.62597   0.63356   0.63964   0.64501   0.66038
 Alpha virt. eigenvalues --    0.67271   0.67754   0.68685   0.69690   0.70021
 Alpha virt. eigenvalues --    0.70487   0.71883   0.73847   0.74459   0.74647
 Alpha virt. eigenvalues --    0.77145   0.79752   0.80818   0.82047   0.82294
 Alpha virt. eigenvalues --    0.82892   0.83176   0.83534   0.84131   0.85064
 Alpha virt. eigenvalues --    0.85252   0.85578   0.86826   0.87205   0.88021
 Alpha virt. eigenvalues --    0.88499   0.89357   0.89370   0.90122   0.90395
 Alpha virt. eigenvalues --    0.91967   0.92644   0.92971   0.93557   0.94073
 Alpha virt. eigenvalues --    0.95098   0.96489   0.97435   0.97883   0.98086
 Alpha virt. eigenvalues --    0.99201   1.00323   1.02022   1.02395   1.03229
 Alpha virt. eigenvalues --    1.04306   1.07836   1.08402   1.08756   1.11774
 Alpha virt. eigenvalues --    1.12550   1.12952   1.13754   1.14812   1.16320
 Alpha virt. eigenvalues --    1.17059   1.17945   1.20492   1.22160   1.24510
 Alpha virt. eigenvalues --    1.26295   1.26799   1.28369   1.30174   1.32574
 Alpha virt. eigenvalues --    1.34787   1.37530   1.39895   1.40620   1.42174
 Alpha virt. eigenvalues --    1.42954   1.44448   1.46421   1.47180   1.47949
 Alpha virt. eigenvalues --    1.48321   1.48927   1.49691   1.50473   1.51031
 Alpha virt. eigenvalues --    1.51627   1.52809   1.53309   1.61879   1.63437
 Alpha virt. eigenvalues --    1.65612   1.68100   1.71258   1.73440   1.74062
 Alpha virt. eigenvalues --    1.75167   1.76135   1.76840   1.77459   1.78842
 Alpha virt. eigenvalues --    1.79920   1.81718   1.82514   1.83370   1.85018
 Alpha virt. eigenvalues --    1.86377   1.87273   1.87372   1.88525   1.89340
 Alpha virt. eigenvalues --    1.90985   1.91532   1.93462   1.94204   1.96669
 Alpha virt. eigenvalues --    1.97279   1.98228   1.99494   2.00708   2.02668
 Alpha virt. eigenvalues --    2.02823   2.04432   2.05329   2.05842   2.07969
 Alpha virt. eigenvalues --    2.09296   2.10439   2.12191   2.13566   2.13939
 Alpha virt. eigenvalues --    2.14486   2.14512   2.15596   2.17751   2.19695
 Alpha virt. eigenvalues --    2.21059   2.24316   2.25575   2.26162   2.26992
 Alpha virt. eigenvalues --    2.28263   2.28719   2.29418   2.29620   2.30214
 Alpha virt. eigenvalues --    2.31762   2.32932   2.35460   2.38809   2.40115
 Alpha virt. eigenvalues --    2.41695   2.47172   2.49909   2.51071   2.53563
 Alpha virt. eigenvalues --    2.56092   2.57184   2.58150   2.59212   2.60458
 Alpha virt. eigenvalues --    2.63389   2.63813   2.64675   2.65788   2.68368
 Alpha virt. eigenvalues --    2.71166   2.72122   2.73111   2.73675   2.75128
 Alpha virt. eigenvalues --    2.76705   2.79009   2.80394   2.83953   2.87557
 Alpha virt. eigenvalues --    2.89672   2.96082   2.96863   2.98281   3.07020
 Alpha virt. eigenvalues --    3.11427   3.15079   3.25171   3.40125   3.43298
 Alpha virt. eigenvalues --    3.98323   4.07035   4.08303   4.08984   4.10975
 Alpha virt. eigenvalues --    4.12639   4.14680   4.15160   4.17637   4.29239
 Alpha virt. eigenvalues --    4.30867   4.32108   4.32952   4.34916   4.35063
 Alpha virt. eigenvalues --    4.40250   4.46289   4.53713   4.67934   4.71751
 Alpha virt. eigenvalues --    4.78372
          Condensed to atoms (all electrons):
              1          2          3          4          5          6
     1  O    8.072073   0.551983  -0.097232   0.002387  -0.000075  -0.000012
     2  C    0.551983   4.700711   0.286222  -0.042306   0.004213   0.000353
     3  C   -0.097232   0.286222   4.981605   0.508711  -0.016395  -0.034093
     4  C    0.002387  -0.042306   0.508711   5.007535   0.514712  -0.037126
     5  C   -0.000075   0.004213  -0.016395   0.514712   4.874704   0.550565
     6  C   -0.000012   0.000353  -0.034093  -0.037126   0.550565   4.847470
     7  C    0.000739   0.005444  -0.022051  -0.042741  -0.027549   0.541190
     8  C    0.003203  -0.023739   0.497063  -0.057732  -0.041846  -0.032631
     9  C   -0.098974   0.286886  -0.105529  -0.007534   0.000231  -0.000005
    10  C    0.002774  -0.039771  -0.007792  -0.004038  -0.000297  -0.000008
    11  C   -0.000071   0.004318   0.000319   0.000046  -0.000025  -0.000001
    12  C   -0.000013   0.000308  -0.000021  -0.000008  -0.000000   0.000000
    13  C    0.000924   0.005588  -0.000078  -0.000008  -0.000000   0.000000
    14  C    0.003753  -0.024724   0.009156   0.000062   0.000010   0.000000
    15  O    0.000000  -0.000000  -0.000000   0.000000   0.000000  -0.000000
    16  C    0.000000   0.000000  -0.000000   0.000000   0.000000  -0.000000
    17  O   -0.000000   0.000000  -0.000000   0.000000  -0.000000  -0.000000
    18  C   -0.000000  -0.000000  -0.000000   0.000000   0.000000  -0.000000
    19  C   -0.000000   0.000000   0.000000  -0.000000  -0.000000   0.000000
    20  C   -0.000000   0.000000  -0.000000   0.000000   0.000000  -0.000000
    21  C   -0.000000   0.000000   0.000000  -0.000000  -0.000000   0.000000
    22  H    0.000029  -0.006792  -0.043003   0.355694  -0.042141   0.004509
    23  H    0.000000  -0.000129   0.003463  -0.039108   0.358474  -0.042788
    24  H    0.000000   0.000005   0.000523   0.005010  -0.042991   0.359602
    25  H    0.000002  -0.000141   0.003812   0.000776   0.004642  -0.043760
    26  H    0.010996  -0.007816  -0.044642   0.005959   0.000281   0.004518
    27  H    0.000018  -0.008339   0.006584   0.005694   0.000595  -0.000010
    28  H    0.000000  -0.000113   0.000007  -0.000006   0.000000   0.000000
    29  H    0.000002  -0.000115   0.000002   0.000000   0.000000   0.000000
    30  H    0.012078  -0.007735   0.000560  -0.000022   0.000000   0.000000
    31  H    0.000000  -0.000000   0.000000   0.000000  -0.000000   0.000000
    32  H    0.000000  -0.000000  -0.000000   0.000000   0.000000  -0.000000
    33  H    0.000000  -0.000000  -0.000000   0.000000   0.000000  -0.000000
    34  H    0.000000  -0.000000   0.000000   0.000000   0.000000   0.000000
    35  H   -0.000000  -0.000000   0.000000   0.000000  -0.000000   0.000000
    36  H    0.000000  -0.000000   0.000000  -0.000000  -0.000000   0.000000
    37  H    0.000000   0.000000  -0.000000   0.000000   0.000000  -0.000000
    38  H    0.000000   0.000000   0.000000  -0.000000   0.000000   0.000000
    39  H   -0.000000   0.000000   0.000000  -0.000000  -0.000000   0.000000
              7          8          9         10         11         12
     1  O    0.000739   0.003203  -0.098974   0.002774  -0.000071  -0.000013
     2  C    0.005444  -0.023739   0.286886  -0.039771   0.004318   0.000308
     3  C   -0.022051   0.497063  -0.105529  -0.007792   0.000319  -0.000021
     4  C   -0.042741  -0.057732  -0.007534  -0.004038   0.000046  -0.000008
     5  C   -0.027549  -0.041846   0.000231  -0.000297  -0.000025  -0.000000
     6  C    0.541190  -0.032631  -0.000005  -0.000008  -0.000001   0.000000
     7  C    4.893696   0.506392  -0.000067  -0.000011  -0.000000   0.000000
     8  C    0.506392   4.965889   0.008029   0.000211   0.000011   0.000000
     9  C   -0.000067   0.008029   4.994228   0.509574  -0.023854  -0.031118
    10  C   -0.000011   0.000211   0.509574   5.026358   0.485793  -0.017728
    11  C   -0.000000   0.000011  -0.023854   0.485793   5.007922   0.540362
    12  C    0.000000   0.000000  -0.031118  -0.017728   0.540362   4.518362
    13  C   -0.000000  -0.000000  -0.026110  -0.038340  -0.064961   0.499301
    14  C   -0.000000  -0.000231   0.483334  -0.061009  -0.037451  -0.008748
    15  O   -0.000000   0.000000   0.000044   0.003369  -0.047969   0.200002
    16  C    0.000000  -0.000000   0.000027  -0.000023   0.000292  -0.006955
    17  O    0.000000   0.000000   0.000005   0.000006  -0.000020  -0.000414
    18  C    0.000000   0.000000   0.000000   0.000006  -0.000431   0.004689
    19  C   -0.000000  -0.000000   0.000000  -0.000000   0.000022  -0.000168
    20  C    0.000000   0.000000   0.000000  -0.000000   0.000003  -0.000062
    21  C   -0.000000  -0.000000   0.000000  -0.000001  -0.000006  -0.000125
    22  H    0.000368   0.005523   0.005229   0.004291   0.000285  -0.000012
    23  H    0.004623   0.000788   0.000004  -0.000009   0.000000   0.000000
    24  H   -0.042956   0.004604  -0.000000   0.000000  -0.000000   0.000000
    25  H    0.360033  -0.039670   0.000002  -0.000000   0.000000   0.000000
    26  H   -0.043065   0.357629   0.000658  -0.000030   0.000001   0.000000
    27  H   -0.000041  -0.000371  -0.038116   0.352432  -0.038234   0.003412
    28  H   -0.000000  -0.000000   0.003616  -0.038115   0.349666  -0.037325
    29  H    0.000000  -0.000000   0.003471   0.000493   0.005288  -0.037920
    30  H   -0.000000  -0.000011  -0.040924   0.005641   0.000419   0.003299
    31  H    0.000000  -0.000000  -0.000000  -0.000000  -0.000000  -0.000014
    32  H    0.000000  -0.000000   0.000000   0.000000   0.000006  -0.000045
    33  H    0.000000   0.000000   0.000000   0.000000  -0.000000   0.000005
    34  H   -0.000000  -0.000000  -0.000000  -0.000000  -0.000000  -0.000006
    35  H    0.000000   0.000000  -0.000000   0.000000  -0.000000   0.000000
    36  H   -0.000000  -0.000000   0.000000  -0.000000   0.000000  -0.000006
    37  H    0.000000  -0.000000   0.000000  -0.000000   0.000000   0.000264
    38  H   -0.000000   0.000000   0.000000  -0.000000   0.000005   0.000014
    39  H   -0.000000  -0.000000  -0.000000   0.000000  -0.000000  -0.000007
             13         14         15         16         17         18
     1  O    0.000924   0.003753   0.000000   0.000000  -0.000000  -0.000000
     2  C    0.005588  -0.024724  -0.000000   0.000000   0.000000  -0.000000
     3  C   -0.000078   0.009156  -0.000000  -0.000000  -0.000000  -0.000000
     4  C   -0.000008   0.000062   0.000000   0.000000   0.000000   0.000000
     5  C   -0.000000   0.000010   0.000000   0.000000  -0.000000   0.000000
     6  C    0.000000   0.000000  -0.000000  -0.000000  -0.000000  -0.000000
     7  C   -0.000000  -0.000000  -0.000000   0.000000   0.000000   0.000000
     8  C   -0.000000  -0.000231   0.000000  -0.000000   0.000000   0.000000
     9  C   -0.026110   0.483334   0.000044   0.000027   0.000005   0.000000
    10  C   -0.038340  -0.061009   0.003369  -0.000023   0.000006   0.000006
    11  C   -0.064961  -0.037451  -0.047969   0.000292  -0.000020  -0.000431
    12  C    0.499301  -0.008748   0.200002  -0.006955  -0.000414   0.004689
    13  C    5.033836   0.466438  -0.048546  -0.000771   0.000686   0.000285
    14  C    0.466438   5.005374   0.003751   0.000203  -0.000215  -0.000005
    15  O   -0.048546   0.003751   8.367853   0.217091  -0.064962  -0.095368
    16  C   -0.000771   0.000203   0.217091   4.417030   0.526562   0.347407
    17  O    0.000686  -0.000215  -0.064962   0.526562   8.062867  -0.077439
    18  C    0.000285  -0.000005  -0.095368   0.347407  -0.077439   4.990798
    19  C   -0.000008   0.000000  -0.001376  -0.036478  -0.001795   0.366491
    20  C   -0.000021  -0.000001   0.002806  -0.046108   0.000002   0.374622
    21  C   -0.000109  -0.000000   0.000578  -0.043837   0.002414   0.353135
    22  H   -0.000018  -0.000290   0.000000   0.000000   0.000000  -0.000000
    23  H   -0.000000  -0.000000   0.000000  -0.000000   0.000000   0.000000
    24  H   -0.000000   0.000000  -0.000000  -0.000000   0.000000  -0.000000
    25  H    0.000000  -0.000000   0.000000   0.000000   0.000000   0.000000
    26  H   -0.000000  -0.000015   0.000000  -0.000000   0.000000  -0.000000
    27  H    0.000216   0.005787  -0.000051  -0.000000  -0.000000  -0.000000
    28  H    0.006143   0.000300  -0.001460  -0.000013   0.000005  -0.000004
    29  H    0.352105  -0.035761  -0.007009   0.004078   0.005152  -0.000473
    30  H   -0.038436   0.356073  -0.000043  -0.000012  -0.000005  -0.000000
    31  H   -0.000000   0.000000   0.000044  -0.003195   0.002165  -0.031567
    32  H    0.000005  -0.000000   0.004378  -0.006004  -0.000131  -0.031366
    33  H    0.000000  -0.000000  -0.000073   0.004229  -0.000055  -0.029394
    34  H    0.000002   0.000000   0.000081  -0.005983   0.006288  -0.025295
    35  H    0.000000   0.000000  -0.000041   0.005003   0.000387  -0.029482
    36  H   -0.000019   0.000000   0.000054  -0.003739   0.001126  -0.030807
    37  H    0.000027  -0.000001   0.005906  -0.007914   0.000010  -0.023565
    38  H    0.000049   0.000001   0.000561  -0.002153   0.000128  -0.033337
    39  H    0.000000   0.000000   0.000449   0.003973  -0.000053  -0.025725
             19         20         21         22         23         24
     1  O   -0.000000  -0.000000  -0.000000   0.000029   0.000000   0.000000
     2  C    0.000000   0.000000   0.000000  -0.006792  -0.000129   0.000005
     3  C    0.000000  -0.000000   0.000000  -0.043003   0.003463   0.000523
     4  C   -0.000000   0.000000  -0.000000   0.355694  -0.039108   0.005010
     5  C   -0.000000   0.000000  -0.000000  -0.042141   0.358474  -0.042991
     6  C    0.000000  -0.000000   0.000000   0.004509  -0.042788   0.359602
     7  C   -0.000000   0.000000  -0.000000   0.000368   0.004623  -0.042956
     8  C   -0.000000   0.000000  -0.000000   0.005523   0.000788   0.004604
     9  C    0.000000   0.000000   0.000000   0.005229   0.000004  -0.000000
    10  C   -0.000000  -0.000000  -0.000001   0.004291  -0.000009   0.000000
[...]
   103    C    7  dyz    Ryd( 3d)     0.00051
   104    C    7  dx2y2  Ryd( 3d)     0.00074
   105    C    7  dz2    Ryd( 3d)     0.00042

   106    C    8  S      Cor( 1S)     1.99904
   107    C    8  S      Val( 2S)     0.95043
   108    C    8  S      Ryd( 3S)     0.00066
   109    C    8  S      Ryd( 4S)     0.00005
   110    C    8  px     Val( 2p)     1.04875
   111    C    8  px     Ryd( 3p)     0.00390
   112    C    8  py     Val( 2p)     1.17349
   113    C    8  py     Ryd( 3p)     0.00452
   114    C    8  pz     Val( 2p)     1.03559
   115    C    8  pz     Ryd( 3p)     0.00212
   116    C    8  dxy    Ryd( 3d)     0.00053
   117    C    8  dxz    Ryd( 3d)     0.00056
   118    C    8  dyz    Ryd( 3d)     0.00053
   119    C    8  dx2y2  Ryd( 3d)     0.00077
   120    C    8  dz2    Ryd( 3d)     0.00036

   121    C    9  S      Cor( 1S)     1.99889
   122    C    9  S      Val( 2S)     0.88813
   123    C    9  S      Ryd( 3S)     0.00068
   124    C    9  S      Ryd( 4S)     0.00006
   125    C    9  px     Val( 2p)     1.03006
   126    C    9  px     Ryd( 3p)     0.00479
   127    C    9  py     Val( 2p)     1.10182
   128    C    9  py     Ryd( 3p)     0.00484
   129    C    9  pz     Val( 2p)     1.09495
   130    C    9  pz     Ryd( 3p)     0.00153
   131    C    9  dxy    Ryd( 3d)     0.00061
   132    C    9  dxz    Ryd( 3d)     0.00079
   133    C    9  dyz    Ryd( 3d)     0.00048
   134    C    9  dx2y2  Ryd( 3d)     0.00071
   135    C    9  dz2    Ryd( 3d)     0.00049

   136    C   10  S      Cor( 1S)     1.99904
   137    C   10  S      Val( 2S)     0.94860
   138    C   10  S      Ryd( 3S)     0.00070
   139    C   10  S      Ryd( 4S)     0.00005
   140    C   10  px     Val( 2p)     1.12503
   141    C   10  px     Ryd( 3p)     0.00389
   142    C   10  py     Val( 2p)     1.10370
   143    C   10  py     Ryd( 3p)     0.00389
   144    C   10  pz     Val( 2p)     1.02649
   145    C   10  pz     Ryd( 3p)     0.00176
   146    C   10  dxy    Ryd( 3d)     0.00076
   147    C   10  dxz    Ryd( 3d)     0.00064
   148    C   10  dyz    Ryd( 3d)     0.00049
   149    C   10  dx2y2  Ryd( 3d)     0.00056
   150    C   10  dz2    Ryd( 3d)     0.00040

   151    C   11  S      Cor( 1S)     1.99900
   152    C   11  S      Val( 2S)     0.96112
   153    C   11  S      Ryd( 3S)     0.00077
   154    C   11  S      Ryd( 4S)     0.00005
   155    C   11  px     Val( 2p)     1.07301
   156    C   11  px     Ryd( 3p)     0.00479
   157    C   11  py     Val( 2p)     1.15269
   158    C   11  py     Ryd( 3p)     0.00403
   159    C   11  pz     Val( 2p)     1.05778
   160    C   11  pz     Ryd( 3p)     0.00161
   161    C   11  dxy    Ryd( 3d)     0.00076
   162    C   11  dxz    Ryd( 3d)     0.00062
   163    C   11  dyz    Ryd( 3d)     0.00054
   164    C   11  dx2y2  Ryd( 3d)     0.00051
   165    C   11  dz2    Ryd( 3d)     0.00040

   166    C   12  S      Cor( 1S)     1.99872
   167    C   12  S      Val( 2S)     0.83568
   168    C   12  S      Ryd( 3S)     0.00129
   169    C   12  S      Ryd( 4S)     0.00011
   170    C   12  px     Val( 2p)     0.75840
   171    C   12  px     Ryd( 3p)     0.00638
   172    C   12  py     Val( 2p)     1.05549
   173    C   12  py     Ryd( 3p)     0.00405
   174    C   12  pz     Val( 2p)     1.03979
   175    C   12  pz     Ryd( 3p)     0.00441
   176    C   12  dxy    Ryd( 3d)     0.00155
   177    C   12  dxz    Ryd( 3d)     0.00128
   178    C   12  dyz    Ryd( 3d)     0.00052
   179    C   12  dx2y2  Ryd( 3d)     0.00153
   180    C   12  dz2    Ryd( 3d)     0.00071

   181    C   13  S      Cor( 1S)     1.99900
   182    C   13  S      Val( 2S)     0.96243
   183    C   13  S      Ryd( 3S)     0.00074
   184    C   13  S      Ryd( 4S)     0.00005
   185    C   13  px     Val( 2p)     1.13681
   186    C   13  px     Ryd( 3p)     0.00426
   187    C   13  py     Val( 2p)     1.11227
   188    C   13  py     Ryd( 3p)     0.00409
   189    C   13  pz     Val( 2p)     1.03014
   190    C   13  pz     Ryd( 3p)     0.00134
   191    C   13  dxy    Ryd( 3d)     0.00073
   192    C   13  dxz    Ryd( 3d)     0.00057
   193    C   13  dyz    Ryd( 3d)     0.00051
   194    C   13  dx2y2  Ryd( 3d)     0.00060
   195    C   13  dz2    Ryd( 3d)     0.00048

   196    C   14  S      Cor( 1S)     1.99905
   197    C   14  S      Val( 2S)     0.94795
   198    C   14  S      Ryd( 3S)     0.00068
   199    C   14  S      Ryd( 4S)     0.00005
   200    C   14  px     Val( 2p)     1.06649
   201    C   14  px     Ryd( 3p)     0.00412
   202    C   14  py     Val( 2p)     1.15404
   203    C   14  py     Ryd( 3p)     0.00447
   204    C   14  pz     Val( 2p)     1.03053
   205    C   14  pz     Ryd( 3p)     0.00209
   206    C   14  dxy    Ryd( 3d)     0.00070
   207    C   14  dxz    Ryd( 3d)     0.00064
   208    C   14  dyz    Ryd( 3d)     0.00048
   209    C   14  dx2y2  Ryd( 3d)     0.00061
   210    C   14  dz2    Ryd( 3d)     0.00037

   211    O   15  S      Cor( 1S)     1.99969
   212    O   15  S      Val( 2S)     1.59390
   213    O   15  S      Ryd( 3S)     0.00132
   214    O   15  S      Ryd( 4S)     0.00009
   215    O   15  px     Val( 2p)     1.43503
   216    O   15  px     Ryd( 3p)     0.00098
   217    O   15  py     Val( 2p)     1.79149
   218    O   15  py     Ryd( 3p)     0.00217
   219    O   15  pz     Val( 2p)     1.71801
   220    O   15  pz     Ryd( 3p)     0.00141
   221    O   15  dxy    Ryd( 3d)     0.00047
   222    O   15  dxz    Ryd( 3d)     0.00127
   223    O   15  dyz    Ryd( 3d)     0.00132
   224    O   15  dx2y2  Ryd( 3d)     0.00066
   225    O   15  dz2    Ryd( 3d)     0.00140

   226    C   16  S      Cor( 1S)     1.99927
   227    C   16  S      Val( 2S)     0.78116
   228    C   16  S      Ryd( 3S)     0.00665
   229    C   16  S      Ryd( 4S)     0.00049
   230    C   16  px     Val( 2p)     0.85453
   231    C   16  px     Ryd( 3p)     0.00556
   232    C   16  py     Val( 2p)     0.76628
   233    C   16  py     Ryd( 3p)     0.00581
   234    C   16  pz     Val( 2p)     0.70403
   235    C   16  pz     Ryd( 3p)     0.02068
   236    C   16  dxy    Ryd( 3d)     0.00124
   237    C   16  dxz    Ryd( 3d)     0.00355
   238    C   16  dyz    Ryd( 3d)     0.00180
   239    C   16  dx2y2  Ryd( 3d)     0.00097
   240    C   16  dz2    Ryd( 3d)     0.00209

   241    O   17  S      Cor( 1S)     1.99977
   242    O   17  S      Val( 2S)     1.69543
   243    O   17  S      Ryd( 3S)     0.00057
   244    O   17  S      Ryd( 4S)     0.00013
   245    O   17  px     Val( 2p)     1.81124
   246    O   17  px     Ryd( 3p)     0.00172
   247    O   17  py     Val( 2p)     1.45426
   248    O   17  py     Ryd( 3p)     0.00058
   249    O   17  pz     Val( 2p)     1.59695
   250    O   17  pz     Ryd( 3p)     0.00050
   251    O   17  dxy    Ryd( 3d)     0.00079
   252    O   17  dxz    Ryd( 3d)     0.00439
   253    O   17  dyz    Ryd( 3d)     0.00471
   254    O   17  dx2y2  Ryd( 3d)     0.00084
   255    O   17  dz2    Ryd( 3d)     0.00574

   256    C   18  S      Cor( 1S)     1.99905
   257    C   18  S      Val( 2S)     0.94086
   258    C   18  S      Ryd( 3S)     0.00045
   259    C   18  S      Ryd( 4S)     0.00003
   260    C   18  px     Val( 2p)     1.06188
   261    C   18  px     Ryd( 3p)     0.00214
   262    C   18  py     Val( 2p)     1.06549
   263    C   18  py     Ryd( 3p)     0.00189
   264    C   18  pz     Val( 2p)     1.07239
   265    C   18  pz     Ryd( 3p)     0.00389
   266    C   18  dxy    Ryd( 3d)     0.00060
   267    C   18  dxz    Ryd( 3d)     0.00080
   268    C   18  dyz    Ryd( 3d)     0.00078
   269    C   18  dx2y2  Ryd( 3d)     0.00096
   270    C   18  dz2    Ryd( 3d)     0.00075

   271    C   19  S      Cor( 1S)     1.99938
   272    C   19  S      Val( 2S)     1.09556
   273    C   19  S      Ryd( 3S)     0.00058
   274    C   19  S      Ryd( 4S)     0.00002
   275    C   19  px     Val( 2p)     1.25205
   276    C   19  px     Ryd( 3p)     0.00193
   277    C   19  py     Val( 2p)     1.07098
   278    C   19  py     Ryd( 3p)     0.00155
   279    C   19  pz     Val( 2p)     1.24096
   280    C   19  pz     Ryd( 3p)     0.00233
   281    C   19  dxy    Ryd( 3d)     0.00042
   282    C   19  dxz    Ryd( 3d)     0.00089
   283    C   19  dyz    Ryd( 3d)     0.00082
   284    C   19  dx2y2  Ryd( 3d)     0.00079
   285    C   19  dz2    Ryd( 3d)     0.00044

   286    C   20  S      Cor( 1S)     1.99940
   287    C   20  S      Val( 2S)     1.09082
   288    C   20  S      Ryd( 3S)     0.00058
   289    C   20  S      Ryd( 4S)     0.00002
   290    C   20  px     Val( 2p)     1.15997
   291    C   20  px     Ryd( 3p)     0.00242
   292    C   20  py     Val( 2p)     1.25324
   293    C   20  py     Ryd( 3p)     0.00265
   294    C   20  pz     Val( 2p)     1.15562
   295    C   20  pz     Ryd( 3p)     0.00210
   296    C   20  dxy    Ryd( 3d)     0.00029
   297    C   20  dxz    Ryd( 3d)     0.00065
   298    C   20  dyz    Ryd( 3d)     0.00076
   299    C   20  dx2y2  Ryd( 3d)     0.00104
   300    C   20  dz2    Ryd( 3d)     0.00059

   301    C   21  S      Cor( 1S)     1.99938
   302    C   21  S      Val( 2S)     1.09552
   303    C   21  S      Ryd( 3S)     0.00058
   304    C   21  S      Ryd( 4S)     0.00002
   305    C   21  px     Val( 2p)     1.23930
   306    C   21  px     Ryd( 3p)     0.00191
   307    C   21  py     Val( 2p)     1.19414
   308    C   21  py     Ryd( 3p)     0.00210
   309    C   21  pz     Val( 2p)     1.13160
   310    C   21  pz     Ryd( 3p)     0.00182
   311    C   21  dxy    Ryd( 3d)     0.00022
   312    C   21  dxz    Ryd( 3d)     0.00098
   313    C   21  dyz    Ryd( 3d)     0.00046
   314    C   21  dx2y2  Ryd( 3d)     0.00110
   315    C   21  dz2    Ryd( 3d)     0.00059

   316    H   22  S      Val( 1S)     0.75058
   317    H   22  S      Ryd( 2S)     0.00099

   318    H   23  S      Val( 1S)     0.75800
   319    H   23  S      Ryd( 2S)     0.00081

   320    H   24  S      Val( 1S)     0.76229
   321    H   24  S      Ryd( 2S)     0.00082

   322    H   25  S      Val( 1S)     0.75871
   323    H   25  S      Ryd( 2S)     0.00083

   324    H   26  S      Val( 1S)     0.75440
   325    H   26  S      Ryd( 2S)     0.00105

   326    H   27  S      Val( 1S)     0.74800
   327    H   27  S      Ryd( 2S)     0.00098

   328    H   28  S      Val( 1S)     0.74818
   329    H   28  S      Ryd( 2S)     0.00116

   330    H   29  S      Val( 1S)     0.73905
   331    H   29  S      Ryd( 2S)     0.00102

   332    H   30  S      Val( 1S)     0.75101
   333    H   30  S      Ryd( 2S)     0.00101

   334    H   31  S      Val( 1S)     0.76246
   335    H   31  S      Ryd( 2S)     0.00091

   336    H   32  S      Val( 1S)     0.75611
   337    H   32  S      Ryd( 2S)     0.00114

   338    H   33  S      Val( 1S)     0.76378
   339    H   33  S      Ryd( 2S)     0.00103

   340    H   34  S      Val( 1S)     0.75523
   341    H   34  S      Ryd( 2S)     0.00104

   342    H   35  S      Val( 1S)     0.76868
   343    H   35  S      Ryd( 2S)     0.00090

   344    H   36  S      Val( 1S)     0.75667
   345    H   36  S      Ryd( 2S)     0.00103

   346    H   37  S      Val( 1S)     0.75381
   347    H   37  S      Ryd( 2S)     0.00106

   348    H   38  S      Val( 1S)     0.76342
   349    H   38  S      Ryd( 2S)     0.00091

   350    H   39  S      Val( 1S)     0.76376
   351    H   39  S      Ryd( 2S)     0.00105

 WARNING:  1 low occupancy (<1.9990e) core orbital  found on  C    3
           1 low occupancy (<1.9990e) core orbital  found on  C    9
           1 low occupancy (<1.9990e) core orbital  found on  C   12


 Summary of Natural Population Analysis:                  
                                                          
                                       Natural Population 
                Natural  -----------------------------------------------
    Atom  No    Charge         Core      Valence    Rydberg      Total
 -----------------------------------------------------------------------
      O    1   -0.26135      1.99982     6.24400    0.01754     8.26135
      C    2    0.37586      1.99918     3.59167    0.03330     5.62414
      C    3   -0.11862      1.99890     4.10449    0.01523     6.11862
      C    4   -0.22440      1.99903     4.21217    0.01320     6.22440
      C    5   -0.22966      1.99909     4.21646    0.01411     6.22966
      C    6   -0.24206      1.99910     4.22889    0.01407     6.24206
      C    7   -0.22643      1.99910     4.21349    0.01384     6.22643
      C    8   -0.22130      1.99904     4.20826    0.01400     6.22130
      C    9   -0.12884      1.99889     4.11497    0.01498     6.12884
      C   10   -0.21599      1.99904     4.20381    0.01314     6.21599
      C   11   -0.25769      1.99900     4.24460    0.01409     6.25769
      C   12    0.29009      1.99872     3.68936    0.02183     5.70991
      C   13   -0.25402      1.99900     4.24166    0.01335     6.25402
      C   14   -0.21227      1.99905     4.19900    0.01421     6.21227
      O   15   -0.54922      1.99969     6.53844    0.01109     8.54922
      C   16    0.84589      1.99927     3.10600    0.04884     5.15411
      O   17   -0.57764      1.99977     6.55788    0.01999     8.57764
      C   18   -0.15195      1.99905     4.14061    0.01229     6.15195
      C   19   -0.66869      1.99938     4.65956    0.00975     6.66869
      C   20   -0.67014      1.99940     4.65965    0.01110     6.67014
      C   21   -0.66971      1.99938     4.66056    0.00977     6.66971
      H   22    0.24843      0.00000     0.75058    0.00099     0.75157
      H   23    0.24119      0.00000     0.75800    0.00081     0.75881
      H   24    0.23690      0.00000     0.76229    0.00082     0.76310
      H   25    0.24046      0.00000     0.75871    0.00083     0.75954
      H   26    0.24455      0.00000     0.75440    0.00105     0.75545
      H   27    0.25103      0.00000     0.74800    0.00098     0.74897
      H   28    0.25066      0.00000     0.74818    0.00116     0.74934
      H   29    0.25993      0.00000     0.73905    0.00102     0.74007
      H   30    0.24798      0.00000     0.75101    0.00101     0.75202
      H   31    0.23663      0.00000     0.76246    0.00091     0.76337
      H   32    0.24274      0.00000     0.75611    0.00114     0.75726
      H   33    0.23519      0.00000     0.76378    0.00103     0.76481
      H   34    0.24373      0.00000     0.75523    0.00104     0.75627
      H   35    0.23042      0.00000     0.76868    0.00090     0.76958
      H   36    0.24230      0.00000     0.75667    0.00103     0.75770
      H   37    0.24513      0.00000     0.75381    0.00106     0.75487
      H   38    0.23567      0.00000     0.76342    0.00091     0.76433
      H   39    0.23518      0.00000     0.76376    0.00105     0.76482
 =======================================================================
   * Total *   -0.00001     41.98290   107.64968    0.36743   150.00001

                                 Natural Population      
 --------------------------------------------------------
   Core                      41.98290 ( 99.9593% of  42)
   Valence                  107.64968 ( 99.6756% of 108)
   Natural Minimal Basis    149.63257 ( 99.7550% of 150)
   Natural Rydberg Basis      0.36743 (  0.2450% of 150)
 --------------------------------------------------------

    Atom  No          Natural Electron Configuration
 ----------------------------------------------------------------------------
      O    1      [core]2S( 1.70)2p( 4.54)3d( 0.01)
      C    2      [core]2S( 0.83)2p( 2.77)3p( 0.02)3d( 0.01)
      C    3      [core]2S( 0.89)2p( 3.21)3p( 0.01)
      C    4      [core]2S( 0.95)2p( 3.26)3p( 0.01)
      C    5      [core]2S( 0.96)2p( 3.26)3p( 0.01)
      C    6      [core]2S( 0.96)2p( 3.27)3p( 0.01)
      C    7      [core]2S( 0.96)2p( 3.25)3p( 0.01)
      C    8      [core]2S( 0.95)2p( 3.26)3p( 0.01)
      C    9      [core]2S( 0.89)2p( 3.23)3p( 0.01)
      C   10      [core]2S( 0.95)2p( 3.26)3p( 0.01)
      C   11      [core]2S( 0.96)2p( 3.28)3p( 0.01)
      C   12      [core]2S( 0.84)2p( 2.85)3p( 0.01)3d( 0.01)
      C   13      [core]2S( 0.96)2p( 3.28)3p( 0.01)
      C   14      [core]2S( 0.95)2p( 3.25)3p( 0.01)
      O   15      [core]2S( 1.59)2p( 4.94)3d( 0.01)
      C   16      [core]2S( 0.78)2p( 2.32)3S( 0.01)3p( 0.03)3d( 0.01)
      O   17      [core]2S( 1.70)2p( 4.86)3d( 0.02)
      C   18      [core]2S( 0.94)2p( 3.20)3p( 0.01)
      C   19      [core]2S( 1.10)2p( 3.56)3p( 0.01)
      C   20      [core]2S( 1.09)2p( 3.57)3p( 0.01)
      C   21      [core]2S( 1.10)2p( 3.57)3p( 0.01)
      H   22            1S( 0.75)
      H   23            1S( 0.76)
      H   24            1S( 0.76)
      H   25            1S( 0.76)
      H   26            1S( 0.75)
      H   27            1S( 0.75)
      H   28            1S( 0.75)
      H   29            1S( 0.74)
      H   30            1S( 0.75)
      H   31            1S( 0.76)
      H   32            1S( 0.76)
      H   33            1S( 0.76)
      H   34            1S( 0.76)
      H   35            1S( 0.77)
      H   36            1S( 0.76)
      H   37            1S( 0.75)
      H   38            1S( 0.76)
      H   39            1S( 0.76)


 NBO analysis skipped by request.
 Leave Link  607 at Fri Oct  1 06:35:23 2021, MaxMem= 1610612736 cpu:      19.9
 (Enter /sw/target/amd/app/gaussian/Gaussian09RevA.02_gcc-4.9.2/g09/l9999.exe)
 1\1\GINC-HERMITE\SP\RTD-B3LYP-FC\6-31G(d)\C18H18O3\JSCHLEINITZ\01-Oct-
 2021\0\\#p TD(NStates=10, Root=1) b3lyp/6-31G* volume pop=NPA density=
 current Geom=AllCheck Guess=Read\\O=C(c1ccccc1)c1ccc(cc1)OC(=O)C(C)(C)
 C_conf_0\\0,1\O,0,1.1967813896,1.1897499884,-0.7092133121\C,0,1.536364
 5861,0.3123244526,0.0778120442\C,0,1.1654428562,-1.115984238,-0.197096
 1973\C,0,1.9536224246,-2.2042992494,0.2080312498\C,0,1.5892178937,-3.5
 058870076,-0.1391272846\C,0,0.4296973006,-3.733742288,-0.8815869834\C,
 0,-0.3573499404,-2.6544569405,-1.2952481911\C,0,0.015648629,-1.3547748
 909,-0.967057959\C,0,2.3145288379,0.6766903349,1.3061791498\C,0,2.2529
 808382,-0.0545371407,2.5022638085\C,0,2.9459441633,0.3761897153,3.6310
 498022\C,0,3.7136248357,1.5379606792,3.5660307429\C,0,3.779945218,2.29
 21204399,2.3908355867\C,0,3.0710418133,1.8596420063,1.2764855857\O,0,4
 .3181929051,1.9352035701,4.7539808927\C,0,5.6200765939,2.3852502521,4.
 7810846975\O,0,6.3218886635,2.4452255514,3.8022139554\C,0,6.0217751115
 ,2.7732249898,6.2068192521\C,0,5.9140335558,1.5289499397,7.1176013812\
 C,0,7.4701030209,3.2870335008,6.182461351\C,0,5.0706625959,3.878955965
 6,6.717453175\H,0,2.8662951766,-2.0333652545,0.7700508035\H,0,2.213560
 4671,-4.3406990566,0.1675245532\H,0,0.142637649,-4.7486213374,-1.14389
 29733\H,0,-1.2568277918,-2.8290904712,-1.8794135443\H,0,-0.569890095,-
 0.5034701563,-1.2989848251\H,0,1.6424764906,-0.949223398,2.5636587394\
 H,0,2.8943355553,-0.1720844142,4.5662381808\H,0,4.3759847755,3.1947323
 431,2.3519022662\H,0,3.088782598,2.4375606387,0.3583921779\H,0,6.57074
 28206,0.7236637267,6.7687179071\H,0,4.8898801062,1.1474710457,7.154159
 8519\H,0,6.2196205899,1.7937252668,8.1362260945\H,0,8.1569433398,2.521
 2135187,5.8100956442\H,0,7.7793709679,3.5676351936,7.1954366508\H,0,7.
 5697691979,4.1635278065,5.5350812013\H,0,4.033454362,3.5339204974,6.74
 56390171\H,0,5.1201605539,4.7706054,6.0817744321\H,0,5.3636687188,4.17
 37899317,7.731517411\\Version=AM64L-G09RevA.02\State=1-A\HF=-922.45099
 5\RMSD=4.891e-09\Dipole=-0.2918194,-0.4303399,0.8010359\Quadrupole=-5.
 6763719,4.0122015,1.6641704,2.8176361,5.6005023,4.6529429\PG=C01 [X(C1
 8H18O3)]\\@


 BREAD HAS TO MOLD IN ORDER TO GET PENICILLIN.
          -- JERRY BOATZ
 Job cpu time:  0 days  6 hours 44 minutes 49.5 seconds.
 File lengths (MBytes):  RWF=    400 Int=      0 D2E=      0 Chk=     55 Scr=      1
 Normal termination of Gaussian 09 at Fri Oct  1 06:35:25 2021.
