 Entering Gaussian System, Link 0=g09
 Input=C18H21P_0d84_conf_0.com
 Output=C18H21P_0d84_conf_0.log
 Initial command:
 /sw/target/amd/app/gaussian/Gaussian09RevA.02_gcc-4.9.2/g09/l1.exe /home/jschleinitz/gaussian/Gau-2059168.inp -scrdir=/home/jschleinitz/gaussian/
 Entering Link 1 = /sw/target/amd/app/gaussian/Gaussian09RevA.02_gcc-4.9.2/g09/l1.exe PID=   2059194.
  
 Copyright (c) 1988,1990,1992,1993,1995,1998,2003,2009, Gaussian, Inc.
                  All Rights Reserved.
  
 This is part of the Gaussian(R) 09 program.  It is based on
 the Gaussian(R) 03 system (copyright 2003, Gaussian, Inc.),
 the Gaussian(R) 98 system (copyright 1998, Gaussian, Inc.),
 the Gaussian(R) 94 system (copyright 1995, Gaussian, Inc.),
 the Gaussian 92(TM) system (copyright 1992, Gaussian, Inc.),
 the Gaussian 90(TM) system (copyright 1990, Gaussian, Inc.),
 the Gaussian 88(TM) system (copyright 1988, Gaussian, Inc.),
 the Gaussian 86(TM) system (copyright 1986, Carnegie Mellon
 University), and the Gaussian 82(TM) system (copyright 1983,
 Carnegie Mellon University). Gaussian is a federally registered
 trademark of Gaussian, Inc.
  
 This software contains proprietary and confidential information,
 including trade secrets, belonging to Gaussian, Inc.
  
 This software is provided under written license and may be
 used, copied, transmitted, or stored only in accord with that
 written license.
  
 The following legend is applicable only to US Government
 contracts under FAR:
  
                    RESTRICTED RIGHTS LEGEND
  
 Use, reproduction and disclosure by the US Government is
 subject to restrictions as set forth in subparagraphs (a)
 and (c) of the Commercial Computer Software - Restricted
 Rights clause in FAR 52.227-19.
  
 Gaussian, Inc.
 340 Quinnipiac St., Bldg. 40, Wallingford CT 06492
  
  
 ---------------------------------------------------------------
 Warning -- This program may not be used in any manner that
 competes with the business of Gaussian, Inc. or will provide
 assistance to any competitor of Gaussian, Inc.  The licensee
 of this program is prohibited from giving any competitor of
 Gaussian, Inc. access to this program.  By using this program,
 the user acknowledges that Gaussian, Inc. is engaged in the
 business of creating and licensing software in the field of
 computational chemistry and represents and warrants to the
 licensee that it is not a competitor of Gaussian, Inc. and that
 it will not use this program in any manner prohibited above.
 ---------------------------------------------------------------
  

 Cite this work as:
 Gaussian 09, Revision A.02,
 M. J. Frisch, G. W. Trucks, H. B. Schlegel, G. E. Scuseria, 
 M. A. Robb, J. R. Cheeseman, G. Scalmani, V. Barone, B. Mennucci, 
 G. A. Petersson, H. Nakatsuji, M. Caricato, X. Li, H. P. Hratchian, 
 A. F. Izmaylov, J. Bloino, G. Zheng, J. L. Sonnenberg, M. Hada, 
 M. Ehara, K. Toyota, R. Fukuda, J. Hasegawa, M. Ishida, T. Nakajima, 
 Y. Honda, O. Kitao, H. Nakai, T. Vreven, J. A. Montgomery, Jr., 
 J. E. Peralta, F. Ogliaro, M. Bearpark, J. J. Heyd, E. Brothers, 
 K. N. Kudin, V. N. Staroverov, R. Kobayashi, J. Normand, 
 K. Raghavachari, A. Rendell, J. C. Burant, S. S. Iyengar, J. Tomasi, 
 M. Cossi, N. Rega, J. M. Millam, M. Klene, J. E. Knox, J. B. Cross, 
 V. Bakken, C. Adamo, J. Jaramillo, R. Gomperts, R. E. Stratmann, 
 O. Yazyev, A. J. Austin, R. Cammi, C. Pomelli, J. W. Ochterski, 
 R. L. Martin, K. Morokuma, V. G. Zakrzewski, G. A. Voth, 
 P. Salvador, J. J. Dannenberg, S. Dapprich, A. D. Daniels, 
 O. Farkas, J. B. Foresman, J. V. Ortiz, J. Cioslowski, 
 and D. J. Fox, Gaussian, Inc., Wallingford CT, 2009.
 
 ******************************************
 Gaussian 09:  AM64L-G09RevA.02 11-Jun-2009
                 1-Oct-2021 
 ******************************************
 %nproc=6
 Will use up to    6 processors via shared memory.
 %mem=12gb
 %chk=C18H21P_0d84_conf_0.chk
 -----------------------------------
 #p opt b3lyp/6-31G* scf=(xqc,tight)
 -----------------------------------
 1/14=-1,18=20,19=15,26=3,38=1/1,3;
 2/9=110,12=2,17=6,18=5,40=1/2;
 3/5=1,6=6,7=1,11=2,16=1,25=1,30=1,71=1,74=-5/1,2,3;
 4//1;
 5/5=2,8=3,13=1,32=2,38=5/2,8;
 6/7=2,8=2,9=2,10=2,28=1/1;
 7//1,2,3,16;
 1/14=-1,18=20,19=15/3(2);
 2/9=110/2;
 99//99;
 2/9=110/2;
 3/5=1,6=6,7=1,11=2,16=1,25=1,30=1,71=1,74=-5/1,2,3;
 4/5=5,16=3/1;
 5/5=2,8=3,13=1,32=2,38=5/2,8;
 7//1,2,3,16;
 1/14=-1,18=20,19=15/3(-5);
 2/9=110/2;
 6/7=2,8=2,9=2,10=2,19=2,28=1/1;
 99/9=1/99;
 Leave Link    1 at Fri Oct  1 18:35:47 2021, MaxMem= 1610612736 cpu:       0.1
 (Enter /sw/target/amd/app/gaussian/Gaussian09RevA.02_gcc-4.9.2/g09/l101.exe)
 ------------------------------------
 C1CCC(CC1)P(c1ccccc1)c1ccccc1_conf_0
 ------------------------------------
 Symbolic Z-matrix:
 Charge =  0 Multiplicity = 1
 C                    -1.29631   0.5307    0.24149 
 C                    -0.92888  -0.91091   0.57799 
 C                     0.4427   -1.28734   0.01762 
 C                     1.55889  -0.32725   0.48331 
 C                     1.15368   1.13741   0.20176 
 C                    -0.22736   1.48789   0.75228 
 P                     3.15334  -0.73334  -0.40688 
 C                     4.34113   0.46902   0.2721 
 C                     4.64747   0.58745   1.63366 
 C                     5.58782   1.52147   2.08096 
 C                     6.22607   2.36232   1.17384 
 C                     5.91945   2.27487  -0.18062 
 C                     4.98549   1.33531  -0.62684 
 C                     3.74525  -2.30439   0.30495 
 C                     4.47194  -3.16985  -0.53244 
 C                     4.95518  -4.39752  -0.06753 
 C                     4.72776  -4.78099   1.24932 
 C                     4.02173  -3.93482   2.09864 
 C                     3.52887  -2.71143   1.62819 
 H                    -2.26365   0.78234   0.68672 
 H                    -1.40106   0.64125  -0.84326 
 H                    -1.69133  -1.58473   0.1688 
 H                    -0.93299  -1.04634   1.66538 
 H                     0.37842  -1.29055  -1.07952 
 H                     0.67265  -2.31675   0.31709 
 H                     1.68996  -0.43659   1.56557 
 H                     1.15969   1.33272  -0.87856 
 H                     1.88198   1.82527   0.64765 
 H                    -0.48584   2.51332   0.46419 
 H                    -0.20447   1.46117   1.8492 
 H                     4.16735  -0.0457    2.37226 
 H                     5.82381   1.58621   3.13982 
 H                     6.96063   3.08349   1.52168 
 H                     6.40986   2.93247  -0.89355 
 H                     4.76729   1.28616  -1.69208 
 H                     4.67468  -2.89353  -1.5663 
 H                     5.51035  -5.05022  -0.73586 
 H                     5.10517  -5.73199   1.61412 
 H                     3.85275  -4.22257   3.1338 
 H                     2.98726  -2.08149   2.32712 
 
 NAtoms=     40 NQM=     40 NQMF=      0 NMic=      0 NMicF=      0 NTot=     40.
                    Isotopes and Nuclear Properties:
 (Nuclear quadrupole moments (NQMom) in fm**2, nuclear magnetic moments (NMagM)
  in nuclear magnetons)

  Atom         1           2           3           4           5           6           7           8           9          10
 IAtWgt=          12          12          12          12          12          12          31          12          12          12
 AtmWgt=  12.0000000  12.0000000  12.0000000  12.0000000  12.0000000  12.0000000  30.9737634  12.0000000  12.0000000  12.0000000
 NucSpn=           0           0           0           0           0           0           1           0           0           0
 AtZEff=   0.0000000   0.0000000   0.0000000   0.0000000   0.0000000   0.0000000   0.0000000   0.0000000   0.0000000   0.0000000
 NQMom=    0.0000000   0.0000000   0.0000000   0.0000000   0.0000000   0.0000000   0.0000000   0.0000000   0.0000000   0.0000000
 NMagM=    0.0000000   0.0000000   0.0000000   0.0000000   0.0000000   0.0000000   1.1316000   0.0000000   0.0000000   0.0000000

  Atom        11          12          13          14          15          16          17          18          19          20
 IAtWgt=          12          12          12          12          12          12          12          12          12           1
 AtmWgt=  12.0000000  12.0000000  12.0000000  12.0000000  12.0000000  12.0000000  12.0000000  12.0000000  12.0000000   1.0078250
 NucSpn=           0           0           0           0           0           0           0           0           0           1
 AtZEff=   0.0000000   0.0000000   0.0000000   0.0000000   0.0000000   0.0000000   0.0000000   0.0000000   0.0000000   0.0000000
 NQMom=    0.0000000   0.0000000   0.0000000   0.0000000   0.0000000   0.0000000   0.0000000   0.0000000   0.0000000   0.0000000
 NMagM=    0.0000000   0.0000000   0.0000000   0.0000000   0.0000000   0.0000000   0.0000000   0.0000000   0.0000000   2.7928460

  Atom        21          22          23          24          25          26          27          28          29          30
 IAtWgt=           1           1           1           1           1           1           1           1           1           1
 AtmWgt=   1.0078250   1.0078250   1.0078250   1.0078250   1.0078250   1.0078250   1.0078250   1.0078250   1.0078250   1.0078250
 NucSpn=           1           1           1           1           1           1           1           1           1           1
 AtZEff=   0.0000000   0.0000000   0.0000000   0.0000000   0.0000000   0.0000000   0.0000000   0.0000000   0.0000000   0.0000000
 NQMom=    0.0000000   0.0000000   0.0000000   0.0000000   0.0000000   0.0000000   0.0000000   0.0000000   0.0000000   0.0000000
 NMagM=    2.7928460   2.7928460   2.7928460   2.7928460   2.7928460   2.7928460   2.7928460   2.7928460   2.7928460   2.7928460

  Atom        31          32          33          34          35          36          37          38          39          40
 IAtWgt=           1           1           1           1           1           1           1           1           1           1
 AtmWgt=   1.0078250   1.0078250   1.0078250   1.0078250   1.0078250   1.0078250   1.0078250   1.0078250   1.0078250   1.0078250
 NucSpn=           1           1           1           1           1           1           1           1           1           1
 AtZEff=   0.0000000   0.0000000   0.0000000   0.0000000   0.0000000   0.0000000   0.0000000   0.0000000   0.0000000   0.0000000
 NQMom=    0.0000000   0.0000000   0.0000000   0.0000000   0.0000000   0.0000000   0.0000000   0.0000000   0.0000000   0.0000000
 NMagM=    2.7928460   2.7928460   2.7928460   2.7928460   2.7928460   2.7928460   2.7928460   2.7928460   2.7928460   2.7928460
 Leave Link  101 at Fri Oct  1 18:35:47 2021, MaxMem= 1610612736 cpu:       0.2
 (Enter /sw/target/amd/app/gaussian/Gaussian09RevA.02_gcc-4.9.2/g09/l103.exe)

 GradGradGradGradGradGradGradGradGradGradGradGradGradGradGradGradGradGrad
 Berny optimization.
 Initialization pass.
                           ----------------------------
                           !    Initial Parameters    !
                           ! (Angstroms and Degrees)  !
 --------------------------                            --------------------------
 ! Name  Definition              Value          Derivative Info.                !
 --------------------------------------------------------------------------------
 ! R1    R(1,2)                  1.5253         estimate D2E/DX2                !
 ! R2    R(1,6)                  1.5231         estimate D2E/DX2                !
 ! R3    R(1,20)                 1.0942         estimate D2E/DX2                !
 ! R4    R(1,21)                 1.0954         estimate D2E/DX2                !
 ! R5    R(2,3)                  1.5287         estimate D2E/DX2                !
 ! R6    R(2,22)                 1.0967         estimate D2E/DX2                !
 ! R7    R(2,23)                 1.0958         estimate D2E/DX2                !
 ! R8    R(3,4)                  1.5442         estimate D2E/DX2                !
 ! R9    R(3,24)                 1.099          estimate D2E/DX2                !
 ! R10   R(3,25)                 1.0965         estimate D2E/DX2                !
 ! R11   R(4,5)                  1.5455         estimate D2E/DX2                !
 ! R12   R(4,7)                  1.8707         estimate D2E/DX2                !
 ! R13   R(4,26)                 1.0956         estimate D2E/DX2                !
 ! R14   R(5,6)                  1.5275         estimate D2E/DX2                !
 ! R15   R(5,27)                 1.0978         estimate D2E/DX2                !
 ! R16   R(5,28)                 1.0965         estimate D2E/DX2                !
 ! R17   R(6,29)                 1.096          estimate D2E/DX2                !
 ! R18   R(6,30)                 1.0975         estimate D2E/DX2                !
 ! R19   R(7,8)                  1.8214         estimate D2E/DX2                !
 ! R20   R(7,14)                 1.8235         estimate D2E/DX2                !
 ! R21   R(8,9)                  1.4006         estimate D2E/DX2                !
 ! R22   R(8,13)                 1.4049         estimate D2E/DX2                !
 ! R23   R(9,10)                 1.3988         estimate D2E/DX2                !
 ! R24   R(9,31)                 1.0849         estimate D2E/DX2                !
 ! R25   R(10,11)                1.3919         estimate D2E/DX2                !
 ! R26   R(10,32)                1.0868         estimate D2E/DX2                !
 ! R27   R(11,12)                1.3915         estimate D2E/DX2                !
 ! R28   R(11,33)                1.0866         estimate D2E/DX2                !
 ! R29   R(12,13)                1.3979         estimate D2E/DX2                !
 ! R30   R(12,34)                1.0868         estimate D2E/DX2                !
 ! R31   R(13,35)                1.0885         estimate D2E/DX2                !
 ! R32   R(14,15)                1.4065         estimate D2E/DX2                !
 ! R33   R(14,19)                1.4012         estimate D2E/DX2                !
 ! R34   R(15,16)                1.3989         estimate D2E/DX2                !
 ! R35   R(15,36)                1.0892         estimate D2E/DX2                !
 ! R36   R(16,17)                1.3903         estimate D2E/DX2                !
 ! R37   R(16,37)                1.0867         estimate D2E/DX2                !
 ! R38   R(17,18)                1.3913         estimate D2E/DX2                !
 ! R39   R(17,38)                1.0862         estimate D2E/DX2                !
 ! R40   R(18,19)                1.4003         estimate D2E/DX2                !
 ! R41   R(18,39)                1.0876         estimate D2E/DX2                !
 ! R42   R(19,40)                1.0857         estimate D2E/DX2                !
 ! A1    A(2,1,6)              110.544          estimate D2E/DX2                !
 ! A2    A(2,1,20)             109.9111         estimate D2E/DX2                !
 ! A3    A(2,1,21)             109.688          estimate D2E/DX2                !
 ! A4    A(6,1,20)             109.8446         estimate D2E/DX2                !
 ! A5    A(6,1,21)             109.6205         estimate D2E/DX2                !
 ! A6    A(20,1,21)            107.1693         estimate D2E/DX2                !
 ! A7    A(1,2,3)              111.5923         estimate D2E/DX2                !
 ! A8    A(1,2,22)             109.3239         estimate D2E/DX2                !
 ! A9    A(1,2,23)             109.5624         estimate D2E/DX2                !
 ! A10   A(3,2,22)             109.6144         estimate D2E/DX2                !
 ! A11   A(3,2,23)             109.6747         estimate D2E/DX2                !
 ! A12   A(22,2,23)            106.9601         estimate D2E/DX2                !
 ! A13   A(2,3,4)              112.637          estimate D2E/DX2                !
 ! A14   A(2,3,24)             108.3113         estimate D2E/DX2                !
 ! A15   A(2,3,25)             108.6162         estimate D2E/DX2                !
 ! A16   A(4,3,24)             110.1911         estimate D2E/DX2                !
 ! A17   A(4,3,25)             110.4727         estimate D2E/DX2                !
 ! A18   A(24,3,25)            106.39           estimate D2E/DX2                !
 ! A19   A(3,4,5)              110.1666         estimate D2E/DX2                !
 ! A20   A(3,4,7)              109.7312         estimate D2E/DX2                !
 ! A21   A(3,4,26)             108.8031         estimate D2E/DX2                !
 ! A22   A(5,4,7)              110.029          estimate D2E/DX2                !
 ! A23   A(5,4,26)             107.8112         estimate D2E/DX2                !
 ! A24   A(7,4,26)             110.2687         estimate D2E/DX2                !
 ! A25   A(4,5,6)              112.8819         estimate D2E/DX2                !
 ! A26   A(4,5,27)             110.2681         estimate D2E/DX2                !
 ! A27   A(4,5,28)             110.2583         estimate D2E/DX2                !
 ! A28   A(6,5,27)             108.5902         estimate D2E/DX2                !
 ! A29   A(6,5,28)             108.0603         estimate D2E/DX2                !
 ! A30   A(27,5,28)            106.5536         estimate D2E/DX2                !
 ! A31   A(1,6,5)              111.6836         estimate D2E/DX2                !
 ! A32   A(1,6,29)             109.5301         estimate D2E/DX2                !
 ! A33   A(1,6,30)             109.5439         estimate D2E/DX2                !
 ! A34   A(5,6,29)             109.4603         estimate D2E/DX2                !
 ! A35   A(5,6,30)             109.6205         estimate D2E/DX2                !
 ! A36   A(29,6,30)            106.8825         estimate D2E/DX2                !
 ! A37   A(4,7,8)              103.5992         estimate D2E/DX2                !
 ! A38   A(4,7,14)             106.1364         estimate D2E/DX2                !
 ! A39   A(8,7,14)             102.2121         estimate D2E/DX2                !
 ! A40   A(7,8,9)              124.1133         estimate D2E/DX2                !
 ! A41   A(7,8,13)             117.8796         estimate D2E/DX2                !
 ! A42   A(9,8,13)             118.0065         estimate D2E/DX2                !
 ! A43   A(8,9,10)             120.9534         estimate D2E/DX2                !
 ! A44   A(8,9,31)             121.0441         estimate D2E/DX2                !
 ! A45   A(10,9,31)            118.0016         estimate D2E/DX2                !
 ! A46   A(9,10,11)            120.2147         estimate D2E/DX2                !
 ! A47   A(9,10,32)            119.8225         estimate D2E/DX2                !
 ! A48   A(11,10,32)           119.962          estimate D2E/DX2                !
 ! A49   A(10,11,12)           119.6948         estimate D2E/DX2                !
 ! A50   A(10,11,33)           120.154          estimate D2E/DX2                !
 ! A51   A(12,11,33)           120.1512         estimate D2E/DX2                !
 ! A52   A(11,12,13)           120.0112         estimate D2E/DX2                !
 ! A53   A(11,12,34)           120.0696         estimate D2E/DX2                !
 ! A54   A(13,12,34)           119.9181         estimate D2E/DX2                !
 ! A55   A(8,13,12)            121.1058         estimate D2E/DX2                !
 ! A56   A(8,13,35)            120.4258         estimate D2E/DX2                !
 ! A57   A(12,13,35)           118.4683         estimate D2E/DX2                !
 ! A58   A(7,14,15)            117.7375         estimate D2E/DX2                !
 ! A59   A(7,14,19)            124.665          estimate D2E/DX2                !
 ! A60   A(15,14,19)           117.5975         estimate D2E/DX2                !
 ! A61   A(14,15,16)           121.3741         estimate D2E/DX2                !
 ! A62   A(14,15,36)           120.3433         estimate D2E/DX2                !
 ! A63   A(16,15,36)           118.2824         estimate D2E/DX2                !
 ! A64   A(15,16,17)           120.0234         estimate D2E/DX2                !
 ! A65   A(15,16,37)           119.9475         estimate D2E/DX2                !
 ! A66   A(17,16,37)           120.0289         estimate D2E/DX2                !
 ! A67   A(16,17,18)           119.5681         estimate D2E/DX2                !
 ! A68   A(16,17,38)           120.1815         estimate D2E/DX2                !
 ! A69   A(18,17,38)           120.2489         estimate D2E/DX2                !
 ! A70   A(17,18,19)           120.3208         estimate D2E/DX2                !
 ! A71   A(17,18,39)           119.9298         estimate D2E/DX2                !
 ! A72   A(19,18,39)           119.7493         estimate D2E/DX2                !
 ! A73   A(14,19,18)           121.1108         estimate D2E/DX2                !
 ! A74   A(14,19,40)           121.0929         estimate D2E/DX2                !
 ! A75   A(18,19,40)           117.7891         estimate D2E/DX2                !
 ! D1    D(6,1,2,3)            -56.4537         estimate D2E/DX2                !
 ! D2    D(6,1,2,22)          -177.8772         estimate D2E/DX2                !
 ! D3    D(6,1,2,23)            65.2081         estimate D2E/DX2                !
 ! D4    D(20,1,2,3)          -177.8744         estimate D2E/DX2                !
 ! D5    D(20,1,2,22)           60.7021         estimate D2E/DX2                !
 ! D6    D(20,1,2,23)          -56.2126         estimate D2E/DX2                !
 ! D7    D(21,1,2,3)            64.5406         estimate D2E/DX2                !
 ! D8    D(21,1,2,22)          -56.8828         estimate D2E/DX2                !
 ! D9    D(21,1,2,23)         -173.7975         estimate D2E/DX2                !
 ! D10   D(2,1,6,5)             56.14           estimate D2E/DX2                !
 ! D11   D(2,1,6,29)           177.5695         estimate D2E/DX2                !
 ! D12   D(2,1,6,30)           -65.5012         estimate D2E/DX2                !
 ! D13   D(20,1,6,5)           177.6            estimate D2E/DX2                !
 ! D14   D(20,1,6,29)          -60.9705         estimate D2E/DX2                !
 ! D15   D(20,1,6,30)           55.9589         estimate D2E/DX2                !
 ! D16   D(21,1,6,5)           -64.8945         estimate D2E/DX2                !
 ! D17   D(21,1,6,29)           56.535          estimate D2E/DX2                !
 ! D18   D(21,1,6,30)          173.4644         estimate D2E/DX2                !
 ! D19   D(1,2,3,4)             55.2947         estimate D2E/DX2                !
 ! D20   D(1,2,3,24)           -66.8401         estimate D2E/DX2                !
 ! D21   D(1,2,3,25)           178.0022         estimate D2E/DX2                !
 ! D22   D(22,2,3,4)           176.5496         estimate D2E/DX2                !
 ! D23   D(22,2,3,24)           54.4147         estimate D2E/DX2                !
 ! D24   D(22,2,3,25)          -60.743          estimate D2E/DX2                !
 ! D25   D(23,2,3,4)           -66.3021         estimate D2E/DX2                !
 ! D26   D(23,2,3,24)          171.563          estimate D2E/DX2                !
 ! D27   D(23,2,3,25)           56.4053         estimate D2E/DX2                !
 ! D28   D(2,3,4,5)            -51.9069         estimate D2E/DX2                !
 ! D29   D(2,3,4,7)           -173.1954         estimate D2E/DX2                !
 ! D30   D(2,3,4,26)            66.0807         estimate D2E/DX2                !
 ! D31   D(24,3,4,5)            69.1608         estimate D2E/DX2                !
 ! D32   D(24,3,4,7)           -52.1277         estimate D2E/DX2                !
 ! D33   D(24,3,4,26)         -172.8516         estimate D2E/DX2                !
 ! D34   D(25,3,4,5)          -173.5671         estimate D2E/DX2                !
 ! D35   D(25,3,4,7)            65.1443         estimate D2E/DX2                !
 ! D36   D(25,3,4,26)          -55.5796         estimate D2E/DX2                !
 ! D37   D(3,4,5,6)             51.6802         estimate D2E/DX2                !
 ! D38   D(3,4,5,27)           -69.9692         estimate D2E/DX2                !
 ! D39   D(3,4,5,28)           172.6412         estimate D2E/DX2                !
 ! D40   D(7,4,5,6)            172.7909         estimate D2E/DX2                !
 ! D41   D(7,4,5,27)            51.1416         estimate D2E/DX2                !
 ! D42   D(7,4,5,28)           -66.2481         estimate D2E/DX2                !
 ! D43   D(26,4,5,6)           -66.9171         estimate D2E/DX2                !
 ! D44   D(26,4,5,27)          171.4336         estimate D2E/DX2                !
 ! D45   D(26,4,5,28)           54.044          estimate D2E/DX2                !
 ! D46   D(3,4,7,8)           -179.4022         estimate D2E/DX2                !
 ! D47   D(3,4,7,14)           -72.1518         estimate D2E/DX2                !
 ! D48   D(5,4,7,8)             59.2265         estimate D2E/DX2                !
 ! D49   D(5,4,7,14)           166.4769         estimate D2E/DX2                !
 ! D50   D(26,4,7,8)           -59.5691         estimate D2E/DX2                !
 ! D51   D(26,4,7,14)           47.6814         estimate D2E/DX2                !
 ! D52   D(4,5,6,1)            -54.7477         estimate D2E/DX2                !
 ! D53   D(4,5,6,29)          -176.2176         estimate D2E/DX2                !
 ! D54   D(4,5,6,30)            66.8493         estimate D2E/DX2                !
 ! D55   D(27,5,6,1)            67.8444         estimate D2E/DX2                !
 ! D56   D(27,5,6,29)          -53.6255         estimate D2E/DX2                !
 ! D57   D(27,5,6,30)         -170.5587         estimate D2E/DX2                !
 ! D58   D(28,5,6,1)          -176.951          estimate D2E/DX2                !
 ! D59   D(28,5,6,29)           61.5791         estimate D2E/DX2                !
 ! D60   D(28,5,6,30)          -55.354          estimate D2E/DX2                !
 ! D61   D(4,7,8,9)             58.0033         estimate D2E/DX2                !
 ! D62   D(4,7,8,13)          -121.7103         estimate D2E/DX2                !
 ! D63   D(14,7,8,9)           -52.1735         estimate D2E/DX2                !
 ! D64   D(14,7,8,13)          128.1129         estimate D2E/DX2                !
 ! D65   D(4,7,14,15)          148.882          estimate D2E/DX2                !
 ! D66   D(4,7,14,19)          -31.1737         estimate D2E/DX2                !
 ! D67   D(8,7,14,15)         -102.8745         estimate D2E/DX2                !
 ! D68   D(8,7,14,19)           77.0699         estimate D2E/DX2                !
 ! D69   D(7,8,9,10)           178.966          estimate D2E/DX2                !
 ! D70   D(7,8,9,31)            -0.6791         estimate D2E/DX2                !
 ! D71   D(13,8,9,10)           -1.3207         estimate D2E/DX2                !
 ! D72   D(13,8,9,31)          179.0343         estimate D2E/DX2                !
 ! D73   D(7,8,13,12)         -179.3417         estimate D2E/DX2                !
 ! D74   D(7,8,13,35)            0.5235         estimate D2E/DX2                !
 ! D75   D(9,8,13,12)            0.9268         estimate D2E/DX2                !
 ! D76   D(9,8,13,35)         -179.208          estimate D2E/DX2                !
 ! D77   D(8,9,10,11)            0.7079         estimate D2E/DX2                !
 ! D78   D(8,9,10,32)         -178.9672         estimate D2E/DX2                !
 ! D79   D(31,9,10,11)        -179.6365         estimate D2E/DX2                !
 ! D80   D(31,9,10,32)           0.6884         estimate D2E/DX2                !
 ! D81   D(9,10,11,12)           0.3388         estimate D2E/DX2                !
 ! D82   D(9,10,11,33)        -179.6405         estimate D2E/DX2                !
 ! D83   D(32,10,11,12)       -179.9866         estimate D2E/DX2                !
 ! D84   D(32,10,11,33)          0.0341         estimate D2E/DX2                !
 ! D85   D(10,11,12,13)         -0.7293         estimate D2E/DX2                !
 ! D86   D(10,11,12,34)        179.6399         estimate D2E/DX2                !
 ! D87   D(33,11,12,13)        179.25           estimate D2E/DX2                !
 ! D88   D(33,11,12,34)         -0.3808         estimate D2E/DX2                !
 ! D89   D(11,12,13,8)           0.0869         estimate D2E/DX2                !
 ! D90   D(11,12,13,35)       -179.7809         estimate D2E/DX2                !
 ! D91   D(34,12,13,8)         179.7183         estimate D2E/DX2                !
 ! D92   D(34,12,13,35)         -0.1495         estimate D2E/DX2                !
 ! D93   D(7,14,15,16)        -179.6299         estimate D2E/DX2                !
 ! D94   D(7,14,15,36)           0.5594         estimate D2E/DX2                !
 ! D95   D(19,14,15,16)          0.4217         estimate D2E/DX2                !
 ! D96   D(19,14,15,36)       -179.3889         estimate D2E/DX2                !
 ! D97   D(7,14,19,18)        -179.8085         estimate D2E/DX2                !
 ! D98   D(7,14,19,40)          -0.8042         estimate D2E/DX2                !
 ! D99   D(15,14,19,18)          0.136          estimate D2E/DX2                !
 ! D100  D(15,14,19,40)        179.1402         estimate D2E/DX2                !
 ! D101  D(14,15,16,17)         -0.3981         estimate D2E/DX2                !
 ! D102  D(14,15,16,37)        179.738          estimate D2E/DX2                !
 ! D103  D(36,15,16,17)        179.4164         estimate D2E/DX2                !
 ! D104  D(36,15,16,37)         -0.4475         estimate D2E/DX2                !
 ! D105  D(15,16,17,18)         -0.1939         estimate D2E/DX2                !
 ! D106  D(15,16,17,38)       -179.7608         estimate D2E/DX2                !
 ! D107  D(37,16,17,18)        179.6699         estimate D2E/DX2                !
 ! D108  D(37,16,17,38)          0.103          estimate D2E/DX2                !
 ! D109  D(16,17,18,19)          0.746          estimate D2E/DX2                !
 ! D110  D(16,17,18,39)       -179.1261         estimate D2E/DX2                !
 ! D111  D(38,17,18,19)       -179.6874         estimate D2E/DX2                !
 ! D112  D(38,17,18,39)          0.4405         estimate D2E/DX2                !
 ! D113  D(17,18,19,14)         -0.7232         estimate D2E/DX2                !
 ! D114  D(17,18,19,40)       -179.7593         estimate D2E/DX2                !
 ! D115  D(39,18,19,14)        179.1491         estimate D2E/DX2                !
 ! D116  D(39,18,19,40)          0.113          estimate D2E/DX2                !
 --------------------------------------------------------------------------------
 Trust Radius=3.00D-01 FncErr=1.00D-07 GrdErr=1.00D-06
 Number of steps in this run= 240 maximum allowed number of steps= 240.
 GradGradGradGradGradGradGradGradGradGradGradGradGradGradGradGradGradGrad

 Leave Link  103 at Fri Oct  1 18:35:47 2021, MaxMem= 1610612736 cpu:       0.0
 (Enter /sw/target/amd/app/gaussian/Gaussian09RevA.02_gcc-4.9.2/g09/l202.exe)
                          Input orientation:                          
 ---------------------------------------------------------------------
 Center     Atomic      Atomic             Coordinates (Angstroms)
 Number     Number       Type             X           Y           Z
 ---------------------------------------------------------------------
      1          6           0       -1.296314    0.530696    0.241494
      2          6           0       -0.928881   -0.910908    0.577991
      3          6           0        0.442700   -1.287339    0.017620
      4          6           0        1.558895   -0.327247    0.483310
      5          6           0        1.153677    1.137413    0.201757
      6          6           0       -0.227359    1.487890    0.752283
      7         15           0        3.153338   -0.733341   -0.406883
      8          6           0        4.341132    0.469024    0.272101
      9          6           0        4.647467    0.587453    1.633661
     10          6           0        5.587816    1.521468    2.080962
     11          6           0        6.226068    2.362321    1.173843
     12          6           0        5.919449    2.274868   -0.180625
     13          6           0        4.985488    1.335308   -0.626842
     14          6           0        3.745248   -2.304385    0.304952
     15          6           0        4.471943   -3.169854   -0.532444
     16          6           0        4.955177   -4.397524   -0.067533
     17          6           0        4.727757   -4.780992    1.249322
     18          6           0        4.021729   -3.934825    2.098643
     19          6           0        3.528867   -2.711431    1.628186
     20          1           0       -2.263653    0.782340    0.686719
     21          1           0       -1.401056    0.641251   -0.843261
     22          1           0       -1.691326   -1.584731    0.168796
     23          1           0       -0.932985   -1.046342    1.665383
     24          1           0        0.378419   -1.290552   -1.079521
     25          1           0        0.672649   -2.316745    0.317086
     26          1           0        1.689961   -0.436585    1.565573
     27          1           0        1.159693    1.332717   -0.878556
     28          1           0        1.881978    1.825266    0.647652
     29          1           0       -0.485841    2.513322    0.464188
     30          1           0       -0.204470    1.461171    1.849199
     31          1           0        4.167347   -0.045701    2.372263
     32          1           0        5.823813    1.586212    3.139821
     33          1           0        6.960626    3.083490    1.521682
     34          1           0        6.409864    2.932474   -0.893547
     35          1           0        4.767290    1.286156   -1.692082
     36          1           0        4.674685   -2.893526   -1.566300
     37          1           0        5.510351   -5.050215   -0.735857
     38          1           0        5.105173   -5.731988    1.614116
     39          1           0        3.852748   -4.222565    3.133803
     40          1           0        2.987262   -2.081488    2.327115
 ---------------------------------------------------------------------
                    Distance matrix (angstroms):
                    1          2          3          4          5
     1  C    0.000000
     2  C    1.525274   0.000000
     3  C    2.525775   1.528709   0.000000
     4  C    2.991113   2.557079   1.544194   0.000000
     5  C    2.524309   2.945203   2.533539   1.545543   0.000000
     6  C    1.523086   2.505343   2.947983   2.560814   1.527472
     7  P    4.670930   4.203097   2.799049   1.870723   2.805140
     8  C    5.637866   5.456264   4.283380   2.901638   3.257540
     9  C    6.104907   5.869854   4.879191   3.420419   3.815675
    10  C    7.194200   7.116369   6.214419   4.711947   4.831200
    11  C    7.798099   7.890650   6.935720   5.430756   5.307966
    12  C    7.435560   7.591067   6.536314   5.121157   4.914530
    13  C    6.392373   6.440254   5.284934   3.967123   3.925368
    14  C    5.784380   4.885060   3.467530   2.953139   4.309625
    15  C    6.896799   5.958590   4.481209   4.194999   5.486574
    16  C    7.966428   6.869885   5.481145   5.329664   6.720078
    17  C    8.094391   6.886638   5.664311   5.519448   6.992779
    18  C    7.188286   5.997082   4.914193   4.657196   6.127928
    19  C    5.976342   4.921006   3.761168   3.297857   4.742344
    20  H    1.094210   2.158825   3.472119   3.985527   3.469784
    21  H    1.095393   2.156874   2.803571   3.385127   2.804443
    22  H    2.153218   1.096722   2.159945   3.499159   3.937663
    23  H    2.155578   1.095801   2.160027   2.850239   3.356359
    24  H    2.804773   2.144880   1.099026   2.182640   2.852667
    25  H    3.462723   2.146939   1.096464   2.184300   3.489398
    26  H    3.406854   2.838773   2.162314   1.095639   2.150596
    27  H    2.815976   3.393748   2.860403   2.183923   1.097841
    28  H    3.455780   3.923319   3.486657   2.182821   1.096534
    29  H    2.153431   3.454647   3.937847   3.500020   2.156388
    30  H    2.154675   2.787024   3.365683   2.858942   2.159501
    31  H    5.892708   5.471703   4.578101   3.232868   3.897828
    32  H    7.759551   7.641823   6.852870   5.376607   5.535686
    33  H    8.736858   8.893261   7.990602   6.472252   6.264988
    34  H    8.151198   8.413928   7.365059   6.004450   5.661223
    35  H    6.409113   6.513577   5.314888   4.198714   4.082518
    36  H    7.116617   6.318917   4.795658   4.527122   5.636665
    37  H    8.856210   7.766837   6.356732   6.277484   7.625384
    38  H    9.060040   7.792700   6.636442   6.562472   8.049705
    39  H    7.581015   6.353206   5.473078   5.240265   6.679165
    40  H    5.433446   4.445882   3.526930   2.918426   4.270890
                    6          7          8          9         10
     6  C    0.000000
     7  P    4.207926   0.000000
     8  C    4.705292   1.821416   0.000000
     9  C    5.035032   2.853198   1.400612   0.000000
    10  C    5.965130   4.147314   2.435946   1.398827   0.000000
    11  C    6.526029   4.639341   2.819697   2.419415   1.391856
    12  C    6.266809   4.092907   2.440721   2.785128   2.406733
    13  C    5.394352   2.772086   1.404898   2.404874   2.780225
    14  C    5.510269   1.823525   2.836892   3.307899   4.602871
    15  C    6.740070   2.773279   3.729053   4.340527   5.484849
    16  C    7.884724   4.097318   4.916878   5.276243   6.328564
    17  C    8.006192   4.648148   5.354168   5.382784   6.415008
    18  C    7.019493   4.157074   4.778301   4.588982   5.676625
    19  C    5.701819   2.862755   3.551625   3.483379   4.728817
    20  H    2.156059   5.730362   6.625198   6.978414   8.008482
    21  H    2.154094   4.777283   5.852044   6.536258   7.626938
    22  H    3.453209   4.952478   6.373314   6.858900   8.141913
    23  H    2.784600   4.592417   5.661615   5.814787   7.020485
    24  H    3.382633   2.909141   4.541595   5.395649   6.710732
    25  H    3.933784   3.030696   4.606550   5.095775   6.480896
    26  H    2.835694   2.473887   3.085758   3.130516   4.392365
    27  H    2.146538   2.909586   3.491637   4.362479   5.329413
    28  H    2.138708   3.045468   2.833350   3.186272   3.984960
    29  H    1.096048   4.954110   5.245542   5.606023   6.362942
    30  H    1.097481   4.602246   4.912646   4.934687   5.797235
    31  H    4.928456   3.037222   2.169292   1.084865   2.135090
    32  H    6.505897   5.009079   3.416178   2.156346   1.086770
    33  H    7.403043   5.725644   3.906230   3.404914   2.153442
    34  H    6.989156   4.927474   3.421545   3.871944   3.393288
    35  H    5.564363   2.887031   2.169638   3.400457   3.868396
    36  H    6.971561   2.885332   3.846780   4.728394   5.799009
    37  H    8.825117   4.929415   5.731061   6.175960   7.150349
    38  H    9.016945   5.734158   6.390408   6.336025   7.284471
    39  H    7.411357   5.019992   5.517143   5.100812   6.092032
    40  H    5.055130   3.052839   3.544173   3.218759   4.450255
                   11         12         13         14         15
    11  C    0.000000
    12  C    1.391490   0.000000
    13  C    2.415835   1.397915   0.000000
    14  C    5.356079   5.092396   3.956488   0.000000
    15  C    6.049242   5.644825   4.535319   1.406540   0.000000
    16  C    6.989397   6.742657   5.760130   2.446201   1.398868
    17  C    7.299147   7.297262   6.402776   2.826790   2.415760
    18  C    6.735607   6.881620   6.010940   2.439694   2.776778
    19  C    5.764050   5.818063   4.856232   1.401233   2.401638
    20  H    8.649218   8.363198   7.387912   6.766129   7.904078
    21  H    8.074887   7.529780   6.427791   6.039835   7.008084
    22  H    8.903620   8.540638   7.330723   5.485688   6.402362
    23  H    7.944346   7.835435   6.779003   5.031830   6.209106
    24  H    7.253697   6.650056   5.322136   3.778910   4.537401
    25  H    7.312192   6.989960   5.729666   3.072648   3.985490
    26  H    5.344492   5.318811   4.336678   3.049926   4.428527
    27  H    5.562425   4.902044   3.834067   4.616741   5.600351
    28  H    4.408675   4.146005   3.390600   4.543483   5.749067
    29  H    6.751009   6.442078   5.702060   6.413873   7.607324
    30  H    6.528399   6.502667   5.751720   5.671366   6.999104
    31  H    3.387198   3.869385   3.401642   3.090890   4.276732
    32  H    2.151563   3.392455   3.866974   5.243440   6.158997
    33  H    1.086579   2.153083   3.401980   6.391267   7.036852
    34  H    2.152430   1.086835   2.156599   5.996772   6.412826
    35  H    3.391119   2.142318   1.088468   4.233757   4.613894
    36  H    6.126916   5.493799   4.343065   2.170835   1.089183
    37  H    7.687971   7.357479   6.407985   3.426143   2.157644
    38  H    8.183403   8.245841   7.415045   3.913025   3.401946
    39  H    7.268756   7.581116   6.805549   3.419557   3.864321
    40  H    5.618482   5.819306   4.938954   2.171030   3.400867
                   16         17         18         19         20
    16  C    0.000000
    17  C    1.390278   0.000000
    18  C    2.403692   1.391338   0.000000
    19  C    2.784373   2.421561   1.400334   0.000000
    20  H    8.916916   8.952485   7.984435   6.829793   0.000000
    21  H    8.148172   8.446417   7.681268   6.453887   1.762049
    22  H    7.221056   7.251776   6.471959   5.536216   2.489744
    23  H    6.993130   6.794462   5.751543   4.762565   2.464252
    24  H    5.623531   6.043461   5.510591   4.390432   3.794342
    25  H    4.776779   4.835853   4.124132   3.167450   4.285187
    26  H    5.386808   5.310564   4.237805   2.925819   4.229565
    27  H    6.920918   7.391642   6.693427   5.315248   3.804247
    28  H    6.977045   7.218249   6.313681   4.924968   4.274982
    29  H    8.811764   9.000280   8.035436   6.691099   2.491272
    30  H    8.038665   7.978178   6.858554   5.603326   2.460163
    31  H    5.050905   4.898779   3.901456   2.840322   6.699587
    32  H    6.844468   6.731761   5.900288   5.101133   8.489465
    33  H    7.906516   8.179851   7.630645   6.735683   9.543572
    34  H    7.518463   8.180399   7.862327   6.820040   9.074701
    35  H    5.914277   6.742678   6.494929   5.342150   7.439535
    36  H    2.141726   3.390144   3.865549   3.398647   8.168758
    37  H    1.086684   2.150783   3.390351   3.871032   9.822299
    38  H    2.152031   1.086237   2.153697   3.407155   9.879075
    39  H    3.390356   2.151453   1.087615   2.157617   8.273310
    40  H    3.869244   3.387962   2.134755   1.085664   6.201976
                   21         22         23         24         25
    21  H    0.000000
    22  H    2.462419   0.000000
    23  H    3.059470   1.762021   0.000000
    24  H    2.637084   2.434888   3.051871   0.000000
    25  H    3.794259   2.479155   2.451508   1.757883   0.000000
    26  H    4.064307   3.834361   2.694738   3.073421   2.475610
    27  H    2.652698   4.211503   4.063355   2.744506   3.871091
    28  H    3.795132   4.962447   4.148003   3.866799   4.327587
    29  H    2.460018   4.281879   3.783387   4.195168   4.969234
    30  H    3.058337   3.783122   2.617661   4.060682   4.170055
    31  H    6.466731   6.445768   5.245413   5.274509   4.646968
    32  H    8.304013   8.680967   7.399908   7.465315   7.052333
    33  H    9.026362   9.923651   8.909841   8.320093   8.375694
    34  H    8.140191   9.336112   8.734789   7.365247   7.869916
    35  H    6.259784   7.308801   7.014718   5.126094   5.812378
    36  H    7.066262   6.726782   6.730664   4.611331   4.460506
    37  H    8.953874   8.043142   7.956980   6.371020   5.655432
    38  H    9.433339   8.092039   7.643118   7.023122   5.743992
    39  H    8.190006   6.818079   5.928566   6.198368   4.656080
    40  H    6.059862   5.176320   4.108254   4.363119   3.074572
                   26         27         28         29         30
    26  H    0.000000
    27  H    3.063556   0.000000
    28  H    2.448555   1.758866   0.000000
    29  H    3.827416   2.429932   2.472578   0.000000
    30  H    2.696441   3.052554   2.435066   1.761944   0.000000
    31  H    2.634574   4.638302   3.420192   5.642828   4.653713
    32  H    4.864021   6.161625   4.669702   6.915944   6.166161
    33  H    6.338199   6.517451   5.304689   7.542761   7.353760
    34  H    6.298834   5.488510   4.909476   7.040587   7.310048
    35  H    4.801052   3.698479   3.753668   5.809545   6.106529
    36  H    4.975315   5.539791   5.913358   7.745186   7.378020
    37  H    6.416973   7.725957   7.896293   9.726331   9.041009
    38  H    6.301375   8.467011   8.272553  10.028305   8.943663
    39  H    4.633642   7.362929   6.829433   8.445258   7.100429
    40  H    2.229045   5.027239   4.393743   6.053529   4.792285
                   31         32         33         34         35
    31  H    0.000000
    32  H    2.448707   0.000000
    33  H    4.279922   2.480435   0.000000
    34  H    4.956201   4.292311   2.481829   0.000000
    35  H    4.318875   4.955155   4.285955   2.458876   0.000000
    36  H    4.886694   6.598191   7.105342   6.116021   4.182599
    37  H    6.042287   7.691639   8.564867   8.034757   6.451055
    38  H    5.812759   7.510011   9.009101   9.113918   7.765273
    39  H    4.257360   6.134087   8.101622   8.599592   7.380485
    40  H    2.353523   4.707286   6.566075   6.872168   5.537461
                   36         37         38         39         40
    36  H    0.000000
    37  H    2.457496   0.000000
    38  H    4.284535   2.480193   0.000000
    39  H    4.953070   4.290329   2.481204   0.000000
    40  H    4.320357   4.955917   4.280195   2.446226   0.000000
 Stoichiometry    C18H21P
 Framework group  C1[X(C18H21P)]
 Deg. of freedom   114
 Full point group                 C1      NOp   1
 Largest Abelian subgroup         C1      NOp   1
 Largest concise Abelian subgroup C1      NOp   1
                         Standard orientation:                         
 ---------------------------------------------------------------------
 Center     Atomic      Atomic             Coordinates (Angstroms)
 Number     Number       Type             X           Y           Z
 ---------------------------------------------------------------------
      1          6           0       -4.477644   -0.752767    0.019759
      2          6           0       -3.522349   -1.912920    0.280369
      3          6           0       -2.160670   -1.678203   -0.373611
      4          6           0       -1.514814   -0.344440    0.060534
      5          6           0       -2.510160    0.820420   -0.142178
      6          6           0       -3.870315    0.558260    0.501577
      7         15           0        0.038528   -0.040796   -0.936730
      8          6           0        0.663446    1.541095   -0.285073
      9          6           0        0.986243    1.764145    1.059457
     10          6           0        1.482160    3.001064    1.484682
     11          6           0        1.649124    4.039599    0.573183
     12          6           0        1.313694    3.844522   -0.763109
     13          6           0        0.825949    2.605216   -1.187835
     14          6           0        1.277141   -1.228406   -0.319751
     15          6           0        2.237852   -1.704525   -1.230079
     16          6           0        3.218205   -2.623114   -0.840292
     17          6           0        3.262236   -3.078357    0.472601
     18          6           0        2.329112   -2.611273    1.392891
     19          6           0        1.341418   -1.700535    0.997981
     20          1           0       -5.428793   -0.931340    0.530370
     21          1           0       -4.693559   -0.686150   -1.052075
     22          1           0       -3.962336   -2.839524   -0.107724
     23          1           0       -3.394646   -2.047551    1.360345
     24          1           0       -2.293489   -1.698010   -1.464402
     25          1           0       -1.503841   -2.520684   -0.126562
     26          1           0       -1.275700   -0.398954    1.128372
     27          1           0       -2.660505    1.010201   -1.212989
     28          1           0       -2.104433    1.745212    0.285061
     29          1           0       -4.550588    1.385132    0.267410
     30          1           0       -3.762624    0.533609    1.593483
     31          1           0        0.864794    0.981835    1.801194
     32          1           0        1.742529    3.148730    2.529417
     33          1           0        2.039910    4.998167    0.903469
     34          1           0        1.436101    4.653116   -1.478931
     35          1           0        0.574808    2.479199   -2.239410
     36          1           0        2.235502   -1.359507   -2.263171
     37          1           0        3.946654   -2.978870   -1.563950
     38          1           0        4.024772   -3.788683    0.779009
     39          1           0        2.366914   -2.952601    2.424866
     40          1           0        0.636841   -1.360075    1.750527
 ---------------------------------------------------------------------
 Rotational constants (GHZ):      0.3521809      0.3056800      0.1899038
 Leave Link  202 at Fri Oct  1 18:35:48 2021, MaxMem= 1610612736 cpu:       0.1
 (Enter /sw/target/amd/app/gaussian/Gaussian09RevA.02_gcc-4.9.2/g09/l301.exe)
 Standard basis: 6-31G(d) (6D, 7F)
 Ernie: Thresh=  0.10000D-02 Tol=  0.10000D-05 Strict=F.
 There are   331 symmetry adapted basis functions of A   symmetry.
 Integral buffers will be    131072 words long.
 Raffenetti 2 integral format.
 Two-electron integral symmetry is turned on.
   331 basis functions,   640 primitive gaussians,   331 cartesian basis functions
    72 alpha electrons       72 beta electrons
       nuclear repulsion energy      1501.8269977350 Hartrees.
 IExCor=  402 DFT=T Ex+Corr=B3LYP ExCW=0 ScaHFX=  0.200000
 ScaDFX=  0.800000  0.720000  1.000000  0.810000 ScalE2=  1.000000  1.000000
 IRadAn=      0 IRanWt=     -1 IRanGd=            0 ICorTp=0
 NAtoms=   40 NActive=   40 NUniq=   40 SFac= 7.50D-01 NAtFMM=   80 NAOKFM=F Big=F
 Leave Link  301 at Fri Oct  1 18:35:48 2021, MaxMem= 1610612736 cpu:       0.1
 (Enter /sw/target/amd/app/gaussian/Gaussian09RevA.02_gcc-4.9.2/g09/l302.exe)
 NPDir=0 NMtPBC=     1 NCelOv=     1 NCel=       1 NClECP=     1 NCelD=      1
         NCelK=      1 NCelE2=     1 NClLst=     1 CellRange=     0.0.
 One-electron integrals computed using PRISM.
 NBasis=   331 RedAO= T  NBF=   331
 NBsUse=   331 1.00D-06 NBFU=   331
 Precomputing XC quadrature grid using
 IXCGrd= 2 IRadAn=           0 IRanWt=          -1 IRanGd=           0 AccXCQ= 1.00D-10.
 NRdTot=    2529 NPtTot=      322552 NUsed=      340788 NTot=      340820
 NSgBfM=   329   329   329   329   329 NAtAll=    40    40.
 Leave Link  302 at Fri Oct  1 18:35:54 2021, MaxMem= 1610612736 cpu:       4.2
 (Enter /sw/target/amd/app/gaussian/Gaussian09RevA.02_gcc-4.9.2/g09/l303.exe)
 DipDrv:  MaxL=1.
 Leave Link  303 at Fri Oct  1 18:35:55 2021, MaxMem= 1610612736 cpu:       0.3
 (Enter /sw/target/amd/app/gaussian/Gaussian09RevA.02_gcc-4.9.2/g09/l401.exe)
 Harris functional with IExCor=  402 diagonalized for initial guess.
 ExpMin= 9.98D-02 ExpMax= 1.94D+04 ExpMxC= 2.91D+03 IAcc=2 IRadAn=         0 AccDes= 0.00D+00
 HarFok:  IExCor=  402 AccDes= 0.00D+00 IRadAn=         0 IDoV= 1
 ScaDFX=  1.000000  1.000000  1.000000  1.000000
 FoFCou: FMM=F IPFlag=           0 FMFlag=      100000 FMFlg1=           0
         NFxFlg=           0 DoJE=T BraDBF=F KetDBF=T FulRan=T
         Omega=  0.000000  0.000000  1.000000  0.000000  0.000000 ICntrl=     500 IOpCl=  0
         NMat0=    1 NMatS0=    1 NMatT0=    0 NMatD0=    1 NMtDS0=    0 NMtDT0=    0
         I1Cent=           4 NGrid=           0.
 Petite list used in FoFCou.
 Harris En= -1040.05593225941    
 Initial guess orbital symmetries:
       Occupied  (A) (A) (A) (A) (A) (A) (A) (A) (A) (A) (A) (A)
                 (A) (A) (A) (A) (A) (A) (A) (A) (A) (A) (A) (A)
                 (A) (A) (A) (A) (A) (A) (A) (A) (A) (A) (A) (A)
                 (A) (A) (A) (A) (A) (A) (A) (A) (A) (A) (A) (A)
                 (A) (A) (A) (A) (A) (A) (A) (A) (A) (A) (A) (A)
                 (A) (A) (A) (A) (A) (A) (A) (A) (A) (A) (A) (A)
       Virtual   (A) (A) (A) (A) (A) (A) (A) (A) (A) (A) (A) (A)
                 (A) (A) (A) (A) (A) (A) (A) (A) (A) (A) (A) (A)
                 (A) (A) (A) (A) (A) (A) (A) (A) (A) (A) (A) (A)
                 (A) (A) (A) (A) (A) (A) (A) (A) (A) (A) (A) (A)
                 (A) (A) (A) (A) (A) (A) (A) (A) (A) (A) (A) (A)
                 (A) (A) (A) (A) (A) (A) (A) (A) (A) (A) (A) (A)
                 (A) (A) (A) (A) (A) (A) (A) (A) (A) (A) (A) (A)
                 (A) (A) (A) (A) (A) (A) (A) (A) (A) (A) (A) (A)
                 (A) (A) (A) (A) (A) (A) (A) (A) (A) (A) (A) (A)
                 (A) (A) (A) (A) (A) (A) (A) (A) (A) (A) (A) (A)
                 (A) (A) (A) (A) (A) (A) (A) (A) (A) (A) (A) (A)
                 (A) (A) (A) (A) (A) (A) (A) (A) (A) (A) (A) (A)
                 (A) (A) (A) (A) (A) (A) (A) (A) (A) (A) (A) (A)
                 (A) (A) (A) (A) (A) (A) (A) (A) (A) (A) (A) (A)
                 (A) (A) (A) (A) (A) (A) (A) (A) (A) (A) (A) (A)
                 (A) (A) (A) (A) (A) (A) (A) (A) (A) (A) (A) (A)
                 (A) (A) (A) (A) (A) (A) (A) (A) (A) (A) (A) (A)
                 (A) (A) (A) (A) (A) (A) (A) (A) (A) (A) (A) (A)
                 (A) (A) (A) (A) (A) (A) (A) (A) (A) (A) (A) (A)
                 (A) (A) (A) (A) (A) (A) (A) (A) (A) (A) (A) (A)
                 (A) (A) (A) (A) (A) (A) (A) (A) (A) (A) (A) (A)
                 (A) (A) (A) (A) (A) (A) (A)
 The electronic state of the initial guess is 1-A.
 Leave Link  401 at Fri Oct  1 18:36:44 2021, MaxMem= 1610612736 cpu:      38.6
 (Enter /sw/target/amd/app/gaussian/Gaussian09RevA.02_gcc-4.9.2/g09/l502.exe)
 Closed shell SCF:
 Requested convergence on RMS density matrix=1.00D-08 within  64 cycles.
 Requested convergence on MAX density matrix=1.00D-06.
 Requested convergence on             energy=1.00D-06.
 No special actions if energy rises.
 Using DIIS extrapolation, IDIIS=  1040.
 Integral symmetry usage will be decided dynamically.
       340415 words used for storage of precomputed grid.
 Keep R1 ints in memory in canonical form, NReq=1528535101.
 IEnd=      679138 IEndB=      679138 NGot=  1610612736 MDV=   100488756
 LenX=   100488756 LenY=   100378754
 Symmetry not used in FoFDir.
 MinBra= 0 MaxBra= 2 Meth= 1.
 IRaf=       0 NMat=   1 IRICut=       1 DoRegI=T DoRafI=F ISym2E= 0 JSym2E=0.
 Integral accuracy reduced to 1.0D-05 until final iterations.

 Cycle   1  Pass 0  IDiag  1:
 E= -1039.35316739124    
 DIIS: error= 3.47D-02 at cycle   1 NSaved=   1.
 NSaved= 1 IEnMin= 1 EnMin= -1039.35316739124     IErMin= 1 ErrMin= 3.47D-02
 ErrMax= 3.47D-02 EMaxC= 1.00D-01 BMatC= 5.07D-01 BMatP= 5.07D-01
 IDIUse=3 WtCom= 6.53D-01 WtEn= 3.47D-01
 Coeff-Com:  0.100D+01
 Coeff-En:   0.100D+01
 Coeff:      0.100D+01
 Gap=     0.323 Goal=   None    Shift=    0.000
 GapD=    0.323 DampG=1.000 DampE=0.500 DampFc=0.5000 IDamp=-1.
 Damping current iteration by 5.00D-01
 RMSDP=5.46D-03 MaxDP=1.55D-01              OVMax= 1.89D-01

 Cycle   2  Pass 0  IDiag  1:
 E= -1039.58499272184     Delta-E=       -0.231825330595 Rises=F Damp=T
 DIIS: error= 7.91D-03 at cycle   2 NSaved=   2.
 NSaved= 2 IEnMin= 2 EnMin= -1039.58499272184     IErMin= 2 ErrMin= 7.91D-03
 ErrMax= 7.91D-03 EMaxC= 1.00D-01 BMatC= 3.56D-02 BMatP= 5.07D-01
 IDIUse=3 WtCom= 9.21D-01 WtEn= 7.91D-02
 Coeff-Com:  0.102D+00 0.898D+00
 Coeff-En:   0.178D+00 0.822D+00
 Coeff:      0.108D+00 0.892D+00
 Gap=     0.252 Goal=   None    Shift=    0.000
 RMSDP=1.44D-03 MaxDP=1.05D-01 DE=-2.32D-01 OVMax= 1.45D-01

 Cycle   3  Pass 0  IDiag  1:
 E= -1039.89698176697     Delta-E=       -0.311989045133 Rises=F Damp=F
 DIIS: error= 8.26D-03 at cycle   3 NSaved=   3.
 NSaved= 3 IEnMin= 3 EnMin= -1039.89698176697     IErMin= 2 ErrMin= 7.91D-03
 ErrMax= 8.26D-03 EMaxC= 1.00D-01 BMatC= 2.06D-02 BMatP= 3.56D-02
 IDIUse=3 WtCom= 9.17D-01 WtEn= 8.26D-02
 Coeff-Com:  0.578D-02 0.418D+00 0.576D+00
 Coeff-En:   0.000D+00 0.000D+00 0.100D+01
 Coeff:      0.531D-02 0.384D+00 0.611D+00
 Gap=     0.197 Goal=   None    Shift=    0.000
 RMSDP=9.28D-04 MaxDP=3.97D-02 DE=-3.12D-01 OVMax= 6.87D-02

 Cycle   4  Pass 0  IDiag  1:
 E= -1039.90797970871     Delta-E=       -0.010997941741 Rises=F Damp=F
 DIIS: error= 7.54D-03 at cycle   4 NSaved=   4.
 NSaved= 4 IEnMin= 4 EnMin= -1039.90797970871     IErMin= 4 ErrMin= 7.54D-03
 ErrMax= 7.54D-03 EMaxC= 1.00D-01 BMatC= 1.12D-02 BMatP= 2.06D-02
 IDIUse=3 WtCom= 9.25D-01 WtEn= 7.54D-02
 Coeff-Com: -0.832D-02 0.131D+00 0.425D+00 0.453D+00
 Coeff-En:   0.000D+00 0.000D+00 0.379D+00 0.621D+00
 Coeff:     -0.770D-02 0.121D+00 0.421D+00 0.465D+00
 Gap=     0.192 Goal=   None    Shift=    0.000
 RMSDP=4.27D-04 MaxDP=1.56D-02 DE=-1.10D-02 OVMax= 3.94D-02

 Cycle   5  Pass 0  IDiag  1:
 E= -1039.92064882819     Delta-E=       -0.012669119477 Rises=F Damp=F
 DIIS: error= 1.20D-03 at cycle   5 NSaved=   5.
 NSaved= 5 IEnMin= 5 EnMin= -1039.92064882819     IErMin= 5 ErrMin= 1.20D-03
 ErrMax= 1.20D-03 EMaxC= 1.00D-01 BMatC= 4.49D-04 BMatP= 1.12D-02
 IDIUse=3 WtCom= 9.88D-01 WtEn= 1.20D-02
 Coeff-Com: -0.370D-02 0.178D-01 0.147D+00 0.235D+00 0.604D+00
 Coeff-En:   0.000D+00 0.000D+00 0.000D+00 0.000D+00 0.100D+01
 Coeff:     -0.365D-02 0.176D-01 0.145D+00 0.233D+00 0.609D+00
 Gap=     0.191 Goal=   None    Shift=    0.000
 RMSDP=8.94D-05 MaxDP=5.86D-03 DE=-1.27D-02 OVMax= 6.24D-03

 Cycle   6  Pass 0  IDiag  1:
 E= -1039.92109552399     Delta-E=       -0.000446695804 Rises=F Damp=F
 DIIS: error= 2.22D-04 at cycle   6 NSaved=   6.
 NSaved= 6 IEnMin= 6 EnMin= -1039.92109552399     IErMin= 6 ErrMin= 2.22D-04
 ErrMax= 2.22D-04 EMaxC= 1.00D-01 BMatC= 3.84D-05 BMatP= 4.49D-04
 IDIUse=3 WtCom= 9.98D-01 WtEn= 2.22D-03
 Coeff-Com: -0.143D-02 0.231D-02 0.517D-01 0.951D-01 0.323D+00 0.529D+00
 Coeff-En:   0.000D+00 0.000D+00 0.000D+00 0.000D+00 0.000D+00 0.100D+01
 Coeff:     -0.143D-02 0.230D-02 0.516D-01 0.949D-01 0.322D+00 0.530D+00
 Gap=     0.191 Goal=   None    Shift=    0.000
 RMSDP=2.51D-05 MaxDP=9.77D-04 DE=-4.47D-04 OVMax= 1.85D-03

 Cycle   7  Pass 0  IDiag  1:
 E= -1039.92113357531     Delta-E=       -0.000038051314 Rises=F Damp=F
 DIIS: error= 9.97D-05 at cycle   7 NSaved=   7.
 NSaved= 7 IEnMin= 7 EnMin= -1039.92113357531     IErMin= 7 ErrMin= 9.97D-05
 ErrMax= 9.97D-05 EMaxC= 1.00D-01 BMatC= 3.03D-06 BMatP= 3.84D-05
 IDIUse=1 WtCom= 1.00D+00 WtEn= 0.00D+00
 Coeff-Com: -0.501D-03-0.120D-03 0.183D-01 0.361D-01 0.137D+00 0.296D+00
 Coeff-Com:  0.514D+00
 Coeff:     -0.501D-03-0.120D-03 0.183D-01 0.361D-01 0.137D+00 0.296D+00
 Coeff:      0.514D+00
 Gap=     0.191 Goal=   None    Shift=    0.000
 RMSDP=8.00D-06 MaxDP=3.67D-04 DE=-3.81D-05 OVMax= 6.88D-04

 Initial convergence to 1.0D-05 achieved.  Increase integral accuracy.
 Cycle   8  Pass 1  IDiag  1:
 E= -1039.92128187381     Delta-E=       -0.000148298505 Rises=F Damp=F
 DIIS: error= 3.46D-05 at cycle   1 NSaved=   1.
 NSaved= 1 IEnMin= 1 EnMin= -1039.92128187381     IErMin= 1 ErrMin= 3.46D-05
 ErrMax= 3.46D-05 EMaxC= 1.00D-01 BMatC= 5.58D-07 BMatP= 5.58D-07
 IDIUse=1 WtCom= 1.00D+00 WtEn= 0.00D+00
 Coeff-Com:  0.100D+01
 Coeff:      0.100D+01
 Gap=     0.191 Goal=   None    Shift=    0.000
 RMSDP=8.00D-06 MaxDP=3.67D-04 DE=-1.48D-04 OVMax= 5.25D-04

 Cycle   9  Pass 1  IDiag  1:
 E= -1039.92128125719     Delta-E=        0.000000616624 Rises=F Damp=F
 DIIS: error= 7.01D-05 at cycle   2 NSaved=   2.
 NSaved= 2 IEnMin= 1 EnMin= -1039.92128187381     IErMin= 1 ErrMin= 3.46D-05
 ErrMax= 7.01D-05 EMaxC= 1.00D-01 BMatC= 1.15D-06 BMatP= 5.58D-07
 IDIUse=1 WtCom= 1.00D+00 WtEn= 0.00D+00
 Coeff-Com:  0.604D+00 0.396D+00
 Coeff:      0.604D+00 0.396D+00
 Gap=     0.191 Goal=   None    Shift=    0.000
 RMSDP=4.53D-06 MaxDP=1.51D-04 DE= 6.17D-07 OVMax= 4.22D-04

 Cycle  10  Pass 1  IDiag  1:
 E= -1039.92128254015     Delta-E=       -0.000001282956 Rises=F Damp=F
 DIIS: error= 1.47D-05 at cycle   3 NSaved=   3.
 NSaved= 3 IEnMin= 3 EnMin= -1039.92128254015     IErMin= 3 ErrMin= 1.47D-05
 ErrMax= 1.47D-05 EMaxC= 1.00D-01 BMatC= 5.45D-08 BMatP= 5.58D-07
 IDIUse=1 WtCom= 1.00D+00 WtEn= 0.00D+00
 Coeff-Com:  0.386D-01 0.178D+00 0.783D+00
 Coeff:      0.386D-01 0.178D+00 0.783D+00
 Gap=     0.191 Goal=   None    Shift=    0.000
 RMSDP=1.09D-06 MaxDP=3.34D-05 DE=-1.28D-06 OVMax= 9.44D-05

 Cycle  11  Pass 1  IDiag  1:
 E= -1039.92128259389     Delta-E=       -0.000000053743 Rises=F Damp=F
 DIIS: error= 3.38D-06 at cycle   4 NSaved=   4.
 NSaved= 4 IEnMin= 4 EnMin= -1039.92128259389     IErMin= 4 ErrMin= 3.38D-06
 ErrMax= 3.38D-06 EMaxC= 1.00D-01 BMatC= 1.03D-08 BMatP= 5.45D-08
 IDIUse=1 WtCom= 1.00D+00 WtEn= 0.00D+00
 Coeff-Com: -0.146D-01 0.795D-01 0.460D+00 0.476D+00
 Coeff:     -0.146D-01 0.795D-01 0.460D+00 0.476D+00
 Gap=     0.191 Goal=   None    Shift=    0.000
 RMSDP=3.68D-07 MaxDP=1.04D-05 DE=-5.37D-08 OVMax= 2.80D-05

 Cycle  12  Pass 1  IDiag  1:
 E= -1039.92128260434     Delta-E=       -0.000000010455 Rises=F Damp=F
 DIIS: error= 1.27D-06 at cycle   5 NSaved=   5.
 NSaved= 5 IEnMin= 5 EnMin= -1039.92128260434     IErMin= 5 ErrMin= 1.27D-06
 ErrMax= 1.27D-06 EMaxC= 1.00D-01 BMatC= 4.46D-10 BMatP= 1.03D-08
 IDIUse=1 WtCom= 1.00D+00 WtEn= 0.00D+00
 Coeff-Com: -0.100D-01 0.386D-01 0.233D+00 0.273D+00 0.466D+00
 Coeff:     -0.100D-01 0.386D-01 0.233D+00 0.273D+00 0.466D+00
 Gap=     0.191 Goal=   None    Shift=    0.000
 RMSDP=9.92D-08 MaxDP=2.79D-06 DE=-1.05D-08 OVMax= 8.88D-06

 Cycle  13  Pass 1  IDiag  1:
 E= -1039.92128260484     Delta-E=       -0.000000000495 Rises=F Damp=F
 DIIS: error= 4.20D-07 at cycle   6 NSaved=   6.
 NSaved= 6 IEnMin= 6 EnMin= -1039.92128260484     IErMin= 6 ErrMin= 4.20D-07
 ErrMax= 4.20D-07 EMaxC= 1.00D-01 BMatC= 5.64D-11 BMatP= 4.46D-10
 IDIUse=1 WtCom= 1.00D+00 WtEn= 0.00D+00
 Coeff-Com: -0.368D-02 0.111D-01 0.700D-01 0.898D-01 0.282D+00 0.550D+00
 Coeff:     -0.368D-02 0.111D-01 0.700D-01 0.898D-01 0.282D+00 0.550D+00
 Gap=     0.191 Goal=   None    Shift=    0.000
 RMSDP=3.15D-08 MaxDP=9.98D-07 DE=-4.95D-10 OVMax= 2.70D-06

 Cycle  14  Pass 1  IDiag  1:
 E= -1039.92128260488     Delta-E=       -0.000000000045 Rises=F Damp=F
 DIIS: error= 7.38D-08 at cycle   7 NSaved=   7.
 NSaved= 7 IEnMin= 7 EnMin= -1039.92128260488     IErMin= 7 ErrMin= 7.38D-08
 ErrMax= 7.38D-08 EMaxC= 1.00D-01 BMatC= 3.95D-12 BMatP= 5.64D-11
 IDIUse=1 WtCom= 1.00D+00 WtEn= 0.00D+00
 Coeff-Com: -0.731D-03 0.122D-02 0.905D-02 0.140D-01 0.908D-01 0.278D+00
 Coeff-Com:  0.607D+00
 Coeff:     -0.731D-03 0.122D-02 0.905D-02 0.140D-01 0.908D-01 0.278D+00
 Coeff:      0.607D+00
 Gap=     0.191 Goal=   None    Shift=    0.000
 RMSDP=8.52D-09 MaxDP=2.90D-07 DE=-4.46D-11 OVMax= 5.08D-07

 SCF Done:  E(RB3LYP) =  -1039.92128260     A.U. after   14 cycles
             Convg  =    0.8521D-08             -V/T =  2.0077
 KE= 1.031934900078D+03 PE=-5.431616623899D+03 EE= 1.857933443481D+03
 Leave Link  502 at Fri Oct  1 19:10:45 2021, MaxMem= 1610612736 cpu:     667.9
 (Enter /sw/target/amd/app/gaussian/Gaussian09RevA.02_gcc-4.9.2/g09/l508.exe)
 QCSCF skips out because SCF is already converged.
 Leave Link  508 at Fri Oct  1 19:10:50 2021, MaxMem= 1610612736 cpu:       0.0
 (Enter /sw/target/amd/app/gaussian/Gaussian09RevA.02_gcc-4.9.2/g09/l601.exe)
 Copying SCF densities to generalized density rwf, IOpCl= 0 IROHF=0.

 **********************************************************************

            Population analysis using the SCF density.

 **********************************************************************

 Orbital symmetries:
       Occupied  (A) (A) (A) (A) (A) (A) (A) (A) (A) (A) (A) (A)
                 (A) (A) (A) (A) (A) (A) (A) (A) (A) (A) (A) (A)
                 (A) (A) (A) (A) (A) (A) (A) (A) (A) (A) (A) (A)
                 (A) (A) (A) (A) (A) (A) (A) (A) (A) (A) (A) (A)
                 (A) (A) (A) (A) (A) (A) (A) (A) (A) (A) (A) (A)
                 (A) (A) (A) (A) (A) (A) (A) (A) (A) (A) (A) (A)
       Virtual   (A) (A) (A) (A) (A) (A) (A) (A) (A) (A) (A) (A)
                 (A) (A) (A) (A) (A) (A) (A) (A) (A) (A) (A) (A)
                 (A) (A) (A) (A) (A) (A) (A) (A) (A) (A) (A) (A)
                 (A) (A) (A) (A) (A) (A) (A) (A) (A) (A) (A) (A)
                 (A) (A) (A) (A) (A) (A) (A) (A) (A) (A) (A) (A)
                 (A) (A) (A) (A) (A) (A) (A) (A) (A) (A) (A) (A)
                 (A) (A) (A) (A) (A) (A) (A) (A) (A) (A) (A) (A)
                 (A) (A) (A) (A) (A) (A) (A) (A) (A) (A) (A) (A)
                 (A) (A) (A) (A) (A) (A) (A) (A) (A) (A) (A) (A)
                 (A) (A) (A) (A) (A) (A) (A) (A) (A) (A) (A) (A)
                 (A) (A) (A) (A) (A) (A) (A) (A) (A) (A) (A) (A)
                 (A) (A) (A) (A) (A) (A) (A) (A) (A) (A) (A) (A)
                 (A) (A) (A) (A) (A) (A) (A) (A) (A) (A) (A) (A)
                 (A) (A) (A) (A) (A) (A) (A) (A) (A) (A) (A) (A)
                 (A) (A) (A) (A) (A) (A) (A) (A) (A) (A) (A) (A)
                 (A) (A) (A) (A) (A) (A) (A) (A) (A) (A) (A) (A)
                 (A) (A) (A) (A) (A) (A) (A) (A) (A) (A) (A) (A)
                 (A) (A) (A) (A) (A) (A) (A) (A) (A) (A) (A) (A)
                 (A) (A) (A) (A) (A) (A) (A) (A) (A) (A) (A) (A)
                 (A) (A) (A) (A) (A) (A) (A) (A) (A) (A) (A) (A)
                 (A) (A) (A) (A) (A) (A) (A) (A) (A) (A) (A) (A)
                 (A) (A) (A) (A) (A) (A) (A)
 The electronic state is 1-A.
 Alpha  occ. eigenvalues --  -77.06550 -10.19217 -10.19129 -10.19052 -10.19028
 Alpha  occ. eigenvalues --  -10.19012 -10.19000 -10.18995 -10.18923 -10.18886
 Alpha  occ. eigenvalues --  -10.18881 -10.18864 -10.18798 -10.18786 -10.17589
 Alpha  occ. eigenvalues --  -10.17573 -10.17318 -10.17317 -10.17113  -6.53453
 Alpha  occ. eigenvalues --   -4.69723  -4.69684  -4.69191  -0.85348  -0.84811
 Alpha  occ. eigenvalues --   -0.82695  -0.76579  -0.74277  -0.74123  -0.74035
 Alpha  occ. eigenvalues --   -0.73583  -0.73464  -0.64216  -0.60677  -0.60369
 Alpha  occ. eigenvalues --   -0.59917  -0.59538  -0.59199  -0.55307  -0.54196
 Alpha  occ. eigenvalues --   -0.51308  -0.49872  -0.46937  -0.45169  -0.44835
 Alpha  occ. eigenvalues --   -0.44640  -0.44216  -0.43648  -0.43351  -0.42632
 Alpha  occ. eigenvalues --   -0.41823  -0.41498  -0.40509  -0.38123  -0.37238
 Alpha  occ. eigenvalues --   -0.37057  -0.36477  -0.35807  -0.34856  -0.34554
 Alpha  occ. eigenvalues --   -0.34119  -0.33787  -0.33752  -0.31649  -0.31309
 Alpha  occ. eigenvalues --   -0.29126  -0.28885  -0.25416  -0.24925  -0.24705
 Alpha  occ. eigenvalues --   -0.24351  -0.21294
 Alpha virt. eigenvalues --   -0.02207  -0.00618   0.00006   0.00358   0.07484
 Alpha virt. eigenvalues --    0.07760   0.07871   0.10535   0.10634   0.11338
 Alpha virt. eigenvalues --    0.13366   0.13482   0.14007   0.14613   0.15091
 Alpha virt. eigenvalues --    0.15735   0.16302   0.16726   0.16973   0.17418
 Alpha virt. eigenvalues --    0.17535   0.17669   0.18034   0.18637   0.18691
 Alpha virt. eigenvalues --    0.19186   0.20383   0.20473   0.21455   0.22713
 Alpha virt. eigenvalues --    0.24164   0.24485   0.25071   0.26700   0.27327
 Alpha virt. eigenvalues --    0.28261   0.28983   0.30413   0.31017   0.31486
 Alpha virt. eigenvalues --    0.31719   0.31969   0.33233   0.34489   0.38855
 Alpha virt. eigenvalues --    0.40956   0.42316   0.44332   0.46281   0.48996
 Alpha virt. eigenvalues --    0.50464   0.53478   0.53713   0.54291   0.54488
 Alpha virt. eigenvalues --    0.54712   0.54949   0.55200   0.56093   0.56294
 Alpha virt. eigenvalues --    0.56758   0.57542   0.58574   0.58802   0.59475
 Alpha virt. eigenvalues --    0.59923   0.59971   0.60763   0.61011   0.61269
 Alpha virt. eigenvalues --    0.61450   0.61720   0.61972   0.62423   0.63322
 Alpha virt. eigenvalues --    0.64409   0.64703   0.65391   0.67309   0.68016
 Alpha virt. eigenvalues --    0.69697   0.71748   0.72457   0.72968   0.74413
 Alpha virt. eigenvalues --    0.76697   0.77815   0.80301   0.80902   0.82358
 Alpha virt. eigenvalues --    0.83326   0.83660   0.83765   0.84084   0.84264
 Alpha virt. eigenvalues --    0.84510   0.85160   0.86281   0.86792   0.87539
 Alpha virt. eigenvalues --    0.87985   0.88796   0.89628   0.90405   0.91092
 Alpha virt. eigenvalues --    0.91632   0.92112   0.92713   0.93444   0.94189
 Alpha virt. eigenvalues --    0.94371   0.95153   0.95529   0.95633   0.96366
 Alpha virt. eigenvalues --    0.96946   0.97873   0.98249   0.98983   0.99732
 Alpha virt. eigenvalues --    1.01060   1.01905   1.03563   1.04327   1.05818
 Alpha virt. eigenvalues --    1.08050   1.12003   1.12374   1.13317   1.14170
 Alpha virt. eigenvalues --    1.16112   1.18610   1.19680   1.21210   1.23373
 Alpha virt. eigenvalues --    1.24822   1.26510   1.27814   1.32410   1.33807
 Alpha virt. eigenvalues --    1.36734   1.39128   1.39779   1.40549   1.41521
 Alpha virt. eigenvalues --    1.43238   1.43374   1.44959   1.45295   1.46774
 Alpha virt. eigenvalues --    1.48338   1.49122   1.49698   1.50044   1.51148
 Alpha virt. eigenvalues --    1.51717   1.51952   1.58387   1.59800   1.61686
 Alpha virt. eigenvalues --    1.63878   1.72534   1.72962   1.74390   1.76227
 Alpha virt. eigenvalues --    1.77681   1.80329   1.82183   1.83495   1.83739
 Alpha virt. eigenvalues --    1.86402   1.88995   1.89995   1.90099   1.91708
 Alpha virt. eigenvalues --    1.92426   1.92650   1.98123   1.98239   1.99256
 Alpha virt. eigenvalues --    1.99775   2.00724   2.01896   2.02652   2.03671
 Alpha virt. eigenvalues --    2.08181   2.08451   2.09595   2.10572   2.13435
 Alpha virt. eigenvalues --    2.13870   2.14265   2.14607   2.15238   2.15419
 Alpha virt. eigenvalues --    2.15931   2.16631   2.17122   2.17527   2.18345
 Alpha virt. eigenvalues --    2.26965   2.29370   2.29799   2.30069   2.30744
 Alpha virt. eigenvalues --    2.31066   2.33230   2.33932   2.37983   2.38509
 Alpha virt. eigenvalues --    2.38784   2.41238   2.41942   2.42846   2.53956
 Alpha virt. eigenvalues --    2.56571   2.56867   2.58382   2.61123   2.63848
 Alpha virt. eigenvalues --    2.64961   2.65207   2.67017   2.68403   2.68636
 Alpha virt. eigenvalues --    2.69826   2.70616   2.72538   2.74091   2.74774
 Alpha virt. eigenvalues --    2.75814   2.77039   2.77495   2.79122   2.80735
 Alpha virt. eigenvalues --    2.81868   3.03514   3.04866   3.36292   3.39059
 Alpha virt. eigenvalues --    3.62662   4.09404   4.09702   4.11547   4.11908
 Alpha virt. eigenvalues --    4.14332   4.17965   4.22214   4.26561   4.27931
 Alpha virt. eigenvalues --    4.32958   4.34167   4.36780   4.39319   4.55691
 Alpha virt. eigenvalues --    4.56254   4.58942   4.66566   4.69058
          Condensed to atoms (all electrons):
              1          2          3          4          5          6
     1  C    4.993654   0.387386  -0.044270  -0.014593  -0.044689   0.386209
     2  C    0.387386   5.008532   0.371526  -0.034382  -0.015567  -0.046902
     3  C   -0.044270   0.371526   5.047119   0.370325  -0.039222  -0.014631
     4  C   -0.014593  -0.034382   0.370325   5.194193   0.369530  -0.035135
     5  C   -0.044689  -0.015567  -0.039222   0.369530   5.047567   0.375387
     6  C    0.386209  -0.046902  -0.014631  -0.035135   0.375387   5.004229
     7  P   -0.000202   0.003558  -0.034569   0.295481  -0.031884   0.003684
     8  C   -0.000007  -0.000052   0.001644  -0.026368  -0.001951   0.000171
     9  C   -0.000001  -0.000002   0.000075  -0.002124  -0.001616  -0.000007
    10  C   -0.000000  -0.000000   0.000001   0.000190  -0.000083  -0.000001
    11  C    0.000000   0.000000  -0.000000   0.000005   0.000008  -0.000000
    12  C    0.000000  -0.000000   0.000000  -0.000116   0.000035   0.000000
    13  C   -0.000000  -0.000000  -0.000001  -0.000676  -0.000054   0.000013
    14  C   -0.000004   0.000011  -0.001271  -0.023591   0.001214  -0.000033
    15  C   -0.000000   0.000001  -0.000045   0.000438  -0.000011   0.000000
    16  C    0.000000  -0.000000   0.000005  -0.000080   0.000000  -0.000000
    17  C    0.000000   0.000000   0.000003   0.000000  -0.000000   0.000000
    18  C    0.000000   0.000001  -0.000080   0.000355  -0.000001  -0.000000
    19  C   -0.000001  -0.000005  -0.001223  -0.001241   0.000099  -0.000002
    20  H    0.369144  -0.033864   0.005188   0.000174   0.005280  -0.033988
    21  H    0.372844  -0.040895  -0.004632  -0.001116  -0.004621  -0.040993
    22  H   -0.035056   0.369922  -0.033849   0.004768   0.000133   0.005340
    23  H   -0.041565   0.370618  -0.039649  -0.005311  -0.000807  -0.005065
    24  H   -0.004923  -0.042468   0.371496  -0.042893  -0.004637  -0.000760
    25  H    0.004868  -0.034772   0.367616  -0.035801   0.004996   0.000094
    26  H   -0.001116  -0.003655  -0.044340   0.345041  -0.043725  -0.004026
    27  H   -0.004756  -0.000725  -0.004586  -0.044168   0.369177  -0.041925
    28  H    0.004911   0.000071   0.004948  -0.035598   0.368555  -0.034761
    29  H   -0.034966   0.005330   0.000117   0.004814  -0.034528   0.370595
    30  H   -0.041663  -0.005162  -0.000779  -0.005187  -0.039890   0.371169
    31  H   -0.000000   0.000003  -0.000042  -0.000309  -0.000005   0.000001
    32  H   -0.000000   0.000000  -0.000000  -0.000001  -0.000000  -0.000000
    33  H   -0.000000  -0.000000  -0.000000  -0.000000   0.000000   0.000000
    34  H   -0.000000   0.000000  -0.000000   0.000001  -0.000000   0.000000
    35  H   -0.000000   0.000000  -0.000003  -0.000043  -0.000113   0.000000
    36  H   -0.000000   0.000000  -0.000014  -0.000005  -0.000001   0.000000
    37  H   -0.000000   0.000000   0.000000   0.000000  -0.000000   0.000000
    38  H   -0.000000   0.000000   0.000000  -0.000000  -0.000000  -0.000000
    39  H   -0.000000   0.000000   0.000000  -0.000002  -0.000000   0.000000
    40  H    0.000000   0.000003  -0.000063   0.000895  -0.000109   0.000010
              7          8          9         10         11         12
     1  C   -0.000202  -0.000007  -0.000001  -0.000000   0.000000   0.000000
     2  C    0.003558  -0.000052  -0.000002  -0.000000   0.000000  -0.000000
     3  C   -0.034569   0.001644   0.000075   0.000001  -0.000000   0.000000
     4  C    0.295481  -0.026368  -0.002124   0.000190   0.000005  -0.000116
     5  C   -0.031884  -0.001951  -0.001616  -0.000083   0.000008   0.000035
     6  C    0.003684   0.000171  -0.000007  -0.000001  -0.000000   0.000000
     7  P   14.035259   0.307608  -0.049000   0.006029   0.000095   0.005395
     8  C    0.307608   5.000804   0.474257  -0.020554  -0.037183  -0.031147
     9  C   -0.049000   0.474257   4.969768   0.514518  -0.027386  -0.047934
    10  C    0.006029  -0.020554   0.514518   4.880550   0.547408  -0.029484
    11  C    0.000095  -0.037183  -0.027386   0.547408   4.845302   0.550017
    12  C    0.005395  -0.031147  -0.047934  -0.029484   0.550017   4.893819
    13  C   -0.041405   0.532276  -0.013604  -0.048251  -0.027594   0.507585
    14  C    0.306006  -0.028170  -0.003762   0.000079   0.000009  -0.000126
    15  C   -0.037835  -0.001877  -0.000046  -0.000011  -0.000000  -0.000007
    16  C    0.004911  -0.000126  -0.000013  -0.000000   0.000000  -0.000000
    17  C    0.000195   0.000015   0.000000   0.000000  -0.000000   0.000000
    18  C    0.005949  -0.000025  -0.000104   0.000002   0.000000  -0.000000
    19  C   -0.047347  -0.003815  -0.001731  -0.000030   0.000002  -0.000003
    20  H    0.000028   0.000000  -0.000000   0.000000  -0.000000  -0.000000
    21  H   -0.000139   0.000001   0.000000   0.000000   0.000000  -0.000000
    22  H   -0.000152   0.000000   0.000000   0.000000  -0.000000   0.000000
    23  H   -0.000045   0.000002  -0.000000   0.000000   0.000000   0.000000
    24  H    0.003710  -0.000009   0.000003   0.000000   0.000000   0.000000
    25  H   -0.002666   0.000026   0.000000  -0.000000  -0.000000   0.000000
    26  H   -0.044518  -0.003804   0.002303  -0.000119  -0.000002   0.000004
    27  H    0.005272  -0.000881   0.000090  -0.000000  -0.000000   0.000003
    28  H   -0.005009   0.005081   0.002618   0.000042  -0.000032  -0.000048
    29  H   -0.000152   0.000002   0.000001  -0.000000  -0.000000   0.000000
    30  H    0.000017   0.000001   0.000004   0.000000  -0.000000  -0.000000
    31  H   -0.010932  -0.056237   0.361109  -0.048998   0.005044   0.000419
    32  H   -0.000298   0.004382  -0.041541   0.357229  -0.044055   0.004704
    33  H    0.000017   0.000585   0.005023  -0.043660   0.357921  -0.043713
    34  H   -0.000225   0.004706   0.000648   0.004755  -0.044705   0.357819
    35  H    0.004492  -0.049499   0.006391   0.000301   0.004919  -0.048523
    36  H    0.005308  -0.000254   0.000022  -0.000000  -0.000000   0.000003
    37  H   -0.000215   0.000001   0.000000   0.000000  -0.000000   0.000000
    38  H    0.000017   0.000000  -0.000000  -0.000000   0.000000  -0.000000
    39  H   -0.000290  -0.000001   0.000007  -0.000000  -0.000000   0.000000
    40  H   -0.011082   0.000117  -0.001167   0.000006  -0.000000   0.000000
             13         14         15         16         17         18
     1  C   -0.000000  -0.000004  -0.000000   0.000000   0.000000   0.000000
     2  C   -0.000000   0.000011   0.000001  -0.000000   0.000000   0.000001
     3  C   -0.000001  -0.001271  -0.000045   0.000005   0.000003  -0.000080
     4  C   -0.000676  -0.023591   0.000438  -0.000080   0.000000   0.000355
     5  C   -0.000054   0.001214  -0.000011   0.000000  -0.000000  -0.000001
     6  C    0.000013  -0.000033   0.000000  -0.000000   0.000000  -0.000000
     7  P   -0.041405   0.306006  -0.037835   0.004911   0.000195   0.005949
     8  C    0.532276  -0.028170  -0.001877  -0.000126   0.000015  -0.000025
     9  C   -0.013604  -0.003762  -0.000046  -0.000013   0.000000  -0.000104
    10  C   -0.048251   0.000079  -0.000011  -0.000000   0.000000   0.000002
    11  C   -0.027594   0.000009  -0.000000   0.000000  -0.000000   0.000000
    12  C    0.507585  -0.000126  -0.000007  -0.000000   0.000000  -0.000000
    13  C    4.932191  -0.000490  -0.000059  -0.000006   0.000000   0.000002
    14  C   -0.000490   4.993970   0.532686  -0.031605  -0.036085  -0.023553
    15  C   -0.000059   0.532686   4.925574   0.513695  -0.028038  -0.047479
    16  C   -0.000006  -0.031605   0.513695   4.886551   0.549723  -0.030037
    17  C    0.000000  -0.036085  -0.028038   0.549723   4.841719   0.550953
    18  C    0.000002  -0.023553  -0.047479  -0.030037   0.550953   4.883366
    19  C    0.000075   0.479228  -0.013444  -0.048011  -0.028011   0.509886
    20  H    0.000000   0.000000   0.000000  -0.000000  -0.000000   0.000000
    21  H    0.000000   0.000001   0.000000  -0.000000  -0.000000   0.000000
    22  H    0.000000   0.000000  -0.000000   0.000000  -0.000000  -0.000000
    23  H    0.000000   0.000007   0.000000  -0.000000  -0.000000   0.000000
    24  H    0.000001  -0.000401  -0.000005   0.000000  -0.000000   0.000001
    25  H   -0.000000   0.003302  -0.000137  -0.000018  -0.000015  -0.000003
    26  H    0.000121  -0.004336   0.000118   0.000001  -0.000001  -0.000150
    27  H    0.000156   0.000014   0.000001   0.000000  -0.000000   0.000000
    28  H    0.000307   0.000029  -0.000000   0.000000  -0.000000  -0.000000
    29  H    0.000000   0.000000  -0.000000   0.000000  -0.000000  -0.000000
    30  H    0.000001   0.000002   0.000000   0.000000  -0.000000   0.000000
    31  H    0.005902   0.000213   0.000045  -0.000006  -0.000010   0.000189
    32  H    0.000730   0.000000   0.000000   0.000000  -0.000000  -0.000000
    33  H    0.004799   0.000000  -0.000000  -0.000000   0.000000  -0.000000
    34  H   -0.040946   0.000001   0.000000   0.000000  -0.000000   0.000000
[...]
    89    C    6  dx2y2  Ryd( 3d)     0.00051
    90    C    6  dz2    Ryd( 3d)     0.00123

    91    P    7  S      Cor( 1S)     2.00000
    92    P    7  S      Cor( 2S)     1.99844
    93    P    7  S      Val( 3S)     1.27564
    94    P    7  S      Ryd( 4S)     0.00185
    95    P    7  S      Ryd( 5S)     0.00001
    96    P    7  px     Cor( 2p)     1.99983
    97    P    7  px     Val( 3p)     0.73835
    98    P    7  px     Ryd( 4p)     0.00578
    99    P    7  py     Cor( 2p)     1.99983
   100    P    7  py     Val( 3p)     0.71456
   101    P    7  py     Ryd( 4p)     0.00454
   102    P    7  pz     Cor( 2p)     1.99930
   103    P    7  pz     Val( 3p)     0.88924
   104    P    7  pz     Ryd( 4p)     0.00238
   105    P    7  dxy    Ryd( 3d)     0.00912
   106    P    7  dxz    Ryd( 3d)     0.00495
   107    P    7  dyz    Ryd( 3d)     0.00475
   108    P    7  dx2y2  Ryd( 3d)     0.01103
   109    P    7  dz2    Ryd( 3d)     0.00204

   110    C    8  S      Cor( 1S)     1.99885
   111    C    8  S      Val( 2S)     0.97319
   112    C    8  S      Ryd( 3S)     0.00296
   113    C    8  S      Ryd( 4S)     0.00005
   114    C    8  px     Val( 2p)     1.21377
   115    C    8  px     Ryd( 3p)     0.00651
   116    C    8  py     Val( 2p)     1.14214
   117    C    8  py     Ryd( 3p)     0.00869
   118    C    8  pz     Val( 2p)     1.11401
   119    C    8  pz     Ryd( 3p)     0.00414
   120    C    8  dxy    Ryd( 3d)     0.00068
   121    C    8  dxz    Ryd( 3d)     0.00054
   122    C    8  dyz    Ryd( 3d)     0.00085
   123    C    8  dx2y2  Ryd( 3d)     0.00062
   124    C    8  dz2    Ryd( 3d)     0.00058

   125    C    9  S      Cor( 1S)     1.99898
   126    C    9  S      Val( 2S)     0.94580
   127    C    9  S      Ryd( 3S)     0.00104
   128    C    9  S      Ryd( 4S)     0.00005
   129    C    9  px     Val( 2p)     1.01918
   130    C    9  px     Ryd( 3p)     0.00272
   131    C    9  py     Val( 2p)     1.16209
   132    C    9  py     Ryd( 3p)     0.00627
   133    C    9  pz     Val( 2p)     1.09623
   134    C    9  pz     Ryd( 3p)     0.00486
   135    C    9  dxy    Ryd( 3d)     0.00048
   136    C    9  dxz    Ryd( 3d)     0.00049
   137    C    9  dyz    Ryd( 3d)     0.00077
   138    C    9  dx2y2  Ryd( 3d)     0.00062
   139    C    9  dz2    Ryd( 3d)     0.00053

   140    C   10  S      Cor( 1S)     1.99909
   141    C   10  S      Val( 2S)     0.95870
   142    C   10  S      Ryd( 3S)     0.00059
   143    C   10  S      Ryd( 4S)     0.00003
   144    C   10  px     Val( 2p)     1.03850
   145    C   10  px     Ryd( 3p)     0.00173
   146    C   10  py     Val( 2p)     1.05994
   147    C   10  py     Ryd( 3p)     0.00448
   148    C   10  pz     Val( 2p)     1.16055
   149    C   10  pz     Ryd( 3p)     0.00459
   150    C   10  dxy    Ryd( 3d)     0.00073
   151    C   10  dxz    Ryd( 3d)     0.00054
   152    C   10  dyz    Ryd( 3d)     0.00062
   153    C   10  dx2y2  Ryd( 3d)     0.00042
   154    C   10  dz2    Ryd( 3d)     0.00066

   155    C   11  S      Cor( 1S)     1.99909
   156    C   11  S      Val( 2S)     0.95556
   157    C   11  S      Ryd( 3S)     0.00056
   158    C   11  S      Ryd( 4S)     0.00004
   159    C   11  px     Val( 2p)     1.07075
   160    C   11  px     Ryd( 3p)     0.00341
   161    C   11  py     Val( 2p)     1.16599
   162    C   11  py     Ryd( 3p)     0.00478
   163    C   11  pz     Val( 2p)     1.07459
   164    C   11  pz     Ryd( 3p)     0.00453
   165    C   11  dxy    Ryd( 3d)     0.00045
   166    C   11  dxz    Ryd( 3d)     0.00043
   167    C   11  dyz    Ryd( 3d)     0.00066
   168    C   11  dx2y2  Ryd( 3d)     0.00060
   169    C   11  dz2    Ryd( 3d)     0.00054

   170    C   12  S      Cor( 1S)     1.99909
   171    C   12  S      Val( 2S)     0.95758
   172    C   12  S      Ryd( 3S)     0.00062
   173    C   12  S      Ryd( 4S)     0.00003
   174    C   12  px     Val( 2p)     1.02061
   175    C   12  px     Ryd( 3p)     0.00169
   176    C   12  py     Val( 2p)     1.14589
   177    C   12  py     Ryd( 3p)     0.00513
   178    C   12  pz     Val( 2p)     1.09768
   179    C   12  pz     Ryd( 3p)     0.00427
   180    C   12  dxy    Ryd( 3d)     0.00045
   181    C   12  dxz    Ryd( 3d)     0.00047
   182    C   12  dyz    Ryd( 3d)     0.00082
   183    C   12  dx2y2  Ryd( 3d)     0.00060
   184    C   12  dz2    Ryd( 3d)     0.00060

   185    C   13  S      Cor( 1S)     1.99902
   186    C   13  S      Val( 2S)     0.94404
   187    C   13  S      Ryd( 3S)     0.00072
   188    C   13  S      Ryd( 4S)     0.00004
   189    C   13  px     Val( 2p)     1.05231
   190    C   13  px     Ryd( 3p)     0.00290
   191    C   13  py     Val( 2p)     1.07075
   192    C   13  py     Ryd( 3p)     0.00421
   193    C   13  pz     Val( 2p)     1.16677
   194    C   13  pz     Ryd( 3p)     0.00524
   195    C   13  dxy    Ryd( 3d)     0.00069
   196    C   13  dxz    Ryd( 3d)     0.00051
   197    C   13  dyz    Ryd( 3d)     0.00061
   198    C   13  dx2y2  Ryd( 3d)     0.00041
   199    C   13  dz2    Ryd( 3d)     0.00064

   200    C   14  S      Cor( 1S)     1.99887
   201    C   14  S      Val( 2S)     0.96813
   202    C   14  S      Ryd( 3S)     0.00222
   203    C   14  S      Ryd( 4S)     0.00005
   204    C   14  px     Val( 2p)     1.16448
   205    C   14  px     Ryd( 3p)     0.00708
   206    C   14  py     Val( 2p)     1.18518
   207    C   14  py     Ryd( 3p)     0.00636
   208    C   14  pz     Val( 2p)     1.12510
   209    C   14  pz     Ryd( 3p)     0.00367
   210    C   14  dxy    Ryd( 3d)     0.00071
   211    C   14  dxz    Ryd( 3d)     0.00075
   212    C   14  dyz    Ryd( 3d)     0.00065
   213    C   14  dx2y2  Ryd( 3d)     0.00050
   214    C   14  dz2    Ryd( 3d)     0.00065

   215    C   15  S      Cor( 1S)     1.99903
   216    C   15  S      Val( 2S)     0.94657
   217    C   15  S      Ryd( 3S)     0.00075
   218    C   15  S      Ryd( 4S)     0.00004
   219    C   15  px     Val( 2p)     1.04810
   220    C   15  px     Ryd( 3p)     0.00334
   221    C   15  py     Val( 2p)     1.03985
   222    C   15  py     Ryd( 3p)     0.00284
   223    C   15  pz     Val( 2p)     1.15634
   224    C   15  pz     Ryd( 3p)     0.00555
   225    C   15  dxy    Ryd( 3d)     0.00049
   226    C   15  dxz    Ryd( 3d)     0.00050
   227    C   15  dyz    Ryd( 3d)     0.00062
   228    C   15  dx2y2  Ryd( 3d)     0.00074
   229    C   15  dz2    Ryd( 3d)     0.00066

   230    C   16  S      Cor( 1S)     1.99910
   231    C   16  S      Val( 2S)     0.95569
   232    C   16  S      Ryd( 3S)     0.00062
   233    C   16  S      Ryd( 4S)     0.00003
   234    C   16  px     Val( 2p)     1.13158
   235    C   16  px     Ryd( 3p)     0.00433
   236    C   16  py     Val( 2p)     1.04914
   237    C   16  py     Ryd( 3p)     0.00319
   238    C   16  pz     Val( 2p)     1.10942
   239    C   16  pz     Ryd( 3p)     0.00448
   240    C   16  dxy    Ryd( 3d)     0.00043
   241    C   16  dxz    Ryd( 3d)     0.00081
   242    C   16  dyz    Ryd( 3d)     0.00046
   243    C   16  dx2y2  Ryd( 3d)     0.00060
   244    C   16  dz2    Ryd( 3d)     0.00055

   245    C   17  S      Cor( 1S)     1.99909
   246    C   17  S      Val( 2S)     0.95610
   247    C   17  S      Ryd( 3S)     0.00055
   248    C   17  S      Ryd( 4S)     0.00003
   249    C   17  px     Val( 2p)     1.12757
   250    C   17  px     Ryd( 3p)     0.00440
   251    C   17  py     Val( 2p)     1.10569
   252    C   17  py     Ryd( 3p)     0.00373
   253    C   17  pz     Val( 2p)     1.06924
   254    C   17  pz     Ryd( 3p)     0.00452
   255    C   17  dxy    Ryd( 3d)     0.00067
   256    C   17  dxz    Ryd( 3d)     0.00056
   257    C   17  dyz    Ryd( 3d)     0.00053
   258    C   17  dx2y2  Ryd( 3d)     0.00039
   259    C   17  dz2    Ryd( 3d)     0.00058

   260    C   18  S      Cor( 1S)     1.99908
   261    C   18  S      Val( 2S)     0.95832
   262    C   18  S      Ryd( 3S)     0.00062
   263    C   18  S      Ryd( 4S)     0.00003
   264    C   18  px     Val( 2p)     1.04783
   265    C   18  px     Ryd( 3p)     0.00352
   266    C   18  py     Val( 2p)     1.03511
   267    C   18  py     Ryd( 3p)     0.00237
   268    C   18  pz     Val( 2p)     1.15916
   269    C   18  pz     Ryd( 3p)     0.00468
   270    C   18  dxy    Ryd( 3d)     0.00051
   271    C   18  dxz    Ryd( 3d)     0.00054
   272    C   18  dyz    Ryd( 3d)     0.00067
   273    C   18  dx2y2  Ryd( 3d)     0.00066
   274    C   18  dz2    Ryd( 3d)     0.00066

   275    C   19  S      Cor( 1S)     1.99900
   276    C   19  S      Val( 2S)     0.93875
   277    C   19  S      Ryd( 3S)     0.00093
   278    C   19  S      Ryd( 4S)     0.00004
   279    C   19  px     Val( 2p)     1.15052
   280    C   19  px     Ryd( 3p)     0.00555
   281    C   19  py     Val( 2p)     1.06960
   282    C   19  py     Ryd( 3p)     0.00470
   283    C   19  pz     Val( 2p)     1.11916
   284    C   19  pz     Ryd( 3p)     0.00492
   285    C   19  dxy    Ryd( 3d)     0.00041
   286    C   19  dxz    Ryd( 3d)     0.00081
   287    C   19  dyz    Ryd( 3d)     0.00046
   288    C   19  dx2y2  Ryd( 3d)     0.00058
   289    C   19  dz2    Ryd( 3d)     0.00049

   290    H   20  S      Val( 1S)     0.75716
   291    H   20  S      Ryd( 2S)     0.00111

   292    H   21  S      Val( 1S)     0.77261
   293    H   21  S      Ryd( 2S)     0.00181

   294    H   22  S      Val( 1S)     0.75396
   295    H   22  S      Ryd( 2S)     0.00115

   296    H   23  S      Val( 1S)     0.77096
   297    H   23  S      Ryd( 2S)     0.00178

   298    H   24  S      Val( 1S)     0.76962
   299    H   24  S      Ryd( 2S)     0.00173

   300    H   25  S      Val( 1S)     0.74132
   301    H   25  S      Ryd( 2S)     0.00135

   302    H   26  S      Val( 1S)     0.72539
   303    H   26  S      Ryd( 2S)     0.00250

   304    H   27  S      Val( 1S)     0.77242
   305    H   27  S      Ryd( 2S)     0.00175

   306    H   28  S      Val( 1S)     0.73848
   307    H   28  S      Ryd( 2S)     0.00142

   308    H   29  S      Val( 1S)     0.75376
   309    H   29  S      Ryd( 2S)     0.00112

   310    H   30  S      Val( 1S)     0.76988
   311    H   30  S      Ryd( 2S)     0.00173

   312    H   31  S      Val( 1S)     0.75973
   313    H   31  S      Ryd( 2S)     0.00173

   314    H   32  S      Val( 1S)     0.76333
   315    H   32  S      Ryd( 2S)     0.00086

   316    H   33  S      Val( 1S)     0.77033
   317    H   33  S      Ryd( 2S)     0.00088

   318    H   34  S      Val( 1S)     0.76746
   319    H   34  S      Ryd( 2S)     0.00093

   320    H   35  S      Val( 1S)     0.77564
   321    H   35  S      Ryd( 2S)     0.00082

   322    H   36  S      Val( 1S)     0.77200
   323    H   36  S      Ryd( 2S)     0.00106

   324    H   37  S      Val( 1S)     0.76659
   325    H   37  S      Ryd( 2S)     0.00088

   326    H   38  S      Val( 1S)     0.76957
   327    H   38  S      Ryd( 2S)     0.00087

   328    H   39  S      Val( 1S)     0.76420
   329    H   39  S      Ryd( 2S)     0.00089

   330    H   40  S      Val( 1S)     0.77603
   331    H   40  S      Ryd( 2S)     0.00116

 WARNING:  1 low occupancy (<1.9990e) core orbital  found on  P    7
           1 low occupancy (<1.9990e) core orbital  found on  C    8
           1 low occupancy (<1.9990e) core orbital  found on  C    9
           1 low occupancy (<1.9990e) core orbital  found on  C   14
           1 low occupancy (<1.9990e) core orbital  found on  C   19


 Summary of Natural Population Analysis:                  
                                                          
                                       Natural Population 
                Natural  -----------------------------------------------
    Atom  No    Charge         Core      Valence    Rydberg      Total
 -----------------------------------------------------------------------
      C    1   -0.46100      1.99933     4.45012    0.01156     6.46100
      C    2   -0.45673      1.99933     4.44506    0.01235     6.45673
      C    3   -0.47150      1.99930     4.45906    0.01314     6.47150
      C    4   -0.56656      1.99919     4.54920    0.01817     6.56656
      C    5   -0.46872      1.99930     4.45638    0.01304     6.46872
      C    6   -0.45706      1.99933     4.44543    0.01230     6.45706
      P    7    1.33834      9.99740     3.61779    0.04646    13.66166
      C    8   -0.46760      1.99885     4.44311    0.02564     6.46760
      C    9   -0.24010      1.99898     4.22329    0.01783     6.24010
      C   10   -0.23115      1.99909     4.21768    0.01439     6.23115
      C   11   -0.28198      1.99909     4.26689    0.01600     6.28198
      C   12   -0.23555      1.99909     4.22175    0.01470     6.23555
      C   13   -0.24885      1.99902     4.23387    0.01595     6.24885
      C   14   -0.46442      1.99887     4.44290    0.02265     6.46442
      C   15   -0.20542      1.99903     4.19086    0.01553     6.20542
      C   16   -0.26042      1.99910     4.24583    0.01549     6.26042
      C   17   -0.27366      1.99909     4.25860    0.01596     6.27366
      C   18   -0.21377      1.99908     4.20043    0.01427     6.21377
      C   19   -0.29591      1.99900     4.27802    0.01888     6.29591
      H   20    0.24173      0.00000     0.75716    0.00111     0.75827
      H   21    0.22559      0.00000     0.77261    0.00181     0.77441
      H   22    0.24490      0.00000     0.75396    0.00115     0.75510
      H   23    0.22727      0.00000     0.77096    0.00178     0.77273
      H   24    0.22865      0.00000     0.76962    0.00173     0.77135
      H   25    0.25733      0.00000     0.74132    0.00135     0.74267
      H   26    0.27211      0.00000     0.72539    0.00250     0.72789
      H   27    0.22583      0.00000     0.77242    0.00175     0.77417
      H   28    0.26009      0.00000     0.73848    0.00142     0.73991
      H   29    0.24512      0.00000     0.75376    0.00112     0.75488
      H   30    0.22839      0.00000     0.76988    0.00173     0.77161
      H   31    0.23854      0.00000     0.75973    0.00173     0.76146
      H   32    0.23582      0.00000     0.76333    0.00086     0.76418
      H   33    0.22879      0.00000     0.77033    0.00088     0.77121
      H   34    0.23161      0.00000     0.76746    0.00093     0.76839
      H   35    0.22354      0.00000     0.77564    0.00082     0.77646
      H   36    0.22695      0.00000     0.77200    0.00106     0.77305
      H   37    0.23253      0.00000     0.76659    0.00088     0.76747
      H   38    0.22956      0.00000     0.76957    0.00087     0.77044
      H   39    0.23491      0.00000     0.76420    0.00089     0.76509
      H   40    0.22281      0.00000     0.77603    0.00116     0.77719
 =======================================================================
   * Total *   -0.00000     45.98147    97.65670    0.36183   144.00000

                                 Natural Population      
 --------------------------------------------------------
   Core                      45.98147 ( 99.9597% of  46)
   Valence                   97.65670 ( 99.6497% of  98)
   Natural Minimal Basis    143.63817 ( 99.7487% of 144)
   Natural Rydberg Basis      0.36183 (  0.2513% of 144)
 --------------------------------------------------------

    Atom  No          Natural Electron Configuration
 ----------------------------------------------------------------------------
      C    1      [core]2S( 1.03)2p( 3.42)3p( 0.01)
      C    2      [core]2S( 1.03)2p( 3.41)3p( 0.01)
      C    3      [core]2S( 1.03)2p( 3.43)3p( 0.01)
      C    4      [core]2S( 1.08)2p( 3.47)3p( 0.01)
      C    5      [core]2S( 1.03)2p( 3.43)3p( 0.01)
      C    6      [core]2S( 1.03)2p( 3.41)3p( 0.01)
      P    7      [core]3S( 1.28)3p( 2.34)3d( 0.03)4p( 0.01)
      C    8      [core]2S( 0.97)2p( 3.47)3p( 0.02)
      C    9      [core]2S( 0.95)2p( 3.28)3p( 0.01)
      C   10      [core]2S( 0.96)2p( 3.26)3p( 0.01)
      C   11      [core]2S( 0.96)2p( 3.31)3p( 0.01)
      C   12      [core]2S( 0.96)2p( 3.26)3p( 0.01)
      C   13      [core]2S( 0.94)2p( 3.29)3p( 0.01)
      C   14      [core]2S( 0.97)2p( 3.47)3p( 0.02)
      C   15      [core]2S( 0.95)2p( 3.24)3p( 0.01)
      C   16      [core]2S( 0.96)2p( 3.29)3p( 0.01)
      C   17      [core]2S( 0.96)2p( 3.30)3p( 0.01)
      C   18      [core]2S( 0.96)2p( 3.24)3p( 0.01)
      C   19      [core]2S( 0.94)2p( 3.34)3p( 0.02)
      H   20            1S( 0.76)
      H   21            1S( 0.77)
      H   22            1S( 0.75)
      H   23            1S( 0.77)
      H   24            1S( 0.77)
      H   25            1S( 0.74)
      H   26            1S( 0.73)
      H   27            1S( 0.77)
      H   28            1S( 0.74)
      H   29            1S( 0.75)
      H   30            1S( 0.77)
      H   31            1S( 0.76)
      H   32            1S( 0.76)
      H   33            1S( 0.77)
      H   34            1S( 0.77)
      H   35            1S( 0.78)
      H   36            1S( 0.77)
      H   37            1S( 0.77)
      H   38            1S( 0.77)
      H   39            1S( 0.76)
      H   40            1S( 0.78)


 NBO analysis skipped by request.
 Leave Link  607 at Sat Oct  2 19:25:54 2021, MaxMem= 1610612736 cpu:      29.3
 (Enter /sw/target/amd/app/gaussian/Gaussian09RevA.02_gcc-4.9.2/g09/l9999.exe)
 1\1\GINC-HERMITE\SP\RTD-B3LYP-FC\6-31G(d)\C18H21P1\JSCHLEINITZ\02-Oct-
 2021\0\\#p TD(NStates=10, Root=1) b3lyp/6-31G* volume pop=NPA density=
 current Geom=AllCheck Guess=Read\\C1CCC(CC1)P(c1ccccc1)c1ccccc1_conf_0
 \\0,1\C,0,-1.2687749197,0.5109411906,0.3385147737\C,0,-0.8404597278,-0
 .9199383175,0.6937825738\C,0,0.4918416615,-1.2965165295,0.0241560357\C
 ,0,1.6089216845,-0.2901833609,0.3718258805\C,0,1.1717704274,1.14074799
 11,-0.0056954385\C,0,-0.1585856689,1.5198251058,0.6662818971\P,0,3.209
 418096,-0.7451304405,-0.5256149206\C,0,4.4020573948,0.4679162219,0.226
 9640907\C,0,4.9075465771,0.3770696864,1.5335817015\C,0,5.7904721461,1.
 3383215649,2.0261704681\C,0,6.1835826537,2.4103245459,1.2214079831\C,0
 ,5.6934902005,2.512196815,-0.0808045761\C,0,4.8154427527,1.5446023799,
 -0.5740673243\C,0,3.7146131037,-2.334463995,0.2921117533\C,0,4.5826645
 38,-3.1636154616,-0.4382718627\C,0,5.0331362229,-4.3762769067,0.084248
 9718\C,0,4.6077618893,-4.7946495954,1.3461442289\C,0,3.7339633862,-3.9
 910994906,2.0800291849\C,0,3.2942395921,-2.7722801816,1.559089776\H,0,
 -2.193364442,0.7751569164,0.8678214591\H,0,-1.4979537302,0.5625699526,
 -0.7362854727\H,0,-1.6191183878,-1.6359097822,0.4003533328\H,0,-0.7334
 652529,-1.0061233945,1.7854409798\H,0,0.3571676761,-1.3133266763,-1.06
 74139055\H,0,0.7829646623,-2.3120791928,0.3161921426\H,0,1.7829098758,
 -0.3098829221,1.4583213241\H,0,1.0557826458,1.2057778805,-1.097893545\
 H,0,1.9490963671,1.8619239338,0.2709304239\H,0,-0.4565741899,2.5295417
 286,0.3552856529\H,0,-0.0140421558,1.5597227243,1.7561492819\H,0,4.622
 1191759,-0.4579412614,2.1669952835\H,0,6.1744403072,1.2493140892,3.039
 480488\H,0,6.8731452164,3.1573434325,1.6059888941\H,0,6.0000871108,3.3
 38786605,-0.7167707965\H,0,4.4490801216,1.6208707312,-1.5950959928\H,0
 ,4.9043795519,-2.8539526938,-1.4298992492\H,0,5.708157362,-4.998184663
 7,-0.498073027\H,0,4.9496870701,-5.7428805886,1.7525366655\H,0,3.39346
 4811,-4.3115601151,3.0615570539\H,0,2.6156578013,-2.1644006764,2.15059
 53446\\Version=AM64L-G09RevA.02\State=1-A\HF=-1039.9252564\RMSD=7.001e
 -09\Dipole=-1.283994,0.3034686,-0.3680751\Quadrupole=-0.9718894,-3.598
 5223,4.5704116,-1.3694094,-0.5997703,-1.3004254\PG=C01 [X(C18H21P1)]\\
 @


 A true friend is someone who is there for
 you when he'd rather be anywhere else.
                               -- Len Wein
 Job cpu time:  0 days  7 hours 24 minutes  0.8 seconds.
 File lengths (MBytes):  RWF=    345 Int=      0 D2E=      0 Chk=     49 Scr=      1
 Normal termination of Gaussian 09 at Sat Oct  2 19:26:12 2021.
