 Entering Gaussian System, Link 0=g09
 Input=C18H32P2_468a_conf_0.com
 Output=C18H32P2_468a_conf_0.log
 Initial command:
 /sw/target/amd/app/gaussian/Gaussian09RevA.02_gcc-4.9.2/g09/l1.exe /home/jschleinitz/gaussian/Gau-2055724.inp -scrdir=/home/jschleinitz/gaussian/
 Entering Link 1 = /sw/target/amd/app/gaussian/Gaussian09RevA.02_gcc-4.9.2/g09/l1.exe PID=   2055742.
  
 Copyright (c) 1988,1990,1992,1993,1995,1998,2003,2009, Gaussian, Inc.
                  All Rights Reserved.
  
 This is part of the Gaussian(R) 09 program.  It is based on
 the Gaussian(R) 03 system (copyright 2003, Gaussian, Inc.),
 the Gaussian(R) 98 system (copyright 1998, Gaussian, Inc.),
 the Gaussian(R) 94 system (copyright 1995, Gaussian, Inc.),
 the Gaussian 92(TM) system (copyright 1992, Gaussian, Inc.),
 the Gaussian 90(TM) system (copyright 1990, Gaussian, Inc.),
 the Gaussian 88(TM) system (copyright 1988, Gaussian, Inc.),
 the Gaussian 86(TM) system (copyright 1986, Carnegie Mellon
 University), and the Gaussian 82(TM) system (copyright 1983,
 Carnegie Mellon University). Gaussian is a federally registered
 trademark of Gaussian, Inc.
  
 This software contains proprietary and confidential information,
 including trade secrets, belonging to Gaussian, Inc.
  
 This software is provided under written license and may be
 used, copied, transmitted, or stored only in accord with that
 written license.
  
 The following legend is applicable only to US Government
 contracts under FAR:
  
                    RESTRICTED RIGHTS LEGEND
  
 Use, reproduction and disclosure by the US Government is
 subject to restrictions as set forth in subparagraphs (a)
 and (c) of the Commercial Computer Software - Restricted
 Rights clause in FAR 52.227-19.
  
 Gaussian, Inc.
 340 Quinnipiac St., Bldg. 40, Wallingford CT 06492
  
  
 ---------------------------------------------------------------
 Warning -- This program may not be used in any manner that
 competes with the business of Gaussian, Inc. or will provide
 assistance to any competitor of Gaussian, Inc.  The licensee
 of this program is prohibited from giving any competitor of
 Gaussian, Inc. access to this program.  By using this program,
 the user acknowledges that Gaussian, Inc. is engaged in the
 business of creating and licensing software in the field of
 computational chemistry and represents and warrants to the
 licensee that it is not a competitor of Gaussian, Inc. and that
 it will not use this program in any manner prohibited above.
 ---------------------------------------------------------------
  

 Cite this work as:
 Gaussian 09, Revision A.02,
 M. J. Frisch, G. W. Trucks, H. B. Schlegel, G. E. Scuseria, 
 M. A. Robb, J. R. Cheeseman, G. Scalmani, V. Barone, B. Mennucci, 
 G. A. Petersson, H. Nakatsuji, M. Caricato, X. Li, H. P. Hratchian, 
 A. F. Izmaylov, J. Bloino, G. Zheng, J. L. Sonnenberg, M. Hada, 
 M. Ehara, K. Toyota, R. Fukuda, J. Hasegawa, M. Ishida, T. Nakajima, 
 Y. Honda, O. Kitao, H. Nakai, T. Vreven, J. A. Montgomery, Jr., 
 J. E. Peralta, F. Ogliaro, M. Bearpark, J. J. Heyd, E. Brothers, 
 K. N. Kudin, V. N. Staroverov, R. Kobayashi, J. Normand, 
 K. Raghavachari, A. Rendell, J. C. Burant, S. S. Iyengar, J. Tomasi, 
 M. Cossi, N. Rega, J. M. Millam, M. Klene, J. E. Knox, J. B. Cross, 
 V. Bakken, C. Adamo, J. Jaramillo, R. Gomperts, R. E. Stratmann, 
 O. Yazyev, A. J. Austin, R. Cammi, C. Pomelli, J. W. Ochterski, 
 R. L. Martin, K. Morokuma, V. G. Zakrzewski, G. A. Voth, 
 P. Salvador, J. J. Dannenberg, S. Dapprich, A. D. Daniels, 
 O. Farkas, J. B. Foresman, J. V. Ortiz, J. Cioslowski, 
 and D. J. Fox, Gaussian, Inc., Wallingford CT, 2009.
 
 ******************************************
 Gaussian 09:  AM64L-G09RevA.02 11-Jun-2009
                 1-Oct-2021 
 ******************************************
 %nproc=8
 Will use up to    8 processors via shared memory.
 %mem=16gb
 %chk=C18H32P2_468a_conf_0.chk
 -----------------------------------
 #p opt b3lyp/6-31G* scf=(xqc,tight)
 -----------------------------------
 1/14=-1,18=20,19=15,26=3,38=1/1,3;
 2/9=110,12=2,17=6,18=5,40=1/2;
 3/5=1,6=6,7=1,11=2,16=1,25=1,30=1,71=1,74=-5/1,2,3;
 4//1;
 5/5=2,8=3,13=1,32=2,38=5/2,8;
 6/7=2,8=2,9=2,10=2,28=1/1;
 7//1,2,3,16;
 1/14=-1,18=20,19=15/3(2);
 2/9=110/2;
 99//99;
 2/9=110/2;
 3/5=1,6=6,7=1,11=2,16=1,25=1,30=1,71=1,74=-5/1,2,3;
 4/5=5,16=3/1;
 5/5=2,8=3,13=1,32=2,38=5/2,8;
 7//1,2,3,16;
 1/14=-1,18=20,19=15/3(-5);
 2/9=110/2;
 6/7=2,8=2,9=2,10=2,19=2,28=1/1;
 99/9=1/99;
 Leave Link    1 at Fri Oct  1 18:35:35 2021, MaxMem= 2147483648 cpu:       0.1
 (Enter /sw/target/amd/app/gaussian/Gaussian09RevA.02_gcc-4.9.2/g09/l101.exe)
 -----------------------------------------
 C1CC(C1)P(C1CCC1)CCP(C1CCC1)C1CCC1_conf_0
 -----------------------------------------
 Symbolic Z-matrix:
 Charge =  0 Multiplicity = 1
 C                     0.00281   1.4809   -0.28566 
 C                    -1.23433   0.56631  -0.25126 
 C                    -0.29971  -0.6407   -0.50649 
 C                     0.86694   0.23895  -0.00587 
 P                    -0.21871  -1.35257  -2.26283 
 C                     1.01743  -2.71652  -1.96411 
 C                     1.46824  -3.65139  -3.11147 
 C                     1.68993  -4.74166  -2.04255 
 C                     0.66968  -3.99227  -1.16525 
 C                    -1.86842  -2.19908  -2.27423 
 C                    -2.18291  -2.93905  -3.57219 
 P                    -3.85154  -3.76024  -3.53793 
 C                    -3.87719  -4.51851  -5.25551 
 C                    -3.77778  -3.58591  -6.49122 
 C                    -4.72108  -4.56241  -7.21919 
 C                    -5.24885  -4.97155  -5.82811 
 C                    -3.46139  -5.28893  -2.5113 
 C                    -4.59436  -6.31493  -2.25272 
 C                    -3.9985   -6.52653  -0.84629 
 C                    -3.37434  -5.12788  -0.97155 
 H                     0.03381   2.2615    0.47714 
 H                     0.18786   1.93275  -1.26602 
 H                    -1.99235   0.78595  -1.00823 
 H                    -1.72525   0.53426   0.73013 
 H                    -0.50901  -1.48899   0.15503 
 H                     1.80839   0.19414  -0.5612 
 H                     1.08931   0.09822   1.0611 
 H                     1.89176  -2.20667  -1.53365 
 H                     2.37129  -3.34376  -3.64657 
 H                     0.70388  -3.91396  -3.84763 
 H                     2.70211  -4.75997  -1.6263 
 H                     1.4038   -5.75739  -2.3326 
 H                     0.90165  -3.96124  -0.09757 
 H                    -0.34358  -4.37598  -1.29648 
 H                    -2.62749  -1.42176  -2.1196 
 H                    -1.93983  -2.85851  -1.40669 
 H                    -1.43121  -3.69943  -3.79381 
 H                    -2.17814  -2.22507  -4.40469 
 H                    -3.12127  -5.31532  -5.28611 
 H                    -2.78142  -3.48677  -6.93242 
 H                    -4.20565  -2.58544  -6.35576 
 H                    -4.20125  -5.36813  -7.75094 
 H                    -5.45266  -4.10605  -7.89042 
 H                    -5.48779  -6.03281  -5.71426 
 H                    -6.10846  -4.3767   -5.50229 
 H                    -2.56405  -5.76037  -2.9336 
 H                    -4.58743  -7.20194  -2.89213 
 H                    -5.60721  -5.8977   -2.23439 
 H                    -3.25914  -7.33425  -0.79109 
 H                    -4.71931  -6.64662  -0.03323 
 H                    -2.36907  -5.04524  -0.5524 
 H                    -3.99842  -4.33058  -0.55223 
 
 NAtoms=     52 NQM=     52 NQMF=      0 NMic=      0 NMicF=      0 NTot=     52.
                    Isotopes and Nuclear Properties:
 (Nuclear quadrupole moments (NQMom) in fm**2, nuclear magnetic moments (NMagM)
  in nuclear magnetons)

  Atom         1           2           3           4           5           6           7           8           9          10
 IAtWgt=          12          12          12          12          31          12          12          12          12          12
 AtmWgt=  12.0000000  12.0000000  12.0000000  12.0000000  30.9737634  12.0000000  12.0000000  12.0000000  12.0000000  12.0000000
 NucSpn=           0           0           0           0           1           0           0           0           0           0
 AtZEff=   0.0000000   0.0000000   0.0000000   0.0000000   0.0000000   0.0000000   0.0000000   0.0000000   0.0000000   0.0000000
 NQMom=    0.0000000   0.0000000   0.0000000   0.0000000   0.0000000   0.0000000   0.0000000   0.0000000   0.0000000   0.0000000
 NMagM=    0.0000000   0.0000000   0.0000000   0.0000000   1.1316000   0.0000000   0.0000000   0.0000000   0.0000000   0.0000000

  Atom        11          12          13          14          15          16          17          18          19          20
 IAtWgt=          12          31          12          12          12          12          12          12          12          12
 AtmWgt=  12.0000000  30.9737634  12.0000000  12.0000000  12.0000000  12.0000000  12.0000000  12.0000000  12.0000000  12.0000000
 NucSpn=           0           1           0           0           0           0           0           0           0           0
 AtZEff=   0.0000000   0.0000000   0.0000000   0.0000000   0.0000000   0.0000000   0.0000000   0.0000000   0.0000000   0.0000000
 NQMom=    0.0000000   0.0000000   0.0000000   0.0000000   0.0000000   0.0000000   0.0000000   0.0000000   0.0000000   0.0000000
 NMagM=    0.0000000   1.1316000   0.0000000   0.0000000   0.0000000   0.0000000   0.0000000   0.0000000   0.0000000   0.0000000

  Atom        21          22          23          24          25          26          27          28          29          30
 IAtWgt=           1           1           1           1           1           1           1           1           1           1
 AtmWgt=   1.0078250   1.0078250   1.0078250   1.0078250   1.0078250   1.0078250   1.0078250   1.0078250   1.0078250   1.0078250
 NucSpn=           1           1           1           1           1           1           1           1           1           1
 AtZEff=   0.0000000   0.0000000   0.0000000   0.0000000   0.0000000   0.0000000   0.0000000   0.0000000   0.0000000   0.0000000
 NQMom=    0.0000000   0.0000000   0.0000000   0.0000000   0.0000000   0.0000000   0.0000000   0.0000000   0.0000000   0.0000000
 NMagM=    2.7928460   2.7928460   2.7928460   2.7928460   2.7928460   2.7928460   2.7928460   2.7928460   2.7928460   2.7928460

  Atom        31          32          33          34          35          36          37          38          39          40
 IAtWgt=           1           1           1           1           1           1           1           1           1           1
 AtmWgt=   1.0078250   1.0078250   1.0078250   1.0078250   1.0078250   1.0078250   1.0078250   1.0078250   1.0078250   1.0078250
 NucSpn=           1           1           1           1           1           1           1           1           1           1
 AtZEff=   0.0000000   0.0000000   0.0000000   0.0000000   0.0000000   0.0000000   0.0000000   0.0000000   0.0000000   0.0000000
 NQMom=    0.0000000   0.0000000   0.0000000   0.0000000   0.0000000   0.0000000   0.0000000   0.0000000   0.0000000   0.0000000
 NMagM=    2.7928460   2.7928460   2.7928460   2.7928460   2.7928460   2.7928460   2.7928460   2.7928460   2.7928460   2.7928460

  Atom        41          42          43          44          45          46          47          48          49          50
 IAtWgt=           1           1           1           1           1           1           1           1           1           1
 AtmWgt=   1.0078250   1.0078250   1.0078250   1.0078250   1.0078250   1.0078250   1.0078250   1.0078250   1.0078250   1.0078250
 NucSpn=           1           1           1           1           1           1           1           1           1           1
 AtZEff=   0.0000000   0.0000000   0.0000000   0.0000000   0.0000000   0.0000000   0.0000000   0.0000000   0.0000000   0.0000000
 NQMom=    0.0000000   0.0000000   0.0000000   0.0000000   0.0000000   0.0000000   0.0000000   0.0000000   0.0000000   0.0000000
 NMagM=    2.7928460   2.7928460   2.7928460   2.7928460   2.7928460   2.7928460   2.7928460   2.7928460   2.7928460   2.7928460

  Atom        51          52
 IAtWgt=           1           1
 AtmWgt=   1.0078250   1.0078250
 NucSpn=           1           1
 AtZEff=   0.0000000   0.0000000
 NQMom=    0.0000000   0.0000000
 NMagM=    2.7928460   2.7928460
 Leave Link  101 at Fri Oct  1 18:35:36 2021, MaxMem= 2147483648 cpu:       0.2
 (Enter /sw/target/amd/app/gaussian/Gaussian09RevA.02_gcc-4.9.2/g09/l103.exe)

 GradGradGradGradGradGradGradGradGradGradGradGradGradGradGradGradGradGrad
 Berny optimization.
 Initialization pass.
                           ----------------------------
                           !    Initial Parameters    !
                           ! (Angstroms and Degrees)  !
 --------------------------                            --------------------------
 ! Name  Definition              Value          Derivative Info.                !
 --------------------------------------------------------------------------------
 ! R1    R(1,2)                  1.5389         estimate D2E/DX2                !
 ! R2    R(1,4)                  1.5387         estimate D2E/DX2                !
 ! R3    R(1,21)                 1.0919         estimate D2E/DX2                !
 ! R4    R(1,22)                 1.0952         estimate D2E/DX2                !
 ! R5    R(2,3)                  1.5477         estimate D2E/DX2                !
 ! R6    R(2,23)                 1.0935         estimate D2E/DX2                !
 ! R7    R(2,24)                 1.0978         estimate D2E/DX2                !
 ! R8    R(3,4)                  1.5445         estimate D2E/DX2                !
 ! R9    R(3,5)                  1.8969         estimate D2E/DX2                !
 ! R10   R(3,25)                 1.0959         estimate D2E/DX2                !
 ! R11   R(4,26)                 1.094          estimate D2E/DX2                !
 ! R12   R(4,27)                 1.0989         estimate D2E/DX2                !
 ! R13   R(5,6)                  1.8648         estimate D2E/DX2                !
 ! R14   R(5,10)                 1.8543         estimate D2E/DX2                !
 ! R15   R(6,7)                  1.5471         estimate D2E/DX2                !
 ! R16   R(6,9)                  1.5449         estimate D2E/DX2                !
 ! R17   R(6,28)                 1.0999         estimate D2E/DX2                !
 ! R18   R(7,8)                  1.5429         estimate D2E/DX2                !
 ! R19   R(7,29)                 1.0938         estimate D2E/DX2                !
 ! R20   R(7,30)                 1.0932         estimate D2E/DX2                !
 ! R21   R(8,9)                  1.5402         estimate D2E/DX2                !
 ! R22   R(8,31)                 1.0946         estimate D2E/DX2                !
 ! R23   R(8,32)                 1.0944         estimate D2E/DX2                !
 ! R24   R(9,33)                 1.093          estimate D2E/DX2                !
 ! R25   R(9,34)                 1.0914         estimate D2E/DX2                !
 ! R26   R(10,11)                1.5268         estimate D2E/DX2                !
 ! R27   R(10,35)                1.0974         estimate D2E/DX2                !
 ! R28   R(10,36)                1.092          estimate D2E/DX2                !
 ! R29   R(11,12)                1.8601         estimate D2E/DX2                !
 ! R30   R(11,37)                1.0919         estimate D2E/DX2                !
 ! R31   R(11,38)                1.0967         estimate D2E/DX2                !
 ! R32   R(12,13)                1.8777         estimate D2E/DX2                !
 ! R33   R(12,17)                1.8823         estimate D2E/DX2                !
 ! R34   R(13,14)                1.5513         estimate D2E/DX2                !
 ! R35   R(13,16)                1.5539         estimate D2E/DX2                !
 ! R36   R(13,39)                1.0988         estimate D2E/DX2                !
 ! R37   R(14,15)                1.5406         estimate D2E/DX2                !
 ! R38   R(14,40)                1.0942         estimate D2E/DX2                !
 ! R39   R(14,41)                1.0965         estimate D2E/DX2                !
 ! R40   R(15,16)                1.5431         estimate D2E/DX2                !
 ! R41   R(15,42)                1.0964         estimate D2E/DX2                !
 ! R42   R(15,43)                1.0927         estimate D2E/DX2                !
 ! R43   R(16,44)                1.0938         estimate D2E/DX2                !
 ! R44   R(16,45)                1.095          estimate D2E/DX2                !
 ! R45   R(17,18)                1.5502         estimate D2E/DX2                !
 ! R46   R(17,20)                1.5506         estimate D2E/DX2                !
 ! R47   R(17,46)                1.0981         estimate D2E/DX2                !
 ! R48   R(18,19)                1.542          estimate D2E/DX2                !
 ! R49   R(18,47)                1.0935         estimate D2E/DX2                !
 ! R50   R(18,48)                1.0956         estimate D2E/DX2                !
 ! R51   R(19,20)                1.5367         estimate D2E/DX2                !
 ! R52   R(19,49)                1.0964         estimate D2E/DX2                !
 ! R53   R(19,50)                1.0932         estimate D2E/DX2                !
 ! R54   R(20,51)                1.0923         estimate D2E/DX2                !
 ! R55   R(20,52)                1.0959         estimate D2E/DX2                !
 ! A1    A(2,1,4)               88.1495         estimate D2E/DX2                !
 ! A2    A(2,1,21)             115.601          estimate D2E/DX2                !
 ! A3    A(2,1,22)             113.6427         estimate D2E/DX2                !
 ! A4    A(4,1,21)             115.7267         estimate D2E/DX2                !
 ! A5    A(4,1,22)             113.634          estimate D2E/DX2                !
 ! A6    A(21,1,22)            109.0023         estimate D2E/DX2                !
 ! A7    A(1,2,3)               88.5298         estimate D2E/DX2                !
 ! A8    A(1,2,23)             114.9874         estimate D2E/DX2                !
 ! A9    A(1,2,24)             113.3805         estimate D2E/DX2                !
 ! A10   A(3,2,23)             117.4562         estimate D2E/DX2                !
 ! A11   A(3,2,24)             113.2461         estimate D2E/DX2                !
 ! A12   A(23,2,24)            108.3425         estimate D2E/DX2                !
 ! A13   A(2,3,4)               87.623          estimate D2E/DX2                !
 ! A14   A(2,3,5)              118.1082         estimate D2E/DX2                !
 ! A15   A(2,3,25)             112.8792         estimate D2E/DX2                !
 ! A16   A(4,3,5)              118.7904         estimate D2E/DX2                !
 ! A17   A(4,3,25)             112.9208         estimate D2E/DX2                !
 ! A18   A(5,3,25)             106.0555         estimate D2E/DX2                !
 ! A19   A(1,4,3)               88.6565         estimate D2E/DX2                !
 ! A20   A(1,4,26)             115.092          estimate D2E/DX2                !
 ! A21   A(1,4,27)             113.1763         estimate D2E/DX2                !
 ! A22   A(3,4,26)             117.5281         estimate D2E/DX2                !
 ! A23   A(3,4,27)             113.242          estimate D2E/DX2                !
 ! A24   A(26,4,27)            108.2693         estimate D2E/DX2                !
 ! A25   A(3,5,6)               98.8865         estimate D2E/DX2                !
 ! A26   A(3,5,10)              97.9917         estimate D2E/DX2                !
 ! A27   A(6,5,10)             104.8816         estimate D2E/DX2                !
 ! A28   A(5,6,7)              121.0853         estimate D2E/DX2                !
 ! A29   A(5,6,9)              122.5211         estimate D2E/DX2                !
 ! A30   A(5,6,28)             104.5121         estimate D2E/DX2                !
 ! A31   A(7,6,9)               87.1391         estimate D2E/DX2                !
 ! A32   A(7,6,28)             109.7985         estimate D2E/DX2                !
 ! A33   A(9,6,28)             111.0608         estimate D2E/DX2                !
 ! A34   A(6,7,8)               87.4249         estimate D2E/DX2                !
 ! A35   A(6,7,29)             115.6841         estimate D2E/DX2                !
 ! A36   A(6,7,30)             116.1538         estimate D2E/DX2                !
 ! A37   A(8,7,29)             114.7742         estimate D2E/DX2                !
 ! A38   A(8,7,30)             113.4075         estimate D2E/DX2                !
 ! A39   A(29,7,30)            108.3832         estimate D2E/DX2                !
 ! A40   A(7,8,9)               87.457          estimate D2E/DX2                !
 ! A41   A(7,8,31)             114.0892         estimate D2E/DX2                !
 ! A42   A(7,8,32)             115.7646         estimate D2E/DX2                !
 ! A43   A(9,8,31)             113.8334         estimate D2E/DX2                !
 ! A44   A(9,8,32)             115.4272         estimate D2E/DX2                !
 ! A45   A(31,8,32)            109.088          estimate D2E/DX2                !
 ! A46   A(6,9,8)               87.6008         estimate D2E/DX2                !
 ! A47   A(6,9,33)             115.7153         estimate D2E/DX2                !
 ! A48   A(6,9,34)             115.9208         estimate D2E/DX2                !
 ! A49   A(8,9,33)             115.4442         estimate D2E/DX2                !
 ! A50   A(8,9,34)             112.0513         estimate D2E/DX2                !
 ! A51   A(33,9,34)            108.9335         estimate D2E/DX2                !
 ! A52   A(5,10,11)            114.1885         estimate D2E/DX2                !
 ! A53   A(5,10,35)            106.9273         estimate D2E/DX2                !
 ! A54   A(5,10,36)            109.2058         estimate D2E/DX2                !
 ! A55   A(11,10,35)           108.6985         estimate D2E/DX2                !
 ! A56   A(11,10,36)           111.6674         estimate D2E/DX2                !
 ! A57   A(35,10,36)           105.6973         estimate D2E/DX2                !
 ! A58   A(10,11,12)           112.5251         estimate D2E/DX2                !
 ! A59   A(10,11,37)           111.6062         estimate D2E/DX2                !
 ! A60   A(10,11,38)           109.2012         estimate D2E/DX2                !
 ! A61   A(12,11,37)           108.2924         estimate D2E/DX2                !
 ! A62   A(12,11,38)           107.7756         estimate D2E/DX2                !
 ! A63   A(37,11,38)           107.2338         estimate D2E/DX2                !
 ! A64   A(11,12,13)           100.0026         estimate D2E/DX2                !
 ! A65   A(11,12,17)           100.5242         estimate D2E/DX2                !
 ! A66   A(13,12,17)           100.0073         estimate D2E/DX2                !
 ! A67   A(12,13,14)           119.0118         estimate D2E/DX2                !
 ! A68   A(12,13,16)           117.8312         estimate D2E/DX2                !
 ! A69   A(12,13,39)           107.9949         estimate D2E/DX2                !
 ! A70   A(14,13,16)            86.4635         estimate D2E/DX2                !
 ! A71   A(14,13,39)           111.6966         estimate D2E/DX2                !
 ! A72   A(16,13,39)           112.681          estimate D2E/DX2                !
 ! A73   A(13,14,15)            87.484          estimate D2E/DX2                !
 ! A74   A(13,14,40)           115.7225         estimate D2E/DX2                !
 ! A75   A(13,14,41)           115.1563         estimate D2E/DX2                !
 ! A76   A(15,14,40)           115.1172         estimate D2E/DX2                !
 ! A77   A(15,14,41)           113.4396         estimate D2E/DX2                !
 ! A78   A(40,14,41)           108.8126         estimate D2E/DX2                !
 ! A79   A(14,15,16)            87.2203         estimate D2E/DX2                !
 ! A80   A(14,15,42)           113.8698         estimate D2E/DX2                !
 ! A81   A(14,15,43)           115.8162         estimate D2E/DX2                !
 ! A82   A(16,15,42)           113.8618         estimate D2E/DX2                !
 ! A83   A(16,15,43)           115.8191         estimate D2E/DX2                !
 ! A84   A(42,15,43)           109.0508         estimate D2E/DX2                !
 ! A85   A(13,16,15)            87.3047         estimate D2E/DX2                !
 ! A86   A(13,16,44)           115.9359         estimate D2E/DX2                !
 ! A87   A(13,16,45)           115.1478         estimate D2E/DX2                !
 ! A88   A(15,16,44)           115.2027         estimate D2E/DX2                !
 ! A89   A(15,16,45)           113.1239         estimate D2E/DX2                !
 ! A90   A(44,16,45)           108.9444         estimate D2E/DX2                !
 ! A91   A(12,17,18)           118.4898         estimate D2E/DX2                !
 ! A92   A(12,17,20)           117.9619         estimate D2E/DX2                !
 ! A93   A(12,17,46)           107.9567         estimate D2E/DX2                !
 ! A94   A(18,17,20)            86.7976         estimate D2E/DX2                !
 ! A95   A(18,17,46)           112.1622         estimate D2E/DX2                !
 ! A96   A(20,17,46)           112.3706         estimate D2E/DX2                !
 ! A97   A(17,18,19)            87.7387         estimate D2E/DX2                !
 ! A98   A(17,18,47)           115.7666         estimate D2E/DX2                !
 ! A99   A(17,18,48)           115.2388         estimate D2E/DX2                !
 ! A100  A(19,18,47)           114.8074         estimate D2E/DX2                !
 ! A101  A(19,18,48)           113.2185         estimate D2E/DX2                !
 ! A102  A(47,18,48)           108.94           estimate D2E/DX2                !
 ! A103  A(18,19,20)            87.5767         estimate D2E/DX2                !
 ! A104  A(18,19,49)           114.0533         estimate D2E/DX2                !
 ! A105  A(18,19,50)           116.0166         estimate D2E/DX2                !
 ! A106  A(20,19,49)           113.6229         estimate D2E/DX2                !
 ! A107  A(20,19,50)           115.3675         estimate D2E/DX2                !
 ! A108  A(49,19,50)           109.0421         estimate D2E/DX2                !
 ! A109  A(17,20,19)            87.9142         estimate D2E/DX2                !
 ! A110  A(17,20,51)           116.1409         estimate D2E/DX2                !
 ! A111  A(17,20,52)           115.0582         estimate D2E/DX2                !
 ! A112  A(19,20,51)           114.2928         estimate D2E/DX2                !
 ! A113  A(19,20,52)           113.5576         estimate D2E/DX2                !
 ! A114  A(51,20,52)           108.7984         estimate D2E/DX2                !
 ! D1    D(4,1,2,3)            -19.9069         estimate D2E/DX2                !
 ! D2    D(4,1,2,23)          -139.7013         estimate D2E/DX2                !
 ! D3    D(4,1,2,24)            94.8667         estimate D2E/DX2                !
 ! D4    D(21,1,2,3)          -137.6887         estimate D2E/DX2                !
 ! D5    D(21,1,2,23)          102.5169         estimate D2E/DX2                !
 ! D6    D(21,1,2,24)          -22.9151         estimate D2E/DX2                !
 ! D7    D(22,1,2,3)            95.1622         estimate D2E/DX2                !
 ! D8    D(22,1,2,23)          -24.6322         estimate D2E/DX2                !
 ! D9    D(22,1,2,24)         -150.0642         estimate D2E/DX2                !
 ! D10   D(2,1,4,3)             19.9494         estimate D2E/DX2                !
 ! D11   D(2,1,4,26)           139.9166         estimate D2E/DX2                !
 ! D12   D(2,1,4,27)           -94.8432         estimate D2E/DX2                !
 ! D13   D(21,1,4,3)           137.6162         estimate D2E/DX2                !
 ! D14   D(21,1,4,26)         -102.4166         estimate D2E/DX2                !
 ! D15   D(21,1,4,27)           22.8236         estimate D2E/DX2                !
 ! D16   D(22,1,4,3)           -95.1278         estimate D2E/DX2                !
 ! D17   D(22,1,4,26)           24.8394         estimate D2E/DX2                !
 ! D18   D(22,1,4,27)          150.0796         estimate D2E/DX2                !
 ! D19   D(1,2,3,4)             19.8354         estimate D2E/DX2                !
 ! D20   D(1,2,3,5)           -101.7858         estimate D2E/DX2                !
 ! D21   D(1,2,3,25)           133.7617         estimate D2E/DX2                !
 ! D22   D(23,2,3,4)           137.4072         estimate D2E/DX2                !
 ! D23   D(23,2,3,5)            15.7861         estimate D2E/DX2                !
 ! D24   D(23,2,3,25)         -108.6665         estimate D2E/DX2                !
 ! D25   D(24,2,3,4)           -95.0633         estimate D2E/DX2                !
 ! D26   D(24,2,3,5)           143.3155         estimate D2E/DX2                !
 ! D27   D(24,2,3,25)           18.863          estimate D2E/DX2                !
 ! D28   D(2,3,4,1)            -19.8374         estimate D2E/DX2                !
 ! D29   D(2,3,4,26)          -137.6203         estimate D2E/DX2                !
 ! D30   D(2,3,4,27)            94.8941         estimate D2E/DX2                !
 ! D31   D(5,3,4,1)            101.1763         estimate D2E/DX2                !
 ! D32   D(5,3,4,26)           -16.6066         estimate D2E/DX2                !
 ! D33   D(5,3,4,27)          -144.0922         estimate D2E/DX2                !
 ! D34   D(25,3,4,1)          -133.7241         estimate D2E/DX2                !
 ! D35   D(25,3,4,26)          108.493          estimate D2E/DX2                !
 ! D36   D(25,3,4,27)          -18.9926         estimate D2E/DX2                !
 ! D37   D(2,3,5,6)            179.812          estimate D2E/DX2                !
 ! D38   D(2,3,5,10)           -73.6624         estimate D2E/DX2                !
 ! D39   D(4,3,5,6)             75.9329         estimate D2E/DX2                !
 ! D40   D(4,3,5,10)          -177.5415         estimate D2E/DX2                !
 ! D41   D(25,3,5,6)           -52.4257         estimate D2E/DX2                !
 ! D42   D(25,3,5,10)           54.0999         estimate D2E/DX2                !
 ! D43   D(3,5,6,7)           -179.9207         estimate D2E/DX2                !
 ! D44   D(3,5,6,9)             71.7018         estimate D2E/DX2                !
 ! D45   D(3,5,6,28)           -55.5464         estimate D2E/DX2                !
 ! D46   D(10,5,6,7)            79.2927         estimate D2E/DX2                !
 ! D47   D(10,5,6,9)           -29.0848         estimate D2E/DX2                !
 ! D48   D(10,5,6,28)         -156.333          estimate D2E/DX2                !
 ! D49   D(3,5,10,11)         -179.2158         estimate D2E/DX2                !
 ! D50   D(3,5,10,35)           60.5149         estimate D2E/DX2                !
 ! D51   D(3,5,10,36)          -53.4072         estimate D2E/DX2                !
 ! D52   D(6,5,10,11)          -77.754          estimate D2E/DX2                !
 ! D53   D(6,5,10,35)          161.9767         estimate D2E/DX2                !
 ! D54   D(6,5,10,36)           48.0546         estimate D2E/DX2                !
 ! D55   D(5,6,7,8)           -150.7246         estimate D2E/DX2                !
 ! D56   D(5,6,7,29)            92.9271         estimate D2E/DX2                !
 ! D57   D(5,6,7,30)           -35.8304         estimate D2E/DX2                !
 ! D58   D(9,6,7,8)            -23.9684         estimate D2E/DX2                !
 ! D59   D(9,6,7,29)          -140.3166         estimate D2E/DX2                !
 ! D60   D(9,6,7,30)            90.9259         estimate D2E/DX2                !
 ! D61   D(28,6,7,8)            87.4036         estimate D2E/DX2                !
 ! D62   D(28,6,7,29)          -28.9447         estimate D2E/DX2                !
 ! D63   D(28,6,7,30)         -157.7022         estimate D2E/DX2                !
 ! D64   D(5,6,9,8)            149.5467         estimate D2E/DX2                !
 ! D65   D(5,6,9,33)           -93.2531         estimate D2E/DX2                !
 ! D66   D(5,6,9,34)            36.1289         estimate D2E/DX2                !
 ! D67   D(7,6,9,8)             24.0094         estimate D2E/DX2                !
 ! D68   D(7,6,9,33)           141.2095         estimate D2E/DX2                !
 ! D69   D(7,6,9,34)           -89.4084         estimate D2E/DX2                !
 ! D70   D(28,6,9,8)           -86.1215         estimate D2E/DX2                !
 ! D71   D(28,6,9,33)           31.0786         estimate D2E/DX2                !
 ! D72   D(28,6,9,34)          160.4606         estimate D2E/DX2                !
 ! D73   D(6,7,8,9)             24.0395         estimate D2E/DX2                !
 ! D74   D(6,7,8,31)           -90.9977         estimate D2E/DX2                !
 ! D75   D(6,7,8,32)           141.1555         estimate D2E/DX2                !
 ! D76   D(29,7,8,9)           141.2374         estimate D2E/DX2                !
 ! D77   D(29,7,8,31)           26.2003         estimate D2E/DX2                !
 ! D78   D(29,7,8,32)         -101.6466         estimate D2E/DX2                !
 ! D79   D(30,7,8,9)           -93.4333         estimate D2E/DX2                !
 ! D80   D(30,7,8,31)          151.5295         estimate D2E/DX2                !
 ! D81   D(30,7,8,32)           23.6827         estimate D2E/DX2                !
 ! D82   D(7,8,9,6)            -24.0735         estimate D2E/DX2                !
 ! D83   D(7,8,9,33)          -141.5248         estimate D2E/DX2                !
 ! D84   D(7,8,9,34)            92.996          estimate D2E/DX2                !
 ! D85   D(31,8,9,6)            91.2057         estimate D2E/DX2                !
 ! D86   D(31,8,9,33)          -26.2456         estimate D2E/DX2                !
 ! D87   D(31,8,9,34)         -151.7248         estimate D2E/DX2                !
 ! D88   D(32,8,9,6)          -141.503          estimate D2E/DX2                !
 ! D89   D(32,8,9,33)          101.0457         estimate D2E/DX2                !
 ! D90   D(32,8,9,34)          -24.4335         estimate D2E/DX2                !
 ! D91   D(5,10,11,12)        -179.5973         estimate D2E/DX2                !
 ! D92   D(5,10,11,37)          58.4161         estimate D2E/DX2                !
 ! D93   D(5,10,11,38)         -59.9669         estimate D2E/DX2                !
 ! D94   D(35,10,11,12)        -60.323          estimate D2E/DX2                !
 ! D95   D(35,10,11,37)        177.6904         estimate D2E/DX2                !
 ! D96   D(35,10,11,38)         59.3075         estimate D2E/DX2                !
 ! D97   D(36,10,11,12)         55.8965         estimate D2E/DX2                !
 ! D98   D(36,10,11,37)        -66.0901         estimate D2E/DX2                !
 ! D99   D(36,10,11,38)        175.527          estimate D2E/DX2                !
 ! D100  D(10,11,12,13)        179.3535         estimate D2E/DX2                !
 ! D101  D(10,11,12,17)        -78.3928         estimate D2E/DX2                !
 ! D102  D(37,11,12,13)        -56.8014         estimate D2E/DX2                !
 ! D103  D(37,11,12,17)         45.4523         estimate D2E/DX2                !
 ! D104  D(38,11,12,13)         58.8988         estimate D2E/DX2                !
 ! D105  D(38,11,12,17)        161.1525         estimate D2E/DX2                !
 ! D106  D(11,12,13,14)        -60.6747         estimate D2E/DX2                !
 ! D107  D(11,12,13,16)       -162.9742         estimate D2E/DX2                !
 ! D108  D(11,12,13,39)         67.9794         estimate D2E/DX2                !
 ! D109  D(17,12,13,14)       -163.352          estimate D2E/DX2                !
 ! D110  D(17,12,13,16)         94.3486         estimate D2E/DX2                !
 ! D111  D(17,12,13,39)        -34.6978         estimate D2E/DX2                !
 ! D112  D(11,12,17,18)       -178.3743         estimate D2E/DX2                !
 ! D113  D(11,12,17,20)         79.1428         estimate D2E/DX2                !
 ! D114  D(11,12,17,46)        -49.5399         estimate D2E/DX2                !
 ! D115  D(13,12,17,18)        -76.1244         estimate D2E/DX2                !
 ! D116  D(13,12,17,20)       -178.6074         estimate D2E/DX2                !
 ! D117  D(13,12,17,46)         52.71           estimate D2E/DX2                !
 ! D118  D(12,13,14,15)       -145.2516         estimate D2E/DX2                !
 ! D119  D(12,13,14,40)         97.9761         estimate D2E/DX2                !
 ! D120  D(12,13,14,41)        -30.4642         estimate D2E/DX2                !
 ! D121  D(16,13,14,15)        -25.2118         estimate D2E/DX2                !
 ! D122  D(16,13,14,40)       -141.9841         estimate D2E/DX2                !
 ! D123  D(16,13,14,41)         89.5757         estimate D2E/DX2                !
 ! D124  D(39,13,14,15)         87.8176         estimate D2E/DX2                !
 ! D125  D(39,13,14,40)        -28.9546         estimate D2E/DX2                !
 ! D126  D(39,13,14,41)       -157.3949         estimate D2E/DX2                !
 ! D127  D(12,13,16,15)        146.2929         estimate D2E/DX2                !
 ! D128  D(12,13,16,44)        -96.8902         estimate D2E/DX2                !
 ! D129  D(12,13,16,45)         31.9484         estimate D2E/DX2                !
 ! D130  D(14,13,16,15)         25.1719         estimate D2E/DX2                !
 ! D131  D(14,13,16,44)        141.9888         estimate D2E/DX2                !
 ! D132  D(14,13,16,45)        -89.1726         estimate D2E/DX2                !
 ! D133  D(39,13,16,15)        -86.8904         estimate D2E/DX2                !
 ! D134  D(39,13,16,44)         29.9265         estimate D2E/DX2                !
 ! D135  D(39,13,16,45)        158.7651         estimate D2E/DX2                !
 ! D136  D(13,14,15,16)         25.3815         estimate D2E/DX2                !
 ! D137  D(13,14,15,42)        -89.5418         estimate D2E/DX2                !
 ! D138  D(13,14,15,43)        142.8267         estimate D2E/DX2                !
 ! D139  D(40,14,15,16)        142.7171         estimate D2E/DX2                !
 ! D140  D(40,14,15,42)         27.7938         estimate D2E/DX2                !
 ! D141  D(40,14,15,43)        -99.8377         estimate D2E/DX2                !
 ! D142  D(41,14,15,16)        -91.0239         estimate D2E/DX2                !
 ! D143  D(41,14,15,42)        154.0528         estimate D2E/DX2                !
 ! D144  D(41,14,15,43)         26.4213         estimate D2E/DX2                !
 ! D145  D(14,15,16,13)        -25.3405         estimate D2E/DX2                !
 ! D146  D(14,15,16,44)       -142.8412         estimate D2E/DX2                !
 ! D147  D(14,15,16,45)         90.9223         estimate D2E/DX2                !
 ! D148  D(42,15,16,13)         89.5905         estimate D2E/DX2                !
 ! D149  D(42,15,16,44)        -27.9103         estimate D2E/DX2                !
 ! D150  D(42,15,16,45)       -154.1468         estimate D2E/DX2                !
 ! D151  D(43,15,16,13)       -142.783          estimate D2E/DX2                !
 ! D152  D(43,15,16,44)         99.7162         estimate D2E/DX2                !
 ! D153  D(43,15,16,45)        -26.5203         estimate D2E/DX2                !
 ! D154  D(12,17,18,19)       -143.7024         estimate D2E/DX2                !
 ! D155  D(12,17,18,47)         99.7338         estimate D2E/DX2                !
 ! D156  D(12,17,18,48)        -29.0211         estimate D2E/DX2                !
 ! D157  D(20,17,18,19)        -23.4402         estimate D2E/DX2                !
 ! D158  D(20,17,18,47)       -140.004          estimate D2E/DX2                !
 ! D159  D(20,17,18,48)         91.2411         estimate D2E/DX2                !
 ! D160  D(46,17,18,19)         89.4403         estimate D2E/DX2                !
 ! D161  D(46,17,18,47)        -27.1235         estimate D2E/DX2                !
 ! D162  D(46,17,18,48)       -155.8784         estimate D2E/DX2                !
 ! D163  D(12,17,20,19)        144.2665         estimate D2E/DX2                !
 ! D164  D(12,17,20,51)        -99.5847         estimate D2E/DX2                !
 ! D165  D(12,17,20,52)         29.1499         estimate D2E/DX2                !
 ! D166  D(18,17,20,19)         23.5233         estimate D2E/DX2                !
 ! D167  D(18,17,20,51)        139.6721         estimate D2E/DX2                !
 ! D168  D(18,17,20,52)        -91.5933         estimate D2E/DX2                !
 ! D169  D(46,17,20,19)        -89.154          estimate D2E/DX2                !
 ! D170  D(46,17,20,51)         26.9948         estimate D2E/DX2                !
 ! D171  D(46,17,20,52)        155.7294         estimate D2E/DX2                !
 ! D172  D(17,18,19,20)         23.648          estimate D2E/DX2                !
 ! D173  D(17,18,19,49)        -91.207          estimate D2E/DX2                !
 ! D174  D(17,18,19,50)        140.8097         estimate D2E/DX2                !
 ! D175  D(47,18,19,20)        141.1009         estimate D2E/DX2                !
 ! D176  D(47,18,19,49)         26.2458         estimate D2E/DX2                !
 ! D177  D(47,18,19,50)       -101.7375         estimate D2E/DX2                !
 ! D178  D(48,18,19,20)        -92.9284         estimate D2E/DX2                !
 ! D179  D(48,18,19,49)        152.2165         estimate D2E/DX2                !
 ! D180  D(48,18,19,50)         24.2333         estimate D2E/DX2                !
 ! D181  D(18,19,20,17)        -23.639          estimate D2E/DX2                !
 ! D182  D(18,19,20,51)       -141.4958         estimate D2E/DX2                !
 ! D183  D(18,19,20,52)         92.8787         estimate D2E/DX2                !
 ! D184  D(49,19,20,17)         91.6228         estimate D2E/DX2                !
 ! D185  D(49,19,20,51)        -26.234          estimate D2E/DX2                !
 ! D186  D(49,19,20,52)       -151.8596         estimate D2E/DX2                !
 ! D187  D(50,19,20,17)       -141.4015         estimate D2E/DX2                !
 ! D188  D(50,19,20,51)        100.7417         estimate D2E/DX2                !
 ! D189  D(50,19,20,52)        -24.8838         estimate D2E/DX2                !
 --------------------------------------------------------------------------------
 Trust Radius=3.00D-01 FncErr=1.00D-07 GrdErr=1.00D-06
 Number of steps in this run= 312 maximum allowed number of steps= 312.
 GradGradGradGradGradGradGradGradGradGradGradGradGradGradGradGradGradGrad

 Leave Link  103 at Fri Oct  1 18:35:36 2021, MaxMem= 2147483648 cpu:       0.0
 (Enter /sw/target/amd/app/gaussian/Gaussian09RevA.02_gcc-4.9.2/g09/l202.exe)
 Stoichiometry    C18H32P2
 Framework group  C1[X(C18H32P2)]
 Deg. of freedom   150
 Full point group                 C1      NOp   1
 Largest Abelian subgroup         C1      NOp   1
 Largest concise Abelian subgroup C1      NOp   1
                         Standard orientation:                         
 ---------------------------------------------------------------------
 Center     Atomic      Atomic             Coordinates (Angstroms)
 Number     Number       Type             X           Y           Z
 ---------------------------------------------------------------------
      1          6           0        5.064364   -1.730356   -1.460182
      2          6           0        3.765026   -1.228231   -2.114216
      3          6           0        3.545711   -0.315026   -0.883980
      4          6           0        5.053319   -0.465529   -0.584090
      5         15           0        2.293416   -0.869259    0.428510
      6          6           0        2.461346    0.563627    1.610150
      7          6           0        1.630588    0.625494    2.913859
      8          6           0        1.696882    2.162787    2.800889
      9          6           0        1.917899    1.973528    1.288449
     10          6           0        0.744519   -0.518258   -0.528553
     11          6           0       -0.543549   -0.830062    0.229626
     12         15           0       -2.066797   -0.472698   -0.776280
     13          6           0       -3.394279   -0.985647    0.448620
     14          6           0       -3.429605   -2.453660    0.948917
     15          6           0       -4.965272   -2.334847    0.979414
     16          6           0       -4.826783   -1.238658   -0.097722
     17          6           0       -2.164245    1.398759   -0.599595
     18          6           0       -3.345684    2.144414   -1.271442
     19          6           0       -2.364774    3.293293   -1.580883
     20          6           0       -1.229236    2.262325   -1.485238
     21          1           0        5.919945   -1.835243   -2.130359
     22          1           0        4.940077   -2.658725   -0.892566
     23          1           0        3.016552   -2.001607   -2.307899
     24          1           0        3.933069   -0.669481   -3.044129
     25          1           0        3.265061    0.708376   -1.157641
     26          1           0        5.348591   -0.620294    0.457830
     27          1           0        5.661246    0.351700   -0.996685
     28          1           0        3.534166    0.598789    1.850010
     29          1           0        2.112783    0.210051    3.803436
     30          1           0        0.613339    0.229260    2.856288
     31          1           0        2.549400    2.612523    3.319601
     32          1           0        0.784824    2.699982    3.078900
     33          1           0        2.630427    2.662804    0.828109
     34          1           0        0.980829    2.007662    0.729974
     35          1           0        0.779814   -1.139445   -1.432550
     36          1           0        0.765605    0.515639   -0.879504
     37          1           0       -0.608154   -0.265199    1.161881
     38          1           0       -0.558376   -1.894601    0.493023
     39          1           0       -3.379331   -0.272064    1.283983
     40          1           0       -2.958519   -2.636059    1.919494
     41          1           0       -3.063937   -3.199111    0.232715
     42          1           0       -5.363250   -1.970887    1.934041
     43          1           0       -5.517760   -3.228886    0.680296
     44          1           0       -5.528047   -0.404306   -0.005988
     45          1           0       -4.872740   -1.631008   -1.118935
     46          1           0       -2.072907    1.643320    0.467025
     47          1           0       -4.174579    2.414153   -0.611254
     48          1           0       -3.748683    1.666455   -2.171117
     49          1           0       -2.322831    4.066390   -0.804553
     50          1           0       -2.480729    3.773186   -2.556234
     51          1           0       -0.322034    2.636259   -1.005412
     52          1           0       -0.960510    1.816000   -2.449385
 ---------------------------------------------------------------------
 Rotational constants (GHZ):      0.3710138      0.1436813      0.1357845
 Leave Link  202 at Fri Oct  1 18:35:36 2021, MaxMem= 2147483648 cpu:       0.1
 (Enter /sw/target/amd/app/gaussian/Gaussian09RevA.02_gcc-4.9.2/g09/l301.exe)
 Standard basis: 6-31G(d) (6D, 7F)
 Ernie: Thresh=  0.10000D-02 Tol=  0.10000D-05 Strict=F.
 There are   372 symmetry adapted basis functions of A   symmetry.
 Integral buffers will be    131072 words long.
 Raffenetti 2 integral format.
 Two-electron integral symmetry is turned on.
   372 basis functions,   736 primitive gaussians,   372 cartesian basis functions
    85 alpha electrons       85 beta electrons
       nuclear repulsion energy      1905.9592222434 Hartrees.
 IExCor=  402 DFT=T Ex+Corr=B3LYP ExCW=0 ScaHFX=  0.200000
 ScaDFX=  0.800000  0.720000  1.000000  0.810000 ScalE2=  1.000000  1.000000
 IRadAn=      0 IRanWt=     -1 IRanGd=            0 ICorTp=0
 NAtoms=   52 NActive=   52 NUniq=   52 SFac= 7.50D-01 NAtFMM=   80 NAOKFM=F Big=F
 Leave Link  301 at Fri Oct  1 18:35:36 2021, MaxMem= 2147483648 cpu:       0.1
 (Enter /sw/target/amd/app/gaussian/Gaussian09RevA.02_gcc-4.9.2/g09/l302.exe)
 NPDir=0 NMtPBC=     1 NCelOv=     1 NCel=       1 NClECP=     1 NCelD=      1
         NCelK=      1 NCelE2=     1 NClLst=     1 CellRange=     0.0.
 One-electron integrals computed using PRISM.
 NBasis=   372 RedAO= T  NBF=   372
 NBsUse=   372 1.00D-06 NBFU=   372
 Precomputing XC quadrature grid using
 IXCGrd= 2 IRadAn=           0 IRanWt=          -1 IRanGd=           0 AccXCQ= 1.00D-10.
 NRdTot=    3310 NPtTot=      421662 NUsed=      445521 NTot=      445553
 NSgBfM=   365   365   367   367   367 NAtAll=    52    52.
 Leave Link  302 at Fri Oct  1 18:35:40 2021, MaxMem= 2147483648 cpu:       7.0
 (Enter /sw/target/amd/app/gaussian/Gaussian09RevA.02_gcc-4.9.2/g09/l303.exe)
 DipDrv:  MaxL=1.
 Leave Link  303 at Fri Oct  1 18:35:41 2021, MaxMem= 2147483648 cpu:       0.3
 (Enter /sw/target/amd/app/gaussian/Gaussian09RevA.02_gcc-4.9.2/g09/l401.exe)
 Harris functional with IExCor=  402 diagonalized for initial guess.
 ExpMin= 9.98D-02 ExpMax= 1.94D+04 ExpMxC= 2.91D+03 IAcc=2 IRadAn=         0 AccDes= 0.00D+00
 HarFok:  IExCor=  402 AccDes= 0.00D+00 IRadAn=         0 IDoV= 1
 ScaDFX=  1.000000  1.000000  1.000000  1.000000
 FoFCou: FMM=F IPFlag=           0 FMFlag=      100000 FMFlg1=           0
         NFxFlg=           0 DoJE=T BraDBF=F KetDBF=T FulRan=T
         Omega=  0.000000  0.000000  1.000000  0.000000  0.000000 ICntrl=     500 IOpCl=  0
         NMat0=    1 NMatS0=    1 NMatT0=    0 NMatD0=    1 NMtDS0=    0 NMtDT0=    0
         I1Cent=           4 NGrid=           0.
 Petite list used in FoFCou.
 Harris En= -1387.92032338153    
 Initial guess orbital symmetries:
       Occupied  (A) (A) (A) (A) (A) (A) (A) (A) (A) (A) (A) (A)
                 (A) (A) (A) (A) (A) (A) (A) (A) (A) (A) (A) (A)
                 (A) (A) (A) (A) (A) (A) (A) (A) (A) (A) (A) (A)
                 (A) (A) (A) (A) (A) (A) (A) (A) (A) (A) (A) (A)
                 (A) (A) (A) (A) (A) (A) (A) (A) (A) (A) (A) (A)
                 (A) (A) (A) (A) (A) (A) (A) (A) (A) (A) (A) (A)
                 (A) (A) (A) (A) (A) (A) (A) (A) (A) (A) (A) (A)
                 (A)
       Virtual   (A) (A) (A) (A) (A) (A) (A) (A) (A) (A) (A) (A)
                 (A) (A) (A) (A) (A) (A) (A) (A) (A) (A) (A) (A)
                 (A) (A) (A) (A) (A) (A) (A) (A) (A) (A) (A) (A)
                 (A) (A) (A) (A) (A) (A) (A) (A) (A) (A) (A) (A)
                 (A) (A) (A) (A) (A) (A) (A) (A) (A) (A) (A) (A)
                 (A) (A) (A) (A) (A) (A) (A) (A) (A) (A) (A) (A)
                 (A) (A) (A) (A) (A) (A) (A) (A) (A) (A) (A) (A)
                 (A) (A) (A) (A) (A) (A) (A) (A) (A) (A) (A) (A)
                 (A) (A) (A) (A) (A) (A) (A) (A) (A) (A) (A) (A)
                 (A) (A) (A) (A) (A) (A) (A) (A) (A) (A) (A) (A)
                 (A) (A) (A) (A) (A) (A) (A) (A) (A) (A) (A) (A)
                 (A) (A) (A) (A) (A) (A) (A) (A) (A) (A) (A) (A)
                 (A) (A) (A) (A) (A) (A) (A) (A) (A) (A) (A) (A)
                 (A) (A) (A) (A) (A) (A) (A) (A) (A) (A) (A) (A)
                 (A) (A) (A) (A) (A) (A) (A) (A) (A) (A) (A) (A)
                 (A) (A) (A) (A) (A) (A) (A) (A) (A) (A) (A) (A)
                 (A) (A) (A) (A) (A) (A) (A) (A) (A) (A) (A) (A)
                 (A) (A) (A) (A) (A) (A) (A) (A) (A) (A) (A) (A)
                 (A) (A) (A) (A) (A) (A) (A) (A) (A) (A) (A) (A)
                 (A) (A) (A) (A) (A) (A) (A) (A) (A) (A) (A) (A)
                 (A) (A) (A) (A) (A) (A) (A) (A) (A) (A) (A) (A)
                 (A) (A) (A) (A) (A) (A) (A) (A) (A) (A) (A) (A)
                 (A) (A) (A) (A) (A) (A) (A) (A) (A) (A) (A) (A)
                 (A) (A) (A) (A) (A) (A) (A) (A) (A) (A) (A)
 The electronic state of the initial guess is 1-A.
 Leave Link  401 at Fri Oct  1 18:36:28 2021, MaxMem= 2147483648 cpu:      55.7
 (Enter /sw/target/amd/app/gaussian/Gaussian09RevA.02_gcc-4.9.2/g09/l502.exe)
 Closed shell SCF:
 Requested convergence on RMS density matrix=1.00D-08 within  64 cycles.
 Requested convergence on MAX density matrix=1.00D-06.
 Requested convergence on             energy=1.00D-06.
 No special actions if energy rises.
 Using DIIS extrapolation, IDIIS=  1040.
 Integral symmetry usage will be decided dynamically.
       445040 words used for storage of precomputed grid.
 IEnd=      871560 IEndB=      871560 NGot=  2147483648 MDV=  2146755069
 LenX=  2146755069 LenY=  2146616244
 Fock matrices will be formed incrementally for  20 cycles.
 Integral accuracy reduced to 1.0D-05 until final iterations.

 Cycle   1  Pass 0  IDiag  1:
 FoFCou: FMM=F IPFlag=           0 FMFlag=      100000 FMFlg1=           0
         NFxFlg=           0 DoJE=F BraDBF=F KetDBF=F FulRan=T
         Omega=  0.000000  0.000000  1.000000  0.000000  0.000000 ICntrl=       0 IOpCl=  0
         NMat0=    1 NMatS0=    1 NMatT0=    0 NMatD0=    1 NMtDS0=    0 NMtDT0=    0
         I1Cent=           0 NGrid=           0.
 Symmetry not used in FoFCou.
 E= -1387.03187787022    
 DIIS: error= 2.97D-02 at cycle   1 NSaved=   1.
 NSaved= 1 IEnMin= 1 EnMin= -1387.03187787022     IErMin= 1 ErrMin= 2.97D-02
 ErrMax= 2.97D-02 EMaxC= 1.00D-01 BMatC= 6.63D-01 BMatP= 6.63D-01
 IDIUse=3 WtCom= 7.03D-01 WtEn= 2.97D-01
 Coeff-Com:  0.100D+01
 Coeff-En:   0.100D+01
 Coeff:      0.100D+01
 Gap=     0.305 Goal=   None    Shift=    0.000
 GapD=    0.305 DampG=1.000 DampE=0.500 DampFc=0.5000 IDamp=-1.
 Damping current iteration by 5.00D-01
 RMSDP=5.36D-03 MaxDP=1.36D-01              OVMax= 1.77D-01

 Cycle   2  Pass 0  IDiag  1:
 RMSU=  1.87D-03    CP:  9.76D-01
 E= -1387.31746549003     Delta-E=       -0.285587619810 Rises=F Damp=T
 DIIS: error= 6.10D-03 at cycle   2 NSaved=   2.
 NSaved= 2 IEnMin= 2 EnMin= -1387.31746549003     IErMin= 2 ErrMin= 6.10D-03
 ErrMax= 6.10D-03 EMaxC= 1.00D-01 BMatC= 4.25D-02 BMatP= 6.63D-01
 IDIUse=3 WtCom= 9.39D-01 WtEn= 6.10D-02
 Coeff-Com:  0.128D+00 0.872D+00
 Coeff-En:   0.217D+00 0.783D+00
 Coeff:      0.134D+00 0.866D+00
 Gap=     0.317 Goal=   None    Shift=    0.000
 RMSDP=1.03D-03 MaxDP=7.89D-02 DE=-2.86D-01 OVMax= 1.19D-01

 Cycle   3  Pass 0  IDiag  1:
 RMSU=  6.52D-04    CP:  9.78D-01  8.22D-01
 E= -1387.75207899877     Delta-E=       -0.434613508743 Rises=F Damp=F
 DIIS: error= 2.56D-03 at cycle   3 NSaved=   3.
 NSaved= 3 IEnMin= 3 EnMin= -1387.75207899877     IErMin= 3 ErrMin= 2.56D-03
 ErrMax= 2.56D-03 EMaxC= 1.00D-01 BMatC= 4.76D-03 BMatP= 4.25D-02
 IDIUse=3 WtCom= 9.74D-01 WtEn= 2.56D-02
 Coeff-Com:  0.617D-02 0.213D+00 0.781D+00
 Coeff-En:   0.000D+00 0.000D+00 0.100D+01
 Coeff:      0.602D-02 0.208D+00 0.786D+00
 Gap=     0.247 Goal=   None    Shift=    0.000
 RMSDP=3.68D-04 MaxDP=2.05D-02 DE=-4.35D-01 OVMax= 1.84D-02

 Cycle   4  Pass 0  IDiag  1:
 RMSU=  1.89D-04    CP:  9.78D-01  8.52D-01  7.39D-01
 E= -1387.75545389444     Delta-E=       -0.003374895667 Rises=F Damp=F
 DIIS: error= 9.66D-04 at cycle   4 NSaved=   4.
 NSaved= 4 IEnMin= 4 EnMin= -1387.75545389444     IErMin= 4 ErrMin= 9.66D-04
 ErrMax= 9.66D-04 EMaxC= 1.00D-01 BMatC= 1.40D-03 BMatP= 4.76D-03
 IDIUse=3 WtCom= 9.90D-01 WtEn= 9.66D-03
 Coeff-Com: -0.325D-02 0.520D-01 0.373D+00 0.578D+00
 Coeff-En:   0.000D+00 0.000D+00 0.191D+00 0.809D+00
 Coeff:     -0.321D-02 0.515D-01 0.371D+00 0.580D+00
 Gap=     0.245 Goal=   None    Shift=    0.000
 RMSDP=1.65D-04 MaxDP=8.21D-03 DE=-3.37D-03 OVMax= 1.02D-02

 Cycle   5  Pass 0  IDiag  1:
 RMSU=  6.03D-05    CP:  9.78D-01  8.47D-01  8.13D-01  5.41D-01
 E= -1387.75678117302     Delta-E=       -0.001327278579 Rises=F Damp=F
 DIIS: error= 3.72D-04 at cycle   5 NSaved=   5.
 NSaved= 5 IEnMin= 5 EnMin= -1387.75678117302     IErMin= 5 ErrMin= 3.72D-04
 ErrMax= 3.72D-04 EMaxC= 1.00D-01 BMatC= 1.84D-04 BMatP= 1.40D-03
 IDIUse=3 WtCom= 9.96D-01 WtEn= 3.72D-03
 Coeff-Com: -0.203D-02 0.655D-02 0.116D+00 0.314D+00 0.565D+00
 Coeff-En:   0.000D+00 0.000D+00 0.000D+00 0.695D-01 0.930D+00
 Coeff:     -0.202D-02 0.653D-02 0.116D+00 0.313D+00 0.567D+00
 Gap=     0.244 Goal=   None    Shift=    0.000
 RMSDP=4.99D-05 MaxDP=1.84D-03 DE=-1.33D-03 OVMax= 3.36D-03

 Cycle   6  Pass 0  IDiag  1:
 RMSU=  1.62D-05    CP:  9.78D-01  8.49D-01  8.14D-01  6.20D-01  5.45D-01
 E= -1387.75697305383     Delta-E=       -0.000191880808 Rises=F Damp=F
 DIIS: error= 6.23D-05 at cycle   6 NSaved=   6.
 NSaved= 6 IEnMin= 6 EnMin= -1387.75697305383     IErMin= 6 ErrMin= 6.23D-05
 ErrMax= 6.23D-05 EMaxC= 1.00D-01 BMatC= 5.96D-06 BMatP= 1.84D-04
 IDIUse=1 WtCom= 1.00D+00 WtEn= 0.00D+00
 Coeff-Com: -0.872D-03 0.100D-02 0.421D-01 0.130D+00 0.277D+00 0.551D+00
 Coeff:     -0.872D-03 0.100D-02 0.421D-01 0.130D+00 0.277D+00 0.551D+00
 Gap=     0.244 Goal=   None    Shift=    0.000
 RMSDP=1.13D-05 MaxDP=5.70D-04 DE=-1.92D-04 OVMax= 5.51D-04

 Cycle   7  Pass 0  IDiag  1:
 RMSU=  3.59D-06    CP:  9.78D-01  8.48D-01  8.12D-01  6.29D-01  5.95D-01
                    CP:  6.24D-01
 E= -1387.75697975709     Delta-E=       -0.000006703263 Rises=F Damp=F
 DIIS: error= 1.07D-05 at cycle   7 NSaved=   7.
 NSaved= 7 IEnMin= 7 EnMin= -1387.75697975709     IErMin= 7 ErrMin= 1.07D-05
 ErrMax= 1.07D-05 EMaxC= 1.00D-01 BMatC= 2.27D-07 BMatP= 5.96D-06
 IDIUse=1 WtCom= 1.00D+00 WtEn= 0.00D+00
 Coeff-Com: -0.150D-03-0.176D-03 0.699D-02 0.259D-01 0.655D-01 0.212D+00
 Coeff-Com:  0.690D+00
 Coeff:     -0.150D-03-0.176D-03 0.699D-02 0.259D-01 0.655D-01 0.212D+00
 Coeff:      0.690D+00
 Gap=     0.244 Goal=   None    Shift=    0.000
 RMSDP=1.92D-06 MaxDP=6.33D-05 DE=-6.70D-06 OVMax= 8.82D-05

 Initial convergence to 1.0D-05 achieved.  Increase integral accuracy.
 Cycle   8  Pass 1  IDiag  1:
 E= -1387.75730762459     Delta-E=       -0.000327867505 Rises=F Damp=F
 DIIS: error= 2.48D-05 at cycle   1 NSaved=   1.
 NSaved= 1 IEnMin= 1 EnMin= -1387.75730762459     IErMin= 1 ErrMin= 2.48D-05
 ErrMax= 2.48D-05 EMaxC= 1.00D-01 BMatC= 3.87D-07 BMatP= 3.87D-07
 IDIUse=1 WtCom= 1.00D+00 WtEn= 0.00D+00
 Coeff-Com:  0.100D+01
 Coeff:      0.100D+01
 Gap=     0.244 Goal=   None    Shift=    0.000
 RMSDP=1.92D-06 MaxDP=6.33D-05 DE=-3.28D-04 OVMax= 3.05D-04

 Cycle   9  Pass 1  IDiag  1:
 RMSU=  6.14D-06    CP:  1.00D+00
 E= -1387.75730812720     Delta-E=       -0.000000502608 Rises=F Damp=F
 DIIS: error= 1.04D-05 at cycle   2 NSaved=   2.
 NSaved= 2 IEnMin= 2 EnMin= -1387.75730812720     IErMin= 2 ErrMin= 1.04D-05
 ErrMax= 1.04D-05 EMaxC= 1.00D-01 BMatC= 9.99D-08 BMatP= 3.87D-07
 IDIUse=1 WtCom= 1.00D+00 WtEn= 0.00D+00
 Coeff-Com:  0.254D+00 0.746D+00
 Coeff:      0.254D+00 0.746D+00
 Gap=     0.244 Goal=   None    Shift=    0.000
 RMSDP=1.86D-06 MaxDP=5.80D-05 DE=-5.03D-07 OVMax= 1.18D-04

 Cycle  10  Pass 1  IDiag  1:
 RMSU=  1.31D-06    CP:  1.00D+00  9.85D-01
 E= -1387.75730814812     Delta-E=       -0.000000020920 Rises=F Damp=F
 DIIS: error= 1.13D-05 at cycle   3 NSaved=   3.
 NSaved= 3 IEnMin= 3 EnMin= -1387.75730814812     IErMin= 2 ErrMin= 1.04D-05
 ErrMax= 1.13D-05 EMaxC= 1.00D-01 BMatC= 8.15D-08 BMatP= 9.99D-08
 IDIUse=1 WtCom= 1.00D+00 WtEn= 0.00D+00
 Coeff-Com: -0.192D-01 0.477D+00 0.542D+00
 Coeff:     -0.192D-01 0.477D+00 0.542D+00
 Gap=     0.244 Goal=   None    Shift=    0.000
 RMSDP=9.61D-07 MaxDP=2.91D-05 DE=-2.09D-08 OVMax= 6.10D-05

 Cycle  11  Pass 1  IDiag  1:
 RMSU=  2.14D-07    CP:  1.00D+00  1.02D+00  5.36D-01
 E= -1387.75730823275     Delta-E=       -0.000000084623 Rises=F Damp=F
 DIIS: error= 9.43D-07 at cycle   4 NSaved=   4.
 NSaved= 4 IEnMin= 4 EnMin= -1387.75730823275     IErMin= 4 ErrMin= 9.43D-07
 ErrMax= 9.43D-07 EMaxC= 1.00D-01 BMatC= 1.29D-09 BMatP= 8.15D-08
 IDIUse=1 WtCom= 1.00D+00 WtEn= 0.00D+00
 Coeff-Com: -0.145D-01 0.215D+00 0.261D+00 0.538D+00
 Coeff:     -0.145D-01 0.215D+00 0.261D+00 0.538D+00
 Gap=     0.244 Goal=   None    Shift=    0.000
 RMSDP=1.40D-07 MaxDP=4.88D-06 DE=-8.46D-08 OVMax= 8.93D-06

 Cycle  12  Pass 1  IDiag  1:
 RMSU=  6.38D-08    CP:  1.00D+00  1.02D+00  5.63D-01  6.89D-01
 E= -1387.75730823402     Delta-E=       -0.000000001270 Rises=F Damp=F
 DIIS: error= 2.97D-07 at cycle   5 NSaved=   5.
 NSaved= 5 IEnMin= 5 EnMin= -1387.75730823402     IErMin= 5 ErrMin= 2.97D-07
 ErrMax= 2.97D-07 EMaxC= 1.00D-01 BMatC= 8.06D-11 BMatP= 1.29D-09
 IDIUse=1 WtCom= 1.00D+00 WtEn= 0.00D+00
 Coeff-Com: -0.413D-02 0.498D-01 0.619D-01 0.238D+00 0.654D+00
 Coeff:     -0.413D-02 0.498D-01 0.619D-01 0.238D+00 0.654D+00
 Gap=     0.244 Goal=   None    Shift=    0.000
 RMSDP=3.48D-08 MaxDP=1.13D-06 DE=-1.27D-09 OVMax= 2.26D-06

 Cycle  13  Pass 1  IDiag  1:
 RMSU=  2.11D-08    CP:  1.00D+00  1.02D+00  5.60D-01  7.00D-01  8.51D-01
 E= -1387.75730823414     Delta-E=       -0.000000000126 Rises=F Damp=F
 DIIS: error= 6.88D-08 at cycle   6 NSaved=   6.
 NSaved= 6 IEnMin= 6 EnMin= -1387.75730823414     IErMin= 6 ErrMin= 6.88D-08
 ErrMax= 6.88D-08 EMaxC= 1.00D-01 BMatC= 6.23D-12 BMatP= 8.06D-11
 IDIUse=1 WtCom= 1.00D+00 WtEn= 0.00D+00
 Coeff-Com: -0.577D-03 0.264D-02 0.344D-02 0.558D-01 0.280D+00 0.658D+00
 Coeff:     -0.577D-03 0.264D-02 0.344D-02 0.558D-01 0.280D+00 0.658D+00
 Gap=     0.244 Goal=   None    Shift=    0.000
 RMSDP=1.25D-08 MaxDP=3.11D-07 DE=-1.26D-10 OVMax= 5.29D-07

 Cycle  14  Pass 1  IDiag  1:
 RMSU=  5.36D-09    CP:  1.00D+00  1.02D+00  5.59D-01  7.17D-01  8.73D-01
                    CP:  7.27D-01
 E= -1387.75730823413     Delta-E=        0.000000000010 Rises=F Damp=F
 DIIS: error= 1.74D-08 at cycle   7 NSaved=   7.
 NSaved= 7 IEnMin= 6 EnMin= -1387.75730823414     IErMin= 7 ErrMin= 1.74D-08
 ErrMax= 1.74D-08 EMaxC= 1.00D-01 BMatC= 3.74D-13 BMatP= 6.23D-12
 IDIUse=1 WtCom= 1.00D+00 WtEn= 0.00D+00
 Coeff-Com: -0.159D-04-0.194D-02-0.223D-02 0.877D-02 0.747D-01 0.270D+00
 Coeff-Com:  0.650D+00
 Coeff:     -0.159D-04-0.194D-02-0.223D-02 0.877D-02 0.747D-01 0.270D+00
 Coeff:      0.650D+00
 Gap=     0.244 Goal=   None    Shift=    0.000
 RMSDP=2.94D-09 MaxDP=1.52D-07 DE= 1.00D-11 OVMax= 1.41D-07

 SCF Done:  E(RB3LYP) =  -1387.75730823     A.U. after   14 cycles
             Convg  =    0.2937D-08             -V/T =  2.0067
 KE= 1.378547774214D+03 PE=-7.065005770754D+03 EE= 2.392741466063D+03
 Leave Link  502 at Fri Oct  1 18:54:16 2021, MaxMem= 2147483648 cpu:    1158.7
 (Enter /sw/target/amd/app/gaussian/Gaussian09RevA.02_gcc-4.9.2/g09/l508.exe)
 QCSCF skips out because SCF is already converged.
 Leave Link  508 at Fri Oct  1 18:54:16 2021, MaxMem= 2147483648 cpu:       0.0
 (Enter /sw/target/amd/app/gaussian/Gaussian09RevA.02_gcc-4.9.2/g09/l601.exe)
 Copying SCF densities to generalized density rwf, IOpCl= 0 IROHF=0.

 **********************************************************************

            Population analysis using the SCF density.

 **********************************************************************

 Orbital symmetries:
       Occupied  (A) (A) (A) (A) (A) (A) (A) (A) (A) (A) (A) (A)
                 (A) (A) (A) (A) (A) (A) (A) (A) (A) (A) (A) (A)
                 (A) (A) (A) (A) (A) (A) (A) (A) (A) (A) (A) (A)
                 (A) (A) (A) (A) (A) (A) (A) (A) (A) (A) (A) (A)
                 (A) (A) (A) (A) (A) (A) (A) (A) (A) (A) (A) (A)
                 (A) (A) (A) (A) (A) (A) (A) (A) (A) (A) (A) (A)
                 (A) (A) (A) (A) (A) (A) (A) (A) (A) (A) (A) (A)
                 (A)
       Virtual   (A) (A) (A) (A) (A) (A) (A) (A) (A) (A) (A) (A)
                 (A) (A) (A) (A) (A) (A) (A) (A) (A) (A) (A) (A)
                 (A) (A) (A) (A) (A) (A) (A) (A) (A) (A) (A) (A)
                 (A) (A) (A) (A) (A) (A) (A) (A) (A) (A) (A) (A)
                 (A) (A) (A) (A) (A) (A) (A) (A) (A) (A) (A) (A)
                 (A) (A) (A) (A) (A) (A) (A) (A) (A) (A) (A) (A)
                 (A) (A) (A) (A) (A) (A) (A) (A) (A) (A) (A) (A)
                 (A) (A) (A) (A) (A) (A) (A) (A) (A) (A) (A) (A)
                 (A) (A) (A) (A) (A) (A) (A) (A) (A) (A) (A) (A)
                 (A) (A) (A) (A) (A) (A) (A) (A) (A) (A) (A) (A)
                 (A) (A) (A) (A) (A) (A) (A) (A) (A) (A) (A) (A)
                 (A) (A) (A) (A) (A) (A) (A) (A) (A) (A) (A) (A)
                 (A) (A) (A) (A) (A) (A) (A) (A) (A) (A) (A) (A)
                 (A) (A) (A) (A) (A) (A) (A) (A) (A) (A) (A) (A)
                 (A) (A) (A) (A) (A) (A) (A) (A) (A) (A) (A) (A)
                 (A) (A) (A) (A) (A) (A) (A) (A) (A) (A) (A) (A)
                 (A) (A) (A) (A) (A) (A) (A) (A) (A) (A) (A) (A)
                 (A) (A) (A) (A) (A) (A) (A) (A) (A) (A) (A) (A)
                 (A) (A) (A) (A) (A) (A) (A) (A) (A) (A) (A) (A)
                 (A) (A) (A) (A) (A) (A) (A) (A) (A) (A) (A) (A)
                 (A) (A) (A) (A) (A) (A) (A) (A) (A) (A) (A) (A)
                 (A) (A) (A) (A) (A) (A) (A) (A) (A) (A) (A) (A)
                 (A) (A) (A) (A) (A) (A) (A) (A) (A) (A) (A) (A)
                 (A) (A) (A) (A) (A) (A) (A) (A) (A) (A) (A)
 The electronic state is 1-A.
 Alpha  occ. eigenvalues --  -77.06085 -77.05894 -10.18830 -10.18785 -10.18696
 Alpha  occ. eigenvalues --  -10.18236 -10.18212 -10.18184 -10.18182 -10.18180
 Alpha  occ. eigenvalues --  -10.18154 -10.18088 -10.18058 -10.17995 -10.17967
 Alpha  occ. eigenvalues --  -10.17894 -10.17803 -10.17766 -10.17687 -10.17221
 Alpha  occ. eigenvalues --   -6.52891  -6.52728  -4.69149  -4.69130  -4.68974
 Alpha  occ. eigenvalues --   -4.68958  -4.68649  -4.68498  -0.84887  -0.84767
 Alpha  occ. eigenvalues --   -0.84239  -0.83854  -0.77190  -0.70058  -0.67440
 Alpha  occ. eigenvalues --   -0.65826  -0.65608  -0.65371  -0.65270  -0.64284
 Alpha  occ. eigenvalues --   -0.64210  -0.61898  -0.56988  -0.56001  -0.54361
 Alpha  occ. eigenvalues --   -0.54282  -0.52995  -0.51002  -0.48343  -0.48021
 Alpha  occ. eigenvalues --   -0.47847  -0.47535  -0.46558  -0.45953  -0.44487
 Alpha  occ. eigenvalues --   -0.44121  -0.42345  -0.39472  -0.39177  -0.38821
 Alpha  occ. eigenvalues --   -0.38632  -0.38418  -0.38264  -0.37776  -0.37187
 Alpha  occ. eigenvalues --   -0.36305  -0.35570  -0.35205  -0.34765  -0.34487
 Alpha  occ. eigenvalues --   -0.34188  -0.32642  -0.32112  -0.31813  -0.31546
 Alpha  occ. eigenvalues --   -0.30579  -0.30279  -0.30107  -0.29876  -0.29663
 Alpha  occ. eigenvalues --   -0.27380  -0.26754  -0.26305  -0.21247  -0.20562
 Alpha virt. eigenvalues --    0.03883   0.04811   0.06041   0.06476   0.07344
 Alpha virt. eigenvalues --    0.08124   0.08637   0.09212   0.10373   0.10890
 Alpha virt. eigenvalues --    0.10915   0.11380   0.11798   0.12816   0.13076
 Alpha virt. eigenvalues --    0.13626   0.14126   0.14457   0.15326   0.15829
 Alpha virt. eigenvalues --    0.16287   0.16852   0.17108   0.17217   0.17924
 Alpha virt. eigenvalues --    0.18189   0.18427   0.18658   0.19009   0.19420
 Alpha virt. eigenvalues --    0.19703   0.19930   0.19979   0.20316   0.20580
 Alpha virt. eigenvalues --    0.20766   0.21326   0.21600   0.22165   0.22553
 Alpha virt. eigenvalues --    0.23146   0.23332   0.23430   0.24383   0.24599
 Alpha virt. eigenvalues --    0.24945   0.25297   0.25502   0.27276   0.27661
 Alpha virt. eigenvalues --    0.28433   0.29634   0.32545   0.32866   0.34298
 Alpha virt. eigenvalues --    0.38769   0.39424   0.41067   0.41769   0.43244
 Alpha virt. eigenvalues --    0.45116   0.45212   0.46197   0.47316   0.49118
 Alpha virt. eigenvalues --    0.50931   0.52431   0.53269   0.53726   0.54676
 Alpha virt. eigenvalues --    0.54722   0.55155   0.55632   0.56389   0.56719
 Alpha virt. eigenvalues --    0.57020   0.57754   0.58369   0.59181   0.59478
 Alpha virt. eigenvalues --    0.59776   0.60264   0.61307   0.62693   0.63105
 Alpha virt. eigenvalues --    0.64461   0.65291   0.67450   0.68514   0.68764
 Alpha virt. eigenvalues --    0.69022   0.70171   0.70389   0.71019   0.71496
 Alpha virt. eigenvalues --    0.72062   0.72635   0.73248   0.74063   0.75149
 Alpha virt. eigenvalues --    0.75494   0.76129   0.76587   0.77540   0.79440
 Alpha virt. eigenvalues --    0.80037   0.81332   0.82830   0.84180   0.84732
 Alpha virt. eigenvalues --    0.85534   0.85766   0.85991   0.86183   0.86533
 Alpha virt. eigenvalues --    0.86700   0.87039   0.87421   0.87525   0.87804
 Alpha virt. eigenvalues --    0.88351   0.88817   0.89211   0.89588   0.89717
 Alpha virt. eigenvalues --    0.90319   0.90766   0.91485   0.91833   0.92194
 Alpha virt. eigenvalues --    0.92509   0.92897   0.93444   0.93732   0.94235
 Alpha virt. eigenvalues --    0.94470   0.94885   0.95299   0.96185   0.96317
 Alpha virt. eigenvalues --    0.97057   0.97797   0.98522   0.99092   0.99152
 Alpha virt. eigenvalues --    1.00252   1.00550   1.01322   1.01953   1.03038
 Alpha virt. eigenvalues --    1.03974   1.04428   1.06041   1.07233   1.08944
 Alpha virt. eigenvalues --    1.10596   1.11719   1.15983   1.16968   1.18497
 Alpha virt. eigenvalues --    1.22146   1.23006   1.26222   1.32145   1.33396
 Alpha virt. eigenvalues --    1.34439   1.36952   1.38817   1.39829   1.41242
 Alpha virt. eigenvalues --    1.42341   1.44289   1.45314   1.48197   1.49681
 Alpha virt. eigenvalues --    1.50339   1.59087   1.60038   1.61397   1.62536
 Alpha virt. eigenvalues --    1.62811   1.63712   1.68882   1.73245   1.73876
 Alpha virt. eigenvalues --    1.73970   1.74081   1.77423   1.79228   1.80960
 Alpha virt. eigenvalues --    1.83230   1.84721   1.85220   1.85770   1.86687
 Alpha virt. eigenvalues --    1.86790   1.87508   1.87869   1.91762   1.93765
 Alpha virt. eigenvalues --    1.96666   1.97322   1.98313   1.99149   1.99788
 Alpha virt. eigenvalues --    1.99888   2.00030   2.00350   2.00958   2.02310
 Alpha virt. eigenvalues --    2.03682   2.04046   2.04697   2.06327   2.07931
 Alpha virt. eigenvalues --    2.08813   2.09231   2.09883   2.10156   2.11466
 Alpha virt. eigenvalues --    2.12446   2.12880   2.13516   2.15054   2.15407
 Alpha virt. eigenvalues --    2.16246   2.16647   2.16959   2.17189   2.17952
 Alpha virt. eigenvalues --    2.24216   2.27911   2.30298   2.32047   2.33375
 Alpha virt. eigenvalues --    2.33626   2.33893   2.34814   2.35029   2.35680
 Alpha virt. eigenvalues --    2.36247   2.37631   2.41277   2.42100   2.43102
 Alpha virt. eigenvalues --    2.44119   2.48534   2.50357   2.50503   2.52866
 Alpha virt. eigenvalues --    2.53564   2.54601   2.55608   2.56346   2.56498
 Alpha virt. eigenvalues --    2.56777   2.57819   2.58421   2.58840   2.59488
 Alpha virt. eigenvalues --    2.62345   2.63653   2.70995   2.84668   2.85087
 Alpha virt. eigenvalues --    2.86251   2.87880   3.55110   3.56951   4.12718
 Alpha virt. eigenvalues --    4.12939   4.13161   4.16193   4.23853   4.32216
 Alpha virt. eigenvalues --    4.33375   4.33553   4.34491   4.34915   4.36334
 Alpha virt. eigenvalues --    4.36639   4.39227   4.47273   4.66195   4.67652
 Alpha virt. eigenvalues --    4.69613   4.70919
          Condensed to atoms (all electrons):
 Mulliken atomic charges:
              1
     1  C   -0.267900
     2  C   -0.285182
     3  C   -0.273053
     4  C   -0.285415
     5  P    0.384911
     6  C   -0.276249
     7  C   -0.279300
     8  C   -0.280138
     9  C   -0.288031
    10  C   -0.465059
    11  C   -0.460854
    12  P    0.376634
    13  C   -0.268653
    14  C   -0.281712
    15  C   -0.276590
    16  C   -0.276758
    17  C   -0.266948
    18  C   -0.279506
    19  C   -0.277825
    20  C   -0.290069
    21  H    0.131295
    22  H    0.153499
    23  H    0.140071
    24  H    0.138955
    25  H    0.137536
    26  H    0.136413
    27  H    0.138007
    28  H    0.155156
    29  H    0.138700
    30  H    0.147654
    31  H    0.141606
    32  H    0.130734
    33  H    0.133701
    34  H    0.154469
    35  H    0.172810
    36  H    0.163323
    37  H    0.150011
    38  H    0.172799
    39  H    0.140041
    40  H    0.135457
    41  H    0.150695
    42  H    0.139405
    43  H    0.133884
    44  H    0.132822
    45  H    0.153692
    46  H    0.138359
    47  H    0.134526
    48  H    0.153298
    49  H    0.138957
    50  H    0.134825
    51  H    0.141068
    52  H    0.153930
 Sum of Mulliken atomic charges =  -0.00000
 Mulliken charges with hydrogens summed into heavy atoms:
              1
     1  C    0.016893
     2  C   -0.006157
     3  C   -0.135517
     4  C   -0.010995
     5  P    0.384911
     6  C   -0.121093
     7  C    0.007054
     8  C   -0.007798
     9  C    0.000139
    10  C   -0.128926
    11  C   -0.138044
    12  P    0.376634
    13  C   -0.128611
    14  C    0.004440
    15  C   -0.003301
    16  C    0.009757
    17  C   -0.128589
    18  C    0.008318
    19  C   -0.004043
    20  C    0.004930
 Sum of Mulliken charges with hydrogens summed into heavy atoms =  -0.00000
 Electronic spatial extent (au):  <R**2>=           9069.2553
 Charge=             -0.0000 electrons
 Dipole moment (field-independent basis, Debye):
    X=             -0.3070    Y=              1.8794    Z=              0.6886  Tot=              2.0250
 Quadrupole moment (field-independent basis, Debye-Ang):
   XX=           -136.9611   YY=           -142.0792   ZZ=           -140.6122
   XY=              3.1184   XZ=             -4.0277   YZ=              0.7087
 Traceless Quadrupole moment (field-independent basis, Debye-Ang):
   XX=              2.9230   YY=             -2.1950   ZZ=             -0.7280
   XY=              3.1184   XZ=             -4.0277   YZ=              0.7087
 Octapole moment (field-independent basis, Debye-Ang**2):
  XXX=              5.5405  YYY=              2.6476  ZZZ=              3.3861  XYY=            -10.2566
  XXY=             13.1886  XXZ=              3.3865  XZZ=              6.5677  YZZ=              7.7896
  YYZ=             -3.3707  XYZ=              6.1996
 Hexadecapole moment (field-independent basis, Debye-Ang**3):
 XXXX=          -8276.1796 YYYY=          -2425.9723 ZZZZ=          -1830.6461 XXXY=             46.8638
 XXXZ=            -25.8188 YYYX=             24.7112 YYYZ=             20.0702 ZZZX=             -7.8549
 ZZZY=            -16.9534 XXYY=          -1798.1140 XXZZ=          -1655.5781 YYZZ=           -718.8365
 XXYZ=             14.7305 YYXZ=             -3.0556 ZZXY=              3.1360
 N-N= 1.905959222243D+03 E-N=-7.065005776733D+03  KE= 1.378547774214D+03
 No NMR shielding tensors so no spin-rotation constants.
 Leave Link  601 at Fri Oct  1 18:54:22 2021, MaxMem= 2147483648 cpu:       3.9
 (Enter /sw/target/amd/app/gaussian/Gaussian09RevA.02_gcc-4.9.2/g09/l701.exe)
 Compute integral first derivatives.
 ... and contract with generalized density number  0.
 Leave Link  701 at Fri Oct  1 18:54:26 2021, MaxMem= 2147483648 cpu:       3.0
 (Enter /sw/target/amd/app/gaussian/Gaussian09RevA.02_gcc-4.9.2/g09/l702.exe)
 L702 exits ... SP integral derivatives will be done elsewhere.
 Leave Link  702 at Fri Oct  1 18:54:27 2021, MaxMem= 2147483648 cpu:       0.1
 (Enter /sw/target/amd/app/gaussian/Gaussian09RevA.02_gcc-4.9.2/g09/l703.exe)
 Compute integral first derivatives, UseDBF=F ICtDFT=           0.
 Integral derivatives from FoFDir, PRISM(SPDF).
 Calling FoFJK, ICntrl=      2127 FMM=F ISym2X=0 I1Cent= 0 IOpClX= 0 NMat=1 NMatS=1 NMatT=0.
 FoFCou: FMM=F IPFlag=           0 FMFlag=      100000 FMFlg1=         800
         NFxFlg=           0 DoJE=F BraDBF=F KetDBF=F FulRan=T
         Omega=  0.000000  0.000000  1.000000  0.000000  0.000000 ICntrl=    2127 IOpCl=  0
         NMat0=    1 NMatS0=    1 NMatT0=    0 NMatD0=    1 NMtDS0=    0 NMtDT0=    0
         I1Cent=           0 NGrid=           0.
 Symmetry not used in FoFCou.
 Leave Link  703 at Fri Oct  1 18:59:24 2021, MaxMem= 2147483648 cpu:     317.6
 (Enter /sw/target/amd/app/gaussian/Gaussian09RevA.02_gcc-4.9.2/g09/l716.exe)
 Dipole        =-1.20779846D-01 7.39425415D-01 2.70922205D-01
 ***** Axes restored to original set *****
 -------------------------------------------------------------------
 Center     Atomic                   Forces (Hartrees/Bohr)
 Number     Number              X              Y              Z
 -------------------------------------------------------------------
      1        6          -0.000376298    0.008611700    0.014182105
      2        6          -0.008532047    0.005875829   -0.015443740
      3        6          -0.005287747   -0.020945088    0.010928047
      4        6           0.014359111    0.003034660   -0.011810744
      5       15           0.006687803    0.021425073   -0.002435803
      6        6          -0.019145640    0.004158156   -0.003163207
      7        6           0.024454887    0.004259243   -0.005237335
      8        6          -0.013036745   -0.014179446   -0.007631542
      9        6           0.016192691   -0.001368125    0.021415564
     10        6          -0.003588316   -0.000434538    0.005240559
     11        6           0.001377452   -0.001119106   -0.003175539
     12       15          -0.011169435   -0.000343615    0.000823771
     13        6          -0.007071479    0.014482699    0.016997423
     14        6           0.021078518   -0.006987702   -0.009726646
     15        6          -0.016054683    0.013508139   -0.003528760
     16        6           0.005806154   -0.025086199   -0.004503170
     17        6          -0.010399658    0.020962272   -0.006809049
     18        6           0.007692116   -0.019553105   -0.008615637
     19        6          -0.016804730    0.003980014    0.011225976
     20        6           0.020816481   -0.006281328    0.005441374
     21        1           0.000944416    0.004539106   -0.000396769
     22        1          -0.000525874   -0.002917750    0.000278763
     23        1          -0.003936764   -0.001170520   -0.000174816
     24        1           0.002593839   -0.001335932   -0.001215104
     25        1          -0.000672570   -0.002563248    0.001308037
     26        1           0.003253140   -0.002197066    0.000501079
     27        1          -0.002620655   -0.000670891   -0.002448125
     28        1          -0.000494993   -0.004128697   -0.000129502
     29        1          -0.000925541    0.002245148   -0.004615949
     30        1          -0.002402905    0.001181798    0.003113251
     31        1          -0.000692844    0.002883360   -0.000530766
     32        1           0.003107327   -0.002824328    0.000433515
     33        1          -0.003755983   -0.000593380    0.003739590
     34        1          -0.001219846    0.003033014   -0.003031707
     35        1           0.001151035    0.001283982    0.000058916
     36        1          -0.001351705   -0.002905269    0.001556045
     37        1           0.004432423   -0.000791961   -0.001182842
     38        1           0.000414539   -0.000726449   -0.000854899
     39        1          -0.002824494   -0.000800995   -0.006151500
     40        1           0.002095430    0.004531858    0.000840501
     41        1          -0.002091456   -0.002948566    0.002815132
     42        1           0.000761302    0.001123076    0.003343347
     43        1          -0.000914585   -0.001105652   -0.004437486
     44        1          -0.003623620   -0.001327119    0.003156884
     45        1           0.004059907    0.002803675    0.001457741
     46        1          -0.000544002   -0.003876793    0.004221095
     47        1          -0.003726865   -0.000071530   -0.003947118
     48        1           0.002792568    0.003456591    0.000431506
     49        1          -0.000425481    0.002128728   -0.002493054
     50        1          -0.000276660   -0.003941730    0.002519277
     51        1           0.002083979    0.004939017    0.001818410
     52        1          -0.001661498   -0.001251014   -0.004157098
 -------------------------------------------------------------------
 Cartesian Forces:  Max     0.025086199 RMS     0.007749319
[...]
   179    P   12  py     Val( 3p)     0.80552
   180    P   12  py     Ryd( 4p)     0.00544
   181    P   12  pz     Cor( 2p)     1.99985
   182    P   12  pz     Val( 3p)     1.16654
   183    P   12  pz     Ryd( 4p)     0.00400
   184    P   12  dxy    Ryd( 3d)     0.00268
   185    P   12  dxz    Ryd( 3d)     0.01019
   186    P   12  dyz    Ryd( 3d)     0.00246
   187    P   12  dx2y2  Ryd( 3d)     0.00725
   188    P   12  dz2    Ryd( 3d)     0.00369

   189    C   13  S      Cor( 1S)     1.99926
   190    C   13  S      Val( 2S)     1.09194
   191    C   13  S      Ryd( 3S)     0.00260
   192    C   13  S      Ryd( 4S)     0.00003
   193    C   13  px     Val( 2p)     1.12444
   194    C   13  px     Ryd( 3p)     0.00483
   195    C   13  py     Val( 2p)     1.10684
   196    C   13  py     Ryd( 3p)     0.00303
   197    C   13  pz     Val( 2p)     1.23675
   198    C   13  pz     Ryd( 3p)     0.00396
   199    C   13  dxy    Ryd( 3d)     0.00078
   200    C   13  dxz    Ryd( 3d)     0.00090
   201    C   13  dyz    Ryd( 3d)     0.00093
   202    C   13  dx2y2  Ryd( 3d)     0.00092
   203    C   13  dz2    Ryd( 3d)     0.00077

   204    C   14  S      Cor( 1S)     1.99932
   205    C   14  S      Val( 2S)     1.04703
   206    C   14  S      Ryd( 3S)     0.00073
   207    C   14  S      Ryd( 4S)     0.00001
   208    C   14  px     Val( 2p)     1.07602
   209    C   14  px     Ryd( 3p)     0.00200
   210    C   14  py     Val( 2p)     1.08787
   211    C   14  py     Ryd( 3p)     0.00164
   212    C   14  pz     Val( 2p)     1.22693
   213    C   14  pz     Ryd( 3p)     0.00356
   214    C   14  dxy    Ryd( 3d)     0.00075
   215    C   14  dxz    Ryd( 3d)     0.00083
   216    C   14  dyz    Ryd( 3d)     0.00091
   217    C   14  dx2y2  Ryd( 3d)     0.00081
   218    C   14  dz2    Ryd( 3d)     0.00061

   219    C   15  S      Cor( 1S)     1.99936
   220    C   15  S      Val( 2S)     1.05245
   221    C   15  S      Ryd( 3S)     0.00055
   222    C   15  S      Ryd( 4S)     0.00001
   223    C   15  px     Val( 2p)     1.07366
   224    C   15  px     Ryd( 3p)     0.00208
   225    C   15  py     Val( 2p)     1.13113
   226    C   15  py     Ryd( 3p)     0.00286
   227    C   15  pz     Val( 2p)     1.18161
   228    C   15  pz     Ryd( 3p)     0.00212
   229    C   15  dxy    Ryd( 3d)     0.00108
   230    C   15  dxz    Ryd( 3d)     0.00051
   231    C   15  dyz    Ryd( 3d)     0.00069
   232    C   15  dx2y2  Ryd( 3d)     0.00073
   233    C   15  dz2    Ryd( 3d)     0.00089

   234    C   16  S      Cor( 1S)     1.99931
   235    C   16  S      Val( 2S)     1.05246
   236    C   16  S      Ryd( 3S)     0.00075
   237    C   16  S      Ryd( 4S)     0.00002
   238    C   16  px     Val( 2p)     1.07357
   239    C   16  px     Ryd( 3p)     0.00228
   240    C   16  py     Val( 2p)     1.11913
   241    C   16  py     Ryd( 3p)     0.00290
   242    C   16  pz     Val( 2p)     1.18949
   243    C   16  pz     Ryd( 3p)     0.00281
   244    C   16  dxy    Ryd( 3d)     0.00116
   245    C   16  dxz    Ryd( 3d)     0.00041
   246    C   16  dyz    Ryd( 3d)     0.00065
   247    C   16  dx2y2  Ryd( 3d)     0.00063
   248    C   16  dz2    Ryd( 3d)     0.00102

   249    C   17  S      Cor( 1S)     1.99926
   250    C   17  S      Val( 2S)     1.08323
   251    C   17  S      Ryd( 3S)     0.00208
   252    C   17  S      Ryd( 4S)     0.00002
   253    C   17  px     Val( 2p)     1.06327
   254    C   17  px     Ryd( 3p)     0.00400
   255    C   17  py     Val( 2p)     1.22685
   256    C   17  py     Ryd( 3p)     0.00529
   257    C   17  pz     Val( 2p)     1.17602
   258    C   17  pz     Ryd( 3p)     0.00249
   259    C   17  dxy    Ryd( 3d)     0.00074
   260    C   17  dxz    Ryd( 3d)     0.00056
   261    C   17  dyz    Ryd( 3d)     0.00102
   262    C   17  dx2y2  Ryd( 3d)     0.00119
   263    C   17  dz2    Ryd( 3d)     0.00086

   264    C   18  S      Cor( 1S)     1.99932
   265    C   18  S      Val( 2S)     1.05358
   266    C   18  S      Ryd( 3S)     0.00096
   267    C   18  S      Ryd( 4S)     0.00002
   268    C   18  px     Val( 2p)     1.11574
   269    C   18  px     Ryd( 3p)     0.00306
   270    C   18  py     Val( 2p)     1.09250
   271    C   18  py     Ryd( 3p)     0.00219
   272    C   18  pz     Val( 2p)     1.17400
   273    C   18  pz     Ryd( 3p)     0.00270
   274    C   18  dxy    Ryd( 3d)     0.00067
   275    C   18  dxz    Ryd( 3d)     0.00102
   276    C   18  dyz    Ryd( 3d)     0.00091
   277    C   18  dx2y2  Ryd( 3d)     0.00092
   278    C   18  dz2    Ryd( 3d)     0.00037

   279    C   19  S      Cor( 1S)     1.99935
   280    C   19  S      Val( 2S)     1.05173
   281    C   19  S      Ryd( 3S)     0.00059
   282    C   19  S      Ryd( 4S)     0.00001
   283    C   19  px     Val( 2p)     1.04424
   284    C   19  px     Ryd( 3p)     0.00206
   285    C   19  py     Val( 2p)     1.12703
   286    C   19  py     Ryd( 3p)     0.00205
   287    C   19  pz     Val( 2p)     1.22065
   288    C   19  pz     Ryd( 3p)     0.00362
   289    C   19  dxy    Ryd( 3d)     0.00069
   290    C   19  dxz    Ryd( 3d)     0.00043
   291    C   19  dyz    Ryd( 3d)     0.00117
   292    C   19  dx2y2  Ryd( 3d)     0.00080
   293    C   19  dz2    Ryd( 3d)     0.00079

   294    C   20  S      Cor( 1S)     1.99931
   295    C   20  S      Val( 2S)     1.05433
   296    C   20  S      Ryd( 3S)     0.00084
   297    C   20  S      Ryd( 4S)     0.00002
   298    C   20  px     Val( 2p)     1.12042
   299    C   20  px     Ryd( 3p)     0.00363
   300    C   20  py     Val( 2p)     1.10884
   301    C   20  py     Ryd( 3p)     0.00299
   302    C   20  pz     Val( 2p)     1.15652
   303    C   20  pz     Ryd( 3p)     0.00218
   304    C   20  dxy    Ryd( 3d)     0.00099
   305    C   20  dxz    Ryd( 3d)     0.00061
   306    C   20  dyz    Ryd( 3d)     0.00094
   307    C   20  dx2y2  Ryd( 3d)     0.00072
   308    C   20  dz2    Ryd( 3d)     0.00065

   309    H   21  S      Val( 1S)     0.76184
   310    H   21  S      Ryd( 2S)     0.00088

   311    H   22  S      Val( 1S)     0.76663
   312    H   22  S      Ryd( 2S)     0.00273

   313    H   23  S      Val( 1S)     0.76414
   314    H   23  S      Ryd( 2S)     0.00110

   315    H   24  S      Val( 1S)     0.75283
   316    H   24  S      Ryd( 2S)     0.00125

   317    H   25  S      Val( 1S)     0.72232
   318    H   25  S      Ryd( 2S)     0.00179

   319    H   26  S      Val( 1S)     0.77336
   320    H   26  S      Ryd( 2S)     0.00277

   321    H   27  S      Val( 1S)     0.75579
   322    H   27  S      Ryd( 2S)     0.00150

   323    H   28  S      Val( 1S)     0.73786
   324    H   28  S      Ryd( 2S)     0.00311

   325    H   29  S      Val( 1S)     0.76469
   326    H   29  S      Ryd( 2S)     0.00122

   327    H   30  S      Val( 1S)     0.76824
   328    H   30  S      Ryd( 2S)     0.01457

   329    H   31  S      Val( 1S)     0.76564
   330    H   31  S      Ryd( 2S)     0.00152

   331    H   32  S      Val( 1S)     0.75866
   332    H   32  S      Ryd( 2S)     0.00274

   333    H   33  S      Val( 1S)     0.75773
   334    H   33  S      Ryd( 2S)     0.00082

   335    H   34  S      Val( 1S)     0.76767
   336    H   34  S      Ryd( 2S)     0.01152

   337    H   35  S      Val( 1S)     0.74881
   338    H   35  S      Ryd( 2S)     0.00713

   339    H   36  S      Val( 1S)     0.72859
   340    H   36  S      Ryd( 2S)     0.00464

   341    H   37  S      Val( 1S)     0.78727
   342    H   37  S      Ryd( 2S)     0.01356

   343    H   38  S      Val( 1S)     0.76114
   344    H   38  S      Ryd( 2S)     0.00430

   345    H   39  S      Val( 1S)     0.76810
   346    H   39  S      Ryd( 2S)     0.00415

   347    H   40  S      Val( 1S)     0.77576
   348    H   40  S      Ryd( 2S)     0.00129

   349    H   41  S      Val( 1S)     0.77206
   350    H   41  S      Ryd( 2S)     0.00217

   351    H   42  S      Val( 1S)     0.77558
   352    H   42  S      Ryd( 2S)     0.00148

   353    H   43  S      Val( 1S)     0.77654
   354    H   43  S      Ryd( 2S)     0.00152

   355    H   44  S      Val( 1S)     0.77389
   356    H   44  S      Ryd( 2S)     0.00109

   357    H   45  S      Val( 1S)     0.76946
   358    H   45  S      Ryd( 2S)     0.00489

   359    H   46  S      Val( 1S)     0.76757
   360    H   46  S      Ryd( 2S)     0.00499

   361    H   47  S      Val( 1S)     0.77329
   362    H   47  S      Ryd( 2S)     0.00112

   363    H   48  S      Val( 1S)     0.76663
   364    H   48  S      Ryd( 2S)     0.00353

   365    H   49  S      Val( 1S)     0.77635
   366    H   49  S      Ryd( 2S)     0.00150

   367    H   50  S      Val( 1S)     0.77468
   368    H   50  S      Ryd( 2S)     0.00102

   369    H   51  S      Val( 1S)     0.78782
   370    H   51  S      Ryd( 2S)     0.00564

   371    H   52  S      Val( 1S)     0.76807
   372    H   52  S      Ryd( 2S)     0.00283

 WARNING:  1 low occupancy (<1.9990e) core orbital  found on  P    5
           1 low occupancy (<1.9990e) core orbital  found on  P   12


 Summary of Natural Population Analysis:                  
                                                          
                                       Natural Population 
                Natural  -----------------------------------------------
    Atom  No    Charge         Core      Valence    Rydberg      Total
 -----------------------------------------------------------------------
      C    1   -0.45227      1.99936     4.44145    0.01146     6.45227
      C    2   -0.45263      1.99932     4.44009    0.01322     6.45263
      C    3   -0.61632      1.99924     4.59675    0.02032     6.61632
      C    4   -0.45468      1.99932     4.44229    0.01307     6.45468
      P    5    1.19475      9.99748     3.73541    0.07236    13.80525
      C    6   -0.58854      1.99918     4.57096    0.01840     6.58854
      C    7   -0.43720      1.99931     4.42485    0.01304     6.43720
      C    8   -0.44766      1.99934     4.43559    0.01273     6.44766
      C    9   -0.42926      1.99928     4.41691    0.01307     6.42926
      C   10   -0.79414      1.99927     4.77428    0.02059     6.79414
      C   11   -0.81295      1.99935     4.78942    0.02418     6.81295
      P   12    0.72059      9.99853     4.21455    0.06632    14.27941
      C   13   -0.57796      1.99926     4.55997    0.01873     6.57796
      C   14   -0.44901      1.99932     4.43784    0.01185     6.44901
      C   15   -0.44973      1.99936     4.43885    0.01153     6.44973
      C   16   -0.44660      1.99931     4.43465    0.01263     6.44660
      C   17   -0.56687      1.99926     4.54937    0.01824     6.56687
      C   18   -0.44794      1.99932     4.43582    0.01280     6.44794
      C   19   -0.45520      1.99935     4.44365    0.01220     6.45520
      C   20   -0.45300      1.99931     4.44012    0.01357     6.45300
      H   21    0.23728      0.00000     0.76184    0.00088     0.76272
      H   22    0.23064      0.00000     0.76663    0.00273     0.76936
      H   23    0.23476      0.00000     0.76414    0.00110     0.76524
      H   24    0.24592      0.00000     0.75283    0.00125     0.75408
      H   25    0.27590      0.00000     0.72232    0.00179     0.72410
      H   26    0.22387      0.00000     0.77336    0.00277     0.77613
      H   27    0.24270      0.00000     0.75579    0.00150     0.75730
      H   28    0.25902      0.00000     0.73786    0.00311     0.74098
      H   29    0.23409      0.00000     0.76469    0.00122     0.76591
      H   30    0.21719      0.00000     0.76824    0.01457     0.78281
      H   31    0.23285      0.00000     0.76564    0.00152     0.76715
      H   32    0.23860      0.00000     0.75866    0.00274     0.76140
      H   33    0.24144      0.00000     0.75773    0.00082     0.75856
      H   34    0.22081      0.00000     0.76767    0.01152     0.77919
      H   35    0.24405      0.00000     0.74881    0.00713     0.75595
      H   36    0.26677      0.00000     0.72859    0.00464     0.73323
      H   37    0.19917      0.00000     0.78727    0.01356     0.80083
      H   38    0.23456      0.00000     0.76114    0.00430     0.76544
      H   39    0.22775      0.00000     0.76810    0.00415     0.77225
      H   40    0.22296      0.00000     0.77576    0.00129     0.77704
      H   41    0.22577      0.00000     0.77206    0.00217     0.77423
      H   42    0.22294      0.00000     0.77558    0.00148     0.77706
      H   43    0.22194      0.00000     0.77654    0.00152     0.77806
      H   44    0.22502      0.00000     0.77389    0.00109     0.77498
      H   45    0.22565      0.00000     0.76946    0.00489     0.77435
      H   46    0.22743      0.00000     0.76757    0.00499     0.77257
      H   47    0.22559      0.00000     0.77329    0.00112     0.77441
      H   48    0.22984      0.00000     0.76663    0.00353     0.77016
      H   49    0.22215      0.00000     0.77635    0.00150     0.77785
      H   50    0.22430      0.00000     0.77468    0.00102     0.77570
      H   51    0.20654      0.00000     0.78782    0.00564     0.79346
      H   52    0.22910      0.00000     0.76807    0.00283     0.77090
 =======================================================================
   * Total *   -0.00000     55.98349   113.49183    0.52468   170.00000

                                 Natural Population      
 --------------------------------------------------------
   Core                      55.98349 ( 99.9705% of  56)
   Valence                  113.49183 ( 99.5542% of 114)
   Natural Minimal Basis    169.47532 ( 99.6914% of 170)
   Natural Rydberg Basis      0.52468 (  0.3086% of 170)
 --------------------------------------------------------

    Atom  No          Natural Electron Configuration
 ----------------------------------------------------------------------------
      C    1      [core]2S( 1.06)2p( 3.39)3p( 0.01)
      C    2      [core]2S( 1.05)2p( 3.39)3p( 0.01)
      C    3      [core]2S( 1.11)2p( 3.48)3p( 0.01)
      C    4      [core]2S( 1.05)2p( 3.39)3p( 0.01)
      P    5      [core]3S( 1.29)3p( 2.44)3d( 0.03)4p( 0.04)
      C    6      [core]2S( 1.10)2p( 3.47)3p( 0.01)
      C    7      [core]2S( 1.06)2p( 3.37)3p( 0.01)
      C    8      [core]2S( 1.06)2p( 3.38)3p( 0.01)
      C    9      [core]2S( 1.06)2p( 3.36)3p( 0.01)
      C   10      [core]2S( 1.16)2p( 3.62)3p( 0.01)
      C   11      [core]2S( 1.16)2p( 3.63)3p( 0.02)
      P   12      [core]3S( 1.43)3p( 2.78)3d( 0.03)4p( 0.04)
      C   13      [core]2S( 1.09)2p( 3.47)3p( 0.01)
      C   14      [core]2S( 1.05)2p( 3.39)3p( 0.01)
      C   15      [core]2S( 1.05)2p( 3.39)3p( 0.01)
      C   16      [core]2S( 1.05)2p( 3.38)3p( 0.01)
      C   17      [core]2S( 1.08)2p( 3.47)3p( 0.01)
      C   18      [core]2S( 1.05)2p( 3.38)3p( 0.01)
      C   19      [core]2S( 1.05)2p( 3.39)3p( 0.01)
      C   20      [core]2S( 1.05)2p( 3.39)3p( 0.01)
      H   21            1S( 0.76)
      H   22            1S( 0.77)
      H   23            1S( 0.76)
      H   24            1S( 0.75)
      H   25            1S( 0.72)
      H   26            1S( 0.77)
      H   27            1S( 0.76)
      H   28            1S( 0.74)
      H   29            1S( 0.76)
      H   30            1S( 0.77)2S( 0.01)
      H   31            1S( 0.77)
      H   32            1S( 0.76)
      H   33            1S( 0.76)
      H   34            1S( 0.77)2S( 0.01)
      H   35            1S( 0.75)2S( 0.01)
      H   36            1S( 0.73)
      H   37            1S( 0.79)2S( 0.01)
      H   38            1S( 0.76)
      H   39            1S( 0.77)
      H   40            1S( 0.78)
      H   41            1S( 0.77)
      H   42            1S( 0.78)
      H   43            1S( 0.78)
      H   44            1S( 0.77)
      H   45            1S( 0.77)
      H   46            1S( 0.77)
      H   47            1S( 0.77)
      H   48            1S( 0.77)
      H   49            1S( 0.78)
      H   50            1S( 0.77)
      H   51            1S( 0.79)2S( 0.01)
      H   52            1S( 0.77)


 NBO analysis skipped by request.
 Leave Link  607 at Sat Oct  2 19:20:41 2021, MaxMem= 2147483648 cpu:      45.2
 (Enter /sw/target/amd/app/gaussian/Gaussian09RevA.02_gcc-4.9.2/g09/l9999.exe)
 1\1\GINC-HERMITE\SP\RTD-B3LYP-FC\6-31G(d)\C18H32P2\JSCHLEINITZ\02-Oct-
 2021\0\\#p TD(NStates=10, Root=1) b3lyp/6-31G* volume pop=NPA density=
 current Geom=AllCheck Guess=Read\\C1CC(C1)P(C1CCC1)CCP(C1CCC1)C1CCC1_c
 onf_0\\0,1\C,0,-0.0583650396,1.5468642688,-0.5013651962\C,0,-1.2609075
 994,0.5715150442,-0.4089840603\C,0,-0.2678632361,-0.631592467,-0.48763
 13808\C,0,0.8936186212,0.3658381419,-0.1783082476\P,0,-0.1606899518,-1
 .4010639691,-2.1955037372\C,0,1.2001419096,-2.6472408679,-1.8679318268
 \C,0,1.703533327,-3.5816755838,-3.0097848501\C,0,2.0308094799,-4.64699
 77435,-1.929842309\C,0,1.0795882298,-3.9057400166,-0.9528289867\C,0,-1
 .7479533795,-2.4091107019,-2.1395517357\C,0,-2.1011819154,-3.108758173
 5,-3.4622823678\P,0,-3.8544897831,-3.7953020706,-3.4939475275\C,0,-3.8
 595074836,-4.4599634005,-5.2419575069\C,0,-3.9010001668,-3.4273795308,
 -6.410631261\C,0,-4.8830830155,-4.3670926175,-7.1588811119\C,0,-5.1760
 136767,-5.0742401764,-5.8097583756\C,0,-3.6337244078,-5.3934453221,-2.
 5466571844\C,0,-4.8600786552,-6.3523423395,-2.440876917\C,0,-4.4592424
 979,-6.6497523295,-0.972211413\C,0,-3.6016471277,-5.35729084,-0.987048
 3089\H,0,-0.0509152601,2.3970826933,0.1879962606\H,0,0.0865739608,1.92
 26362407,-1.5186683117\H,0,-2.0234525669,0.6501347374,-1.1919124246\H,
 0,-1.7636014119,0.6166514559,0.5633321631\H,0,-0.4234549891,-1.4137395
 029,0.2658922331\H,0,1.8054637349,0.2858323716,-0.7810241507\H,0,1.180
 0537357,0.3351763462,0.8787133415\H,0,2.0489099402,-2.0424026856,-1.52
 15079975\H,0,2.5224965643,-3.2125721843,-3.6354887427\H,0,0.890143689,
 -3.9093161932,-3.6657113881\H,0,3.0746288648,-4.5836191238,-1.60389376
 27\H,0,1.8022259477,-5.6923775967,-2.1628496183\H,0,1.3932872607,-3.80
 22262014,0.090994624\H,0,0.0742792507,-4.3400568225,-0.9714108418\H,0,
 -2.536233756,-1.6839554814,-1.8976337918\H,0,-1.7270547641,-3.12673462
 63,-1.310097451\H,0,-1.3839527446,-3.9087535125,-3.6902438346\H,0,-2.0
 365652142,-2.3856068269,-4.2856484203\H,0,-3.0240011537,-5.1583358872,
 -5.3886506153\H,0,-2.9522549401,-3.1826665572,-6.8990131007\H,0,-4.388
 4954734,-2.4931118647,-6.1081963853\H,0,-4.3600696474,-5.0268915886,-7
 .8596520989\H,0,-5.7264986265,-3.9041849114,-7.6818172474\H,0,-5.26169
 95197,-6.1656754845,-5.8109097985\H,0,-6.0614437115,-4.6553144585,-5.3
 184708226\H,0,-2.7610687706,-5.9424168699,-2.9275086365\H,0,-4.9036368
 33,-7.1916290641,-3.1424659044\H,0,-5.8072793062,-5.8035832423,-2.4946
 06726\H,0,-3.8393101046,-7.5494964829,-0.8933152875\H,0,-5.2626774434,
 -6.7159217623,-0.2310894259\H,0,-2.6195991007,-5.3902294769,-0.5030636
 568\H,0,-4.1569859532,-4.4997276611,-0.5907434701\\Version=AM64L-G09Re
 vA.02\State=1-A\HF=-1387.7739252\RMSD=6.288e-09\Dipole=2.5543529,1.168
 8731,1.254721\Quadrupole=-3.1884172,3.3328791,-0.1444619,0.647649,1.18
 76229,3.6893476\PG=C01 [X(C18H32P2)]\\@


 I (ERNEST RUTHERFORD) CAME INTO THE ROOM, WHICH WAS HALF DARK, AND PRESENTLY
 SPOTTED LORD KELVIN IN THE AUDIENCE AND REALIZED I WAS IN TROUBLE AT
 THE LAST PART OF MY SPEECH DEALING THE AGE OF THE EARTH, WHERE MY VIEWS
 CONFLICTED WITH HIS.  TO MY RELIEF KELVIN FELL FAST ASLEEP, BUT AS I CAME
 TO THE IMPORTANT POINT, I SAW THE OLD BIRD SIT UP AND COCK A BALEFUL GLANCE
 AT ME! THEN A SUDDEN INSPIRATION CAME AND I SAID LORD KELVIN HAD LIMITED
 THE AGE OF THE EARTH PROVIDED NO NEW SOURCE WAS DISCOVERED. THAT
 PROPHETIC UTTERANCE REFERS TO WHAT WE ARE NOW CONSIDERING TONIGHT, RADIUM!
 BEHOLD!  THE OLD BOY BEAMED UPON ME.
 Job cpu time:  0 days 11 hours 37 minutes 19.9 seconds.
 File lengths (MBytes):  RWF=    441 Int=      0 D2E=      0 Chk=     63 Scr=      1
 Normal termination of Gaussian 09 at Sat Oct  2 19:20:57 2021.
