 Entering Gaussian System, Link 0=g09
 Input=C18H16O_c748_conf_0.com
 Output=C18H16O_c748_conf_0.log
 Initial command:
 /sw/target/amd/app/gaussian/Gaussian09RevA.02_gcc-4.9.2/g09/l1.exe /home/jschleinitz/gaussian/Gau-3300537.inp -scrdir=/home/jschleinitz/gaussian/
 Entering Link 1 = /sw/target/amd/app/gaussian/Gaussian09RevA.02_gcc-4.9.2/g09/l1.exe PID=   3300636.
  
 Copyright (c) 1988,1990,1992,1993,1995,1998,2003,2009, Gaussian, Inc.
                  All Rights Reserved.
  
 This is part of the Gaussian(R) 09 program.  It is based on
 the Gaussian(R) 03 system (copyright 2003, Gaussian, Inc.),
 the Gaussian(R) 98 system (copyright 1998, Gaussian, Inc.),
 the Gaussian(R) 94 system (copyright 1995, Gaussian, Inc.),
 the Gaussian 92(TM) system (copyright 1992, Gaussian, Inc.),
 the Gaussian 90(TM) system (copyright 1990, Gaussian, Inc.),
 the Gaussian 88(TM) system (copyright 1988, Gaussian, Inc.),
 the Gaussian 86(TM) system (copyright 1986, Carnegie Mellon
 University), and the Gaussian 82(TM) system (copyright 1983,
 Carnegie Mellon University). Gaussian is a federally registered
 trademark of Gaussian, Inc.
  
 This software contains proprietary and confidential information,
 including trade secrets, belonging to Gaussian, Inc.
  
 This software is provided under written license and may be
 used, copied, transmitted, or stored only in accord with that
 written license.
  
 The following legend is applicable only to US Government
 contracts under FAR:
  
                    RESTRICTED RIGHTS LEGEND
  
 Use, reproduction and disclosure by the US Government is
 subject to restrictions as set forth in subparagraphs (a)
 and (c) of the Commercial Computer Software - Restricted
 Rights clause in FAR 52.227-19.
  
 Gaussian, Inc.
 340 Quinnipiac St., Bldg. 40, Wallingford CT 06492
  
  
 ---------------------------------------------------------------
 Warning -- This program may not be used in any manner that
 competes with the business of Gaussian, Inc. or will provide
 assistance to any competitor of Gaussian, Inc.  The licensee
 of this program is prohibited from giving any competitor of
 Gaussian, Inc. access to this program.  By using this program,
 the user acknowledges that Gaussian, Inc. is engaged in the
 business of creating and licensing software in the field of
 computational chemistry and represents and warrants to the
 licensee that it is not a competitor of Gaussian, Inc. and that
 it will not use this program in any manner prohibited above.
 ---------------------------------------------------------------
  

 Cite this work as:
 Gaussian 09, Revision A.02,
 M. J. Frisch, G. W. Trucks, H. B. Schlegel, G. E. Scuseria, 
 M. A. Robb, J. R. Cheeseman, G. Scalmani, V. Barone, B. Mennucci, 
 G. A. Petersson, H. Nakatsuji, M. Caricato, X. Li, H. P. Hratchian, 
 A. F. Izmaylov, J. Bloino, G. Zheng, J. L. Sonnenberg, M. Hada, 
 M. Ehara, K. Toyota, R. Fukuda, J. Hasegawa, M. Ishida, T. Nakajima, 
 Y. Honda, O. Kitao, H. Nakai, T. Vreven, J. A. Montgomery, Jr., 
 J. E. Peralta, F. Ogliaro, M. Bearpark, J. J. Heyd, E. Brothers, 
 K. N. Kudin, V. N. Staroverov, R. Kobayashi, J. Normand, 
 K. Raghavachari, A. Rendell, J. C. Burant, S. S. Iyengar, J. Tomasi, 
 M. Cossi, N. Rega, J. M. Millam, M. Klene, J. E. Knox, J. B. Cross, 
 V. Bakken, C. Adamo, J. Jaramillo, R. Gomperts, R. E. Stratmann, 
 O. Yazyev, A. J. Austin, R. Cammi, C. Pomelli, J. W. Ochterski, 
 R. L. Martin, K. Morokuma, V. G. Zakrzewski, G. A. Voth, 
 P. Salvador, J. J. Dannenberg, S. Dapprich, A. D. Daniels, 
 O. Farkas, J. B. Foresman, J. V. Ortiz, J. Cioslowski, 
 and D. J. Fox, Gaussian, Inc., Wallingford CT, 2009.
 
 ******************************************
 Gaussian 09:  AM64L-G09RevA.02 11-Jun-2009
                28-Sep-2021 
 ******************************************
 %nproc=5
 Will use up to    5 processors via shared memory.
 %mem=10gb
 %chk=C18H16O_c748_conf_0.chk
 -----------------------------------
 #p opt b3lyp/6-31G* scf=(xqc,tight)
 -----------------------------------
 1/14=-1,18=20,19=15,26=3,38=1/1,3;
 2/9=110,12=2,17=6,18=5,40=1/2;
 3/5=1,6=6,7=1,11=2,16=1,25=1,30=1,71=1,74=-5/1,2,3;
 4//1;
 5/5=2,8=3,13=1,32=2,38=5/2,8;
 6/7=2,8=2,9=2,10=2,28=1/1;
 7//1,2,3,16;
 1/14=-1,18=20,19=15/3(2);
 2/9=110/2;
 99//99;
 2/9=110/2;
 3/5=1,6=6,7=1,11=2,16=1,25=1,30=1,71=1,74=-5/1,2,3;
 4/5=5,16=3/1;
 5/5=2,8=3,13=1,32=2,38=5/2,8;
 7//1,2,3,16;
 1/14=-1,18=20,19=15/3(-5);
 2/9=110/2;
 6/7=2,8=2,9=2,10=2,19=2,28=1/1;
 99/9=1/99;
 Leave Link    1 at Tue Sep 28 15:18:30 2021, MaxMem= 1342177280 cpu:       0.1
 (Enter /sw/target/amd/app/gaussian/Gaussian09RevA.02_gcc-4.9.2/g09/l101.exe)
 --------------------------------------
 COc1ccc2c(c1)cc(cc2)c1ccc(cc1)C_conf_0
 --------------------------------------
 Symbolic Z-matrix:
 Charge =  0 Multiplicity = 1
 C                     1.20884  -0.06922  -0.83831 
 O                     2.38725  -0.64204  -0.28509 
 C                     3.13197  -1.43805  -1.11491 
 C                     2.83437  -1.73165  -2.4421 
 C                     3.68188  -2.55987  -3.18319 
 C                     4.8404   -3.10173  -2.6075 
 C                     5.14823  -2.81687  -1.26342 
 C                     4.28285  -1.98101  -0.53271 
 C                     6.31195  -3.37297  -0.6913 
 C                     7.1944   -4.19263  -1.42437 
 C                     6.85992  -4.44588  -2.76478 
 C                     5.70127  -3.92125  -3.34646 
 C                     8.42413  -4.76366  -0.81643 
 C                     8.92846  -6.01518  -1.21717 
 C                     10.09828  -6.55133  -0.6648 
 C                     10.80152  -5.85339   0.31711 
 C                     10.30738  -4.61984   0.74623 
 C                     9.1442   -4.08113   0.1798 
 C                     12.03625  -6.4335    0.93911 
 H                     0.71717   0.51246  -0.05279 
 H                     0.50745  -0.84341  -1.1658 
 H                     1.4522    0.61634  -1.65818 
 H                     1.95473  -1.33566  -2.93552 
 H                     3.43047  -2.77591  -4.219 
 H                     4.50515  -1.74337   0.50531 
 H                     6.51995  -3.16463   0.35594 
 H                     7.50965  -5.05212  -3.39204 
 H                     5.485    -4.15378  -4.38656 
 H                     8.4071   -6.60635  -1.96685 
 H                     10.44975  -7.52065  -1.01101 
 H                     10.82643  -4.06165   1.52201 
 H                     8.81735  -3.10371   0.52683 
 H                     12.45303  -7.23636   0.32171 
 H                     11.8019  -6.84231   1.92688 
 H                     12.81054  -5.66619   1.04268 
 
 NAtoms=     35 NQM=     35 NQMF=      0 NMic=      0 NMicF=      0 NTot=     35.
                    Isotopes and Nuclear Properties:
 (Nuclear quadrupole moments (NQMom) in fm**2, nuclear magnetic moments (NMagM)
  in nuclear magnetons)

  Atom         1           2           3           4           5           6           7           8           9          10
 IAtWgt=          12          16          12          12          12          12          12          12          12          12
 AtmWgt=  12.0000000  15.9949146  12.0000000  12.0000000  12.0000000  12.0000000  12.0000000  12.0000000  12.0000000  12.0000000
 NucSpn=           0           0           0           0           0           0           0           0           0           0
 AtZEff=   0.0000000   0.0000000   0.0000000   0.0000000   0.0000000   0.0000000   0.0000000   0.0000000   0.0000000   0.0000000
 NQMom=    0.0000000   0.0000000   0.0000000   0.0000000   0.0000000   0.0000000   0.0000000   0.0000000   0.0000000   0.0000000
 NMagM=    0.0000000   0.0000000   0.0000000   0.0000000   0.0000000   0.0000000   0.0000000   0.0000000   0.0000000   0.0000000

  Atom        11          12          13          14          15          16          17          18          19          20
 IAtWgt=          12          12          12          12          12          12          12          12          12           1
 AtmWgt=  12.0000000  12.0000000  12.0000000  12.0000000  12.0000000  12.0000000  12.0000000  12.0000000  12.0000000   1.0078250
 NucSpn=           0           0           0           0           0           0           0           0           0           1
 AtZEff=   0.0000000   0.0000000   0.0000000   0.0000000   0.0000000   0.0000000   0.0000000   0.0000000   0.0000000   0.0000000
 NQMom=    0.0000000   0.0000000   0.0000000   0.0000000   0.0000000   0.0000000   0.0000000   0.0000000   0.0000000   0.0000000
 NMagM=    0.0000000   0.0000000   0.0000000   0.0000000   0.0000000   0.0000000   0.0000000   0.0000000   0.0000000   2.7928460

  Atom        21          22          23          24          25          26          27          28          29          30
 IAtWgt=           1           1           1           1           1           1           1           1           1           1
 AtmWgt=   1.0078250   1.0078250   1.0078250   1.0078250   1.0078250   1.0078250   1.0078250   1.0078250   1.0078250   1.0078250
 NucSpn=           1           1           1           1           1           1           1           1           1           1
 AtZEff=   0.0000000   0.0000000   0.0000000   0.0000000   0.0000000   0.0000000   0.0000000   0.0000000   0.0000000   0.0000000
 NQMom=    0.0000000   0.0000000   0.0000000   0.0000000   0.0000000   0.0000000   0.0000000   0.0000000   0.0000000   0.0000000
 NMagM=    2.7928460   2.7928460   2.7928460   2.7928460   2.7928460   2.7928460   2.7928460   2.7928460   2.7928460   2.7928460

  Atom        31          32          33          34          35
 IAtWgt=           1           1           1           1           1
 AtmWgt=   1.0078250   1.0078250   1.0078250   1.0078250   1.0078250
 NucSpn=           1           1           1           1           1
 AtZEff=   0.0000000   0.0000000   0.0000000   0.0000000   0.0000000
 NQMom=    0.0000000   0.0000000   0.0000000   0.0000000   0.0000000
 NMagM=    2.7928460   2.7928460   2.7928460   2.7928460   2.7928460
 Leave Link  101 at Tue Sep 28 15:18:30 2021, MaxMem= 1342177280 cpu:       0.2
 (Enter /sw/target/amd/app/gaussian/Gaussian09RevA.02_gcc-4.9.2/g09/l103.exe)

 GradGradGradGradGradGradGradGradGradGradGradGradGradGradGradGradGradGrad
 Berny optimization.
 Initialization pass.
                           ----------------------------
                           !    Initial Parameters    !
                           ! (Angstroms and Degrees)  !
 --------------------------                            --------------------------
 ! Name  Definition              Value          Derivative Info.                !
 --------------------------------------------------------------------------------
 ! R1    R(1,2)                  1.4223         estimate D2E/DX2                !
 ! R2    R(1,20)                 1.0941         estimate D2E/DX2                !
 ! R3    R(1,21)                 1.0948         estimate D2E/DX2                !
 ! R4    R(1,22)                 1.0961         estimate D2E/DX2                !
 ! R5    R(2,3)                  1.37           estimate D2E/DX2                !
 ! R6    R(3,4)                  1.3915         estimate D2E/DX2                !
 ! R7    R(3,8)                  1.3994         estimate D2E/DX2                !
 ! R8    R(4,5)                  1.3977         estimate D2E/DX2                !
 ! R9    R(4,23)                 1.0835         estimate D2E/DX2                !
 ! R10   R(5,6)                  1.4026         estimate D2E/DX2                !
 ! R11   R(5,24)                 1.0876         estimate D2E/DX2                !
 ! R12   R(6,7)                  1.408          estimate D2E/DX2                !
 ! R13   R(6,12)                 1.3996         estimate D2E/DX2                !
 ! R14   R(7,8)                  1.4076         estimate D2E/DX2                !
 ! R15   R(7,9)                  1.411          estimate D2E/DX2                !
 ! R16   R(8,25)                 1.0878         estimate D2E/DX2                !
 ! R17   R(9,10)                 1.4099         estimate D2E/DX2                !
 ! R18   R(9,26)                 1.0878         estimate D2E/DX2                !
 ! R19   R(10,11)                1.4045         estimate D2E/DX2                !
 ! R20   R(10,13)                1.4859         estimate D2E/DX2                !
 ! R21   R(11,12)                1.3986         estimate D2E/DX2                !
 ! R22   R(11,27)                1.0877         estimate D2E/DX2                !
 ! R23   R(12,28)                1.0875         estimate D2E/DX2                !
 ! R24   R(13,14)                1.4076         estimate D2E/DX2                !
 ! R25   R(13,18)                1.406          estimate D2E/DX2                !
 ! R26   R(14,15)                1.4004         estimate D2E/DX2                !
 ! R27   R(14,29)                1.0878         estimate D2E/DX2                !
 ! R28   R(15,16)                1.3949         estimate D2E/DX2                !
 ! R29   R(15,30)                1.0876         estimate D2E/DX2                !
 ! R30   R(16,17)                1.3964         estimate D2E/DX2                !
 ! R31   R(16,19)                1.4993         estimate D2E/DX2                !
 ! R32   R(17,18)                1.4014         estimate D2E/DX2                !
 ! R33   R(17,31)                1.0876         estimate D2E/DX2                !
 ! R34   R(18,32)                1.0875         estimate D2E/DX2                !
 ! R35   R(19,33)                1.0952         estimate D2E/DX2                !
 ! R36   R(19,34)                1.0944         estimate D2E/DX2                !
 ! R37   R(19,35)                1.095          estimate D2E/DX2                !
 ! A1    A(2,1,20)             107.8897         estimate D2E/DX2                !
 ! A2    A(2,1,21)             111.2447         estimate D2E/DX2                !
 ! A3    A(2,1,22)             111.0329         estimate D2E/DX2                !
 ! A4    A(20,1,21)            107.6264         estimate D2E/DX2                !
 ! A5    A(20,1,22)            107.7147         estimate D2E/DX2                !
 ! A6    A(21,1,22)            111.149          estimate D2E/DX2                !
 ! A7    A(1,2,3)              116.6673         estimate D2E/DX2                !
 ! A8    A(2,3,4)              125.7372         estimate D2E/DX2                !
 ! A9    A(2,3,8)              114.8663         estimate D2E/DX2                !
 ! A10   A(4,3,8)              119.3964         estimate D2E/DX2                !
 ! A11   A(3,4,5)              120.0722         estimate D2E/DX2                !
 ! A12   A(3,4,23)             122.0637         estimate D2E/DX2                !
 ! A13   A(5,4,23)             117.8641         estimate D2E/DX2                !
 ! A14   A(4,5,6)              120.8079         estimate D2E/DX2                !
 ! A15   A(4,5,24)             118.852          estimate D2E/DX2                !
 ! A16   A(6,5,24)             120.3398         estimate D2E/DX2                !
 ! A17   A(5,6,7)              119.6199         estimate D2E/DX2                !
 ! A18   A(5,6,12)             121.1697         estimate D2E/DX2                !
 ! A19   A(7,6,12)             119.2103         estimate D2E/DX2                !
 ! A20   A(6,7,8)              118.7681         estimate D2E/DX2                !
 ! A21   A(6,7,9)              119.1862         estimate D2E/DX2                !
 ! A22   A(8,7,9)              122.0456         estimate D2E/DX2                !
 ! A23   A(3,8,7)              121.3334         estimate D2E/DX2                !
 ! A24   A(3,8,25)             118.7046         estimate D2E/DX2                !
 ! A25   A(7,8,25)             119.9618         estimate D2E/DX2                !
 ! A26   A(7,9,10)             122.3108         estimate D2E/DX2                !
 ! A27   A(7,9,26)             118.2009         estimate D2E/DX2                !
 ! A28   A(10,9,26)            119.4846         estimate D2E/DX2                !
 ! A29   A(9,10,11)            116.8694         estimate D2E/DX2                !
 ! A30   A(9,10,13)            121.9151         estimate D2E/DX2                !
 ! A31   A(11,10,13)           121.2155         estimate D2E/DX2                !
 ! A32   A(10,11,12)           121.774          estimate D2E/DX2                !
 ! A33   A(10,11,27)           120.5699         estimate D2E/DX2                !
 ! A34   A(12,11,27)           117.6509         estimate D2E/DX2                !
 ! A35   A(6,12,11)            120.639          estimate D2E/DX2                !
 ! A36   A(6,12,28)            120.5214         estimate D2E/DX2                !
 ! A37   A(11,12,28)           118.8372         estimate D2E/DX2                !
 ! A38   A(10,13,14)           121.4491         estimate D2E/DX2                !
 ! A39   A(10,13,18)           121.8159         estimate D2E/DX2                !
 ! A40   A(14,13,18)           116.7343         estimate D2E/DX2                !
 ! A41   A(13,14,15)           121.8316         estimate D2E/DX2                !
 ! A42   A(13,14,29)           120.5097         estimate D2E/DX2                !
 ! A43   A(15,14,29)           117.6551         estimate D2E/DX2                !
 ! A44   A(14,15,16)           120.4802         estimate D2E/DX2                !
 ! A45   A(14,15,30)           119.0516         estimate D2E/DX2                !
 ! A46   A(16,15,30)           120.4681         estimate D2E/DX2                !
 ! A47   A(15,16,17)           118.6791         estimate D2E/DX2                !
 ! A48   A(15,16,19)           120.9043         estimate D2E/DX2                !
 ! A49   A(17,16,19)           120.3793         estimate D2E/DX2                !
 ! A50   A(16,17,18)           120.6013         estimate D2E/DX2                !
 ! A51   A(16,17,31)           120.2452         estimate D2E/DX2                !
 ! A52   A(18,17,31)           119.1524         estimate D2E/DX2                !
 ! A53   A(13,18,17)           121.6585         estimate D2E/DX2                !
 ! A54   A(13,18,32)           120.5637         estimate D2E/DX2                !
 ! A55   A(17,18,32)           117.7731         estimate D2E/DX2                !
 ! A56   A(16,19,33)           111.2948         estimate D2E/DX2                !
 ! A57   A(16,19,34)           110.0358         estimate D2E/DX2                !
 ! A58   A(16,19,35)           110.5144         estimate D2E/DX2                !
 ! A59   A(33,19,34)           108.4487         estimate D2E/DX2                !
 ! A60   A(33,19,35)           107.3326         estimate D2E/DX2                !
 ! A61   A(34,19,35)           109.1358         estimate D2E/DX2                !
 ! D1    D(20,1,2,3)           178.6247         estimate D2E/DX2                !
 ! D2    D(21,1,2,3)            60.7923         estimate D2E/DX2                !
 ! D3    D(22,1,2,3)           -63.5562         estimate D2E/DX2                !
 ! D4    D(1,2,3,4)             -0.0535         estimate D2E/DX2                !
 ! D5    D(1,2,3,8)            179.9615         estimate D2E/DX2                !
 ! D6    D(2,3,4,5)            179.8979         estimate D2E/DX2                !
 ! D7    D(2,3,4,23)            -0.041          estimate D2E/DX2                !
 ! D8    D(8,3,4,5)             -0.1178         estimate D2E/DX2                !
 ! D9    D(8,3,4,23)           179.9433         estimate D2E/DX2                !
 ! D10   D(2,3,8,7)           -179.8844         estimate D2E/DX2                !
 ! D11   D(2,3,8,25)            -0.068          estimate D2E/DX2                !
 ! D12   D(4,3,8,7)              0.1296         estimate D2E/DX2                !
 ! D13   D(4,3,8,25)           179.946          estimate D2E/DX2                !
 ! D14   D(3,4,5,6)             -0.2038         estimate D2E/DX2                !
 ! D15   D(3,4,5,24)          -179.9737         estimate D2E/DX2                !
 ! D16   D(23,4,5,6)           179.7376         estimate D2E/DX2                !
 ! D17   D(23,4,5,24)           -0.0323         estimate D2E/DX2                !
 ! D18   D(4,5,6,7)              0.5126         estimate D2E/DX2                !
 ! D19   D(4,5,6,12)          -179.3637         estimate D2E/DX2                !
 ! D20   D(24,5,6,7)          -179.7209         estimate D2E/DX2                !
 ! D21   D(24,5,6,12)            0.4028         estimate D2E/DX2                !
 ! D22   D(5,6,7,8)             -0.4921         estimate D2E/DX2                !
 ! D23   D(5,6,7,9)            179.6419         estimate D2E/DX2                !
 ! D24   D(12,6,7,8)           179.3865         estimate D2E/DX2                !
 ! D25   D(12,6,7,9)            -0.4795         estimate D2E/DX2                !
 ! D26   D(5,6,12,11)          179.4181         estimate D2E/DX2                !
 ! D27   D(5,6,12,28)           -0.0233         estimate D2E/DX2                !
 ! D28   D(7,6,12,11)           -0.4587         estimate D2E/DX2                !
 ! D29   D(7,6,12,28)         -179.9            estimate D2E/DX2                !
 ! D30   D(6,7,8,3)              0.1768         estimate D2E/DX2                !
 ! D31   D(6,7,8,25)          -179.6373         estimate D2E/DX2                !
 ! D32   D(9,7,8,3)           -179.9612         estimate D2E/DX2                !
 ! D33   D(9,7,8,25)             0.2247         estimate D2E/DX2                !
 ! D34   D(6,7,9,10)             0.9481         estimate D2E/DX2                !
 ! D35   D(6,7,9,26)          -178.3495         estimate D2E/DX2                !
 ! D36   D(8,7,9,10)          -178.9133         estimate D2E/DX2                !
 ! D37   D(8,7,9,26)             1.7891         estimate D2E/DX2                !
 ! D38   D(7,9,10,11)           -0.4437         estimate D2E/DX2                !
 ! D39   D(7,9,10,13)          179.4327         estimate D2E/DX2                !
 ! D40   D(26,9,10,11)         178.8452         estimate D2E/DX2                !
 ! D41   D(26,9,10,13)          -1.2784         estimate D2E/DX2                !
 ! D42   D(9,10,11,12)          -0.5249         estimate D2E/DX2                !
 ! D43   D(9,10,11,27)         178.6276         estimate D2E/DX2                !
 ! D44   D(13,10,11,12)        179.5978         estimate D2E/DX2                !
 ! D45   D(13,10,11,27)         -1.2497         estimate D2E/DX2                !
 ! D46   D(9,10,13,14)         147.8865         estimate D2E/DX2                !
 ! D47   D(9,10,13,18)         -32.4351         estimate D2E/DX2                !
 ! D48   D(11,10,13,14)        -32.2424         estimate D2E/DX2                !
 ! D49   D(11,10,13,18)        147.436          estimate D2E/DX2                !
 ! D50   D(10,11,12,6)           0.9865         estimate D2E/DX2                !
 ! D51   D(10,11,12,28)       -179.5629         estimate D2E/DX2                !
 ! D52   D(27,11,12,6)        -178.1897         estimate D2E/DX2                !
 ! D53   D(27,11,12,28)          1.2609         estimate D2E/DX2                !
 ! D54   D(10,13,14,15)        178.9711         estimate D2E/DX2                !
 ! D55   D(10,13,14,29)         -1.7374         estimate D2E/DX2                !
 ! D56   D(18,13,14,15)         -0.7229         estimate D2E/DX2                !
 ! D57   D(18,13,14,29)        178.5686         estimate D2E/DX2                !
 ! D58   D(10,13,18,17)       -179.6788         estimate D2E/DX2                !
 ! D59   D(10,13,18,32)         -0.4826         estimate D2E/DX2                !
 ! D60   D(14,13,18,17)          0.014          estimate D2E/DX2                !
 ! D61   D(14,13,18,32)        179.2102         estimate D2E/DX2                !
 ! D62   D(13,14,15,16)          0.3758         estimate D2E/DX2                !
 ! D63   D(13,14,15,30)       -179.7376         estimate D2E/DX2                !
 ! D64   D(29,14,15,16)       -178.9351         estimate D2E/DX2                !
 ! D65   D(29,14,15,30)          0.9515         estimate D2E/DX2                !
 ! D66   D(14,15,16,17)          0.6951         estimate D2E/DX2                !
 ! D67   D(14,15,16,19)        178.4835         estimate D2E/DX2                !
 ! D68   D(30,15,16,17)       -179.1899         estimate D2E/DX2                !
 ! D69   D(30,15,16,19)         -1.4015         estimate D2E/DX2                !
 ! D70   D(15,16,17,18)         -1.394          estimate D2E/DX2                !
 ! D71   D(15,16,17,31)        179.0013         estimate D2E/DX2                !
 ! D72   D(19,16,17,18)       -179.1944         estimate D2E/DX2                !
 ! D73   D(19,16,17,31)          1.201          estimate D2E/DX2                !
 ! D74   D(15,16,19,33)         18.4671         estimate D2E/DX2                !
 ! D75   D(15,16,19,34)       -101.776          estimate D2E/DX2                !
 ! D76   D(15,16,19,35)        137.6266         estimate D2E/DX2                !
 ! D77   D(17,16,19,33)       -163.782          estimate D2E/DX2                !
 ! D78   D(17,16,19,34)         75.9749         estimate D2E/DX2                !
 ! D79   D(17,16,19,35)        -44.6225         estimate D2E/DX2                !
 ! D80   D(16,17,18,13)          1.0543         estimate D2E/DX2                !
 ! D81   D(16,17,18,32)       -178.1634         estimate D2E/DX2                !
 ! D82   D(31,17,18,13)       -179.3368         estimate D2E/DX2                !
 ! D83   D(31,17,18,32)          1.4455         estimate D2E/DX2                !
 --------------------------------------------------------------------------------
 Trust Radius=3.00D-01 FncErr=1.00D-07 GrdErr=1.00D-06
 Number of steps in this run= 191 maximum allowed number of steps= 210.
 GradGradGradGradGradGradGradGradGradGradGradGradGradGradGradGradGradGrad

 Leave Link  103 at Tue Sep 28 15:18:30 2021, MaxMem= 1342177280 cpu:       0.0
 (Enter /sw/target/amd/app/gaussian/Gaussian09RevA.02_gcc-4.9.2/g09/l202.exe)
                          Input orientation:                          
 ---------------------------------------------------------------------
 Center     Atomic      Atomic             Coordinates (Angstroms)
 Number     Number       Type             X           Y           Z
 ---------------------------------------------------------------------
      1          6           0        1.208844   -0.069215   -0.838314
      2          8           0        2.387245   -0.642043   -0.285092
      3          6           0        3.131974   -1.438052   -1.114914
      4          6           0        2.834374   -1.731652   -2.442097
      5          6           0        3.681881   -2.559866   -3.183191
      6          6           0        4.840398   -3.101735   -2.607498
      7          6           0        5.148228   -2.816867   -1.263416
      8          6           0        4.282851   -1.981011   -0.532706
      9          6           0        6.311952   -3.372970   -0.691301
     10          6           0        7.194404   -4.192634   -1.424366
     11          6           0        6.859923   -4.445877   -2.764783
     12          6           0        5.701275   -3.921248   -3.346462
     13          6           0        8.424126   -4.763663   -0.816428
     14          6           0        8.928462   -6.015183   -1.217172
     15          6           0       10.098282   -6.551327   -0.664800
     16          6           0       10.801518   -5.853395    0.317114
     17          6           0       10.307379   -4.619837    0.746233
     18          6           0        9.144203   -4.081128    0.179795
     19          6           0       12.036250   -6.433503    0.939106
     20          1           0        0.717168    0.512459   -0.052794
     21          1           0        0.507451   -0.843414   -1.165801
     22          1           0        1.452203    0.616338   -1.658182
     23          1           0        1.954734   -1.335658   -2.935522
     24          1           0        3.430467   -2.775909   -4.218996
     25          1           0        4.505148   -1.743367    0.505308
     26          1           0        6.519951   -3.164631    0.355941
     27          1           0        7.509646   -5.052122   -3.392037
     28          1           0        5.485005   -4.153776   -4.386560
     29          1           0        8.407099   -6.606351   -1.966848
     30          1           0       10.449752   -7.520647   -1.011006
     31          1           0       10.826434   -4.061645    1.522006
     32          1           0        8.817350   -3.103713    0.526828
     33          1           0       12.453031   -7.236364    0.321707
     34          1           0       11.801897   -6.842313    1.926880
     35          1           0       12.810543   -5.666193    1.042675
 ---------------------------------------------------------------------
                    Distance matrix (angstroms):
                    1          2          3          4          5
     1  C    0.000000
     2  O    1.422258   0.000000
     3  C    2.376689   1.369984   0.000000
     4  C    2.824565   2.457609   1.391468   0.000000
     5  C    4.221102   3.708518   2.416327   1.397650   0.000000
     6  C    5.051176   4.178709   2.813247   2.434875   1.402571
     7  C    4.821726   3.648287   2.447133   2.814409   2.429353
     8  C    3.632888   2.333981   1.399388   2.409572   2.778724
     9  C    6.080964   4.798572   3.746414   4.225252   3.713210
    10  C    7.291980   6.083865   4.918010   5.109018   4.254082
    11  C    7.402779   6.373606   5.066229   4.865817   3.719146
    12  C    6.427356   5.577451   4.212764   3.719049   2.440895
    13  C    8.608056   7.328984   6.257448   6.563628   5.739963
    14  C    9.751439   8.516273   7.386464   7.548972   6.582633
    15  C   11.003181   9.722340   8.653186   8.896763   7.965190
    16  C   11.261046   9.915686   8.964813   9.384956   8.590035
    17  C   10.295742   8.922724   8.066850   8.622811   7.973775
    18  C    8.949967   7.596045   6.693954   7.225530   6.592486
    19  C   12.684483  11.320025  10.414397  10.872647  10.089295
    20  H    1.094135   2.043525   3.280835   3.902226   5.294156
    21  H    1.094798   2.085623   2.691524   2.798655   4.134377
    22  H    1.096080   2.084036   2.708743   2.835133   4.169579
    23  H    2.560959   2.773616   2.170482   1.083535   2.131446
    24  H    4.867321   4.595356   3.393271   2.145499   1.087555
    25  H    3.933665   2.514589   2.145680   3.388040   3.866453
    26  H    6.262244   4.884017   4.077116   4.844163   4.576662
    27  H    8.429174   7.439146   6.116437   5.812578   4.572389
    28  H    6.896321   6.224984   4.859586   4.083315   2.690706
    29  H    9.788902   8.639439   7.433979   7.419151   6.338865
    30  H   11.872154  10.622907   9.516230   9.672355   8.667861
    31  H   10.677483   9.283274   8.546420   9.220412   8.685554
    32  H    8.304286   6.932913   6.147621   6.818583   6.358699
    33  H   13.384521  12.048789  11.070971  11.421866  10.539782
    34  H   12.873769  11.487899  10.659555  11.208179  10.506514
    35  H   13.017823  11.646896  10.779938  11.276001  10.528043
                    6          7          8          9         10
     6  C    0.000000
     7  C    1.408001   0.000000
     8  C    2.423147   1.407647   0.000000
     9  C    2.431224   1.410965   2.465757   0.000000
    10  C    2.851527   2.470927   3.763440   1.409949   0.000000
    11  C    2.431036   2.799585   4.207022   2.398068   1.404538
    12  C    1.399564   2.421694   3.700496   2.779104   2.448987
    13  C    4.337401   3.836838   4.997381   2.531988   1.485894
    14  C    5.208978   4.951922   6.190698   3.755523   2.524197
    15  C    6.581725   6.229572   7.397599   4.943576   3.817444
    16  C    7.187485   6.608954   7.629586   5.227391   4.336145
    17  C    6.590905   5.822906   6.700301   4.425452   3.818982
    18  C    5.220244   4.432723   5.343304   3.046628   2.527347
    19  C    8.686735   8.085544   9.061243   6.692733   5.835321
    20  H    6.048961   5.673121   4.377419   6.841480   8.122419
    21  H    5.094402   5.043892   3.993567   6.349491   7.483279
    22  H    5.119095   5.059974   4.003184   6.361336   7.493581
    23  H    3.399071   3.897220   3.407365   5.307779   6.156301
    24  H    2.165870   3.418747   3.866155   4.593917   4.897375
    25  H    3.412787   2.166642   1.087825   2.711461   4.117602
    26  H    3.406879   2.150554   2.682399   1.087835   2.163602
    27  H    3.397704   3.886347   5.293365   3.398235   2.170214
    28  H    2.165034   3.413909   4.584569   3.866321   3.420255
    29  H    5.041242   5.047301   6.360814   4.058499   2.755167
    30  H    7.317132   7.091927   8.303434   5.867438   4.673738
    31  H    7.335315   6.445935   7.167242   5.074795   4.678665
    32  H    5.063611   4.092642   4.790069   2.798814   2.761678
    33  H    9.144811   8.683589   9.751954   7.325629   6.321884
    34  H    9.111255   8.405565   9.285358   7.002193   6.283362
    35  H    9.133642   8.493986   9.422523   7.106141   6.308621
                   11         12         13         14         15
    11  C    0.000000
    12  C    1.398589   0.000000
    13  C    2.518692   3.811123   0.000000
    14  C    3.022693   4.396951   1.407569   0.000000
    15  C    4.396569   5.782932   2.453880   1.400373   0.000000
    16  C    5.197631   6.570195   2.850338   2.426633   1.394921
    17  C    4.923663   6.201160   2.451375   2.775493   2.401122
    18  C    3.744532   4.930903   1.405996   2.395544   2.779477
    19  C    6.668119   8.050431   4.349449   3.805637   2.518356
    20  H    8.347060   7.439578   9.371115  10.554204  11.759120
    21  H    7.475853   6.419046   8.841050   9.882472  11.172077
    22  H    7.489594   6.441629   8.846507  10.003300  11.274614
    23  H    5.810636   4.570637   7.621996   8.572255   9.933618
    24  H    4.082241   2.688807   6.361232   7.052077   8.446647
    25  H    4.852011   4.583669   5.121286   6.386004   7.467850
    26  H    3.390589   3.866587   2.749043   4.049846   5.031508
    27  H    1.087714   2.133345   2.748317   2.769579   4.048021
    28  H    2.146132   1.087495   4.664359   5.036591   6.393909
    29  H    2.774545   4.053960   2.172385   1.087803   2.135055
    30  H    5.041510   6.399849   3.426657   2.150175   1.087645
    31  H    5.852982   7.070286   3.425227   3.862862   3.392762
    32  H    4.058033   5.037923   2.171266   3.395664   3.866109
    33  H    6.971090   8.368493   4.862270   4.035098   2.643353
    34  H    7.223414   8.576616   4.822433   4.338875   3.115089
    35  H    7.169086   8.535283   4.848864   4.505470   3.324950
                   16         17         18         19         20
    16  C    0.000000
    17  C    1.396417   0.000000
    18  C    2.430325   1.401442   0.000000
    19  C    1.499321   2.513082   3.804492   0.000000
    20  H   11.931263  10.906469   9.600523  13.317352   0.000000
    21  H   11.544123  10.675010   9.321314  12.984334   1.766680
    22  H   11.539885  10.564700   9.198435  12.979531   1.768711
    23  H   10.452521   9.700920   8.302486  11.943104   3.641047
    24  H    9.185837   8.680178   7.328010  10.679116   5.960922
    25  H    7.521438   6.480588   5.204989   8.882740   4.443987
    26  H    5.055965   4.076097   2.785264   6.438569   6.881885
    27  H    5.023571   5.013927   4.046306   6.415385   9.394299
    28  H    7.299217   7.058192   5.852060   8.745209   7.955347
    29  H    3.393623   3.862398   3.395314   4.652439  10.652515
    30  H    2.160410   3.394533   3.866880   2.738940  12.655914
    31  H    2.159340   1.087575   2.152164   2.725645  11.207126
    32  H    3.397301   2.137044   1.087476   4.649601   8.889635
    33  H    2.154093   3.410316   4.574276   1.095204  14.068226
    34  H    2.137771   2.926928   4.211863   1.094415  13.449275
    35  H    2.144217   2.729207   4.086447   1.094999  13.624445
                   21         22         23         24         25
    21  H    0.000000
    22  H    1.807173   0.000000
    23  H    2.338556   2.386299   0.000000
    24  H    4.647640   4.688138   2.428872   0.000000
    25  H    4.425393   4.423728   4.302342   4.953799   0.000000
    26  H    6.622228   6.635849   5.917776   5.534082   2.470168
    27  H    8.467590   8.475276   6.699072   4.743912   5.929938
    28  H    6.790274   6.816269   4.744483   2.479460   5.540809
    29  H    9.811093  10.031604   8.387583   6.671680   6.707115
    30  H   11.977427  12.148467  10.682846   9.059476   8.427010
    31  H   11.138345  10.948668  10.296000   9.450531   6.809313
    32  H    8.776581   8.535716   7.887293   7.186711   4.521736
    33  H   13.630090  13.660275  12.475661  11.041752   9.663104
    34  H   13.157354  13.251427  12.285472  11.152949   9.014581
    35  H   13.397860  13.258081  12.346181  11.136640   9.200920
                   26         27         28         29         30
    26  H    0.000000
    27  H    4.311550   0.000000
    28  H    4.953871   2.428018   0.000000
    29  H    4.560934   2.291770   4.517605   0.000000
    30  H    6.023849   4.517427   6.883233   2.433517   0.000000
    31  H    4.550839   6.010819   7.965583   4.949830   4.303804
    32  H    2.304551   4.567701   6.028975   4.319167   4.953683
    33  H    7.195945   6.557428   8.956758   4.690839   2.422822
    34  H    6.625115   7.065344   9.326890   5.171214   3.304483
    35  H    6.804482   6.938535   9.242701   5.415852   3.637299
                   31         32         33         34         35
    31  H    0.000000
    32  H    2.438120   0.000000
    33  H    3.763692   5.508090   0.000000
    34  H    2.974486   4.984455   1.776466   0.000000
    35  H    2.596348   4.772629   1.764383   1.783941   0.000000
 Stoichiometry    C18H16O
 Framework group  C1[X(C18H16O)]
 Deg. of freedom    99
 Full point group                 C1      NOp   1
 Largest Abelian subgroup         C1      NOp   1
 Largest concise Abelian subgroup C1      NOp   1
                         Standard orientation:                         
 ---------------------------------------------------------------------
 Center     Atomic      Atomic             Coordinates (Angstroms)
 Number     Number       Type             X           Y           Z
 ---------------------------------------------------------------------
      1          6           0        6.168990   -1.343836    0.152485
      2          8           0        4.787560   -1.679265    0.196704
      3          6           0        3.899177   -0.642438    0.084368
      4          6           0        4.231948    0.700142   -0.067034
      5          6           0        3.225020    1.663636   -0.172868
      6          6           0        1.872051    1.296099   -0.132877
      7          6           0        1.523389   -0.058698    0.026568
      8          6           0        2.551087   -1.014861    0.131730
      9          6           0        0.159551   -0.417293    0.073226
     10          6           0       -0.874315    0.532915   -0.053975
     11          6           0       -0.487917    1.872746   -0.222131
     12          6           0        0.857657    2.253044   -0.251373
     13          6           0       -2.307864    0.143852   -0.015915
     14          6           0       -3.288633    1.004511    0.511918
     15          6           0       -4.644479    0.654789    0.532447
     16          6           0       -5.065232   -0.576713    0.030276
     17          6           0       -4.106821   -1.456000   -0.477939
     18          6           0       -2.753001   -1.095143   -0.509444
     19          6           0       -6.509910   -0.974921    0.078213
     20          1           0        6.743133   -2.266645    0.278638
     21          1           0        6.440055   -0.670124    0.971765
     22          1           0        6.438433   -0.913564   -0.818936
     23          1           0        5.261110    1.036575   -0.108099
     24          1           0        3.507538    2.707184   -0.291042
     25          1           0        2.303701   -2.067617    0.249485
     26          1           0       -0.091673   -1.464891    0.224254
     27          1           0       -1.235711    2.652460   -0.348510
     28          1           0        1.102781    3.305085   -0.376953
     29          1           0       -3.009459    1.968549    0.931449
     30          1           0       -5.364666    1.356377    0.947270
     31          1           0       -4.404720   -2.429348   -0.860912
     32          1           0       -2.049952   -1.802617   -0.942810
     33          1           0       -7.157808   -0.104244    0.225263
     34          1           0       -6.678663   -1.675286    0.902080
     35          1           0       -6.808770   -1.448755   -0.862631
 ---------------------------------------------------------------------
 Rotational constants (GHZ):      1.2416832      0.1451036      0.1314740
 Leave Link  202 at Tue Sep 28 15:18:30 2021, MaxMem= 1342177280 cpu:       0.1
 (Enter /sw/target/amd/app/gaussian/Gaussian09RevA.02_gcc-4.9.2/g09/l301.exe)
 Standard basis: 6-31G(d) (6D, 7F)
 Ernie: Thresh=  0.10000D-02 Tol=  0.10000D-05 Strict=F.
 There are   317 symmetry adapted basis functions of A   symmetry.
 Integral buffers will be    131072 words long.
 Raffenetti 2 integral format.
 Two-electron integral symmetry is turned on.
   317 basis functions,   596 primitive gaussians,   317 cartesian basis functions
    66 alpha electrons       66 beta electrons
       nuclear repulsion energy      1243.3620921655 Hartrees.
 IExCor=  402 DFT=T Ex+Corr=B3LYP ExCW=0 ScaHFX=  0.200000
 ScaDFX=  0.800000  0.720000  1.000000  0.810000 ScalE2=  1.000000  1.000000
 IRadAn=      0 IRanWt=     -1 IRanGd=            0 ICorTp=0
 NAtoms=   35 NActive=   35 NUniq=   35 SFac= 7.50D-01 NAtFMM=   80 NAOKFM=F Big=F
 Leave Link  301 at Tue Sep 28 15:18:31 2021, MaxMem= 1342177280 cpu:       0.1
 (Enter /sw/target/amd/app/gaussian/Gaussian09RevA.02_gcc-4.9.2/g09/l302.exe)
 NPDir=0 NMtPBC=     1 NCelOv=     1 NCel=       1 NClECP=     1 NCelD=      1
         NCelK=      1 NCelE2=     1 NClLst=     1 CellRange=     0.0.
 One-electron integrals computed using PRISM.
 NBasis=   317 RedAO= T  NBF=   317
 NBsUse=   317 1.00D-06 NBFU=   317
 Precomputing XC quadrature grid using
 IXCGrd= 2 IRadAn=           0 IRanWt=          -1 IRanGd=           0 AccXCQ= 1.00D-10.
 NRdTot=    2239 NPtTot=      285898 NUsed=      302039 NTot=      302071
 NSgBfM=   314   314   314   314   314 NAtAll=    35    35.
 Leave Link  302 at Tue Sep 28 15:18:35 2021, MaxMem= 1342177280 cpu:       3.3
 (Enter /sw/target/amd/app/gaussian/Gaussian09RevA.02_gcc-4.9.2/g09/l303.exe)
 DipDrv:  MaxL=1.
 Leave Link  303 at Tue Sep 28 15:18:36 2021, MaxMem= 1342177280 cpu:       0.3
 (Enter /sw/target/amd/app/gaussian/Gaussian09RevA.02_gcc-4.9.2/g09/l401.exe)
 Harris functional with IExCor=  402 diagonalized for initial guess.
 ExpMin= 1.61D-01 ExpMax= 5.48D+03 ExpMxC= 8.25D+02 IAcc=1 IRadAn=         1 AccDes= 0.00D+00
 HarFok:  IExCor=  402 AccDes= 0.00D+00 IRadAn=         1 IDoV= 1
 ScaDFX=  1.000000  1.000000  1.000000  1.000000
 FoFCou: FMM=F IPFlag=           0 FMFlag=      100000 FMFlg1=           0
         NFxFlg=           0 DoJE=T BraDBF=F KetDBF=T FulRan=T
         Omega=  0.000000  0.000000  1.000000  0.000000  0.000000 ICntrl=     500 IOpCl=  0
         NMat0=    1 NMatS0=    1 NMatT0=    0 NMatD0=    1 NMtDS0=    0 NMtDT0=    0
         I1Cent=           4 NGrid=           0.
 Petite list used in FoFCou.
 Harris En= -770.876056179874    
 Initial guess orbital symmetries:
       Occupied  (A) (A) (A) (A) (A) (A) (A) (A) (A) (A) (A) (A)
                 (A) (A) (A) (A) (A) (A) (A) (A) (A) (A) (A) (A)
                 (A) (A) (A) (A) (A) (A) (A) (A) (A) (A) (A) (A)
                 (A) (A) (A) (A) (A) (A) (A) (A) (A) (A) (A) (A)
                 (A) (A) (A) (A) (A) (A) (A) (A) (A) (A) (A) (A)
                 (A) (A) (A) (A) (A) (A)
       Virtual   (A) (A) (A) (A) (A) (A) (A) (A) (A) (A) (A) (A)
                 (A) (A) (A) (A) (A) (A) (A) (A) (A) (A) (A) (A)
                 (A) (A) (A) (A) (A) (A) (A) (A) (A) (A) (A) (A)
                 (A) (A) (A) (A) (A) (A) (A) (A) (A) (A) (A) (A)
                 (A) (A) (A) (A) (A) (A) (A) (A) (A) (A) (A) (A)
                 (A) (A) (A) (A) (A) (A) (A) (A) (A) (A) (A) (A)
                 (A) (A) (A) (A) (A) (A) (A) (A) (A) (A) (A) (A)
                 (A) (A) (A) (A) (A) (A) (A) (A) (A) (A) (A) (A)
                 (A) (A) (A) (A) (A) (A) (A) (A) (A) (A) (A) (A)
                 (A) (A) (A) (A) (A) (A) (A) (A) (A) (A) (A) (A)
                 (A) (A) (A) (A) (A) (A) (A) (A) (A) (A) (A) (A)
                 (A) (A) (A) (A) (A) (A) (A) (A) (A) (A) (A) (A)
                 (A) (A) (A) (A) (A) (A) (A) (A) (A) (A) (A) (A)
                 (A) (A) (A) (A) (A) (A) (A) (A) (A) (A) (A) (A)
                 (A) (A) (A) (A) (A) (A) (A) (A) (A) (A) (A) (A)
                 (A) (A) (A) (A) (A) (A) (A) (A) (A) (A) (A) (A)
                 (A) (A) (A) (A) (A) (A) (A) (A) (A) (A) (A) (A)
                 (A) (A) (A) (A) (A) (A) (A) (A) (A) (A) (A) (A)
                 (A) (A) (A) (A) (A) (A) (A) (A) (A) (A) (A) (A)
                 (A) (A) (A) (A) (A) (A) (A) (A) (A) (A) (A) (A)
                 (A) (A) (A) (A) (A) (A) (A) (A) (A) (A) (A)
 The electronic state of the initial guess is 1-A.
 Leave Link  401 at Tue Sep 28 15:18:54 2021, MaxMem= 1342177280 cpu:      15.8
 (Enter /sw/target/amd/app/gaussian/Gaussian09RevA.02_gcc-4.9.2/g09/l502.exe)
 Closed shell SCF:
 Requested convergence on RMS density matrix=1.00D-08 within  64 cycles.
 Requested convergence on MAX density matrix=1.00D-06.
 Requested convergence on             energy=1.00D-06.
 No special actions if energy rises.
 Using DIIS extrapolation, IDIIS=  1040.
 Integral symmetry usage will be decided dynamically.
       301711 words used for storage of precomputed grid.
 Keep R1 ints in memory in canonical form, NReq=1286947992.
 IEnd=      613015 IEndB=      613015 NGot=  1342177280 MDV=    71412862
 LenX=    71412862 LenY=    71311932
 Symmetry not used in FoFDir.
 MinBra= 0 MaxBra= 2 Meth= 1.
 IRaf=       0 NMat=   1 IRICut=       1 DoRegI=T DoRafI=F ISym2E= 0 JSym2E=0.
 Integral accuracy reduced to 1.0D-05 until final iterations.

 Cycle   1  Pass 0  IDiag  1:
 E= -770.358891384039    
 DIIS: error= 3.93D-02 at cycle   1 NSaved=   1.
 NSaved= 1 IEnMin= 1 EnMin= -770.358891384039     IErMin= 1 ErrMin= 3.93D-02
 ErrMax= 3.93D-02 EMaxC= 1.00D-01 BMatC= 3.81D-01 BMatP= 3.81D-01
 IDIUse=3 WtCom= 6.07D-01 WtEn= 3.93D-01
 Coeff-Com:  0.100D+01
 Coeff-En:   0.100D+01
 Coeff:      0.100D+01
 Gap=     0.159 Goal=   None    Shift=    0.000
 GapD=    0.159 DampG=1.000 DampE=0.500 DampFc=0.5000 IDamp=-1.
 Damping current iteration by 5.00D-01
 RMSDP=4.74D-03 MaxDP=1.35D-01              OVMax= 1.58D-01

 Cycle   2  Pass 0  IDiag  1:
 E= -770.565937604774     Delta-E=       -0.207046220735 Rises=F Damp=T
 DIIS: error= 6.31D-03 at cycle   2 NSaved=   2.
 NSaved= 2 IEnMin= 2 EnMin= -770.565937604774     IErMin= 2 ErrMin= 6.31D-03
 ErrMax= 6.31D-03 EMaxC= 1.00D-01 BMatC= 1.96D-02 BMatP= 3.81D-01
 IDIUse=3 WtCom= 9.37D-01 WtEn= 6.31D-02
 Coeff-Com: -0.191D-01 0.102D+01
 Coeff-En:   0.000D+00 0.100D+01
 Coeff:     -0.179D-01 0.102D+01
 Gap=     0.153 Goal=   None    Shift=    0.000
 RMSDP=1.53D-03 MaxDP=4.19D-02 DE=-2.07D-01 OVMax= 1.29D-01

 Cycle   3  Pass 0  IDiag  1:
 E= -770.769300188160     Delta-E=       -0.203362583386 Rises=F Damp=F
 DIIS: error= 5.11D-03 at cycle   3 NSaved=   3.
 NSaved= 3 IEnMin= 3 EnMin= -770.769300188160     IErMin= 3 ErrMin= 5.11D-03
 ErrMax= 5.11D-03 EMaxC= 1.00D-01 BMatC= 1.37D-02 BMatP= 1.96D-02
 IDIUse=3 WtCom= 9.49D-01 WtEn= 5.11D-02
 Coeff-Com: -0.462D-01 0.471D+00 0.575D+00
 Coeff-En:   0.000D+00 0.000D+00 0.100D+01
 Coeff:     -0.439D-01 0.447D+00 0.597D+00
 Gap=     0.150 Goal=   None    Shift=    0.000
 RMSDP=7.16D-04 MaxDP=3.31D-02 DE=-2.03D-01 OVMax= 5.60D-02

 Cycle   4  Pass 0  IDiag  1:
 E= -770.777368259950     Delta-E=       -0.008068071791 Rises=F Damp=F
 DIIS: error= 3.70D-03 at cycle   4 NSaved=   4.
 NSaved= 4 IEnMin= 4 EnMin= -770.777368259950     IErMin= 4 ErrMin= 3.70D-03
 ErrMax= 3.70D-03 EMaxC= 1.00D-01 BMatC= 6.27D-03 BMatP= 1.37D-02
 IDIUse=3 WtCom= 9.63D-01 WtEn= 3.70D-02
 Coeff-Com: -0.239D-01 0.113D+00 0.408D+00 0.503D+00
 Coeff-En:   0.000D+00 0.000D+00 0.346D+00 0.654D+00
 Coeff:     -0.230D-01 0.109D+00 0.405D+00 0.509D+00
 Gap=     0.150 Goal=   None    Shift=    0.000
 RMSDP=3.09D-04 MaxDP=1.11D-02 DE=-8.07D-03 OVMax= 2.26D-02

 Cycle   5  Pass 0  IDiag  1:
 E= -770.784011437591     Delta-E=       -0.006643177641 Rises=F Damp=F
 DIIS: error= 5.30D-04 at cycle   5 NSaved=   5.
 NSaved= 5 IEnMin= 5 EnMin= -770.784011437591     IErMin= 5 ErrMin= 5.30D-04
 ErrMax= 5.30D-04 EMaxC= 1.00D-01 BMatC= 1.65D-04 BMatP= 6.27D-03
 IDIUse=3 WtCom= 9.95D-01 WtEn= 5.30D-03
 Coeff-Com: -0.793D-02 0.267D-01 0.159D+00 0.242D+00 0.580D+00
 Coeff-En:   0.000D+00 0.000D+00 0.000D+00 0.000D+00 0.100D+01
 Coeff:     -0.788D-02 0.266D-01 0.158D+00 0.241D+00 0.583D+00
 Gap=     0.149 Goal=   None    Shift=    0.000
 RMSDP=6.05D-05 MaxDP=2.02D-03 DE=-6.64D-03 OVMax= 4.67D-03

 Cycle   6  Pass 0  IDiag  1:
 E= -770.784141024754     Delta-E=       -0.000129587163 Rises=F Damp=F
 DIIS: error= 3.98D-04 at cycle   6 NSaved=   6.
 NSaved= 6 IEnMin= 6 EnMin= -770.784141024754     IErMin= 6 ErrMin= 3.98D-04
 ErrMax= 3.98D-04 EMaxC= 1.00D-01 BMatC= 3.70D-05 BMatP= 1.65D-04
 IDIUse=3 WtCom= 9.96D-01 WtEn= 3.98D-03
 Coeff-Com: -0.225D-02 0.427D-02 0.551D-01 0.956D-01 0.364D+00 0.483D+00
 Coeff-En:   0.000D+00 0.000D+00 0.000D+00 0.000D+00 0.190D+00 0.810D+00
 Coeff:     -0.224D-02 0.425D-02 0.548D-01 0.952D-01 0.364D+00 0.484D+00
 Gap=     0.149 Goal=   None    Shift=    0.000
 RMSDP=2.57D-05 MaxDP=1.14D-03 DE=-1.30D-04 OVMax= 2.53D-03

 Cycle   7  Pass 0  IDiag  1:
 E= -770.784176948542     Delta-E=       -0.000035923788 Rises=F Damp=F
 DIIS: error= 1.43D-04 at cycle   7 NSaved=   7.
 NSaved= 7 IEnMin= 7 EnMin= -770.784176948542     IErMin= 7 ErrMin= 1.43D-04
 ErrMax= 1.43D-04 EMaxC= 1.00D-01 BMatC= 3.16D-06 BMatP= 3.70D-05
 IDIUse=3 WtCom= 9.99D-01 WtEn= 1.43D-03
 Coeff-Com: -0.885D-03 0.960D-03 0.246D-01 0.443D-01 0.194D+00 0.310D+00
 Coeff-Com:  0.427D+00
 Coeff-En:   0.000D+00 0.000D+00 0.000D+00 0.000D+00 0.000D+00 0.310D-01
 Coeff-En:   0.969D+00
 Coeff:     -0.884D-03 0.959D-03 0.245D-01 0.443D-01 0.194D+00 0.310D+00
 Coeff:      0.428D+00
 Gap=     0.149 Goal=   None    Shift=    0.000
 RMSDP=8.02D-06 MaxDP=2.96D-04 DE=-3.59D-05 OVMax= 7.57D-04

 Initial convergence to 1.0D-05 achieved.  Increase integral accuracy.
 Cycle   8  Pass 1  IDiag  1:
 E= -770.784227347070     Delta-E=       -0.000050398528 Rises=F Damp=F
 DIIS: error= 2.93D-05 at cycle   1 NSaved=   1.
 NSaved= 1 IEnMin= 1 EnMin= -770.784227347070     IErMin= 1 ErrMin= 2.93D-05
 ErrMax= 2.93D-05 EMaxC= 1.00D-01 BMatC= 2.34D-07 BMatP= 2.34D-07
 IDIUse=1 WtCom= 1.00D+00 WtEn= 0.00D+00
 Coeff-Com:  0.100D+01
 Coeff:      0.100D+01
 Gap=     0.149 Goal=   None    Shift=    0.000
 RMSDP=8.02D-06 MaxDP=2.96D-04 DE=-5.04D-05 OVMax= 3.57D-04

 Cycle   9  Pass 1  IDiag  1:
 E= -770.784227106305     Delta-E=        0.000000240766 Rises=F Damp=F
 DIIS: error= 5.01D-05 at cycle   2 NSaved=   2.
 NSaved= 2 IEnMin= 1 EnMin= -770.784227347070     IErMin= 1 ErrMin= 2.93D-05
 ErrMax= 5.01D-05 EMaxC= 1.00D-01 BMatC= 4.68D-07 BMatP= 2.34D-07
 IDIUse=1 WtCom= 1.00D+00 WtEn= 0.00D+00
 Coeff-Com:  0.601D+00 0.399D+00
 Coeff:      0.601D+00 0.399D+00
 Gap=     0.149 Goal=   None    Shift=    0.000
 RMSDP=3.20D-06 MaxDP=1.10D-04 DE= 2.41D-07 OVMax= 2.99D-04

 Cycle  10  Pass 1  IDiag  1:
 E= -770.784227600367     Delta-E=       -0.000000494063 Rises=F Damp=F
 DIIS: error= 1.48D-05 at cycle   3 NSaved=   3.
 NSaved= 3 IEnMin= 3 EnMin= -770.784227600367     IErMin= 3 ErrMin= 1.48D-05
 ErrMax= 1.48D-05 EMaxC= 1.00D-01 BMatC= 3.81D-08 BMatP= 2.34D-07
 IDIUse=1 WtCom= 1.00D+00 WtEn= 0.00D+00
 Coeff-Com:  0.935D-01 0.223D+00 0.683D+00
 Coeff:      0.935D-01 0.223D+00 0.683D+00
 Gap=     0.149 Goal=   None    Shift=    0.000
 RMSDP=9.96D-07 MaxDP=2.89D-05 DE=-4.94D-07 OVMax= 9.11D-05

 Cycle  11  Pass 1  IDiag  1:
 E= -770.784227637621     Delta-E=       -0.000000037254 Rises=F Damp=F
 DIIS: error= 4.77D-06 at cycle   4 NSaved=   4.
 NSaved= 4 IEnMin= 4 EnMin= -770.784227637621     IErMin= 4 ErrMin= 4.77D-06
 ErrMax= 4.77D-06 EMaxC= 1.00D-01 BMatC= 9.12D-09 BMatP= 3.81D-08
 IDIUse=1 WtCom= 1.00D+00 WtEn= 0.00D+00
 Coeff-Com: -0.958D-02 0.967D-01 0.439D+00 0.474D+00
 Coeff:     -0.958D-02 0.967D-01 0.439D+00 0.474D+00
 Gap=     0.149 Goal=   None    Shift=    0.000
 RMSDP=3.23D-07 MaxDP=1.37D-05 DE=-3.73D-08 OVMax= 2.82D-05

 Cycle  12  Pass 1  IDiag  1:
 E= -770.784227646499     Delta-E=       -0.000000008878 Rises=F Damp=F
 DIIS: error= 6.58D-07 at cycle   5 NSaved=   5.
 NSaved= 5 IEnMin= 5 EnMin= -770.784227646499     IErMin= 5 ErrMin= 6.58D-07
 ErrMax= 6.58D-07 EMaxC= 1.00D-01 BMatC= 1.94D-10 BMatP= 9.12D-09
 IDIUse=1 WtCom= 1.00D+00 WtEn= 0.00D+00
 Coeff-Com: -0.851D-02 0.368D-01 0.184D+00 0.229D+00 0.558D+00
 Coeff:     -0.851D-02 0.368D-01 0.184D+00 0.229D+00 0.558D+00
 Gap=     0.149 Goal=   None    Shift=    0.000
 RMSDP=7.10D-08 MaxDP=2.40D-06 DE=-8.88D-09 OVMax= 6.07D-06

 Cycle  13  Pass 1  IDiag  1:
 E= -770.784227646655     Delta-E=       -0.000000000156 Rises=F Damp=F
 DIIS: error= 3.78D-07 at cycle   6 NSaved=   6.
 NSaved= 6 IEnMin= 6 EnMin= -770.784227646655     IErMin= 6 ErrMin= 3.78D-07
 ErrMax= 3.78D-07 EMaxC= 1.00D-01 BMatC= 4.91D-11 BMatP= 1.94D-10
 IDIUse=1 WtCom= 1.00D+00 WtEn= 0.00D+00
 Coeff-Com: -0.452D-02 0.140D-01 0.750D-01 0.993D-01 0.365D+00 0.452D+00
 Coeff:     -0.452D-02 0.140D-01 0.750D-01 0.993D-01 0.365D+00 0.452D+00
 Gap=     0.149 Goal=   None    Shift=    0.000
 RMSDP=2.81D-08 MaxDP=1.04D-06 DE=-1.56D-10 OVMax= 2.16D-06

 Cycle  14  Pass 1  IDiag  1:
 E= -770.784227646724     Delta-E=       -0.000000000069 Rises=F Damp=F
 DIIS: error= 5.02D-08 at cycle   7 NSaved=   7.
 NSaved= 7 IEnMin= 7 EnMin= -770.784227646724     IErMin= 7 ErrMin= 5.02D-08
 ErrMax= 5.02D-08 EMaxC= 1.00D-01 BMatC= 8.35D-13 BMatP= 4.91D-11
 IDIUse=1 WtCom= 1.00D+00 WtEn= 0.00D+00
 Coeff-Com: -0.773D-03 0.143D-02 0.898D-02 0.130D-01 0.745D-01 0.147D+00
 Coeff-Com:  0.756D+00
 Coeff:     -0.773D-03 0.143D-02 0.898D-02 0.130D-01 0.745D-01 0.147D+00
 Coeff:      0.756D+00
 Gap=     0.149 Goal=   None    Shift=    0.000
 RMSDP=6.28D-09 MaxDP=2.21D-07 DE=-6.93D-11 OVMax= 1.02D-06

 SCF Done:  E(RB3LYP) =  -770.784227647     A.U. after   14 cycles
             Convg  =    0.6282D-08             -V/T =  2.0096
 KE= 7.634594649237D+02 PE=-4.274147097779D+03 EE= 1.496541313043D+03
 Leave Link  502 at Tue Sep 28 15:41:51 2021, MaxMem= 1342177280 cpu:     637.1
 (Enter /sw/target/amd/app/gaussian/Gaussian09RevA.02_gcc-4.9.2/g09/l508.exe)
 QCSCF skips out because SCF is already converged.
 Leave Link  508 at Tue Sep 28 15:41:57 2021, MaxMem= 1342177280 cpu:       0.0
 (Enter /sw/target/amd/app/gaussian/Gaussian09RevA.02_gcc-4.9.2/g09/l601.exe)
 Copying SCF densities to generalized density rwf, IOpCl= 0 IROHF=0.

 **********************************************************************

            Population analysis using the SCF density.

 **********************************************************************

 Orbital symmetries:
       Occupied  (A) (A) (A) (A) (A) (A) (A) (A) (A) (A) (A) (A)
                 (A) (A) (A) (A) (A) (A) (A) (A) (A) (A) (A) (A)
                 (A) (A) (A) (A) (A) (A) (A) (A) (A) (A) (A) (A)
                 (A) (A) (A) (A) (A) (A) (A) (A) (A) (A) (A) (A)
                 (A) (A) (A) (A) (A) (A) (A) (A) (A) (A) (A) (A)
                 (A) (A) (A) (A) (A) (A)
       Virtual   (A) (A) (A) (A) (A) (A) (A) (A) (A) (A) (A) (A)
                 (A) (A) (A) (A) (A) (A) (A) (A) (A) (A) (A) (A)
                 (A) (A) (A) (A) (A) (A) (A) (A) (A) (A) (A) (A)
                 (A) (A) (A) (A) (A) (A) (A) (A) (A) (A) (A) (A)
                 (A) (A) (A) (A) (A) (A) (A) (A) (A) (A) (A) (A)
                 (A) (A) (A) (A) (A) (A) (A) (A) (A) (A) (A) (A)
                 (A) (A) (A) (A) (A) (A) (A) (A) (A) (A) (A) (A)
                 (A) (A) (A) (A) (A) (A) (A) (A) (A) (A) (A) (A)
                 (A) (A) (A) (A) (A) (A) (A) (A) (A) (A) (A) (A)
                 (A) (A) (A) (A) (A) (A) (A) (A) (A) (A) (A) (A)
                 (A) (A) (A) (A) (A) (A) (A) (A) (A) (A) (A) (A)
                 (A) (A) (A) (A) (A) (A) (A) (A) (A) (A) (A) (A)
                 (A) (A) (A) (A) (A) (A) (A) (A) (A) (A) (A) (A)
                 (A) (A) (A) (A) (A) (A) (A) (A) (A) (A) (A) (A)
                 (A) (A) (A) (A) (A) (A) (A) (A) (A) (A) (A) (A)
                 (A) (A) (A) (A) (A) (A) (A) (A) (A) (A) (A) (A)
                 (A) (A) (A) (A) (A) (A) (A) (A) (A) (A) (A) (A)
                 (A) (A) (A) (A) (A) (A) (A) (A) (A) (A) (A) (A)
                 (A) (A) (A) (A) (A) (A) (A) (A) (A) (A) (A) (A)
                 (A) (A) (A) (A) (A) (A) (A) (A) (A) (A) (A) (A)
                 (A) (A) (A) (A) (A) (A) (A) (A) (A) (A) (A)
 The electronic state is 1-A.
 Alpha  occ. eigenvalues --  -19.17631 -10.24485 -10.24016 -10.19606 -10.19404
 Alpha  occ. eigenvalues --  -10.19143 -10.19126 -10.19043 -10.18952 -10.18545
 Alpha  occ. eigenvalues --  -10.18532 -10.18526 -10.18465 -10.18330 -10.18285
 Alpha  occ. eigenvalues --  -10.18276 -10.18252 -10.18015 -10.17860  -1.06055
 Alpha  occ. eigenvalues --   -0.87282  -0.85294  -0.81833  -0.77935  -0.76626
 Alpha  occ. eigenvalues --   -0.74171  -0.73669  -0.72499  -0.68654  -0.67679
 Alpha  occ. eigenvalues --   -0.62706  -0.60823  -0.59878  -0.58774  -0.57082
 Alpha  occ. eigenvalues --   -0.52835  -0.51194  -0.51033  -0.48059  -0.46939
 Alpha  occ. eigenvalues --   -0.46216  -0.45488  -0.44523  -0.43966  -0.43209
 Alpha  occ. eigenvalues --   -0.42127  -0.41467  -0.41373  -0.40177  -0.39872
 Alpha  occ. eigenvalues --   -0.39170  -0.38655  -0.37832  -0.35771  -0.35058
 Alpha  occ. eigenvalues --   -0.34498  -0.34174  -0.33365  -0.32778  -0.32311
 Alpha  occ. eigenvalues --   -0.30008  -0.27193  -0.25174  -0.24367  -0.21437
 Alpha  occ. eigenvalues --   -0.19286
 Alpha virt. eigenvalues --   -0.04341  -0.01006   0.00236   0.02468   0.04255
 Alpha virt. eigenvalues --    0.09470   0.10209   0.10869   0.11007   0.11885
 Alpha virt. eigenvalues --    0.12151   0.13460   0.13986   0.14602   0.15288
 Alpha virt. eigenvalues --    0.15410   0.16614   0.16857   0.17804   0.18091
 Alpha virt. eigenvalues --    0.19423   0.20173   0.20955   0.21691   0.22993
 Alpha virt. eigenvalues --    0.23643   0.24086   0.26695   0.28006   0.28666
 Alpha virt. eigenvalues --    0.30604   0.31160   0.33710   0.33872   0.34644
 Alpha virt. eigenvalues --    0.35775   0.37332   0.39876   0.41102   0.47913
 Alpha virt. eigenvalues --    0.48192   0.50208   0.50515   0.50760   0.51307
 Alpha virt. eigenvalues --    0.51827   0.52243   0.53314   0.54342   0.55167
 Alpha virt. eigenvalues --    0.55592   0.56034   0.57302   0.57392   0.57732
 Alpha virt. eigenvalues --    0.57995   0.58525   0.58805   0.59334   0.60293
 Alpha virt. eigenvalues --    0.60581   0.60980   0.61460   0.62285   0.62639
 Alpha virt. eigenvalues --    0.63002   0.63255   0.64303   0.65667   0.66832
 Alpha virt. eigenvalues --    0.67424   0.68522   0.68988   0.70736   0.71677
 Alpha virt. eigenvalues --    0.73153   0.74813   0.74919   0.75954   0.79209
 Alpha virt. eigenvalues --    0.80473   0.81508   0.82699   0.83361   0.83733
 Alpha virt. eigenvalues --    0.84072   0.84168   0.85313   0.86049   0.86447
 Alpha virt. eigenvalues --    0.86825   0.87655   0.87947   0.88681   0.89899
 Alpha virt. eigenvalues --    0.91461   0.91941   0.92383   0.93738   0.95480
 Alpha virt. eigenvalues --    0.95894   0.96233   0.97191   0.99034   0.99851
 Alpha virt. eigenvalues --    1.01073   1.02617   1.03905   1.04715   1.05371
 Alpha virt. eigenvalues --    1.06479   1.09373   1.10604   1.11839   1.13994
 Alpha virt. eigenvalues --    1.15369   1.17635   1.18847   1.19398   1.20061
 Alpha virt. eigenvalues --    1.21569   1.24813   1.24951   1.25733   1.27609
 Alpha virt. eigenvalues --    1.28495   1.33860   1.35052   1.37643   1.39315
 Alpha virt. eigenvalues --    1.39825   1.40463   1.42273   1.44038   1.45215
 Alpha virt. eigenvalues --    1.45694   1.46808   1.47754   1.48294   1.49363
 Alpha virt. eigenvalues --    1.50074   1.51009   1.51411   1.52152   1.52663
 Alpha virt. eigenvalues --    1.53132   1.55676   1.67103   1.69119   1.73878
 Alpha virt. eigenvalues --    1.76423   1.78431   1.80094   1.80793   1.82656
 Alpha virt. eigenvalues --    1.82986   1.86115   1.86745   1.87361   1.88783
 Alpha virt. eigenvalues --    1.90475   1.91054   1.92185   1.92509   1.92952
 Alpha virt. eigenvalues --    1.94083   1.94831   1.96636   1.98235   1.98870
 Alpha virt. eigenvalues --    2.01911   2.02602   2.03376   2.03823   2.05669
 Alpha virt. eigenvalues --    2.09623   2.10595   2.11179   2.11959   2.13171
 Alpha virt. eigenvalues --    2.14160   2.15579   2.16982   2.18420   2.19525
 Alpha virt. eigenvalues --    2.20797   2.23796   2.26228   2.28192   2.28482
 Alpha virt. eigenvalues --    2.29506   2.31249   2.32233   2.32340   2.33905
 Alpha virt. eigenvalues --    2.34015   2.35756   2.36498   2.38282   2.39194
 Alpha virt. eigenvalues --    2.40998   2.44473   2.45573   2.52340   2.56118
 Alpha virt. eigenvalues --    2.56878   2.59842   2.61627   2.63520   2.64871
 Alpha virt. eigenvalues --    2.66348   2.68291   2.69845   2.72432   2.74474
 Alpha virt. eigenvalues --    2.75774   2.77484   2.81416   2.83845   2.84613
 Alpha virt. eigenvalues --    2.86804   2.89882   2.91755   2.95383   2.97916
 Alpha virt. eigenvalues --    3.01675   3.05715   3.16775   3.19869   3.36998
 Alpha virt. eigenvalues --    3.43437   3.52082   4.05563   4.09167   4.10434
 Alpha virt. eigenvalues --    4.11472   4.12019   4.12489   4.13192   4.16695
 Alpha virt. eigenvalues --    4.21112   4.24242   4.29130   4.32049   4.34062
 Alpha virt. eigenvalues --    4.38056   4.40968   4.49138   4.61613   4.73855
 Alpha virt. eigenvalues --    4.86571
          Condensed to atoms (all electrons):
              1          2          3          4          5          6
     1  C    4.895788   0.248212  -0.043733  -0.006368   0.000466  -0.000046
     2  O    0.248212   8.204124   0.272597  -0.060881   0.003541   0.000363
     3  C   -0.043733   0.272597   4.557495   0.421808   0.012869  -0.036670
     4  C   -0.006368  -0.060881   0.421808   5.154089   0.452745  -0.002239
     5  C    0.000466   0.003541   0.012869   0.452745   5.166135   0.443358
     6  C   -0.000046   0.000363  -0.036670  -0.002239   0.443358   4.675142
     7  C   -0.000034   0.001970   0.007968  -0.040707  -0.024206   0.488739
     8  C    0.003985  -0.049244   0.505420  -0.056436  -0.076636  -0.034324
     9  C    0.000004  -0.000081   0.007530  -0.000715   0.018192  -0.035712
    10  C   -0.000000   0.000000  -0.000219   0.000052  -0.000833  -0.028833
    11  C    0.000000  -0.000000   0.000046  -0.000388   0.009283  -0.009155
    12  C   -0.000000   0.000001  -0.000864   0.009978  -0.104900   0.444182
    13  C   -0.000000   0.000000   0.000001  -0.000000  -0.000003   0.000999
    14  C   -0.000000  -0.000000   0.000000  -0.000000   0.000000   0.000003
    15  C    0.000000  -0.000000   0.000000  -0.000000   0.000000   0.000000
    16  C   -0.000000   0.000000  -0.000000   0.000000  -0.000000   0.000000
    17  C    0.000000  -0.000000   0.000000  -0.000000   0.000000  -0.000000
    18  C    0.000000  -0.000000  -0.000000   0.000000   0.000000  -0.000002
    19  C    0.000000   0.000000  -0.000000   0.000000  -0.000000  -0.000000
    20  H    0.384261  -0.031003   0.003313   0.000172   0.000002   0.000000
    21  H    0.364012  -0.035582  -0.005450   0.004626  -0.000140  -0.000003
    22  H    0.364984  -0.036267  -0.004855   0.004321  -0.000155   0.000001
    23  H    0.005884  -0.007140  -0.044478   0.351218  -0.034067   0.002436
    24  H   -0.000006  -0.000047   0.002916  -0.041896   0.353398  -0.036975
    25  H   -0.000215   0.000451  -0.038714   0.007556  -0.000039   0.005220
    26  H    0.000000  -0.000002   0.000098   0.000011  -0.000205   0.004942
    27  H   -0.000000   0.000000  -0.000000   0.000004  -0.000204   0.002754
    28  H    0.000000  -0.000000   0.000010   0.000222  -0.008578  -0.040454
    29  H   -0.000000  -0.000000  -0.000000   0.000000  -0.000000  -0.000011
    30  H   -0.000000   0.000000  -0.000000  -0.000000  -0.000000  -0.000000
    31  H   -0.000000   0.000000  -0.000000   0.000000  -0.000000  -0.000000
    32  H   -0.000000   0.000000  -0.000000   0.000000  -0.000000   0.000003
    33  H    0.000000   0.000000  -0.000000   0.000000   0.000000   0.000000
    34  H    0.000000   0.000000  -0.000000  -0.000000   0.000000   0.000000
    35  H    0.000000   0.000000   0.000000  -0.000000   0.000000  -0.000000
              7          8          9         10         11         12
     1  C   -0.000034   0.003985   0.000004  -0.000000   0.000000  -0.000000
     2  O    0.001970  -0.049244  -0.000081   0.000000  -0.000000   0.000001
     3  C    0.007968   0.505420   0.007530  -0.000219   0.000046  -0.000864
     4  C   -0.040707  -0.056436  -0.000715   0.000052  -0.000388   0.009978
     5  C   -0.024206  -0.076636   0.018192  -0.000833   0.009283  -0.104900
     6  C    0.488739  -0.034324  -0.035712  -0.028833  -0.009155   0.444182
     7  C    4.695631   0.423355   0.398688   0.002846  -0.041987  -0.024164
     8  C    0.423355   5.281605  -0.087166   0.007282  -0.000255   0.017462
     9  C    0.398688  -0.087166   5.332773   0.475879  -0.049565  -0.083358
    10  C    0.002846   0.007282   0.475879   4.803488   0.477552  -0.004787
    11  C   -0.041987  -0.000255  -0.049565   0.477552   5.073669   0.470708
    12  C   -0.024164   0.017462  -0.083358  -0.004787   0.470708   5.170592
    13  C    0.004541  -0.000229  -0.037571   0.340255  -0.047853   0.005893
    14  C   -0.000161   0.000000   0.005978  -0.047128  -0.013579   0.000342
    15  C    0.000001   0.000000  -0.000152   0.005792   0.000324  -0.000004
    16  C   -0.000000  -0.000000   0.000003   0.000695  -0.000002   0.000000
    17  C   -0.000005  -0.000000   0.000282   0.005826  -0.000157   0.000001
    18  C    0.000429  -0.000005  -0.014276  -0.044400   0.006206  -0.000159
    19  C    0.000000  -0.000000   0.000000  -0.000002   0.000000   0.000000
    20  H    0.000001  -0.000084  -0.000000   0.000000   0.000000  -0.000000
    21  H    0.000005   0.000068  -0.000000  -0.000000   0.000000   0.000000
    22  H    0.000003   0.000071  -0.000000  -0.000000   0.000000   0.000000
    23  H    0.001055   0.004055   0.000012  -0.000001   0.000004  -0.000206
    24  H    0.004410   0.000650  -0.000211   0.000019   0.000181  -0.008508
    25  H   -0.041314   0.341762  -0.009100   0.000140   0.000010  -0.000161
    26  H   -0.039900  -0.008265   0.342081  -0.041917   0.006039   0.000373
    27  H    0.000816   0.000011   0.005927  -0.038570   0.346556  -0.038080
    28  H    0.004384  -0.000206   0.000747   0.003020  -0.040229   0.352561
    29  H    0.000006   0.000000  -0.000094  -0.010379   0.005443   0.000051
    30  H   -0.000000   0.000000   0.000001  -0.000163  -0.000002  -0.000000
    31  H    0.000000   0.000000  -0.000001  -0.000172   0.000001  -0.000000
    32  H    0.000055  -0.000012   0.005586  -0.009772  -0.000103  -0.000005
    33  H   -0.000000  -0.000000   0.000000  -0.000000   0.000000   0.000000
    34  H    0.000000  -0.000000  -0.000000   0.000000  -0.000000  -0.000000
    35  H   -0.000000   0.000000  -0.000000   0.000000  -0.000000   0.000000
             13         14         15         16         17         18
     1  C   -0.000000  -0.000000   0.000000  -0.000000   0.000000   0.000000
     2  O    0.000000  -0.000000  -0.000000   0.000000  -0.000000  -0.000000
     3  C    0.000001   0.000000   0.000000  -0.000000   0.000000  -0.000000
     4  C   -0.000000  -0.000000  -0.000000   0.000000  -0.000000   0.000000
     5  C   -0.000003   0.000000   0.000000  -0.000000   0.000000   0.000000
     6  C    0.000999   0.000003   0.000000   0.000000  -0.000000  -0.000002
     7  C    0.004541  -0.000161   0.000001  -0.000000  -0.000005   0.000429
     8  C   -0.000229   0.000000   0.000000  -0.000000  -0.000000  -0.000005
     9  C   -0.037571   0.005978  -0.000152   0.000003   0.000282  -0.014276
    10  C    0.340255  -0.047128   0.005792   0.000695   0.005826  -0.044400
    11  C   -0.047853  -0.013579   0.000324  -0.000002  -0.000157   0.006206
    12  C    0.005893   0.000342  -0.000004   0.000000   0.000001  -0.000159
    13  C    4.756044   0.519089  -0.019743  -0.025370  -0.020498   0.518938
    14  C    0.519089   5.039778   0.486817  -0.026134  -0.051769  -0.054900
    15  C   -0.019743   0.486817   4.966233   0.561867  -0.025598  -0.050444
    16  C   -0.025370  -0.026134   0.561867   4.606636   0.547073  -0.022549
    17  C   -0.020498  -0.051769  -0.025598   0.547073   4.986598   0.488825
    18  C    0.518938  -0.054900  -0.050444  -0.022549   0.488825   5.026641
    19  C    0.000363   0.007982  -0.060117   0.350303  -0.071303   0.007059
    20  H   -0.000000  -0.000000   0.000000  -0.000000   0.000000   0.000000
    21  H    0.000000   0.000000   0.000000   0.000000   0.000000   0.000000
    22  H    0.000000  -0.000000  -0.000000   0.000000  -0.000000  -0.000000
    23  H   -0.000000  -0.000000   0.000000  -0.000000   0.000000   0.000000
    24  H    0.000000  -0.000000  -0.000000   0.000000  -0.000000   0.000000
    25  H   -0.000001   0.000000  -0.000000   0.000000  -0.000000  -0.000002
    26  H   -0.009231  -0.000063  -0.000004  -0.000006  -0.000014   0.005562
    27  H   -0.009552   0.005647   0.000020  -0.000004  -0.000005  -0.000081
    28  H   -0.000172  -0.000001  -0.000000  -0.000000  -0.000000   0.000001
    29  H   -0.039817   0.346135  -0.040984   0.003866   0.000697   0.005999
    30  H    0.003324  -0.042338   0.352973  -0.042228   0.006139   0.000533
    31  H    0.003465   0.000572   0.005804  -0.047760   0.355892  -0.040587
    32  H   -0.039480   0.006137   0.000658   0.003705  -0.041417   0.346371
    33  H    0.000008   0.000167  -0.003043  -0.029510   0.003684  -0.000178
    34  H    0.000036  -0.000222  -0.001014  -0.027560  -0.002614  -0.000110
    35  H    0.000022  -0.000200   0.002238  -0.028663  -0.003095   0.000062
             19         20         21         22         23         24
     1  C    0.000000   0.384261   0.364012   0.364984   0.005884  -0.000006
     2  O    0.000000  -0.031003  -0.035582  -0.036267  -0.007140  -0.000047
     3  C   -0.000000   0.003313  -0.005450  -0.004855  -0.044478   0.002916
     4  C    0.000000   0.000172   0.004626   0.004321   0.351218  -0.041896
     5  C   -0.000000   0.000002  -0.000140  -0.000155  -0.034067   0.353398
     6  C   -0.000000   0.000000  -0.000003   0.000001   0.002436  -0.036975
     7  C    0.000000   0.000001   0.000005   0.000003   0.001055   0.004410
     8  C   -0.000000  -0.000084   0.000068   0.000071   0.004055   0.000650
     9  C    0.000000  -0.000000  -0.000000  -0.000000   0.000012  -0.000211
    10  C   -0.000002   0.000000  -0.000000  -0.000000  -0.000001   0.000019
    11  C    0.000000   0.000000   0.000000   0.000000   0.000004   0.000181
    12  C    0.000000  -0.000000   0.000000   0.000000  -0.000206  -0.008508
    13  C    0.000363  -0.000000   0.000000   0.000000  -0.000000   0.000000
    14  C    0.007982  -0.000000   0.000000  -0.000000  -0.000000  -0.000000
    15  C   -0.060117   0.000000   0.000000  -0.000000   0.000000  -0.000000
    16  C    0.350303  -0.000000   0.000000   0.000000  -0.000000   0.000000
    17  C   -0.071303   0.000000   0.000000  -0.000000   0.000000  -0.000000
    18  C    0.007059   0.000000   0.000000  -0.000000   0.000000   0.000000
    19  C    5.221693   0.000000   0.000000   0.000000  -0.000000   0.000000
    20  H    0.000000   0.542571  -0.033681  -0.034060  -0.000117  -0.000000
    21  H    0.000000  -0.033681   0.597983  -0.046474   0.001876   0.000003
    22  H    0.000000  -0.034060  -0.046474   0.598241   0.001745   0.000001
    23  H   -0.000000  -0.000117   0.001876   0.001745   0.591107  -0.005204
    24  H    0.000000  -0.000000   0.000003   0.000001  -0.005204   0.592515
    25  H    0.000000  -0.000025   0.000031   0.000029  -0.000171   0.000018
    26  H   -0.000000  -0.000000  -0.000000   0.000000  -0.000000   0.000003
    27  H   -0.000000  -0.000000  -0.000000   0.000000  -0.000000  -0.000014
    28  H   -0.000000  -0.000000   0.000000   0.000000  -0.000013   0.006402
    29  H   -0.000212  -0.000000   0.000000  -0.000000  -0.000000   0.000000
    30  H   -0.010353   0.000000  -0.000000   0.000000  -0.000000  -0.000000
    31  H   -0.008745   0.000000  -0.000000   0.000000   0.000000   0.000000
    32  H   -0.000201   0.000000   0.000000  -0.000000  -0.000000   0.000000
    33  H    0.364414   0.000000   0.000000   0.000000   0.000000  -0.000000
    34  H    0.363132   0.000000   0.000000   0.000000  -0.000000  -0.000000
    35  H    0.363838   0.000000   0.000000   0.000000  -0.000000   0.000000
             25         26         27         28         29         30
     1  C   -0.000215   0.000000  -0.000000   0.000000  -0.000000  -0.000000
     2  O    0.000451  -0.000002   0.000000  -0.000000  -0.000000   0.000000
     3  C   -0.038714   0.000098  -0.000000   0.000010  -0.000000  -0.000000
     4  C    0.007556   0.000011   0.000004   0.000222   0.000000  -0.000000
     5  C   -0.000039  -0.000205  -0.000204  -0.008578  -0.000000  -0.000000
     6  C    0.005220   0.004942   0.002754  -0.040454  -0.000011  -0.000000
     7  C   -0.041314  -0.039900   0.000816   0.004384   0.000006  -0.000000
     8  C    0.341762  -0.008265   0.000011  -0.000206   0.000000   0.000000
     9  C   -0.009100   0.342081   0.005927   0.000747  -0.000094   0.000001
    10  C    0.000140  -0.041917  -0.038570   0.003020  -0.010379  -0.000163
    11  C    0.000010   0.006039   0.346556  -0.040229   0.005443  -0.000002
    12  C   -0.000161   0.000373  -0.038080   0.352561   0.000051  -0.000000
    13  C   -0.000001  -0.009231  -0.009552  -0.000172  -0.039817   0.003324
    14  C    0.000000  -0.000063   0.005647  -0.000001   0.346135  -0.042338
    15  C   -0.000000  -0.000004   0.000020  -0.000000  -0.040984   0.352973
    16  C    0.000000  -0.000006  -0.000004  -0.000000   0.003866  -0.042228
    17  C   -0.000000  -0.000014  -0.000005  -0.000000   0.000697   0.006139
    18  C   -0.000002   0.005562  -0.000081   0.000001   0.005999   0.000533
    19  C    0.000000  -0.000000  -0.000000  -0.000000  -0.000212  -0.010353
    20  H   -0.000025  -0.000000  -0.000000  -0.000000  -0.000000   0.000000
    21  H    0.000031  -0.000000  -0.000000   0.000000   0.000000  -0.000000
    22  H    0.000029   0.000000   0.000000   0.000000  -0.000000   0.000000
    23  H   -0.000171  -0.000000  -0.000000  -0.000013  -0.000000  -0.000000
    24  H    0.000018   0.000003  -0.000014   0.006402   0.000000  -0.000000
    25  H    0.594129   0.006372  -0.000000   0.000003   0.000000   0.000000
    26  H    0.006372   0.601998  -0.000181   0.000021   0.000000   0.000000
    27  H   -0.000000  -0.000181   0.600387  -0.005150   0.003151   0.000006
    28  H    0.000003   0.000021  -0.005150   0.599872   0.000007   0.000000
    29  H    0.000000   0.000000   0.003151   0.000007   0.602421  -0.005464
    30  H    0.000000   0.000000   0.000006   0.000000  -0.005464   0.608056
    31  H    0.000000   0.000005   0.000000   0.000000   0.000019  -0.000181
    32  H    0.000004   0.003298   0.000000   0.000000  -0.000173   0.000019
    33  H   -0.000000   0.000000   0.000000  -0.000000  -0.000009   0.006365
    34  H    0.000000   0.000000  -0.000000   0.000000   0.000003   0.000314
    35  H   -0.000000  -0.000000   0.000000  -0.000000   0.000003   0.000058
             31         32         33         34         35
     1  C   -0.000000  -0.000000   0.000000   0.000000   0.000000
     2  O    0.000000   0.000000   0.000000   0.000000   0.000000
     3  C   -0.000000  -0.000000  -0.000000  -0.000000   0.000000
     4  C    0.000000   0.000000   0.000000  -0.000000  -0.000000
     5  C   -0.000000  -0.000000   0.000000   0.000000   0.000000
     6  C   -0.000000   0.000003   0.000000   0.000000  -0.000000
     7  C    0.000000   0.000055  -0.000000   0.000000  -0.000000
     8  C    0.000000  -0.000012  -0.000000  -0.000000   0.000000
     9  C   -0.000001   0.005586   0.000000  -0.000000  -0.000000
    10  C   -0.000172  -0.009772  -0.000000   0.000000   0.000000
    11  C    0.000001  -0.000103   0.000000  -0.000000  -0.000000
    12  C   -0.000000  -0.000005   0.000000  -0.000000   0.000000
    13  C    0.003465  -0.039480   0.000008   0.000036   0.000022
    14  C    0.000572   0.006137   0.000167  -0.000222  -0.000200
    15  C    0.005804   0.000658  -0.003043  -0.001014   0.002238
    16  C   -0.047760   0.003705  -0.029510  -0.027560  -0.028663
    17  C    0.355892  -0.041417   0.003684  -0.002614  -0.003095
    18  C   -0.040587   0.346371  -0.000178  -0.000110   0.000062
    19  C   -0.008745  -0.000201   0.364414   0.363132   0.363838
    20  H    0.000000   0.000000   0.000000   0.000000   0.000000
    21  H   -0.000000   0.000000   0.000000   0.000000   0.000000
    22  H    0.000000  -0.000000   0.000000   0.000000   0.000000
    23  H    0.000000  -0.000000   0.000000  -0.000000  -0.000000
    24  H    0.000000   0.000000  -0.000000  -0.000000   0.000000
    25  H    0.000000   0.000004  -0.000000   0.000000  -0.000000
    26  H    0.000005   0.003298   0.000000   0.000000  -0.000000
    27  H    0.000000   0.000000   0.000000  -0.000000   0.000000
    28  H    0.000000   0.000000  -0.000000   0.000000  -0.000000
    29  H    0.000019  -0.000173  -0.000009   0.000003   0.000003
    30  H   -0.000181   0.000019   0.006365   0.000314   0.000058
    31  H    0.609411  -0.005490   0.000022   0.001087   0.003808
    32  H   -0.005490   0.600372   0.000003   0.000001  -0.000004
    33  H    0.000022   0.000003   0.560761  -0.028104  -0.028406
    34  H    0.001087   0.000001  -0.028104   0.557958  -0.029400
    35  H    0.003808  -0.000004  -0.028406  -0.029400   0.561447
 Mulliken atomic charges:
              1
     1  C   -0.217193
     2  O   -0.511012
     3  C    0.382912
     4  C   -0.197173
     5  C   -0.210022
     6  C    0.156282
     7  C    0.177577
     8  C   -0.272863
     9  C   -0.275680
    10  C    0.104330
    11  C   -0.192745
    12  C   -0.206946
    13  C    0.096540
    14  C   -0.182151
    15  C   -0.181625
    16  C    0.175637
    17  C   -0.178541
    18  C   -0.178933
    19  C   -0.527851
    20  H    0.168651
    21  H    0.152727
    22  H    0.152417
    23  H    0.132006
    24  H    0.132347
    25  H    0.134020
    26  H    0.128983
    27  H    0.126563
    28  H    0.127554
    29  H    0.129340
    30  H    0.122943
    31  H    0.122848
    32  H    0.130446
    33  H    0.153826
    34  H    0.166492
    35  H    0.158294
 Sum of Mulliken atomic charges =  -0.00000
 Mulliken charges with hydrogens summed into heavy atoms:
              1
     1  C    0.256602
     2  O   -0.511012
     3  C    0.382912
     4  C   -0.065167
     5  C   -0.077675
     6  C    0.156282
     7  C    0.177577
     8  C   -0.138843
     9  C   -0.146698
    10  C    0.104330
    11  C   -0.066182
    12  C   -0.079392
    13  C    0.096540
    14  C   -0.052810
    15  C   -0.058682
    16  C    0.175637
    17  C   -0.055694
[...]
    55    C    4  pz     Ryd( 3p)     0.00297
    56    C    4  dxy    Ryd( 3d)     0.00053
    57    C    4  dxz    Ryd( 3d)     0.00043
    58    C    4  dyz    Ryd( 3d)     0.00042
    59    C    4  dx2y2  Ryd( 3d)     0.00079
    60    C    4  dz2    Ryd( 3d)     0.00046

    61    C    5  S      Cor( 1S)     1.99907
    62    C    5  S      Val( 2S)     0.94881
    63    C    5  S      Ryd( 3S)     0.00074
    64    C    5  S      Ryd( 4S)     0.00006
    65    C    5  px     Val( 2p)     1.05705
    66    C    5  px     Ryd( 3p)     0.00435
    67    C    5  py     Val( 2p)     1.18364
    68    C    5  py     Ryd( 3p)     0.00488
    69    C    5  pz     Val( 2p)     0.96429
    70    C    5  pz     Ryd( 3p)     0.00214
    71    C    5  dxy    Ryd( 3d)     0.00067
    72    C    5  dxz    Ryd( 3d)     0.00074
    73    C    5  dyz    Ryd( 3d)     0.00038
    74    C    5  dx2y2  Ryd( 3d)     0.00082
    75    C    5  dz2    Ryd( 3d)     0.00042

    76    C    6  S      Cor( 1S)     1.99902
    77    C    6  S      Val( 2S)     0.86908
    78    C    6  S      Ryd( 3S)     0.00047
    79    C    6  S      Ryd( 4S)     0.00006
    80    C    6  px     Val( 2p)     1.09242
    81    C    6  px     Ryd( 3p)     0.00472
    82    C    6  py     Val( 2p)     1.07973
    83    C    6  py     Ryd( 3p)     0.00527
    84    C    6  pz     Val( 2p)     1.01258
    85    C    6  pz     Ryd( 3p)     0.00111
    86    C    6  dxy    Ryd( 3d)     0.00067
    87    C    6  dxz    Ryd( 3d)     0.00083
    88    C    6  dyz    Ryd( 3d)     0.00048
    89    C    6  dx2y2  Ryd( 3d)     0.00075
    90    C    6  dz2    Ryd( 3d)     0.00034

    91    C    7  S      Cor( 1S)     1.99904
    92    C    7  S      Val( 2S)     0.86852
    93    C    7  S      Ryd( 3S)     0.00052
    94    C    7  S      Ryd( 4S)     0.00007
    95    C    7  px     Val( 2p)     1.09683
    96    C    7  px     Ryd( 3p)     0.00517
    97    C    7  py     Val( 2p)     1.07517
    98    C    7  py     Ryd( 3p)     0.00553
    99    C    7  pz     Val( 2p)     1.00015
   100    C    7  pz     Ryd( 3p)     0.00087
   101    C    7  dxy    Ryd( 3d)     0.00074
   102    C    7  dxz    Ryd( 3d)     0.00103
   103    C    7  dyz    Ryd( 3d)     0.00047
   104    C    7  dx2y2  Ryd( 3d)     0.00068
   105    C    7  dz2    Ryd( 3d)     0.00035

   106    C    8  S      Cor( 1S)     1.99900
   107    C    8  S      Val( 2S)     0.95814
   108    C    8  S      Ryd( 3S)     0.00090
   109    C    8  S      Ryd( 4S)     0.00006
   110    C    8  px     Val( 2p)     1.05372
   111    C    8  px     Ryd( 3p)     0.00408
   112    C    8  py     Val( 2p)     1.19109
   113    C    8  py     Ryd( 3p)     0.00480
   114    C    8  pz     Val( 2p)     0.98761
   115    C    8  pz     Ryd( 3p)     0.00264
   116    C    8  dxy    Ryd( 3d)     0.00056
   117    C    8  dxz    Ryd( 3d)     0.00062
   118    C    8  dyz    Ryd( 3d)     0.00037
   119    C    8  dx2y2  Ryd( 3d)     0.00088
   120    C    8  dz2    Ryd( 3d)     0.00044

   121    C    9  S      Cor( 1S)     1.99902
   122    C    9  S      Val( 2S)     0.93403
   123    C    9  S      Ryd( 3S)     0.00066
   124    C    9  S      Ryd( 4S)     0.00006
   125    C    9  px     Val( 2p)     1.04486
   126    C    9  px     Ryd( 3p)     0.00301
   127    C    9  py     Val( 2p)     1.18760
   128    C    9  py     Ryd( 3p)     0.00456
   129    C    9  pz     Val( 2p)     1.03761
   130    C    9  pz     Ryd( 3p)     0.00313
   131    C    9  dxy    Ryd( 3d)     0.00063
   132    C    9  dxz    Ryd( 3d)     0.00060
   133    C    9  dyz    Ryd( 3d)     0.00036
   134    C    9  dx2y2  Ryd( 3d)     0.00082
   135    C    9  dz2    Ryd( 3d)     0.00041

   136    C   10  S      Cor( 1S)     1.99903
   137    C   10  S      Val( 2S)     0.86747
   138    C   10  S      Ryd( 3S)     0.00060
   139    C   10  S      Ryd( 4S)     0.00006
   140    C   10  px     Val( 2p)     1.07694
   141    C   10  px     Ryd( 3p)     0.00519
   142    C   10  py     Val( 2p)     1.07848
   143    C   10  py     Ryd( 3p)     0.00506
   144    C   10  pz     Val( 2p)     1.04275
   145    C   10  pz     Ryd( 3p)     0.00255
   146    C   10  dxy    Ryd( 3d)     0.00074
   147    C   10  dxz    Ryd( 3d)     0.00082
   148    C   10  dyz    Ryd( 3d)     0.00046
   149    C   10  dx2y2  Ryd( 3d)     0.00069
   150    C   10  dz2    Ryd( 3d)     0.00034

   151    C   11  S      Cor( 1S)     1.99907
   152    C   11  S      Val( 2S)     0.95974
   153    C   11  S      Ryd( 3S)     0.00072
   154    C   11  S      Ryd( 4S)     0.00006
   155    C   11  px     Val( 2p)     1.13252
   156    C   11  px     Ryd( 3p)     0.00372
   157    C   11  py     Val( 2p)     1.11725
   158    C   11  py     Ryd( 3p)     0.00466
   159    C   11  pz     Val( 2p)     0.92215
   160    C   11  pz     Ryd( 3p)     0.00102
   161    C   11  dxy    Ryd( 3d)     0.00092
   162    C   11  dxz    Ryd( 3d)     0.00068
   163    C   11  dyz    Ryd( 3d)     0.00050
   164    C   11  dx2y2  Ryd( 3d)     0.00063
   165    C   11  dz2    Ryd( 3d)     0.00041

   166    C   12  S      Cor( 1S)     1.99907
   167    C   12  S      Val( 2S)     0.94854
   168    C   12  S      Ryd( 3S)     0.00072
   169    C   12  S      Ryd( 4S)     0.00005
   170    C   12  px     Val( 2p)     1.06740
   171    C   12  px     Ryd( 3p)     0.00426
   172    C   12  py     Val( 2p)     1.17561
   173    C   12  py     Ryd( 3p)     0.00480
   174    C   12  pz     Val( 2p)     1.01979
   175    C   12  pz     Ryd( 3p)     0.00248
   176    C   12  dxy    Ryd( 3d)     0.00071
   177    C   12  dxz    Ryd( 3d)     0.00060
   178    C   12  dyz    Ryd( 3d)     0.00030
   179    C   12  dx2y2  Ryd( 3d)     0.00078
   180    C   12  dz2    Ryd( 3d)     0.00040

   181    C   13  S      Cor( 1S)     1.99901
   182    C   13  S      Val( 2S)     0.86493
   183    C   13  S      Ryd( 3S)     0.00056
   184    C   13  S      Ryd( 4S)     0.00006
   185    C   13  px     Val( 2p)     1.06215
   186    C   13  px     Ryd( 3p)     0.00489
   187    C   13  py     Val( 2p)     1.08263
   188    C   13  py     Ryd( 3p)     0.00532
   189    C   13  pz     Val( 2p)     1.05934
   190    C   13  pz     Ryd( 3p)     0.00198
   191    C   13  dxy    Ryd( 3d)     0.00062
   192    C   13  dxz    Ryd( 3d)     0.00075
   193    C   13  dyz    Ryd( 3d)     0.00044
   194    C   13  dx2y2  Ryd( 3d)     0.00066
   195    C   13  dz2    Ryd( 3d)     0.00047

   196    C   14  S      Cor( 1S)     1.99905
   197    C   14  S      Val( 2S)     0.94389
   198    C   14  S      Ryd( 3S)     0.00064
   199    C   14  S      Ryd( 4S)     0.00005
   200    C   14  px     Val( 2p)     1.07296
   201    C   14  px     Ryd( 3p)     0.00349
   202    C   14  py     Val( 2p)     1.14267
   203    C   14  py     Ryd( 3p)     0.00401
   204    C   14  pz     Val( 2p)     1.05692
   205    C   14  pz     Ryd( 3p)     0.00203
   206    C   14  dxy    Ryd( 3d)     0.00066
   207    C   14  dxz    Ryd( 3d)     0.00061
   208    C   14  dyz    Ryd( 3d)     0.00052
   209    C   14  dx2y2  Ryd( 3d)     0.00064
   210    C   14  dz2    Ryd( 3d)     0.00037

   211    C   15  S      Cor( 1S)     1.99903
   212    C   15  S      Val( 2S)     0.94711
   213    C   15  S      Ryd( 3S)     0.00060
   214    C   15  S      Ryd( 4S)     0.00005
   215    C   15  px     Val( 2p)     1.11803
   216    C   15  px     Ryd( 3p)     0.00406
   217    C   15  py     Val( 2p)     1.09868
   218    C   15  py     Ryd( 3p)     0.00358
   219    C   15  pz     Val( 2p)     1.05312
   220    C   15  pz     Ryd( 3p)     0.00192
   221    C   15  dxy    Ryd( 3d)     0.00074
   222    C   15  dxz    Ryd( 3d)     0.00064
   223    C   15  dyz    Ryd( 3d)     0.00053
   224    C   15  dx2y2  Ryd( 3d)     0.00059
   225    C   15  dz2    Ryd( 3d)     0.00037

   226    C   16  S      Cor( 1S)     1.99903
   227    C   16  S      Val( 2S)     0.88026
   228    C   16  S      Ryd( 3S)     0.00043
   229    C   16  S      Ryd( 4S)     0.00005
   230    C   16  px     Val( 2p)     1.05752
   231    C   16  px     Ryd( 3p)     0.00459
   232    C   16  py     Val( 2p)     1.07046
   233    C   16  py     Ryd( 3p)     0.00371
   234    C   16  pz     Val( 2p)     1.04176
   235    C   16  pz     Ryd( 3p)     0.00276
   236    C   16  dxy    Ryd( 3d)     0.00072
   237    C   16  dxz    Ryd( 3d)     0.00059
   238    C   16  dyz    Ryd( 3d)     0.00045
   239    C   16  dx2y2  Ryd( 3d)     0.00063
   240    C   16  dz2    Ryd( 3d)     0.00045

   241    C   17  S      Cor( 1S)     1.99903
   242    C   17  S      Val( 2S)     0.94728
   243    C   17  S      Ryd( 3S)     0.00060
   244    C   17  S      Ryd( 4S)     0.00005
   245    C   17  px     Val( 2p)     1.07651
   246    C   17  px     Ryd( 3p)     0.00370
   247    C   17  py     Val( 2p)     1.13963
   248    C   17  py     Ryd( 3p)     0.00395
   249    C   17  pz     Val( 2p)     1.05113
   250    C   17  pz     Ryd( 3p)     0.00181
   251    C   17  dxy    Ryd( 3d)     0.00069
   252    C   17  dxz    Ryd( 3d)     0.00059
   253    C   17  dyz    Ryd( 3d)     0.00055
   254    C   17  dx2y2  Ryd( 3d)     0.00065
   255    C   17  dz2    Ryd( 3d)     0.00039

   256    C   18  S      Cor( 1S)     1.99905
   257    C   18  S      Val( 2S)     0.94373
   258    C   18  S      Ryd( 3S)     0.00064
   259    C   18  S      Ryd( 4S)     0.00005
   260    C   18  px     Val( 2p)     1.12006
   261    C   18  px     Ryd( 3p)     0.00379
   262    C   18  py     Val( 2p)     1.09403
   263    C   18  py     Ryd( 3p)     0.00381
   264    C   18  pz     Val( 2p)     1.06108
   265    C   18  pz     Ryd( 3p)     0.00218
   266    C   18  dxy    Ryd( 3d)     0.00071
   267    C   18  dxz    Ryd( 3d)     0.00064
   268    C   18  dyz    Ryd( 3d)     0.00054
   269    C   18  dx2y2  Ryd( 3d)     0.00055
   270    C   18  dz2    Ryd( 3d)     0.00033

   271    C   19  S      Cor( 1S)     1.99940
   272    C   19  S      Val( 2S)     1.09418
   273    C   19  S      Ryd( 3S)     0.00018
   274    C   19  S      Ryd( 4S)     0.00001
   275    C   19  px     Val( 2p)     1.10367
   276    C   19  px     Ryd( 3p)     0.00091
   277    C   19  py     Val( 2p)     1.23607
   278    C   19  py     Ryd( 3p)     0.00188
   279    C   19  pz     Val( 2p)     1.24246
   280    C   19  pz     Ryd( 3p)     0.00083
   281    C   19  dxy    Ryd( 3d)     0.00084
   282    C   19  dxz    Ryd( 3d)     0.00045
   283    C   19  dyz    Ryd( 3d)     0.00096
   284    C   19  dx2y2  Ryd( 3d)     0.00049
   285    C   19  dz2    Ryd( 3d)     0.00063

   286    H   20  S      Val( 1S)     0.76436
   287    H   20  S      Ryd( 2S)     0.00049

   288    H   21  S      Val( 1S)     0.78092
   289    H   21  S      Ryd( 2S)     0.00166

   290    H   22  S      Val( 1S)     0.78100
   291    H   22  S      Ryd( 2S)     0.00165

   292    H   23  S      Val( 1S)     0.76273
   293    H   23  S      Ryd( 2S)     0.00084

   294    H   24  S      Val( 1S)     0.76222
   295    H   24  S      Ryd( 2S)     0.00109

   296    H   25  S      Val( 1S)     0.75030
   297    H   25  S      Ryd( 2S)     0.00153

   298    H   26  S      Val( 1S)     0.76636
   299    H   26  S      Ryd( 2S)     0.00132

   300    H   27  S      Val( 1S)     0.75892
   301    H   27  S      Ryd( 2S)     0.00103

   302    H   28  S      Val( 1S)     0.76630
   303    H   28  S      Ryd( 2S)     0.00112

   304    H   29  S      Val( 1S)     0.77285
   305    H   29  S      Ryd( 2S)     0.00115

   306    H   30  S      Val( 1S)     0.77270
   307    H   30  S      Ryd( 2S)     0.00108

   308    H   31  S      Val( 1S)     0.77280
   309    H   31  S      Ryd( 2S)     0.00111

   310    H   32  S      Val( 1S)     0.77101
   311    H   32  S      Ryd( 2S)     0.00122

   312    H   33  S      Val( 1S)     0.76618
   313    H   33  S      Ryd( 2S)     0.00096

   314    H   34  S      Val( 1S)     0.76297
   315    H   34  S      Ryd( 2S)     0.00134

   316    H   35  S      Val( 1S)     0.76532
   317    H   35  S      Ryd( 2S)     0.00102

 WARNING:  1 low occupancy (<1.9990e) core orbital  found on  C    3
           1 low occupancy (<1.9990e) core orbital  found on  C    8


 Summary of Natural Population Analysis:                  
                                                          
                                       Natural Population 
                Natural  -----------------------------------------------
    Atom  No    Charge         Core      Valence    Rydberg      Total
 -----------------------------------------------------------------------
      C    1   -0.32386      1.99942     4.31046    0.01399     6.32386
      O    2   -0.45459      1.99975     6.44327    0.01158     8.45459
      C    3    0.36422      1.99880     3.61473    0.02225     5.63578
      C    4   -0.38106      1.99905     4.36766    0.01436     6.38106
      C    5   -0.16807      1.99907     4.15380    0.01520     6.16807
      C    6   -0.06754      1.99902     4.05382    0.01470     6.06754
      C    7   -0.05514      1.99904     4.04068    0.01542     6.05514
      C    8   -0.20490      1.99900     4.19056    0.01535     6.20490
      C    9   -0.21735      1.99902     4.20410    0.01423     6.21735
      C   10   -0.08118      1.99903     4.06564    0.01651     6.08118
      C   11   -0.14404      1.99907     4.13166    0.01332     6.14404
      C   12   -0.22551      1.99907     4.21133    0.01512     6.22551
      C   13   -0.08381      1.99901     4.06905    0.01575     6.08381
      C   14   -0.22851      1.99905     4.21643    0.01302     6.22851
      C   15   -0.22904      1.99903     4.21694    0.01307     6.22904
      C   16   -0.06341      1.99903     4.05001    0.01437     6.06341
      C   17   -0.22656      1.99903     4.21455    0.01298     6.22656
      C   18   -0.23119      1.99905     4.21890    0.01324     6.23119
      C   19   -0.68294      1.99940     4.67638    0.00716     6.68294
      H   20    0.23515      0.00000     0.76436    0.00049     0.76485
      H   21    0.21742      0.00000     0.78092    0.00166     0.78258
      H   22    0.21735      0.00000     0.78100    0.00165     0.78265
      H   23    0.23644      0.00000     0.76273    0.00084     0.76356
      H   24    0.23669      0.00000     0.76222    0.00109     0.76331
      H   25    0.24817      0.00000     0.75030    0.00153     0.75183
      H   26    0.23232      0.00000     0.76636    0.00132     0.76768
      H   27    0.24005      0.00000     0.75892    0.00103     0.75995
      H   28    0.23258      0.00000     0.76630    0.00112     0.76742
      H   29    0.22599      0.00000     0.77285    0.00115     0.77401
      H   30    0.22622      0.00000     0.77270    0.00108     0.77378
      H   31    0.22609      0.00000     0.77280    0.00111     0.77391
      H   32    0.22777      0.00000     0.77101    0.00122     0.77223
      H   33    0.23286      0.00000     0.76618    0.00096     0.76714
      H   34    0.23569      0.00000     0.76297    0.00134     0.76431
      H   35    0.23366      0.00000     0.76532    0.00102     0.76634
 =======================================================================
   * Total *   -0.00000     37.98290    93.72688    0.29022   132.00000

                                 Natural Population      
 --------------------------------------------------------
   Core                      37.98290 ( 99.9550% of  38)
   Valence                   93.72688 ( 99.7094% of  94)
   Natural Minimal Basis    131.70978 ( 99.7801% of 132)
   Natural Rydberg Basis      0.29022 (  0.2199% of 132)
 --------------------------------------------------------

    Atom  No          Natural Electron Configuration
 ----------------------------------------------------------------------------
      C    1      [core]2S( 1.10)2p( 3.21)3p( 0.01)3d( 0.01)
      O    2      [core]2S( 1.60)2p( 4.85)3p( 0.01)3d( 0.01)
      C    3      [core]2S( 0.84)2p( 2.77)3p( 0.01)3d( 0.01)
      C    4      [core]2S( 0.95)2p( 3.41)3p( 0.01)
      C    5      [core]2S( 0.95)2p( 3.20)3p( 0.01)
      C    6      [core]2S( 0.87)2p( 3.18)3p( 0.01)
      C    7      [core]2S( 0.87)2p( 3.17)3p( 0.01)
      C    8      [core]2S( 0.96)2p( 3.23)3p( 0.01)
      C    9      [core]2S( 0.93)2p( 3.27)3p( 0.01)
      C   10      [core]2S( 0.87)2p( 3.20)3p( 0.01)
      C   11      [core]2S( 0.96)2p( 3.17)3p( 0.01)
      C   12      [core]2S( 0.95)2p( 3.26)3p( 0.01)
      C   13      [core]2S( 0.86)2p( 3.20)3p( 0.01)
      C   14      [core]2S( 0.94)2p( 3.27)3p( 0.01)
      C   15      [core]2S( 0.95)2p( 3.27)3p( 0.01)
      C   16      [core]2S( 0.88)2p( 3.17)3p( 0.01)
      C   17      [core]2S( 0.95)2p( 3.27)3p( 0.01)
      C   18      [core]2S( 0.94)2p( 3.28)3p( 0.01)
      C   19      [core]2S( 1.09)2p( 3.58)
      H   20            1S( 0.76)
      H   21            1S( 0.78)
      H   22            1S( 0.78)
      H   23            1S( 0.76)
      H   24            1S( 0.76)
      H   25            1S( 0.75)
      H   26            1S( 0.77)
      H   27            1S( 0.76)
      H   28            1S( 0.77)
      H   29            1S( 0.77)
      H   30            1S( 0.77)
      H   31            1S( 0.77)
      H   32            1S( 0.77)
      H   33            1S( 0.77)
      H   34            1S( 0.76)
      H   35            1S( 0.77)


 NBO analysis skipped by request.
 Leave Link  607 at Wed Sep 29 01:37:44 2021, MaxMem= 1342177280 cpu:      22.8
 (Enter /sw/target/amd/app/gaussian/Gaussian09RevA.02_gcc-4.9.2/g09/l9999.exe)
 1\1\GINC-HERMITE\SP\RTD-B3LYP-FC\6-31G(d)\C18H16O1\JSCHLEINITZ\29-Sep-
 2021\0\\#p TD(NStates=10, Root=1) b3lyp/6-31G* volume pop=NPA density=
 current Geom=AllCheck Guess=Read\\COc1ccc2c(c1)cc(cc2)c1ccc(cc1)C_conf
 _0\\0,1\C,0,1.1757686317,-0.1308375008,-0.8028360168\O,0,2.363829401,-
 0.6945626854,-0.2724521189\C,0,3.1481439523,-1.4627427726,-1.087514062
 2\C,0,2.8440963349,-1.7302912534,-2.4483867125\C,0,3.6911073961,-2.518
 9733545,-3.1978271518\C,0,4.8686495502,-3.0759503165,-2.6436086964\C,0
 ,5.1747823549,-2.7994719699,-1.2705251424\C,0,4.2926455292,-1.99024031
 99,-0.5167452136\C,0,6.3539377685,-3.3584662471,-0.7073783716\C,0,7.21
 02694512,-4.1569780078,-1.4455459498\C,0,6.8894260426,-4.4200958102,-2
 .812110504\C,0,5.758526432,-3.8958246575,-3.3880058901\C,0,8.434426069
 1,-4.7375806389,-0.838792999\C,0,8.8670264257,-6.0315044519,-1.1720028
 348\C,0,10.0123782996,-6.5782362873,-0.5970670059\C,0,10.7734086101,-5
 .8589764694,0.3326119626\C,0,10.3471272816,-4.5648841007,0.6603103195\
 C,0,9.2031429848,-4.0141647558,0.0885020383\C,0,11.9981950092,-6.46412
 60453,0.9774653152\H,0,0.7204379007,0.4283726738,0.0168063023\H,0,0.47
 44261506,-0.9041729606,-1.143561148\H,0,1.3859447291,0.5562028439,-1.6
 334395944\H,0,1.9504036367,-1.3206366917,-2.9049727042\H,0,3.453832362
 5,-2.7218657721,-4.2396590885\H,0,4.5052349797,-1.7727231747,0.5259353
 916\H,0,6.5623453011,-3.1698659109,0.3427036337\H,0,7.5697552524,-5.02
 24763499,-3.4068748389\H,0,5.534449133,-4.0968383569,-4.4333677012\H,0
 ,8.2872269213,-6.6261809302,-1.8726290994\H,0,10.3174223989,-7.5857969
 506,-0.8718166728\H,0,10.9270038206,-3.9739273685,1.3663156935\H,0,8.9
 158235206,-2.9971996527,0.3408546391\H,0,12.4426301622,-7.2400766894,0
 .3451588031\H,0,11.752436796,-6.9308589663,1.941067502\H,0,12.76518254
 8,-5.7065597904,1.1726992376\\Version=AM64L-G09RevA.02\State=1-A\HF=-7
 70.7896613\RMSD=7.668e-09\Dipole=-2.0555298,1.1486207,-0.426066\Quadru
 pole=6.6188951,-2.3116589,-4.3072361,-10.9556065,2.638285,2.5953545\PG
 =C01 [X(C18H16O1)]\\@


 THERE'S NOTHING WRONG WITH FOLLOWING A TRAIN OF THOUGHT...
 AS LONG AS IT ULTIMATELY PULLS INTO THE STATION.
 Job cpu time:  0 days  5 hours 11 minutes 37.6 seconds.
 File lengths (MBytes):  RWF=    320 Int=      0 D2E=      0 Chk=     45 Scr=      1
 Normal termination of Gaussian 09 at Wed Sep 29 01:37:50 2021.
