 Entering Gaussian System, Link 0=g09
 Input=C18H23NO2_23f2_conf_0.com
 Output=C18H23NO2_23f2_conf_0.log
 Initial command:
 /sw/target/amd/app/gaussian/Gaussian09RevA.02_gcc-4.9.2/g09/l1.exe /home/jschleinitz/gaussian/Gau-2064209.inp -scrdir=/home/jschleinitz/gaussian/
 Entering Link 1 = /sw/target/amd/app/gaussian/Gaussian09RevA.02_gcc-4.9.2/g09/l1.exe PID=   2064211.
  
 Copyright (c) 1988,1990,1992,1993,1995,1998,2003,2009, Gaussian, Inc.
                  All Rights Reserved.
  
 This is part of the Gaussian(R) 09 program.  It is based on
 the Gaussian(R) 03 system (copyright 2003, Gaussian, Inc.),
 the Gaussian(R) 98 system (copyright 1998, Gaussian, Inc.),
 the Gaussian(R) 94 system (copyright 1995, Gaussian, Inc.),
 the Gaussian 92(TM) system (copyright 1992, Gaussian, Inc.),
 the Gaussian 90(TM) system (copyright 1990, Gaussian, Inc.),
 the Gaussian 88(TM) system (copyright 1988, Gaussian, Inc.),
 the Gaussian 86(TM) system (copyright 1986, Carnegie Mellon
 University), and the Gaussian 82(TM) system (copyright 1983,
 Carnegie Mellon University). Gaussian is a federally registered
 trademark of Gaussian, Inc.
  
 This software contains proprietary and confidential information,
 including trade secrets, belonging to Gaussian, Inc.
  
 This software is provided under written license and may be
 used, copied, transmitted, or stored only in accord with that
 written license.
  
 The following legend is applicable only to US Government
 contracts under FAR:
  
                    RESTRICTED RIGHTS LEGEND
  
 Use, reproduction and disclosure by the US Government is
 subject to restrictions as set forth in subparagraphs (a)
 and (c) of the Commercial Computer Software - Restricted
 Rights clause in FAR 52.227-19.
  
 Gaussian, Inc.
 340 Quinnipiac St., Bldg. 40, Wallingford CT 06492
  
  
 ---------------------------------------------------------------
 Warning -- This program may not be used in any manner that
 competes with the business of Gaussian, Inc. or will provide
 assistance to any competitor of Gaussian, Inc.  The licensee
 of this program is prohibited from giving any competitor of
 Gaussian, Inc. access to this program.  By using this program,
 the user acknowledges that Gaussian, Inc. is engaged in the
 business of creating and licensing software in the field of
 computational chemistry and represents and warrants to the
 licensee that it is not a competitor of Gaussian, Inc. and that
 it will not use this program in any manner prohibited above.
 ---------------------------------------------------------------
  

 Cite this work as:
 Gaussian 09, Revision A.02,
 M. J. Frisch, G. W. Trucks, H. B. Schlegel, G. E. Scuseria, 
 M. A. Robb, J. R. Cheeseman, G. Scalmani, V. Barone, B. Mennucci, 
 G. A. Petersson, H. Nakatsuji, M. Caricato, X. Li, H. P. Hratchian, 
 A. F. Izmaylov, J. Bloino, G. Zheng, J. L. Sonnenberg, M. Hada, 
 M. Ehara, K. Toyota, R. Fukuda, J. Hasegawa, M. Ishida, T. Nakajima, 
 Y. Honda, O. Kitao, H. Nakai, T. Vreven, J. A. Montgomery, Jr., 
 J. E. Peralta, F. Ogliaro, M. Bearpark, J. J. Heyd, E. Brothers, 
 K. N. Kudin, V. N. Staroverov, R. Kobayashi, J. Normand, 
 K. Raghavachari, A. Rendell, J. C. Burant, S. S. Iyengar, J. Tomasi, 
 M. Cossi, N. Rega, J. M. Millam, M. Klene, J. E. Knox, J. B. Cross, 
 V. Bakken, C. Adamo, J. Jaramillo, R. Gomperts, R. E. Stratmann, 
 O. Yazyev, A. J. Austin, R. Cammi, C. Pomelli, J. W. Ochterski, 
 R. L. Martin, K. Morokuma, V. G. Zakrzewski, G. A. Voth, 
 P. Salvador, J. J. Dannenberg, S. Dapprich, A. D. Daniels, 
 O. Farkas, J. B. Foresman, J. V. Ortiz, J. Cioslowski, 
 and D. J. Fox, Gaussian, Inc., Wallingford CT, 2009.
 
 ******************************************
 Gaussian 09:  AM64L-G09RevA.02 11-Jun-2009
                30-Sep-2021 
 ******************************************
 %nproc=7
 Will use up to    7 processors via shared memory.
 %mem=14gb
 %chk=C18H23NO2_23f2_conf_0.chk
 -----------------------------------
 #p opt b3lyp/6-31G* scf=(xqc,tight)
 -----------------------------------
 1/14=-1,18=20,19=15,26=3,38=1/1,3;
 2/9=110,12=2,17=6,18=5,40=1/2;
 3/5=1,6=6,7=1,11=2,16=1,25=1,30=1,71=1,74=-5/1,2,3;
 4//1;
 5/5=2,8=3,13=1,32=2,38=5/2,8;
 6/7=2,8=2,9=2,10=2,28=1/1;
 7//1,2,3,16;
 1/14=-1,18=20,19=15/3(2);
 2/9=110/2;
 99//99;
 2/9=110/2;
 3/5=1,6=6,7=1,11=2,16=1,25=1,30=1,71=1,74=-5/1,2,3;
 4/5=5,16=3/1;
 5/5=2,8=3,13=1,32=2,38=5/2,8;
 7//1,2,3,16;
 1/14=-1,18=20,19=15/3(-5);
 2/9=110/2;
 6/7=2,8=2,9=2,10=2,19=2,28=1/1;
 99/9=1/99;
 Leave Link    1 at Thu Sep 30 06:48:19 2021, MaxMem= 1879048192 cpu:       0.1
 (Enter /sw/target/amd/app/gaussian/Gaussian09RevA.02_gcc-4.9.2/g09/l101.exe)
 ---------------------------------------------
 COc1ccc2c(c1)ccc(c2)C(=O)N(C(C)C)C(C)C_conf_0
 ---------------------------------------------
 Symbolic Z-matrix:
 Charge =  0 Multiplicity = 1
 C                     5.05197  -11.48129  -6.01517 
 O                     5.75636  -10.26779  -6.25652 
 C                     5.69852  -9.34114  -5.2524 
 C                     5.5923   -9.63173  -3.8945 
 C                     5.57824  -8.59359  -2.95356 
 C                     5.63818  -7.24964  -3.35677 
 C                     5.73029  -6.95924  -4.73288 
 C                     5.79447  -8.00998  -5.66364 
 C                     5.75433  -5.62242  -5.14663 
 C                     5.62185  -4.59172  -4.21266 
 C                     5.51103  -4.85642  -2.83732 
 C                     5.60433  -6.18959  -2.42188 
 C                     5.42527  -3.66519  -1.92597 
 O                     5.85331  -2.61255  -2.40052 
 N                     4.91806  -3.72007  -0.60126 
 C                     3.84991  -4.67941  -0.18727 
 C                     3.73596  -4.88604   1.32849 
 C                     2.48306  -4.34678  -0.79041 
 C                     5.1195   -2.50098   0.23938 
 C                     6.5389   -1.90792   0.16947 
 C                     4.07968  -1.4066   -0.01343 
 H                     5.06347  -12.06268  -6.94285 
 H                     4.00563  -11.28492  -5.75648 
 H                     5.54189  -12.084   -5.24467 
 H                     5.53981  -10.65415  -3.53638 
 H                     5.49628  -8.84906  -1.89917 
 H                     5.89558  -7.79748  -6.72552 
 H                     5.86078  -5.3699   -6.19966 
 H                     5.63116  -3.56359  -4.57165 
 H                     5.67699  -6.43352  -1.36782 
 H                     4.09401  -5.6594   -0.58164 
 H                     3.32829  -4.00494   1.83466 
 H                     4.71432  -5.11634   1.76509 
 H                     3.06677  -5.72322   1.55375 
 H                     2.07669  -3.40749  -0.41138 
 H                     1.75957  -5.13291  -0.54484 
 H                     2.53791  -4.27472  -1.88102 
 H                     5.02718  -2.81459   1.28177 
 H                     6.75925  -1.35663   1.09079 
 H                     6.64619  -1.18901  -0.65045 
 H                     7.29881  -2.68668   0.05389 
 H                     3.09012  -1.71735   0.33139 
 H                     4.00215  -1.1522   -1.07472 
 H                     4.32968  -0.49437   0.54012 
 
 NAtoms=     44 NQM=     44 NQMF=      0 NMic=      0 NMicF=      0 NTot=     44.
                    Isotopes and Nuclear Properties:
 (Nuclear quadrupole moments (NQMom) in fm**2, nuclear magnetic moments (NMagM)
  in nuclear magnetons)

  Atom         1           2           3           4           5           6           7           8           9          10
 IAtWgt=          12          16          12          12          12          12          12          12          12          12
 AtmWgt=  12.0000000  15.9949146  12.0000000  12.0000000  12.0000000  12.0000000  12.0000000  12.0000000  12.0000000  12.0000000
 NucSpn=           0           0           0           0           0           0           0           0           0           0
 AtZEff=   0.0000000   0.0000000   0.0000000   0.0000000   0.0000000   0.0000000   0.0000000   0.0000000   0.0000000   0.0000000
 NQMom=    0.0000000   0.0000000   0.0000000   0.0000000   0.0000000   0.0000000   0.0000000   0.0000000   0.0000000   0.0000000
 NMagM=    0.0000000   0.0000000   0.0000000   0.0000000   0.0000000   0.0000000   0.0000000   0.0000000   0.0000000   0.0000000

  Atom        11          12          13          14          15          16          17          18          19          20
 IAtWgt=          12          12          12          16          14          12          12          12          12          12
 AtmWgt=  12.0000000  12.0000000  12.0000000  15.9949146  14.0030740  12.0000000  12.0000000  12.0000000  12.0000000  12.0000000
 NucSpn=           0           0           0           0           2           0           0           0           0           0
 AtZEff=   0.0000000   0.0000000   0.0000000   0.0000000   0.0000000   0.0000000   0.0000000   0.0000000   0.0000000   0.0000000
 NQMom=    0.0000000   0.0000000   0.0000000   0.0000000   2.0440000   0.0000000   0.0000000   0.0000000   0.0000000   0.0000000
 NMagM=    0.0000000   0.0000000   0.0000000   0.0000000   0.4037610   0.0000000   0.0000000   0.0000000   0.0000000   0.0000000

  Atom        21          22          23          24          25          26          27          28          29          30
 IAtWgt=          12           1           1           1           1           1           1           1           1           1
 AtmWgt=  12.0000000   1.0078250   1.0078250   1.0078250   1.0078250   1.0078250   1.0078250   1.0078250   1.0078250   1.0078250
 NucSpn=           0           1           1           1           1           1           1           1           1           1
 AtZEff=   0.0000000   0.0000000   0.0000000   0.0000000   0.0000000   0.0000000   0.0000000   0.0000000   0.0000000   0.0000000
 NQMom=    0.0000000   0.0000000   0.0000000   0.0000000   0.0000000   0.0000000   0.0000000   0.0000000   0.0000000   0.0000000
 NMagM=    0.0000000   2.7928460   2.7928460   2.7928460   2.7928460   2.7928460   2.7928460   2.7928460   2.7928460   2.7928460

  Atom        31          32          33          34          35          36          37          38          39          40
 IAtWgt=           1           1           1           1           1           1           1           1           1           1
 AtmWgt=   1.0078250   1.0078250   1.0078250   1.0078250   1.0078250   1.0078250   1.0078250   1.0078250   1.0078250   1.0078250
 NucSpn=           1           1           1           1           1           1           1           1           1           1
 AtZEff=   0.0000000   0.0000000   0.0000000   0.0000000   0.0000000   0.0000000   0.0000000   0.0000000   0.0000000   0.0000000
 NQMom=    0.0000000   0.0000000   0.0000000   0.0000000   0.0000000   0.0000000   0.0000000   0.0000000   0.0000000   0.0000000
 NMagM=    2.7928460   2.7928460   2.7928460   2.7928460   2.7928460   2.7928460   2.7928460   2.7928460   2.7928460   2.7928460

  Atom        41          42          43          44
 IAtWgt=           1           1           1           1
 AtmWgt=   1.0078250   1.0078250   1.0078250   1.0078250
 NucSpn=           1           1           1           1
 AtZEff=   0.0000000   0.0000000   0.0000000   0.0000000
 NQMom=    0.0000000   0.0000000   0.0000000   0.0000000
 NMagM=    2.7928460   2.7928460   2.7928460   2.7928460
 Leave Link  101 at Thu Sep 30 06:48:20 2021, MaxMem= 1879048192 cpu:       0.2
 (Enter /sw/target/amd/app/gaussian/Gaussian09RevA.02_gcc-4.9.2/g09/l103.exe)

 GradGradGradGradGradGradGradGradGradGradGradGradGradGradGradGradGradGrad
 Berny optimization.
 Initialization pass.
                           ----------------------------
                           !    Initial Parameters    !
                           ! (Angstroms and Degrees)  !
 --------------------------                            --------------------------
 ! Name  Definition              Value          Derivative Info.                !
 --------------------------------------------------------------------------------
 ! R1    R(1,2)                  1.4237         estimate D2E/DX2                !
 ! R2    R(1,22)                 1.0949         estimate D2E/DX2                !
 ! R3    R(1,23)                 1.0956         estimate D2E/DX2                !
 ! R4    R(1,24)                 1.094          estimate D2E/DX2                !
 ! R5    R(2,3)                  1.3676         estimate D2E/DX2                !
 ! R6    R(3,4)                  1.3927         estimate D2E/DX2                !
 ! R7    R(3,8)                  1.3965         estimate D2E/DX2                !
 ! R8    R(4,5)                  1.4012         estimate D2E/DX2                !
 ! R9    R(4,25)                 1.0846         estimate D2E/DX2                !
 ! R10   R(5,6)                  1.4044         estimate D2E/DX2                !
 ! R11   R(5,26)                 1.088          estimate D2E/DX2                !
 ! R12   R(6,7)                  1.4094         estimate D2E/DX2                !
 ! R13   R(6,12)                 1.4138         estimate D2E/DX2                !
 ! R14   R(7,8)                  1.4052         estimate D2E/DX2                !
 ! R15   R(7,9)                  1.3996         estimate D2E/DX2                !
 ! R16   R(8,27)                 1.0876         estimate D2E/DX2                !
 ! R17   R(9,10)                 1.3972         estimate D2E/DX2                !
 ! R18   R(9,28)                 1.0881         estimate D2E/DX2                !
 ! R19   R(10,11)                1.405          estimate D2E/DX2                !
 ! R20   R(10,29)                1.089          estimate D2E/DX2                !
 ! R21   R(11,12)                1.3995         estimate D2E/DX2                !
 ! R22   R(11,13)                1.5023         estimate D2E/DX2                !
 ! R23   R(12,30)                1.0844         estimate D2E/DX2                !
 ! R24   R(13,14)                1.2315         estimate D2E/DX2                !
 ! R25   R(13,15)                1.4196         estimate D2E/DX2                !
 ! R26   R(15,16)                1.4942         estimate D2E/DX2                !
 ! R27   R(15,19)                1.4945         estimate D2E/DX2                !
 ! R28   R(16,17)                1.534          estimate D2E/DX2                !
 ! R29   R(16,18)                1.5306         estimate D2E/DX2                !
 ! R30   R(16,31)                1.0842         estimate D2E/DX2                !
 ! R31   R(17,32)                1.0949         estimate D2E/DX2                !
 ! R32   R(17,33)                1.0958         estimate D2E/DX2                !
 ! R33   R(17,34)                1.0952         estimate D2E/DX2                !
 ! R34   R(18,35)                1.0914         estimate D2E/DX2                !
 ! R35   R(18,36)                1.0962         estimate D2E/DX2                !
 ! R36   R(18,37)                1.0944         estimate D2E/DX2                !
 ! R37   R(19,20)                1.5399         estimate D2E/DX2                !
 ! R38   R(19,21)                1.5306         estimate D2E/DX2                !
 ! R39   R(19,38)                1.0925         estimate D2E/DX2                !
 ! R40   R(20,39)                1.096          estimate D2E/DX2                !
 ! R41   R(20,40)                1.0957         estimate D2E/DX2                !
 ! R42   R(20,41)                1.0942         estimate D2E/DX2                !
 ! R43   R(21,42)                1.093          estimate D2E/DX2                !
 ! R44   R(21,43)                1.0941         estimate D2E/DX2                !
 ! R45   R(21,44)                1.0959         estimate D2E/DX2                !
 ! A1    A(2,1,22)             107.6847         estimate D2E/DX2                !
 ! A2    A(2,1,23)             111.0854         estimate D2E/DX2                !
 ! A3    A(2,1,24)             111.5547         estimate D2E/DX2                !
 ! A4    A(22,1,23)            107.7747         estimate D2E/DX2                !
 ! A5    A(22,1,24)            107.4269         estimate D2E/DX2                !
 ! A6    A(23,1,24)            111.1075         estimate D2E/DX2                !
 ! A7    A(1,2,3)              115.6034         estimate D2E/DX2                !
 ! A8    A(2,3,4)              125.2911         estimate D2E/DX2                !
 ! A9    A(2,3,8)              115.2613         estimate D2E/DX2                !
 ! A10   A(4,3,8)              119.4219         estimate D2E/DX2                !
 ! A11   A(3,4,5)              120.0615         estimate D2E/DX2                !
 ! A12   A(3,4,25)             121.488          estimate D2E/DX2                !
 ! A13   A(5,4,25)             118.4382         estimate D2E/DX2                !
 ! A14   A(4,5,6)              121.0497         estimate D2E/DX2                !
 ! A15   A(4,5,26)             118.5277         estimate D2E/DX2                !
 ! A16   A(6,5,26)             120.4076         estimate D2E/DX2                !
 ! A17   A(5,6,7)              118.7032         estimate D2E/DX2                !
 ! A18   A(5,6,12)             121.7784         estimate D2E/DX2                !
 ! A19   A(7,6,12)             119.5181         estimate D2E/DX2                !
 ! A20   A(6,7,8)              119.7116         estimate D2E/DX2                !
 ! A21   A(6,7,9)              119.1145         estimate D2E/DX2                !
 ! A22   A(8,7,9)              121.1738         estimate D2E/DX2                !
 ! A23   A(3,8,7)              120.9692         estimate D2E/DX2                !
 ! A24   A(3,8,27)             118.6925         estimate D2E/DX2                !
 ! A25   A(7,8,27)             120.3211         estimate D2E/DX2                !
 ! A26   A(7,9,10)             120.355          estimate D2E/DX2                !
 ! A27   A(7,9,28)             120.6265         estimate D2E/DX2                !
 ! A28   A(10,9,28)            119.0118         estimate D2E/DX2                !
 ! A29   A(9,10,11)            121.5248         estimate D2E/DX2                !
 ! A30   A(9,10,29)            118.3763         estimate D2E/DX2                !
 ! A31   A(11,10,29)           120.0812         estimate D2E/DX2                !
 ! A32   A(10,11,12)           117.6972         estimate D2E/DX2                !
 ! A33   A(10,11,13)           116.6773         estimate D2E/DX2                !
 ! A34   A(12,11,13)           125.3848         estimate D2E/DX2                !
 ! A35   A(6,12,11)            121.3015         estimate D2E/DX2                !
 ! A36   A(6,12,30)            118.1973         estimate D2E/DX2                !
 ! A37   A(11,12,30)           120.4849         estimate D2E/DX2                !
 ! A38   A(11,13,14)           115.0985         estimate D2E/DX2                !
 ! A39   A(11,13,15)           123.7692         estimate D2E/DX2                !
 ! A40   A(14,13,15)           121.1215         estimate D2E/DX2                !
 ! A41   A(13,15,16)           122.6014         estimate D2E/DX2                !
 ! A42   A(13,15,19)           116.4375         estimate D2E/DX2                !
 ! A43   A(16,15,19)           117.6614         estimate D2E/DX2                !
 ! A44   A(15,16,17)           114.4148         estimate D2E/DX2                !
 ! A45   A(15,16,18)           112.9345         estimate D2E/DX2                !
 ! A46   A(15,16,31)           108.5783         estimate D2E/DX2                !
 ! A47   A(17,16,18)           110.6285         estimate D2E/DX2                !
 ! A48   A(17,16,31)           104.7374         estimate D2E/DX2                !
 ! A49   A(18,16,31)           104.7238         estimate D2E/DX2                !
 ! A50   A(16,17,32)           112.0908         estimate D2E/DX2                !
 ! A51   A(16,17,33)           110.8346         estimate D2E/DX2                !
 ! A52   A(16,17,34)           110.5839         estimate D2E/DX2                !
 ! A53   A(32,17,33)           108.5033         estimate D2E/DX2                !
 ! A54   A(32,17,34)           107.0118         estimate D2E/DX2                !
 ! A55   A(33,17,34)           107.6336         estimate D2E/DX2                !
 ! A56   A(16,18,35)           112.5014         estimate D2E/DX2                !
 ! A57   A(16,18,36)           110.1976         estimate D2E/DX2                !
 ! A58   A(16,18,37)           111.2389         estimate D2E/DX2                !
 ! A59   A(35,18,36)           107.0764         estimate D2E/DX2                !
 ! A60   A(35,18,37)           107.9444         estimate D2E/DX2                !
 ! A61   A(36,18,37)           107.6705         estimate D2E/DX2                !
 ! A62   A(15,19,20)           114.3855         estimate D2E/DX2                !
 ! A63   A(15,19,21)           113.5013         estimate D2E/DX2                !
 ! A64   A(15,19,38)           106.9277         estimate D2E/DX2                !
 ! A65   A(20,19,21)           110.0789         estimate D2E/DX2                !
 ! A66   A(20,19,38)           103.401          estimate D2E/DX2                !
 ! A67   A(21,19,38)           107.7847         estimate D2E/DX2                !
 ! A68   A(19,20,39)           109.9297         estimate D2E/DX2                !
 ! A69   A(19,20,40)           112.1425         estimate D2E/DX2                !
 ! A70   A(19,20,41)           111.7668         estimate D2E/DX2                !
 ! A71   A(39,20,40)           106.2192         estimate D2E/DX2                !
 ! A72   A(39,20,41)           107.8876         estimate D2E/DX2                !
 ! A73   A(40,20,41)           108.6574         estimate D2E/DX2                !
 ! A74   A(19,21,42)           111.0793         estimate D2E/DX2                !
 ! A75   A(19,21,43)           112.0            estimate D2E/DX2                !
 ! A76   A(19,21,44)           110.9009         estimate D2E/DX2                !
 ! A77   A(42,21,43)           107.9364         estimate D2E/DX2                !
 ! A78   A(42,21,44)           106.4878         estimate D2E/DX2                !
 ! A79   A(43,21,44)           108.2142         estimate D2E/DX2                !
 ! D1    D(22,1,2,3)           172.1248         estimate D2E/DX2                !
 ! D2    D(23,1,2,3)            54.3272         estimate D2E/DX2                !
 ! D3    D(24,1,2,3)           -70.2343         estimate D2E/DX2                !
 ! D4    D(1,2,3,4)             31.0637         estimate D2E/DX2                !
 ! D5    D(1,2,3,8)           -150.8012         estimate D2E/DX2                !
 ! D6    D(2,3,4,5)            178.2535         estimate D2E/DX2                !
 ! D7    D(2,3,4,25)            -0.4521         estimate D2E/DX2                !
 ! D8    D(8,3,4,5)              0.1898         estimate D2E/DX2                !
 ! D9    D(8,3,4,25)          -178.5158         estimate D2E/DX2                !
 ! D10   D(2,3,8,7)            179.1173         estimate D2E/DX2                !
 ! D11   D(2,3,8,27)             0.6225         estimate D2E/DX2                !
 ! D12   D(4,3,8,7)             -2.6302         estimate D2E/DX2                !
 ! D13   D(4,3,8,27)           178.875          estimate D2E/DX2                !
 ! D14   D(3,4,5,6)              1.5202         estimate D2E/DX2                !
 ! D15   D(3,4,5,26)          -179.8831         estimate D2E/DX2                !
 ! D16   D(25,4,5,6)          -179.7351         estimate D2E/DX2                !
 ! D17   D(25,4,5,26)           -1.1384         estimate D2E/DX2                !
 ! D18   D(4,5,6,7)             -0.7884         estimate D2E/DX2                !
 ! D19   D(4,5,6,12)           179.0123         estimate D2E/DX2                !
 ! D20   D(26,5,6,7)          -179.3588         estimate D2E/DX2                !
 ! D21   D(26,5,6,12)            0.4419         estimate D2E/DX2                !
 ! D22   D(5,6,7,8)             -1.6175         estimate D2E/DX2                !
 ! D23   D(5,6,7,9)            178.3            estimate D2E/DX2                !
 ! D24   D(12,6,7,8)           178.5772         estimate D2E/DX2                !
 ! D25   D(12,6,7,9)            -1.5052         estimate D2E/DX2                !
 ! D26   D(5,6,12,11)         -172.6301         estimate D2E/DX2                !
 ! D27   D(5,6,12,30)            8.8301         estimate D2E/DX2                !
 ! D28   D(7,6,12,11)            7.1689         estimate D2E/DX2                !
 ! D29   D(7,6,12,30)         -171.3708         estimate D2E/DX2                !
 ! D30   D(6,7,8,3)              3.3578         estimate D2E/DX2                !
 ! D31   D(6,7,8,27)          -178.1718         estimate D2E/DX2                !
 ! D32   D(9,7,8,3)           -176.558          estimate D2E/DX2                !
 ! D33   D(9,7,8,27)             1.9124         estimate D2E/DX2                !
 ! D34   D(6,7,9,10)            -3.1492         estimate D2E/DX2                !
 ! D35   D(6,7,9,28)           177.798          estimate D2E/DX2                !
 ! D36   D(8,7,9,10)           176.7671         estimate D2E/DX2                !
 ! D37   D(8,7,9,28)            -2.2857         estimate D2E/DX2                !
 ! D38   D(7,9,10,11)            2.3672         estimate D2E/DX2                !
 ! D39   D(7,9,10,29)         -179.163          estimate D2E/DX2                !
 ! D40   D(28,9,10,11)        -178.5648         estimate D2E/DX2                !
 ! D41   D(28,9,10,29)          -0.0949         estimate D2E/DX2                !
 ! D42   D(9,10,11,12)           3.1081         estimate D2E/DX2                !
 ! D43   D(9,10,11,13)         177.7793         estimate D2E/DX2                !
 ! D44   D(29,10,11,12)       -175.336          estimate D2E/DX2                !
 ! D45   D(29,10,11,13)         -0.6649         estimate D2E/DX2                !
 ! D46   D(10,11,12,6)          -7.8625         estimate D2E/DX2                !
 ! D47   D(10,11,12,30)        170.6441         estimate D2E/DX2                !
 ! D48   D(13,11,12,6)         177.9796         estimate D2E/DX2                !
 ! D49   D(13,11,12,30)         -3.5137         estimate D2E/DX2                !
 ! D50   D(10,11,13,14)        -20.8604         estimate D2E/DX2                !
 ! D51   D(10,11,13,15)        160.3249         estimate D2E/DX2                !
 ! D52   D(12,11,13,14)        153.3509         estimate D2E/DX2                !
 ! D53   D(12,11,13,15)        -25.4638         estimate D2E/DX2                !
 ! D54   D(11,13,15,16)        -31.0927         estimate D2E/DX2                !
 ! D55   D(11,13,15,19)        169.9302         estimate D2E/DX2                !
 ! D56   D(14,13,15,16)        150.1611         estimate D2E/DX2                !
 ! D57   D(14,13,15,19)         -8.8159         estimate D2E/DX2                !
 ! D58   D(13,15,16,17)        162.382          estimate D2E/DX2                !
 ! D59   D(13,15,16,18)        -69.8703         estimate D2E/DX2                !
 ! D60   D(13,15,16,31)         45.8112         estimate D2E/DX2                !
 ! D61   D(19,15,16,17)        -38.8827         estimate D2E/DX2                !
 ! D62   D(19,15,16,18)         88.865          estimate D2E/DX2                !
 ! D63   D(19,15,16,31)       -155.4535         estimate D2E/DX2                !
 ! D64   D(13,15,19,20)        -45.6186         estimate D2E/DX2                !
 ! D65   D(13,15,19,21)         81.8378         estimate D2E/DX2                !
 ! D66   D(13,15,19,38)       -159.4444         estimate D2E/DX2                !
 ! D67   D(16,15,19,20)        154.3325         estimate D2E/DX2                !
 ! D68   D(16,15,19,21)        -78.2112         estimate D2E/DX2                !
 ! D69   D(16,15,19,38)         40.5067         estimate D2E/DX2                !
 ! D70   D(15,16,17,32)         70.7719         estimate D2E/DX2                !
 ! D71   D(15,16,17,33)        -50.6223         estimate D2E/DX2                !
 ! D72   D(15,16,17,34)       -169.9067         estimate D2E/DX2                !
 ! D73   D(18,16,17,32)        -58.1414         estimate D2E/DX2                !
 ! D74   D(18,16,17,33)       -179.5356         estimate D2E/DX2                !
 ! D75   D(18,16,17,34)         61.18           estimate D2E/DX2                !
 ! D76   D(31,16,17,32)       -170.4646         estimate D2E/DX2                !
 ! D77   D(31,16,17,33)         68.1412         estimate D2E/DX2                !
 ! D78   D(31,16,17,34)        -51.1433         estimate D2E/DX2                !
 ! D79   D(15,16,18,35)        -66.4973         estimate D2E/DX2                !
 ! D80   D(15,16,18,36)        174.0924         estimate D2E/DX2                !
 ! D81   D(15,16,18,37)         54.7532         estimate D2E/DX2                !
 ! D82   D(17,16,18,35)         63.2087         estimate D2E/DX2                !
 ! D83   D(17,16,18,36)        -56.2016         estimate D2E/DX2                !
 ! D84   D(17,16,18,37)       -175.5408         estimate D2E/DX2                !
 ! D85   D(31,16,18,35)        175.5406         estimate D2E/DX2                !
 ! D86   D(31,16,18,36)         56.1303         estimate D2E/DX2                !
 ! D87   D(31,16,18,37)        -63.2088         estimate D2E/DX2                !
 ! D88   D(15,19,20,39)       -153.9863         estimate D2E/DX2                !
 ! D89   D(15,19,20,40)         88.0894         estimate D2E/DX2                !
 ! D90   D(15,19,20,41)        -34.2125         estimate D2E/DX2                !
 ! D91   D(21,19,20,39)         76.8259         estimate D2E/DX2                !
 ! D92   D(21,19,20,40)        -41.0984         estimate D2E/DX2                !
 ! D93   D(21,19,20,41)       -163.4003         estimate D2E/DX2                !
 ! D94   D(38,19,20,39)        -38.0969         estimate D2E/DX2                !
 ! D95   D(38,19,20,40)       -156.0213         estimate D2E/DX2                !
 ! D96   D(38,19,20,41)         81.6769         estimate D2E/DX2                !
 ! D97   D(15,19,21,42)         68.0458         estimate D2E/DX2                !
 ! D98   D(15,19,21,43)        -52.7313         estimate D2E/DX2                !
 ! D99   D(15,19,21,44)       -173.7389         estimate D2E/DX2                !
 ! D100  D(20,19,21,42)       -162.2889         estimate D2E/DX2                !
 ! D101  D(20,19,21,43)         76.9341         estimate D2E/DX2                !
 ! D102  D(20,19,21,44)        -44.0736         estimate D2E/DX2                !
 ! D103  D(38,19,21,42)        -50.1781         estimate D2E/DX2                !
 ! D104  D(38,19,21,43)       -170.9552         estimate D2E/DX2                !
 ! D105  D(38,19,21,44)         68.0372         estimate D2E/DX2                !
 --------------------------------------------------------------------------------
 Trust Radius=3.00D-01 FncErr=1.00D-07 GrdErr=1.00D-06
 Number of steps in this run= 239 maximum allowed number of steps= 264.
 GradGradGradGradGradGradGradGradGradGradGradGradGradGradGradGradGradGrad

 Leave Link  103 at Thu Sep 30 06:48:21 2021, MaxMem= 1879048192 cpu:       0.0
 (Enter /sw/target/amd/app/gaussian/Gaussian09RevA.02_gcc-4.9.2/g09/l202.exe)
                          Input orientation:                          
 ---------------------------------------------------------------------
 Center     Atomic      Atomic             Coordinates (Angstroms)
 Number     Number       Type             X           Y           Z
 ---------------------------------------------------------------------
      1          6           0        5.051974  -11.481295   -6.015172
      2          8           0        5.756364  -10.267790   -6.256520
      3          6           0        5.698522   -9.341140   -5.252397
      4          6           0        5.592297   -9.631728   -3.894503
      5          6           0        5.578244   -8.593590   -2.953561
      6          6           0        5.638182   -7.249641   -3.356767
      7          6           0        5.730288   -6.959238   -4.732882
      8          6           0        5.794466   -8.009979   -5.663636
      9          6           0        5.754333   -5.622419   -5.146632
     10          6           0        5.621851   -4.591725   -4.212658
     11          6           0        5.511028   -4.856416   -2.837322
     12          6           0        5.604330   -6.189589   -2.421878
     13          6           0        5.425268   -3.665194   -1.925965
     14          8           0        5.853305   -2.612547   -2.400523
     15          7           0        4.918056   -3.720072   -0.601258
     16          6           0        3.849905   -4.679413   -0.187272
     17          6           0        3.735961   -4.886036    1.328489
     18          6           0        2.483061   -4.346782   -0.790409
     19          6           0        5.119495   -2.500985    0.239376
     20          6           0        6.538899   -1.907918    0.169474
     21          6           0        4.079684   -1.406602   -0.013435
     22          1           0        5.063468  -12.062684   -6.942848
     23          1           0        4.005635  -11.284917   -5.756477
     24          1           0        5.541885  -12.084000   -5.244672
     25          1           0        5.539806  -10.654153   -3.536380
     26          1           0        5.496284   -8.849060   -1.899167
     27          1           0        5.895577   -7.797485   -6.725517
     28          1           0        5.860784   -5.369899   -6.199661
     29          1           0        5.631157   -3.563589   -4.571652
     30          1           0        5.676990   -6.433517   -1.367821
     31          1           0        4.094009   -5.659401   -0.581641
     32          1           0        3.328294   -4.004940    1.834662
     33          1           0        4.714324   -5.116337    1.765094
     34          1           0        3.066769   -5.723225    1.553745
     35          1           0        2.076690   -3.407493   -0.411383
     36          1           0        1.759567   -5.132906   -0.544842
     37          1           0        2.537912   -4.274717   -1.881016
     38          1           0        5.027175   -2.814589    1.281770
     39          1           0        6.759248   -1.356631    1.090789
     40          1           0        6.646194   -1.189010   -0.650452
     41          1           0        7.298807   -2.686677    0.053893
     42          1           0        3.090118   -1.717347    0.331389
     43          1           0        4.002151   -1.152203   -1.074715
     44          1           0        4.329677   -0.494367    0.540125
 ---------------------------------------------------------------------
                    Distance matrix (angstroms):
                    1          2          3          4          5
     1  C    0.000000
     2  O    1.423730   0.000000
     3  C    2.362226   1.367585   0.000000
     4  C    2.865324   2.451656   1.392695   0.000000
     5  C    4.241374   3.707318   2.420319   1.401178   0.000000
     6  C    5.031665   4.187094   2.823371   2.442459   1.404410
     7  C    4.749039   3.642618   2.438106   2.804304   2.420787
     8  C    3.567198   2.334668   1.396535   2.408479   2.780622
     9  C    5.964402   4.776120   3.720643   4.203408   3.697083
    10  C    7.144228   6.034333   4.862497   5.050121   4.195492
    11  C    7.361961   6.405784   5.097105   4.891609   3.739585
    12  C    6.420203   5.599939   4.237096   3.743940   2.462232
    13  C    8.829065   7.903012   6.584541   6.285107   5.036710
    14  O    9.610542   8.572098   7.309658   7.181156   6.012852
    15  N    9.463878   8.692374   7.337481   6.800570   5.451639
    16  C    9.037420   8.467603   7.127732   6.426890   5.095124
    17  C    9.957845   9.517230   8.185820   7.297070   5.956166
    18  C    9.208622   8.697770   7.429141   6.872656   5.682848
    19  C   10.943943  10.145222   8.791050   8.255907   6.893848
    20  C   11.493926  10.573231   9.238815   8.778907   7.441399
    21  C   11.767142  10.968502   9.644908   9.219729   7.908402
    22  H    1.094865   2.042742   3.266148   3.934668   5.311687
    23  H    1.095588   2.085580   2.626449   2.952537   4.191977
    24  H    1.094046   2.090086   2.747340   2.799846   4.175341
    25  H    2.658298   2.755964   2.166543   1.084602   2.141746
    26  H    4.905871   4.589876   3.395172   2.145497   1.087993
    27  H    3.845350   2.518282   2.142845   3.386896   3.868092
    28  H    6.167445   4.899334   4.085877   4.852734   4.583577
    29  H    8.069032   6.913810   5.817907   6.105928   5.284121
    30  H    6.889744   6.213479   4.852284   4.076745   2.681462
    31  H    8.020935   7.496994   6.160001   5.385100   4.054432
    32  H   10.976650  10.515990   9.182560   8.343248   7.003218
    33  H   10.057794   9.590079   8.250017   7.293191   5.924808
    34  H    9.715190   9.428003   8.144876   7.165061   5.904432
    35  H   10.268448   9.734952   8.471201   7.951900   6.754195
    36  H    9.003693   8.658215   7.442155   6.793339   5.688634
    37  H    8.680237   8.088287   6.857427   6.486984   5.389493
    38  H   11.329508  10.625805   9.259692   8.578260   7.185997
    39  H   12.486724  11.592993  10.252489   9.730989   8.374074
    40  H   11.715498  10.707196   9.409208   9.105716   7.827684
    41  H   10.919116   9.983672   8.660225   8.169194   6.848119
    42  H   11.809419  11.118430   9.803298   9.314316   8.016507
    43  H   11.497842  10.631194   9.348229   9.076459   7.835073
    44  H   12.814296  11.989562  10.662665  10.234818   8.908545
                    6          7          8          9         10
     6  C    0.000000
     7  C    1.409437   0.000000
     8  C    2.433965   1.405161   0.000000
     9  C    2.421768   1.399590   2.443224   0.000000
    10  C    2.792371   2.426419   3.717471   1.397208   0.000000
    11  C    2.452247   2.839557   4.244213   2.445173   1.404953
    12  C    1.413815   2.439051   3.722763   2.787198   2.400077
    13  C    3.865331   4.338496   5.743139   3.783082   2.475089
    14  O    4.739549   4.934446   6.307428   4.075567   2.693427
    15  N    4.535336   5.312461   6.693211   4.997871   3.781179
    16  C    4.455300   5.421809   6.698100   5.395494   4.399001
    17  C    5.581818   6.709376   7.930086   6.822263   5.860675
    18  C    4.996756   5.736942   6.937777   5.595100   4.650138
    19  C    5.979215   6.706149   8.102478   6.257432   4.944104
    20  C    6.463719   7.085392   8.474344   6.532538   5.219854
    21  C    6.909985   7.471911   8.858320   6.850349   5.491517
    22  H    6.029566   5.601228   4.312210   6.721658   7.973767
    23  H    4.970641   4.767984   3.732794   5.957662   7.056511
    24  H    5.190808   5.153699   4.103289   6.465816   7.563441
    25  H    3.410666   3.888483   3.403194   5.287464   6.100584
    26  H    2.168611   3.414107   3.868358   4.585175   4.846948
    27  H    3.422698   2.168080   1.087644   2.691419   4.082436
    28  H    3.415410   2.166672   2.694763   1.088103   2.147283
    29  H    3.881105   3.400920   4.581428   2.141158   1.089049
    30  H    2.150225   3.406297   4.577451   3.865653   3.389445
    31  H    3.551711   4.647557   5.851789   4.857693   4.081484
    32  H    6.543287   7.591448   8.851373   7.565737   6.494213
    33  H    5.624763   6.830239   8.045241   7.007831   6.068965
    34  H    5.749369   6.938570   8.047370   7.219988   6.407819
    35  H    6.010126   6.681244   7.911440   6.391677   5.331065
    36  H    5.237475   6.053247   7.124606   6.113449   5.353783
    37  H    4.543092   5.052827   6.234223   4.777648   3.879140
    38  H    6.446630   7.338155   8.707438   7.052448   5.805221
    39  H    7.467604   8.146356   9.529958   7.623138   6.315541
    40  H    6.713529   7.127458   8.507825   6.377004   5.031606
    41  H    5.933878   6.605168   7.955546   6.168423   4.964357
    42  H    7.120491   7.752081   9.102254   7.235768   5.943070
    43  H    6.712906   7.077450   8.443913   6.295513   4.929546
    44  H    7.907697   8.459365   9.854779   7.788823   6.406793
                   11         12         13         14         15
    11  C    0.000000
    12  C    1.399517   0.000000
    13  C    1.502310   2.578869   0.000000
    14  O    2.311471   3.585760   1.231457   0.000000
    15  N    2.577378   3.143906   1.419552   2.310554   0.000000
    16  C    3.132638   3.217467   2.556064   3.630982   1.494211
    17  C    4.528324   4.388086   3.864672   4.853599   2.545730
    18  C    3.690279   3.974914   3.226551   4.118080   2.521457
    19  C    3.894538   4.574182   2.477415   2.742260   1.494461
    20  C    4.334857   5.091290   2.952805   2.751622   2.550502
    21  C    4.682340   5.567954   3.251094   3.209085   2.529930
    22  H    8.305778   7.431349   9.788659  10.514830  10.480272
    23  H    7.218954   6.295851   8.645713   9.480839   9.199765
    24  H    7.618022   6.535759   9.050067   9.894170   9.586749
    25  H    5.839800   4.602022   7.173012   8.127477   7.555330
    26  H    4.101408   2.712505   5.184421   6.266811   5.322164
    27  H    4.890381   4.603419   6.350804   6.752107   7.422088
    28  H    3.419257   3.874185   4.621706   4.694304   5.912088
    29  H    2.166503   3.393837   2.655630   2.380679   4.036958
    30  H    2.161995   1.084350   2.835225   3.961991   2.919998
    31  H    2.782233   2.438983   2.748877   3.960653   2.107235
    32  H    5.226545   5.298222   4.319149   5.123596   2.922704
    33  H    4.678090   4.413016   4.029290   4.991854   2.755119
    34  H    5.099728   4.739439   4.680427   5.751290   3.476194
    35  H    4.447385   4.922031   3.684202   4.341824   2.864806
    36  H    4.405153   4.407045   4.183187   5.153102   3.460540
    37  H    3.176840   3.655432   2.951333   3.744934   2.758713
    38  H    4.622779   5.043881   3.342391   3.779232   2.092271
    39  H    5.407089   6.085240   4.026136   3.819335   3.440765
    40  H    4.418243   5.406406   3.041230   2.391209   3.065152
    41  H    4.032746   4.612059   2.896115   2.849408   2.676771
    42  H    5.074966   5.822601   3.787173   3.987471   2.867419
    43  H    4.370891   5.455005   3.010816   2.705022   2.767127
    44  H    5.641826   6.544750   4.163659   3.931353   3.471903
                   16         17         18         19         20
    16  C    0.000000
    17  C    1.534017   0.000000
    18  C    1.530582   2.519977   0.000000
    19  C    2.557232   2.964591   3.379084   0.000000
    20  C    3.878033   4.250760   4.829001   1.539909   0.000000
    21  C    3.285470   3.745046   3.434757   1.530619   2.516448
    22  H   10.080834  11.030937  10.200301  11.958828  12.485243
    23  H    8.641352   9.550662   8.667051  10.693381  11.378156
    24  H    9.125130   9.913551   9.437235  11.049316  11.569774
    25  H    7.054772   7.758349   7.527747   8.994840   9.551344
    26  H    4.798656   5.405743   5.529861   6.709202   7.317497
    27  H    7.527004   8.832185   7.666689   8.784358   9.090751
    28  H    6.377242   7.837221   6.458775   7.088114   7.280867
    29  H    4.862171   6.336584   4.982137   4.953475   5.103285
    30  H    2.794425   3.665021   3.858633   4.284704   4.856667
    31  H    1.084200   2.091624   2.088470   3.420714   4.540406
    32  H    2.194359   1.094867   2.778898   2.831117   4.180710
    33  H    2.179416   1.095836   3.478699   3.054839   4.021073
    34  H    2.175773   1.095191   2.780354   4.040307   5.341204
    35  H    2.193695   2.822485   1.091358   3.240973   4.743145
    36  H    2.168646   2.734309   1.096238   4.339484   5.809717
    37  H    2.180338   3.479936   1.094360   3.782428   5.080762
    38  H    2.649834   2.441374   3.621334   1.092454   2.084362
    39  H    4.597673   4.653328   5.546683   2.173302   1.096035
    40  H    4.496296   5.104279   5.227120   2.200882   1.095728
    41  H    3.990499   4.376716   5.163352   2.195059   1.094206
    42  H    3.101632   3.384067   2.922478   2.177366   3.457834
    43  H    3.640322   4.448343   3.548774   2.189636   2.924756
    44  H    4.274798   4.501196   4.474529   2.177332   2.648804
                   21         22         23         24         25
    21  C    0.000000
    22  H   12.748988   0.000000
    23  H   11.426685   1.769579   0.000000
    24  H   11.979596   1.764409   1.805698   0.000000
    25  H   10.003015   3.716838   2.771349   2.227718   0.000000
    26  H    7.807235   5.996118   4.799404   4.653958   2.437360
    27  H    9.444199   4.351041   4.083271   4.548870   4.296245
    28  H    7.559724   6.780959   6.214936   6.789172   5.926165
    29  H    5.276078   8.841915   7.979037   8.547417   7.166327
    30  H    5.445698   7.946374   6.752022   6.853918   4.747129
    31  H    4.290614   9.077821   7.644158   8.069428   5.980665
    32  H    3.275884  12.040878  10.539556  10.967596   8.828981
    33  H    4.162699  11.144590   9.753340   9.918166   7.710672
    34  H    4.702689  10.787384   9.233268   9.633491   7.505954
    35  H    2.859006  11.246920   9.713118  10.519032   8.618170
    36  H    4.421615   9.993601   8.369779   9.203915   7.329644
    37  H    3.753799   9.625643   8.143482   9.017923   7.242154
    38  H    2.134883  12.376305  11.060150  11.348187   9.216080
    39  H    2.898598  13.492019  12.370865  12.517847  10.456656
    40  H    2.653320  12.662388  11.617718  11.875486   9.956989
    41  H    3.464950  11.910526  10.887383  10.930290   8.914304
    42  H    1.093026  12.799790  11.377111  12.023773  10.041270
    43  H    1.094096  12.433823  11.162024  11.800996   9.935353
    44  H    1.095945  13.797075  12.497526  13.009724  11.013789
                   26         27         28         29         30
    26  H    0.000000
    27  H    4.955694   0.000000
    28  H    5.543615   2.484132   0.000000
    29  H    5.924236   4.757618   2.442518   0.000000
    30  H    2.479885   5.532910   4.950933   4.301525   0.000000
    31  H    3.725073   6.750130   5.896392   4.761873   1.929550
    32  H    6.489003   9.708295   8.533871   6.821937   4.655132
    33  H    5.288808   8.981892   8.050837   6.588319   3.532258
    34  H    5.253189   8.991712   8.249040   6.982879   3.981622
    35  H    6.596800   8.586280   7.188502   5.474161   4.799349
    36  H    5.441236   7.899829   6.989501   5.802341   4.208929
    37  H    5.447651   6.866804   5.558020   4.160936   3.844164
    38  H    6.837635   9.471009   7.949611   5.931976   4.532023
    39  H    8.165256  10.164899   8.370437   6.181140   5.743764
    40  H    7.845887   9.007873   6.992168   4.695182   5.381341
    41  H    6.711072   8.605220   6.955179   4.994566   4.323236
    42  H    7.850244   9.728236   7.979494   5.822825   5.641053
    43  H    7.883765   8.926163   6.892644   4.549396   5.548267
    44  H    8.781344  10.420034   8.458120   6.102805   6.381928
                   31         32         33         34         35
    31  H    0.000000
    32  H    3.026893   0.000000
    33  H    2.487343   1.777955   0.000000
    34  H    2.370479   1.760628   1.768451   0.000000
    35  H    3.028143   2.639730   3.822867   3.194464   0.000000
    36  H    2.393360   3.065167   3.750556   2.541913   1.759383
    37  H    2.455028   3.808378   4.328881   3.765030   1.767661
    38  H    3.526479   2.146817   2.372661   3.518142   3.453066
    39  H    5.330512   4.397538   4.332642   5.737236   5.328124
    40  H    5.148085   5.011359   4.999088   6.183031   5.085192
    41  H    4.417208   4.546860   3.938401   5.420362   5.292122
    42  H    4.169078   2.747661   4.030718   4.188288   2.106024
    43  H    4.535019   4.129972   4.928089   5.355183   3.038707
    44  H    5.290697   3.873334   4.796989   5.473876   3.803632
                   36         37         38         39         40
    36  H    0.000000
    37  H    1.768522   0.000000
    38  H    4.403223   4.281544   0.000000
    39  H    6.475520   5.930138   2.272046   0.000000
    40  H    6.280493   5.283357   2.999535   1.752940   0.000000
    41  H    6.084875   5.378835   2.585412   1.770678   1.779049
    42  H    3.768845   3.426340   2.420611   3.764216   3.726771
    43  H    4.599559   3.541781   3.060592   3.511807   2.678118
    44  H    5.412824   4.833569   2.533766   2.636199   2.695598
                   41         42         43         44
    41  H    0.000000
    42  H    4.327778   0.000000
    43  H    3.807402   1.768705   0.000000
    44  H    3.722684   1.753784   1.774184   0.000000
 Stoichiometry    C18H23NO2
 Framework group  C1[X(C18H23NO2)]
 Deg. of freedom   126
 Full point group                 C1      NOp   1
 Largest Abelian subgroup         C1      NOp   1
 Largest concise Abelian subgroup C1      NOp   1
                         Standard orientation:                         
 ---------------------------------------------------------------------
 Center     Atomic      Atomic             Coordinates (Angstroms)
 Number     Number       Type             X           Y           Z
 ---------------------------------------------------------------------
      1          6           0        6.584592    1.015219    0.276632
      2          8           0        5.840370   -0.174926    0.038522
      3          6           0        4.494807   -0.005287   -0.137469
      4          6           0        3.891949    1.118284   -0.697602
      5          6           0        2.500812    1.161188   -0.859452
      6          6           0        1.689059    0.096417   -0.435556
      7          6           0        2.301727   -1.032474    0.144749
      8          6           0        3.701512   -1.085331    0.255596
      9          6           0        1.498512   -2.083071    0.602946
     10          6           0        0.105992   -1.983989    0.545841
     11          6           0       -0.528330   -0.861346   -0.012012
     12          6           0        0.282356    0.132234   -0.572579
     13          6           0       -2.029439   -0.891288   -0.064081
     14          8           0       -2.532187   -2.013388    0.003902
     15          7           0       -2.837284    0.267219   -0.206828
     16          6           0       -2.433628    1.601465    0.331238
     17          6           0       -3.199144    2.786266   -0.271622
     18          6           0       -2.463748    1.661876    1.860331
     19          6           0       -4.289744    0.036917   -0.472790
     20          6           0       -4.578320   -1.026340   -1.548676
     21          6           0       -5.102018   -0.259550    0.790188
     22          1           0        7.606633    0.721795    0.537523
     23          1           0        6.171398    1.575905    1.122336
     24          1           0        6.641719    1.639687   -0.619868
     25          1           0        4.477724    1.965934   -1.036303
     26          1           0        2.056312    2.050402   -1.301546
     27          1           0        4.186350   -1.964177    0.674560
     28          1           0        1.946888   -2.981392    1.022403
     29          1           0       -0.487954   -2.814846    0.923906
     30          1           0       -0.156067    0.940762   -1.146935
     31          1           0       -1.397039    1.780556    0.068753
     32          1           0       -4.241158    2.816431    0.063086
     33          1           0       -3.186700    2.741846   -1.366486
     34          1           0       -2.739045    3.734134    0.027210
     35          1           0       -3.474629    1.573289    2.261995
     36          1           0       -2.061550    2.620120    2.209250
     37          1           0       -1.855068    0.866070    2.300587
     38          1           0       -4.682057    0.956235   -0.913697
     39          1           0       -5.550254   -0.830763   -2.015997
     40          1           0       -4.639422   -2.035465   -1.126121
     41          1           0       -3.819477   -1.022292   -2.336982
     42          1           0       -5.161242    0.620887    1.435192
     43          1           0       -4.667966   -1.076548    1.374275
     44          1           0       -6.133562   -0.529726    0.537172
 ---------------------------------------------------------------------
 Rotational constants (GHZ):      0.7563743      0.1347361      0.1230572
 Leave Link  202 at Thu Sep 30 06:48:21 2021, MaxMem= 1879048192 cpu:       0.1
 (Enter /sw/target/amd/app/gaussian/Gaussian09RevA.02_gcc-4.9.2/g09/l301.exe)
 Standard basis: 6-31G(d) (6D, 7F)
 Ernie: Thresh=  0.10000D-02 Tol=  0.10000D-05 Strict=F.
 There are   361 symmetry adapted basis functions of A   symmetry.
 Integral buffers will be    131072 words long.
 Raffenetti 2 integral format.
 Two-electron integral symmetry is turned on.
   361 basis functions,   680 primitive gaussians,   361 cartesian basis functions
    77 alpha electrons       77 beta electrons
       nuclear repulsion energy      1643.7821227754 Hartrees.
 IExCor=  402 DFT=T Ex+Corr=B3LYP ExCW=0 ScaHFX=  0.200000
 ScaDFX=  0.800000  0.720000  1.000000  0.810000 ScalE2=  1.000000  1.000000
 IRadAn=      0 IRanWt=     -1 IRanGd=            0 ICorTp=0
 NAtoms=   44 NActive=   44 NUniq=   44 SFac= 7.50D-01 NAtFMM=   80 NAOKFM=F Big=F
 Leave Link  301 at Thu Sep 30 06:48:22 2021, MaxMem= 1879048192 cpu:       0.1
 (Enter /sw/target/amd/app/gaussian/Gaussian09RevA.02_gcc-4.9.2/g09/l302.exe)
 NPDir=0 NMtPBC=     1 NCelOv=     1 NCel=       1 NClECP=     1 NCelD=      1
         NCelK=      1 NCelE2=     1 NClLst=     1 CellRange=     0.0.
 One-electron integrals computed using PRISM.
 NBasis=   361 RedAO= T  NBF=   361
 NBsUse=   361 1.00D-06 NBFU=   361
 Precomputing XC quadrature grid using
 IXCGrd= 2 IRadAn=           0 IRanWt=          -1 IRanGd=           0 AccXCQ= 1.00D-10.
 NRdTot=    2820 NPtTot=      359750 NUsed=      380075 NTot=      380107
 NSgBfM=   356   356   356   357   357 NAtAll=    44    44.
 Leave Link  302 at Thu Sep 30 06:48:28 2021, MaxMem= 1879048192 cpu:       5.3
 (Enter /sw/target/amd/app/gaussian/Gaussian09RevA.02_gcc-4.9.2/g09/l303.exe)
 DipDrv:  MaxL=1.
 Leave Link  303 at Thu Sep 30 06:48:29 2021, MaxMem= 1879048192 cpu:       0.3
 (Enter /sw/target/amd/app/gaussian/Gaussian09RevA.02_gcc-4.9.2/g09/l401.exe)
 Harris functional with IExCor=  402 diagonalized for initial guess.
 ExpMin= 1.61D-01 ExpMax= 5.48D+03 ExpMxC= 8.25D+02 IAcc=1 IRadAn=         1 AccDes= 0.00D+00
 HarFok:  IExCor=  402 AccDes= 0.00D+00 IRadAn=         1 IDoV= 1
 ScaDFX=  1.000000  1.000000  1.000000  1.000000
 FoFCou: FMM=F IPFlag=           0 FMFlag=      100000 FMFlg1=           0
         NFxFlg=           0 DoJE=T BraDBF=F KetDBF=T FulRan=T
         Omega=  0.000000  0.000000  1.000000  0.000000  0.000000 ICntrl=     500 IOpCl=  0
         NMat0=    1 NMatS0=    1 NMatT0=    0 NMatD0=    1 NMtDS0=    0 NMtDT0=    0
         I1Cent=           4 NGrid=           0.
 Petite list used in FoFCou.
 Harris En= -905.105324990295    
 Initial guess orbital symmetries:
       Occupied  (A) (A) (A) (A) (A) (A) (A) (A) (A) (A) (A) (A)
                 (A) (A) (A) (A) (A) (A) (A) (A) (A) (A) (A) (A)
                 (A) (A) (A) (A) (A) (A) (A) (A) (A) (A) (A) (A)
                 (A) (A) (A) (A) (A) (A) (A) (A) (A) (A) (A) (A)
                 (A) (A) (A) (A) (A) (A) (A) (A) (A) (A) (A) (A)
                 (A) (A) (A) (A) (A) (A) (A) (A) (A) (A) (A) (A)
                 (A) (A) (A) (A) (A)
       Virtual   (A) (A) (A) (A) (A) (A) (A) (A) (A) (A) (A) (A)
                 (A) (A) (A) (A) (A) (A) (A) (A) (A) (A) (A) (A)
                 (A) (A) (A) (A) (A) (A) (A) (A) (A) (A) (A) (A)
                 (A) (A) (A) (A) (A) (A) (A) (A) (A) (A) (A) (A)
                 (A) (A) (A) (A) (A) (A) (A) (A) (A) (A) (A) (A)
                 (A) (A) (A) (A) (A) (A) (A) (A) (A) (A) (A) (A)
                 (A) (A) (A) (A) (A) (A) (A) (A) (A) (A) (A) (A)
                 (A) (A) (A) (A) (A) (A) (A) (A) (A) (A) (A) (A)
                 (A) (A) (A) (A) (A) (A) (A) (A) (A) (A) (A) (A)
                 (A) (A) (A) (A) (A) (A) (A) (A) (A) (A) (A) (A)
                 (A) (A) (A) (A) (A) (A) (A) (A) (A) (A) (A) (A)
                 (A) (A) (A) (A) (A) (A) (A) (A) (A) (A) (A) (A)
                 (A) (A) (A) (A) (A) (A) (A) (A) (A) (A) (A) (A)
                 (A) (A) (A) (A) (A) (A) (A) (A) (A) (A) (A) (A)
                 (A) (A) (A) (A) (A) (A) (A) (A) (A) (A) (A) (A)
                 (A) (A) (A) (A) (A) (A) (A) (A) (A) (A) (A) (A)
                 (A) (A) (A) (A) (A) (A) (A) (A) (A) (A) (A) (A)
                 (A) (A) (A) (A) (A) (A) (A) (A) (A) (A) (A) (A)
                 (A) (A) (A) (A) (A) (A) (A) (A) (A) (A) (A) (A)
                 (A) (A) (A) (A) (A) (A) (A) (A) (A) (A) (A) (A)
                 (A) (A) (A) (A) (A) (A) (A) (A) (A) (A) (A) (A)
                 (A) (A) (A) (A) (A) (A) (A) (A) (A) (A) (A) (A)
                 (A) (A) (A) (A) (A) (A) (A) (A) (A) (A) (A) (A)
                 (A) (A) (A) (A) (A) (A) (A) (A)
 The electronic state of the initial guess is 1-A.
 Leave Link  401 at Thu Sep 30 06:48:50 2021, MaxMem= 1879048192 cpu:      21.4
 (Enter /sw/target/amd/app/gaussian/Gaussian09RevA.02_gcc-4.9.2/g09/l502.exe)
 Closed shell SCF:
 Requested convergence on RMS density matrix=1.00D-08 within  64 cycles.
 Requested convergence on MAX density matrix=1.00D-06.
 Requested convergence on             energy=1.00D-06.
 No special actions if energy rises.
 Using DIIS extrapolation, IDIIS=  1040.
 Integral symmetry usage will be decided dynamically.
       379666 words used for storage of precomputed grid.
 IEnd=      781439 IEndB=      781439 NGot=  1879048192 MDV=  1878401660
 LenX=  1878401660 LenY=  1878270898
 Fock matrices will be formed incrementally for  20 cycles.
 Integral accuracy reduced to 1.0D-05 until final iterations.

 Cycle   1  Pass 0  IDiag  1:
 FoFCou: FMM=F IPFlag=           0 FMFlag=      100000 FMFlg1=           0
         NFxFlg=           0 DoJE=F BraDBF=F KetDBF=F FulRan=T
         Omega=  0.000000  0.000000  1.000000  0.000000  0.000000 ICntrl=       0 IOpCl=  0
         NMat0=    1 NMatS0=    1 NMatT0=    0 NMatD0=    1 NMtDS0=    0 NMtDT0=    0
         I1Cent=           0 NGrid=           0.
 Symmetry not used in FoFCou.
 E= -904.380969495584    
 DIIS: error= 3.12D-02 at cycle   1 NSaved=   1.
 NSaved= 1 IEnMin= 1 EnMin= -904.380969495584     IErMin= 1 ErrMin= 3.12D-02
 ErrMax= 3.12D-02 EMaxC= 1.00D-01 BMatC= 5.69D-01 BMatP= 5.69D-01
 IDIUse=3 WtCom= 6.88D-01 WtEn= 3.12D-01
 Coeff-Com:  0.100D+01
 Coeff-En:   0.100D+01
 Coeff:      0.100D+01
 Gap=     0.163 Goal=   None    Shift=    0.000
 GapD=    0.163 DampG=1.000 DampE=0.500 DampFc=0.5000 IDamp=-1.
 Damping current iteration by 5.00D-01
 RMSDP=5.00D-03 MaxDP=2.27D-01              OVMax= 2.65D-01

 Cycle   2  Pass 0  IDiag  1:
 RMSU=  1.74D-03    CP:  9.74D-01
 E= -904.611719077066     Delta-E=       -0.230749581481 Rises=F Damp=T
 DIIS: error= 1.08D-02 at cycle   2 NSaved=   2.
 NSaved= 2 IEnMin= 2 EnMin= -904.611719077066     IErMin= 2 ErrMin= 1.08D-02
 ErrMax= 1.08D-02 EMaxC= 1.00D-01 BMatC= 5.92D-02 BMatP= 5.69D-01
 IDIUse=3 WtCom= 8.92D-01 WtEn= 1.08D-01
 Coeff-Com:  0.134D+00 0.866D+00
 Coeff-En:   0.192D+00 0.808D+00
 Coeff:      0.141D+00 0.859D+00
 Gap=     0.226 Goal=   None    Shift=    0.000
 RMSDP=1.70D-03 MaxDP=9.20D-02 DE=-2.31D-01 OVMax= 1.88D-01

 Cycle   3  Pass 0  IDiag  1:
 RMSU=  1.16D-03    CP:  9.58D-01  8.50D-01
 E= -904.884456554408     Delta-E=       -0.272737477342 Rises=F Damp=F
 DIIS: error= 2.17D-02 at cycle   3 NSaved=   3.
 NSaved= 3 IEnMin= 3 EnMin= -904.884456554408     IErMin= 2 ErrMin= 1.08D-02
 ErrMax= 2.17D-02 EMaxC= 1.00D-01 BMatC= 9.47D-02 BMatP= 5.92D-02
 IDIUse=2 WtCom= 0.00D+00 WtEn= 1.00D+00
 Coeff-En:   0.000D+00 0.000D+00 0.100D+01
 Coeff:      0.000D+00 0.000D+00 0.100D+01
 Gap=     0.160 Goal=   None    Shift=    0.000
 RMSDP=3.13D-03 MaxDP=2.27D-01 DE=-2.73D-01 OVMax= 3.07D-01

 Cycle   4  Pass 0  IDiag  1:
 RMSU=  1.28D-03    CP:  9.68D-01  1.27D+00 -4.27D-01
 E= -904.401256823202     Delta-E=        0.483199731205 Rises=F Damp=F
 DIIS: error= 4.77D-02 at cycle   4 NSaved=   4.
 NSaved= 4 IEnMin= 3 EnMin= -904.884456554408     IErMin= 2 ErrMin= 1.08D-02
 ErrMax= 4.77D-02 EMaxC= 1.00D-01 BMatC= 6.71D-01 BMatP= 5.92D-02
 IDIUse=2 WtCom= 0.00D+00 WtEn= 1.00D+00
 Coeff-En:   0.000D+00 0.000D+00 0.819D+00 0.181D+00
 Coeff:      0.000D+00 0.000D+00 0.819D+00 0.181D+00
 Gap=     0.147 Goal=   None    Shift=    0.000
 RMSDP=1.79D-03 MaxDP=1.38D-01 DE= 4.83D-01 OVMax= 1.61D-01

 Cycle   5  Pass 0  IDiag  1:
 RMSU=  2.66D-04    CP:  9.65D-01  9.82D-01  3.03D-01  4.14D-01
 E= -904.917514766384     Delta-E=       -0.516257943181 Rises=F Damp=F
 DIIS: error= 1.46D-02 at cycle   5 NSaved=   5.
 NSaved= 5 IEnMin= 5 EnMin= -904.917514766384     IErMin= 2 ErrMin= 1.08D-02
 ErrMax= 1.46D-02 EMaxC= 1.00D-01 BMatC= 5.73D-02 BMatP= 5.92D-02
 IDIUse=3 WtCom= 8.54D-01 WtEn= 1.46D-01
 Coeff-Com:  0.196D-02 0.361D-01 0.357D+00-0.747D-01 0.680D+00
 Coeff-En:   0.000D+00 0.000D+00 0.404D+00 0.000D+00 0.596D+00
 Coeff:      0.167D-02 0.309D-01 0.364D+00-0.638D-01 0.667D+00
 Gap=     0.167 Goal=   None    Shift=    0.000
 RMSDP=6.55D-04 MaxDP=4.69D-02 DE=-5.16D-01 OVMax= 6.81D-02

 Cycle   6  Pass 0  IDiag  1:
 RMSU=  9.43D-05    CP:  9.63D-01  9.15D-01  6.08D-01  2.25D-01  6.77D-01
 E= -904.964354275633     Delta-E=       -0.046839509249 Rises=F Damp=F
 DIIS: error= 8.92D-04 at cycle   6 NSaved=   6.
 NSaved= 6 IEnMin= 6 EnMin= -904.964354275633     IErMin= 6 ErrMin= 8.92D-04
 ErrMax= 8.92D-04 EMaxC= 1.00D-01 BMatC= 5.49D-04 BMatP= 5.73D-02
 IDIUse=3 WtCom= 9.91D-01 WtEn= 8.92D-03
 Coeff-Com: -0.969D-03 0.140D-01 0.184D+00-0.584D-01 0.422D+00 0.439D+00
 Coeff-En:   0.000D+00 0.000D+00 0.000D+00 0.000D+00 0.000D+00 0.100D+01
 Coeff:     -0.961D-03 0.139D-01 0.183D+00-0.578D-01 0.418D+00 0.444D+00
 Gap=     0.153 Goal=   None    Shift=    0.000
 RMSDP=8.61D-05 MaxDP=3.68D-03 DE=-4.68D-02 OVMax= 7.32D-03

 Cycle   7  Pass 0  IDiag  1:
 RMSU=  2.51D-05    CP:  9.63D-01  9.19D-01  5.92D-01  2.23D-01  7.42D-01
                    CP:  4.82D-01
 E= -904.964883156985     Delta-E=       -0.000528881352 Rises=F Damp=F
 DIIS: error= 3.13D-04 at cycle   7 NSaved=   7.
 NSaved= 7 IEnMin= 7 EnMin= -904.964883156985     IErMin= 7 ErrMin= 3.13D-04
 ErrMax= 3.13D-04 EMaxC= 1.00D-01 BMatC= 4.27D-05 BMatP= 5.49D-04
 IDIUse=3 WtCom= 9.97D-01 WtEn= 3.13D-03
 Coeff-Com:  0.798D-03-0.177D-02 0.312D-01-0.986D-02 0.595D-01 0.164D+00
 Coeff-Com:  0.756D+00
 Coeff-En:   0.000D+00 0.000D+00 0.000D+00 0.000D+00 0.000D+00 0.000D+00
 Coeff-En:   0.100D+01
 Coeff:      0.795D-03-0.177D-02 0.311D-01-0.983D-02 0.593D-01 0.163D+00
 Coeff:      0.757D+00
 Gap=     0.153 Goal=   None    Shift=    0.000
 RMSDP=2.22D-05 MaxDP=9.53D-04 DE=-5.29D-04 OVMax= 2.04D-03

 Cycle   8  Pass 0  IDiag  1:
 RMSU=  7.34D-06    CP:  9.63D-01  9.16D-01  6.01D-01  2.21D-01  7.32D-01
                    CP:  5.29D-01  7.59D-01
 E= -904.964921722358     Delta-E=       -0.000038565373 Rises=F Damp=F
 DIIS: error= 5.96D-05 at cycle   8 NSaved=   8.
 NSaved= 8 IEnMin= 8 EnMin= -904.964921722358     IErMin= 8 ErrMin= 5.96D-05
 ErrMax= 5.96D-05 EMaxC= 1.00D-01 BMatC= 3.88D-06 BMatP= 4.27D-05
 IDIUse=1 WtCom= 1.00D+00 WtEn= 0.00D+00
 Coeff-Com:  0.603D-03-0.201D-02 0.696D-02-0.197D-02 0.748D-02 0.660D-01
 Coeff-Com:  0.429D+00 0.494D+00
 Coeff:      0.603D-03-0.201D-02 0.696D-02-0.197D-02 0.748D-02 0.660D-01
 Coeff:      0.429D+00 0.494D+00
 Gap=     0.153 Goal=   None    Shift=    0.000
 RMSDP=5.99D-06 MaxDP=2.81D-04 DE=-3.86D-05 OVMax= 5.82D-04

 Initial convergence to 1.0D-05 achieved.  Increase integral accuracy.
 Cycle   9  Pass 1  IDiag  1:
 E= -904.965035487332     Delta-E=       -0.000113764974 Rises=F Damp=F
 DIIS: error= 4.98D-05 at cycle   1 NSaved=   1.
 NSaved= 1 IEnMin= 1 EnMin= -904.965035487332     IErMin= 1 ErrMin= 4.98D-05
 ErrMax= 4.98D-05 EMaxC= 1.00D-01 BMatC= 4.77D-07 BMatP= 4.77D-07
 IDIUse=1 WtCom= 1.00D+00 WtEn= 0.00D+00
 Coeff-Com:  0.100D+01
 Coeff:      0.100D+01
 Gap=     0.153 Goal=   None    Shift=    0.000
 RMSDP=5.99D-06 MaxDP=2.81D-04 DE=-1.14D-04 OVMax= 5.23D-04

 Cycle  10  Pass 1  IDiag  1:
 RMSU=  1.71D-05    CP:  1.00D+00
 E= -904.965035447161     Delta-E=        0.000000040171 Rises=F Damp=F
 DIIS: error= 2.07D-05 at cycle   2 NSaved=   2.
 NSaved= 2 IEnMin= 1 EnMin= -904.965035487332     IErMin= 2 ErrMin= 2.07D-05
 ErrMax= 2.07D-05 EMaxC= 1.00D-01 BMatC= 5.62D-07 BMatP= 4.77D-07
 IDIUse=1 WtCom= 1.00D+00 WtEn= 0.00D+00
 Coeff-Com:  0.526D+00 0.474D+00
 Coeff:      0.526D+00 0.474D+00
 Gap=     0.153 Goal=   None    Shift=    0.000
 RMSDP=3.21D-06 MaxDP=1.78D-04 DE= 4.02D-08 OVMax= 5.11D-04

 Cycle  11  Pass 1  IDiag  1:
 RMSU=  2.26D-06    CP:  1.00D+00  9.87D-01
 E= -904.965035902851     Delta-E=       -0.000000455690 Rises=F Damp=F
 DIIS: error= 1.17D-05 at cycle   3 NSaved=   3.
 NSaved= 3 IEnMin= 3 EnMin= -904.965035902851     IErMin= 3 ErrMin= 1.17D-05
 ErrMax= 1.17D-05 EMaxC= 1.00D-01 BMatC= 1.02D-07 BMatP= 4.77D-07
 IDIUse=1 WtCom= 1.00D+00 WtEn= 0.00D+00
 Coeff-Com:  0.379D-01 0.296D+00 0.666D+00
 Coeff:      0.379D-01 0.296D+00 0.666D+00
 Gap=     0.153 Goal=   None    Shift=    0.000
 RMSDP=1.25D-06 MaxDP=6.01D-05 DE=-4.56D-07 OVMax= 2.01D-04

 Cycle  12  Pass 1  IDiag  1:
 RMSU=  4.86D-07    CP:  1.00D+00  9.99D-01  6.84D-01
 E= -904.965036001030     Delta-E=       -0.000000098179 Rises=F Damp=F
 DIIS: error= 4.47D-06 at cycle   4 NSaved=   4.
 NSaved= 4 IEnMin= 4 EnMin= -904.965036001030     IErMin= 4 ErrMin= 4.47D-06
 ErrMax= 4.47D-06 EMaxC= 1.00D-01 BMatC= 1.16D-08 BMatP= 1.02D-07
 IDIUse=1 WtCom= 1.00D+00 WtEn= 0.00D+00
 Coeff-Com: -0.470D-02 0.155D+00 0.409D+00 0.441D+00
 Coeff:     -0.470D-02 0.155D+00 0.409D+00 0.441D+00
 Gap=     0.153 Goal=   None    Shift=    0.000
 RMSDP=4.10D-07 MaxDP=1.59D-05 DE=-9.82D-08 OVMax= 4.65D-05

 Cycle  13  Pass 1  IDiag  1:
 RMSU=  1.34D-07    CP:  1.00D+00  9.99D-01  7.18D-01  4.97D-01
 E= -904.965036012627     Delta-E=       -0.000000011597 Rises=F Damp=F
 DIIS: error= 9.48D-07 at cycle   5 NSaved=   5.
 NSaved= 5 IEnMin= 5 EnMin= -904.965036012627     IErMin= 5 ErrMin= 9.48D-07
 ErrMax= 9.48D-07 EMaxC= 1.00D-01 BMatC= 4.69D-10 BMatP= 1.16D-08
 IDIUse=1 WtCom= 1.00D+00 WtEn= 0.00D+00
 Coeff-Com: -0.498D-02 0.601D-01 0.168D+00 0.240D+00 0.537D+00
 Coeff:     -0.498D-02 0.601D-01 0.168D+00 0.240D+00 0.537D+00
 Gap=     0.153 Goal=   None    Shift=    0.000
 RMSDP=8.52D-08 MaxDP=2.63D-06 DE=-1.16D-08 OVMax= 8.17D-06

 Cycle  14  Pass 1  IDiag  1:
 RMSU=  3.90D-08    CP:  1.00D+00  9.99D-01  7.15D-01  5.15D-01  6.69D-01
 E= -904.965036013099     Delta-E=       -0.000000000472 Rises=F Damp=F
 DIIS: error= 2.35D-07 at cycle   6 NSaved=   6.
 NSaved= 6 IEnMin= 6 EnMin= -904.965036013099     IErMin= 6 ErrMin= 2.35D-07
 ErrMax= 2.35D-07 EMaxC= 1.00D-01 BMatC= 3.20D-11 BMatP= 4.69D-10
 IDIUse=1 WtCom= 1.00D+00 WtEn= 0.00D+00
 Coeff-Com: -0.253D-02 0.246D-01 0.710D-01 0.108D+00 0.291D+00 0.508D+00
 Coeff:     -0.253D-02 0.246D-01 0.710D-01 0.108D+00 0.291D+00 0.508D+00
 Gap=     0.153 Goal=   None    Shift=    0.000
 RMSDP=2.41D-08 MaxDP=8.35D-07 DE=-4.72D-10 OVMax= 2.53D-06

 Cycle  15  Pass 1  IDiag  1:
 RMSU=  1.43D-08    CP:  1.00D+00  9.99D-01  7.15D-01  5.20D-01  6.96D-01
                    CP:  7.91D-01
 E= -904.965036013136     Delta-E=       -0.000000000037 Rises=F Damp=F
 DIIS: error= 8.73D-08 at cycle   7 NSaved=   7.
 NSaved= 7 IEnMin= 7 EnMin= -904.965036013136     IErMin= 7 ErrMin= 8.73D-08
 ErrMax= 8.73D-08 EMaxC= 1.00D-01 BMatC= 4.55D-12 BMatP= 3.20D-11
 IDIUse=1 WtCom= 1.00D+00 WtEn= 0.00D+00
 Coeff-Com: -0.356D-03 0.107D-02 0.466D-02 0.101D-01 0.493D-01 0.285D+00
 Coeff-Com:  0.650D+00
 Coeff:     -0.356D-03 0.107D-02 0.466D-02 0.101D-01 0.493D-01 0.285D+00
 Coeff:      0.650D+00
 Gap=     0.153 Goal=   None    Shift=    0.000
 RMSDP=8.92D-09 MaxDP=3.34D-07 DE=-3.68D-11 OVMax= 1.00D-06

 SCF Done:  E(RB3LYP) =  -904.965036013     A.U. after   15 cycles
             Convg  =    0.8919D-08             -V/T =  2.0096
 KE= 8.963949727501D+02 PE=-5.388891817048D+03 EE= 1.943749685510D+03
 Leave Link  502 at Thu Sep 30 06:59:30 2021, MaxMem= 1879048192 cpu:     900.0
 (Enter /sw/target/amd/app/gaussian/Gaussian09RevA.02_gcc-4.9.2/g09/l508.exe)
 QCSCF skips out because SCF is already converged.
 Leave Link  508 at Thu Sep 30 06:59:30 2021, MaxMem= 1879048192 cpu:       0.0
 (Enter /sw/target/amd/app/gaussian/Gaussian09RevA.02_gcc-4.9.2/g09/l601.exe)
 Copying SCF densities to generalized density rwf, IOpCl= 0 IROHF=0.

 **********************************************************************

            Population analysis using the SCF density.

 **********************************************************************

 Orbital symmetries:
       Occupied  (A) (A) (A) (A) (A) (A) (A) (A) (A) (A) (A) (A)
                 (A) (A) (A) (A) (A) (A) (A) (A) (A) (A) (A) (A)
                 (A) (A) (A) (A) (A) (A) (A) (A) (A) (A) (A) (A)
                 (A) (A) (A) (A) (A) (A) (A) (A) (A) (A) (A) (A)
                 (A) (A) (A) (A) (A) (A) (A) (A) (A) (A) (A) (A)
                 (A) (A) (A) (A) (A) (A) (A) (A) (A) (A) (A) (A)
                 (A) (A) (A) (A) (A)
       Virtual   (A) (A) (A) (A) (A) (A) (A) (A) (A) (A) (A) (A)
                 (A) (A) (A) (A) (A) (A) (A) (A) (A) (A) (A) (A)
                 (A) (A) (A) (A) (A) (A) (A) (A) (A) (A) (A) (A)
                 (A) (A) (A) (A) (A) (A) (A) (A) (A) (A) (A) (A)
                 (A) (A) (A) (A) (A) (A) (A) (A) (A) (A) (A) (A)
                 (A) (A) (A) (A) (A) (A) (A) (A) (A) (A) (A) (A)
                 (A) (A) (A) (A) (A) (A) (A) (A) (A) (A) (A) (A)
                 (A) (A) (A) (A) (A) (A) (A) (A) (A) (A) (A) (A)
                 (A) (A) (A) (A) (A) (A) (A) (A) (A) (A) (A) (A)
                 (A) (A) (A) (A) (A) (A) (A) (A) (A) (A) (A) (A)
                 (A) (A) (A) (A) (A) (A) (A) (A) (A) (A) (A) (A)
                 (A) (A) (A) (A) (A) (A) (A) (A) (A) (A) (A) (A)
                 (A) (A) (A) (A) (A) (A) (A) (A) (A) (A) (A) (A)
                 (A) (A) (A) (A) (A) (A) (A) (A) (A) (A) (A) (A)
                 (A) (A) (A) (A) (A) (A) (A) (A) (A) (A) (A) (A)
                 (A) (A) (A) (A) (A) (A) (A) (A) (A) (A) (A) (A)
                 (A) (A) (A) (A) (A) (A) (A) (A) (A) (A) (A) (A)
                 (A) (A) (A) (A) (A) (A) (A) (A) (A) (A) (A) (A)
                 (A) (A) (A) (A) (A) (A) (A) (A) (A) (A) (A) (A)
                 (A) (A) (A) (A) (A) (A) (A) (A) (A) (A) (A) (A)
                 (A) (A) (A) (A) (A) (A) (A) (A) (A) (A) (A) (A)
                 (A) (A) (A) (A) (A) (A) (A) (A) (A) (A) (A) (A)
                 (A) (A) (A) (A) (A) (A) (A) (A) (A) (A) (A) (A)
                 (A) (A) (A) (A) (A) (A) (A) (A)
 The electronic state is 1-A.
 Alpha  occ. eigenvalues --  -19.17788 -19.10453 -14.35225 -10.28169 -10.24924
 Alpha  occ. eigenvalues --  -10.24286 -10.22852 -10.21812 -10.19997 -10.19832
 Alpha  occ. eigenvalues --  -10.19767 -10.19621 -10.19575 -10.19503 -10.18657
 Alpha  occ. eigenvalues --  -10.18644 -10.18602 -10.18409 -10.17553 -10.16642
 Alpha  occ. eigenvalues --  -10.16083  -1.06416  -1.02182  -0.91272  -0.87772
 Alpha  occ. eigenvalues --   -0.82239  -0.78868  -0.77705  -0.76093  -0.74705
 Alpha  occ. eigenvalues --   -0.72760  -0.69429  -0.69231  -0.67436  -0.63961
 Alpha  occ. eigenvalues --   -0.62325  -0.60725  -0.60081  -0.59134  -0.54083
 Alpha  occ. eigenvalues --   -0.53135  -0.51008  -0.50503  -0.48166  -0.47222
 Alpha  occ. eigenvalues --   -0.47048  -0.46065  -0.45211  -0.44731  -0.44535
 Alpha  occ. eigenvalues --   -0.42655  -0.42060  -0.41736  -0.41162  -0.40597
 Alpha  occ. eigenvalues --   -0.40124  -0.39831  -0.39510  -0.38894  -0.38444
 Alpha  occ. eigenvalues --   -0.38191  -0.36497  -0.36405  -0.35716  -0.35610
 Alpha  occ. eigenvalues --   -0.34760  -0.34207  -0.33361  -0.32584  -0.32425
 Alpha  occ. eigenvalues --   -0.32161  -0.29764  -0.27753  -0.24447  -0.23456
 Alpha  occ. eigenvalues --   -0.22544  -0.20364
 Alpha virt. eigenvalues --   -0.05066  -0.01907   0.02476   0.04812   0.07705
 Alpha virt. eigenvalues --    0.08866   0.10202   0.10964   0.11290   0.12208
 Alpha virt. eigenvalues --    0.12432   0.12790   0.13489   0.14009   0.14623
 Alpha virt. eigenvalues --    0.15050   0.15344   0.15739   0.16080   0.16713
 Alpha virt. eigenvalues --    0.17900   0.18098   0.18726   0.18954   0.19263
 Alpha virt. eigenvalues --    0.19834   0.20445   0.20903   0.21150   0.21598
 Alpha virt. eigenvalues --    0.22473   0.23889   0.24158   0.24485   0.25727
 Alpha virt. eigenvalues --    0.26757   0.27085   0.27871   0.28415   0.29963
 Alpha virt. eigenvalues --    0.32200   0.32956   0.34298   0.35156   0.37240
 Alpha virt. eigenvalues --    0.38813   0.44881   0.47201   0.48401   0.48967
 Alpha virt. eigenvalues --    0.49690   0.50016   0.50136   0.51184   0.51285
 Alpha virt. eigenvalues --    0.52784   0.53166   0.53962   0.54751   0.55411
 Alpha virt. eigenvalues --    0.55797   0.56401   0.56597   0.57464   0.57540
 Alpha virt. eigenvalues --    0.58066   0.59273   0.59994   0.60927   0.61131
 Alpha virt. eigenvalues --    0.61242   0.62472   0.63290   0.63499   0.64173
 Alpha virt. eigenvalues --    0.64788   0.65363   0.66543   0.67125   0.68060
 Alpha virt. eigenvalues --    0.69339   0.70409   0.70857   0.72465   0.74093
 Alpha virt. eigenvalues --    0.75238   0.76486   0.77456   0.78910   0.80766
 Alpha virt. eigenvalues --    0.81666   0.82225   0.82358   0.83474   0.83877
 Alpha virt. eigenvalues --    0.83907   0.84310   0.84367   0.85104   0.85931
 Alpha virt. eigenvalues --    0.86120   0.87150   0.87744   0.88448   0.89417
 Alpha virt. eigenvalues --    0.89793   0.90641   0.91492   0.92089   0.92362
 Alpha virt. eigenvalues --    0.92785   0.92866   0.93332   0.94348   0.95077
 Alpha virt. eigenvalues --    0.95520   0.96859   0.97906   0.98996   0.99240
 Alpha virt. eigenvalues --    1.00809   1.00967   1.02036   1.02914   1.04380
 Alpha virt. eigenvalues --    1.05211   1.05592   1.06174   1.08050   1.09171
 Alpha virt. eigenvalues --    1.10148   1.12321   1.12969   1.13846   1.16535
 Alpha virt. eigenvalues --    1.17268   1.19253   1.20114   1.22470   1.23060
 Alpha virt. eigenvalues --    1.24443   1.25186   1.27632   1.28995   1.31341
 Alpha virt. eigenvalues --    1.35033   1.36837   1.38940   1.39143   1.39433
 Alpha virt. eigenvalues --    1.40431   1.41675   1.42907   1.45235   1.45538
 Alpha virt. eigenvalues --    1.47969   1.48443   1.49771   1.49894   1.51107
 Alpha virt. eigenvalues --    1.52174   1.53138   1.55152   1.55904   1.61046
 Alpha virt. eigenvalues --    1.64224   1.68352   1.69444   1.70632   1.72864
 Alpha virt. eigenvalues --    1.75392   1.76152   1.78234   1.78603   1.79067
 Alpha virt. eigenvalues --    1.79964   1.82179   1.83396   1.84656   1.85183
 Alpha virt. eigenvalues --    1.86272   1.87012   1.87218   1.88394   1.89127
 Alpha virt. eigenvalues --    1.90133   1.91453   1.93313   1.94044   1.95625
 Alpha virt. eigenvalues --    1.96494   1.96785   1.97545   1.98436   1.99761
 Alpha virt. eigenvalues --    2.02043   2.03338   2.05717   2.06071   2.06692
 Alpha virt. eigenvalues --    2.07522   2.08991   2.09573   2.10337   2.10608
 Alpha virt. eigenvalues --    2.11926   2.12737   2.14214   2.15631   2.16438
 Alpha virt. eigenvalues --    2.18381   2.19478   2.20986   2.24867   2.25335
 Alpha virt. eigenvalues --    2.25798   2.26204   2.28675   2.29867   2.30286
 Alpha virt. eigenvalues --    2.31641   2.31955   2.33234   2.34083   2.36166
 Alpha virt. eigenvalues --    2.37165   2.39111   2.40080   2.41273   2.42171
 Alpha virt. eigenvalues --    2.44824   2.47547   2.49726   2.51147   2.51927
 Alpha virt. eigenvalues --    2.54182   2.57921   2.58087   2.59650   2.60987
 Alpha virt. eigenvalues --    2.63023   2.66746   2.67954   2.68900   2.70763
 Alpha virt. eigenvalues --    2.73392   2.74832   2.76166   2.79142   2.80864
 Alpha virt. eigenvalues --    2.82290   2.83834   2.86412   2.89201   2.90912
 Alpha virt. eigenvalues --    2.98213   3.01524   3.04383   3.12624   3.15351
 Alpha virt. eigenvalues --    3.16937   3.39681   3.50160   4.02372   4.04126
 Alpha virt. eigenvalues --    4.08159   4.09488   4.11143   4.13435   4.16575
 Alpha virt. eigenvalues --    4.21219   4.22054   4.26090   4.28132   4.29059
 Alpha virt. eigenvalues --    4.30254   4.30729   4.40874   4.42641   4.52091
 Alpha virt. eigenvalues --    4.57889   4.61019   4.66525   4.84991
          Condensed to atoms (all electrons):
              1          2          3          4          5          6
     1  C    4.901560   0.247612  -0.043030  -0.006017   0.000418  -0.000043
     2  O    0.247612   8.211265   0.262879  -0.057756   0.003511   0.000397
     3  C   -0.043030   0.262879   4.563659   0.430629   0.010913  -0.036210
     4  C   -0.006017  -0.057756   0.430629   5.126785   0.466985  -0.007779
     5  C    0.000418   0.003511   0.010913   0.466985   5.147088   0.438345
     6  C   -0.000043   0.000397  -0.036210  -0.007779   0.438345   4.725236
     7  C   -0.000047   0.002517   0.011236  -0.039440  -0.022149   0.490676
     8  C    0.002598  -0.050549   0.499587  -0.060085  -0.075792  -0.033019
     9  C    0.000005  -0.000094   0.008043  -0.000656   0.017603  -0.027623
    10  C   -0.000000   0.000000  -0.000313   0.000054  -0.000445  -0.039564
    11  C    0.000000  -0.000000   0.000025  -0.000242   0.007455  -0.005681
    12  C   -0.000001   0.000001  -0.000917   0.008940  -0.092346   0.399565
    13  C   -0.000000   0.000000  -0.000000   0.000002  -0.000166   0.002541
    14  O    0.000000  -0.000000   0.000000  -0.000000   0.000000  -0.000062
    15  N    0.000000   0.000000   0.000000  -0.000000  -0.000002   0.000187
    16  C    0.000000   0.000000   0.000000   0.000000  -0.000002   0.000162
    17  C   -0.000000  -0.000000  -0.000000   0.000000  -0.000000  -0.000026
    18  C    0.000000   0.000000  -0.000000  -0.000000  -0.000002   0.000056
    19  C   -0.000000   0.000000   0.000000   0.000000  -0.000000   0.000004
    20  C   -0.000000  -0.000000  -0.000000   0.000000   0.000000  -0.000000
    21  C   -0.000000  -0.000000   0.000000  -0.000000  -0.000000   0.000000
    22  H    0.383402  -0.030945   0.003622   0.000127   0.000005   0.000000
    23  H    0.362750  -0.036966  -0.001207   0.003978  -0.000215  -0.000004
    24  H    0.366412  -0.035790  -0.007166   0.002706  -0.000168  -0.000001
    25  H    0.003996  -0.006130  -0.042205   0.350281  -0.033970   0.002608
    26  H   -0.000004  -0.000051   0.002904  -0.040137   0.351420  -0.037787
    27  H   -0.000226   0.000535  -0.038901   0.007495  -0.000078   0.004984
    28  H    0.000000  -0.000002   0.000167   0.000009  -0.000200   0.004524
    29  H    0.000000  -0.000000   0.000003  -0.000001   0.000009   0.000742
    30  H    0.000000   0.000000   0.000017   0.000113  -0.007628  -0.036315
    31  H   -0.000000  -0.000000   0.000000  -0.000000   0.000156  -0.000339
    32  H    0.000000   0.000000   0.000000   0.000000   0.000000   0.000000
    33  H   -0.000000  -0.000000   0.000000  -0.000000  -0.000000   0.000002
    34  H   -0.000000  -0.000000   0.000000  -0.000000  -0.000000   0.000001
    35  H   -0.000000  -0.000000   0.000000  -0.000000  -0.000000   0.000001
    36  H    0.000000   0.000000  -0.000000   0.000000   0.000001  -0.000011
    37  H   -0.000000  -0.000000   0.000000   0.000000  -0.000003  -0.000068
    38  H    0.000000   0.000000  -0.000000   0.000000   0.000000  -0.000000
    39  H   -0.000000   0.000000  -0.000000   0.000000  -0.000000   0.000000
    40  H    0.000000   0.000000   0.000000   0.000000  -0.000000   0.000000
[...]
   134    C    9  dx2y2  Ryd( 3d)     0.00058
   135    C    9  dz2    Ryd( 3d)     0.00033

   136    C   10  S      Cor( 1S)     1.99906
   137    C   10  S      Val( 2S)     0.94840
   138    C   10  S      Ryd( 3S)     0.00073
   139    C   10  S      Ryd( 4S)     0.00004
   140    C   10  px     Val( 2p)     1.11330
   141    C   10  px     Ryd( 3p)     0.00464
   142    C   10  py     Val( 2p)     1.11437
   143    C   10  py     Ryd( 3p)     0.00443
   144    C   10  pz     Val( 2p)     1.04643
   145    C   10  pz     Ryd( 3p)     0.00293
   146    C   10  dxy    Ryd( 3d)     0.00082
   147    C   10  dxz    Ryd( 3d)     0.00069
   148    C   10  dyz    Ryd( 3d)     0.00045
   149    C   10  dx2y2  Ryd( 3d)     0.00054
   150    C   10  dz2    Ryd( 3d)     0.00042

   151    C   11  S      Cor( 1S)     1.99893
   152    C   11  S      Val( 2S)     0.90635
   153    C   11  S      Ryd( 3S)     0.00140
   154    C   11  S      Ryd( 4S)     0.00006
   155    C   11  px     Val( 2p)     1.08428
   156    C   11  px     Ryd( 3p)     0.00557
   157    C   11  py     Val( 2p)     1.07661
   158    C   11  py     Ryd( 3p)     0.00473
   159    C   11  pz     Val( 2p)     1.00835
   160    C   11  pz     Ryd( 3p)     0.00222
   161    C   11  dxy    Ryd( 3d)     0.00061
   162    C   11  dxz    Ryd( 3d)     0.00050
   163    C   11  dyz    Ryd( 3d)     0.00061
   164    C   11  dx2y2  Ryd( 3d)     0.00091
   165    C   11  dz2    Ryd( 3d)     0.00066

   166    C   12  S      Cor( 1S)     1.99899
   167    C   12  S      Val( 2S)     0.93303
   168    C   12  S      Ryd( 3S)     0.00076
   169    C   12  S      Ryd( 4S)     0.00005
   170    C   12  px     Val( 2p)     1.06664
   171    C   12  px     Ryd( 3p)     0.00347
   172    C   12  py     Val( 2p)     1.15018
   173    C   12  py     Ryd( 3p)     0.00450
   174    C   12  pz     Val( 2p)     1.09403
   175    C   12  pz     Ryd( 3p)     0.00389
   176    C   12  dxy    Ryd( 3d)     0.00065
   177    C   12  dxz    Ryd( 3d)     0.00054
   178    C   12  dyz    Ryd( 3d)     0.00053
   179    C   12  dx2y2  Ryd( 3d)     0.00063
   180    C   12  dz2    Ryd( 3d)     0.00036

   181    C   13  S      Cor( 1S)     1.99928
   182    C   13  S      Val( 2S)     0.76666
   183    C   13  S      Ryd( 3S)     0.00423
   184    C   13  S      Ryd( 4S)     0.00034
   185    C   13  px     Val( 2p)     0.93286
   186    C   13  px     Ryd( 3p)     0.00804
   187    C   13  py     Val( 2p)     0.76605
   188    C   13  py     Ryd( 3p)     0.01428
   189    C   13  pz     Val( 2p)     0.81743
   190    C   13  pz     Ryd( 3p)     0.00592
   191    C   13  dxy    Ryd( 3d)     0.00203
   192    C   13  dxz    Ryd( 3d)     0.00123
   193    C   13  dyz    Ryd( 3d)     0.00152
   194    C   13  dx2y2  Ryd( 3d)     0.00225
   195    C   13  dz2    Ryd( 3d)     0.00113

   196    O   14  S      Cor( 1S)     1.99979
   197    O   14  S      Val( 2S)     1.70124
   198    O   14  S      Ryd( 3S)     0.00046
   199    O   14  S      Ryd( 4S)     0.00008
   200    O   14  px     Val( 2p)     1.74647
   201    O   14  px     Ryd( 3p)     0.00153
   202    O   14  py     Val( 2p)     1.59779
   203    O   14  py     Ryd( 3p)     0.00064
   204    O   14  pz     Val( 2p)     1.52943
   205    O   14  pz     Ryd( 3p)     0.00087
   206    O   14  dxy    Ryd( 3d)     0.00329
   207    O   14  dxz    Ryd( 3d)     0.00121
   208    O   14  dyz    Ryd( 3d)     0.00359
   209    O   14  dx2y2  Ryd( 3d)     0.00339
   210    O   14  dz2    Ryd( 3d)     0.00215

   211    N   15  S      Cor( 1S)     1.99928
   212    N   15  S      Val( 2S)     1.20539
   213    N   15  S      Ryd( 3S)     0.00168
   214    N   15  S      Ryd( 4S)     0.00007
   215    N   15  px     Val( 2p)     1.32542
   216    N   15  px     Ryd( 3p)     0.00189
   217    N   15  py     Val( 2p)     1.39739
   218    N   15  py     Ryd( 3p)     0.00285
   219    N   15  pz     Val( 2p)     1.53741
   220    N   15  pz     Ryd( 3p)     0.00417
   221    N   15  dxy    Ryd( 3d)     0.00071
   222    N   15  dxz    Ryd( 3d)     0.00055
   223    N   15  dyz    Ryd( 3d)     0.00065
   224    N   15  dx2y2  Ryd( 3d)     0.00059
   225    N   15  dz2    Ryd( 3d)     0.00049

   226    C   16  S      Cor( 1S)     1.99920
   227    C   16  S      Val( 2S)     0.94909
   228    C   16  S      Ryd( 3S)     0.00111
   229    C   16  S      Ryd( 4S)     0.00003
   230    C   16  px     Val( 2p)     1.18652
   231    C   16  px     Ryd( 3p)     0.00451
   232    C   16  py     Val( 2p)     0.93553
   233    C   16  py     Ryd( 3p)     0.00270
   234    C   16  pz     Val( 2p)     0.97109
   235    C   16  pz     Ryd( 3p)     0.00225
   236    C   16  dxy    Ryd( 3d)     0.00062
   237    C   16  dxz    Ryd( 3d)     0.00069
   238    C   16  dyz    Ryd( 3d)     0.00133
   239    C   16  dx2y2  Ryd( 3d)     0.00125
   240    C   16  dz2    Ryd( 3d)     0.00113

   241    C   17  S      Cor( 1S)     1.99941
   242    C   17  S      Val( 2S)     1.10138
   243    C   17  S      Ryd( 3S)     0.00048
   244    C   17  S      Ryd( 4S)     0.00001
   245    C   17  px     Val( 2p)     1.24255
   246    C   17  px     Ryd( 3p)     0.00168
   247    C   17  py     Val( 2p)     1.11575
   248    C   17  py     Ryd( 3p)     0.00123
   249    C   17  pz     Val( 2p)     1.21596
   250    C   17  pz     Ryd( 3p)     0.00190
   251    C   17  dxy    Ryd( 3d)     0.00045
   252    C   17  dxz    Ryd( 3d)     0.00078
   253    C   17  dyz    Ryd( 3d)     0.00079
   254    C   17  dx2y2  Ryd( 3d)     0.00077
   255    C   17  dz2    Ryd( 3d)     0.00048

   256    C   18  S      Cor( 1S)     1.99941
   257    C   18  S      Val( 2S)     1.10304
   258    C   18  S      Ryd( 3S)     0.00046
   259    C   18  S      Ryd( 4S)     0.00001
   260    C   18  px     Val( 2p)     1.20206
   261    C   18  px     Ryd( 3p)     0.00118
   262    C   18  py     Val( 2p)     1.25150
   263    C   18  py     Ryd( 3p)     0.00208
   264    C   18  pz     Val( 2p)     1.12120
   265    C   18  pz     Ryd( 3p)     0.00144
   266    C   18  dxy    Ryd( 3d)     0.00030
   267    C   18  dxz    Ryd( 3d)     0.00045
   268    C   18  dyz    Ryd( 3d)     0.00100
   269    C   18  dx2y2  Ryd( 3d)     0.00102
   270    C   18  dz2    Ryd( 3d)     0.00050

   271    C   19  S      Cor( 1S)     1.99924
   272    C   19  S      Val( 2S)     0.94957
   273    C   19  S      Ryd( 3S)     0.00141
   274    C   19  S      Ryd( 4S)     0.00003
   275    C   19  px     Val( 2p)     0.86439
   276    C   19  px     Ryd( 3p)     0.00223
   277    C   19  py     Val( 2p)     1.17131
   278    C   19  py     Ryd( 3p)     0.00588
   279    C   19  pz     Val( 2p)     1.05434
   280    C   19  pz     Ryd( 3p)     0.00282
   281    C   19  dxy    Ryd( 3d)     0.00083
   282    C   19  dxz    Ryd( 3d)     0.00105
   283    C   19  dyz    Ryd( 3d)     0.00072
   284    C   19  dx2y2  Ryd( 3d)     0.00131
   285    C   19  dz2    Ryd( 3d)     0.00108

   286    C   20  S      Cor( 1S)     1.99940
   287    C   20  S      Val( 2S)     1.10084
   288    C   20  S      Ryd( 3S)     0.00047
   289    C   20  S      Ryd( 4S)     0.00002
   290    C   20  px     Val( 2p)     1.24024
   291    C   20  px     Ryd( 3p)     0.00151
   292    C   20  py     Val( 2p)     1.26013
   293    C   20  py     Ryd( 3p)     0.00188
   294    C   20  pz     Val( 2p)     1.07345
   295    C   20  pz     Ryd( 3p)     0.00131
   296    C   20  dxy    Ryd( 3d)     0.00058
   297    C   20  dxz    Ryd( 3d)     0.00042
   298    C   20  dyz    Ryd( 3d)     0.00071
   299    C   20  dx2y2  Ryd( 3d)     0.00081
   300    C   20  dz2    Ryd( 3d)     0.00074

   301    C   21  S      Cor( 1S)     1.99940
   302    C   21  S      Val( 2S)     1.10144
   303    C   21  S      Ryd( 3S)     0.00046
   304    C   21  S      Ryd( 4S)     0.00001
   305    C   21  px     Val( 2p)     1.18556
   306    C   21  px     Ryd( 3p)     0.00134
   307    C   21  py     Val( 2p)     1.18159
   308    C   21  py     Ryd( 3p)     0.00113
   309    C   21  pz     Val( 2p)     1.20821
   310    C   21  pz     Ryd( 3p)     0.00218
   311    C   21  dxy    Ryd( 3d)     0.00044
   312    C   21  dxz    Ryd( 3d)     0.00029
   313    C   21  dyz    Ryd( 3d)     0.00038
   314    C   21  dx2y2  Ryd( 3d)     0.00100
   315    C   21  dz2    Ryd( 3d)     0.00115

   316    H   22  S      Val( 1S)     0.76677
   317    H   22  S      Ryd( 2S)     0.00053

   318    H   23  S      Val( 1S)     0.78316
   319    H   23  S      Ryd( 2S)     0.00196

   320    H   24  S      Val( 1S)     0.78228
   321    H   24  S      Ryd( 2S)     0.00197

   322    H   25  S      Val( 1S)     0.76570
   323    H   25  S      Ryd( 2S)     0.00085

   324    H   26  S      Val( 1S)     0.76721
   325    H   26  S      Ryd( 2S)     0.00115

   326    H   27  S      Val( 1S)     0.75404
   327    H   27  S      Ryd( 2S)     0.00156

   328    H   28  S      Val( 1S)     0.76861
   329    H   28  S      Ryd( 2S)     0.00109

   330    H   29  S      Val( 1S)     0.75300
   331    H   29  S      Ryd( 2S)     0.00120

   332    H   30  S      Val( 1S)     0.77083
   333    H   30  S      Ryd( 2S)     0.00138

   334    H   31  S      Val( 1S)     0.73476
   335    H   31  S      Ryd( 2S)     0.00219

   336    H   32  S      Val( 1S)     0.77239
   337    H   32  S      Ryd( 2S)     0.00090

   338    H   33  S      Val( 1S)     0.76406
   339    H   33  S      Ryd( 2S)     0.00100

   340    H   34  S      Val( 1S)     0.76166
   341    H   34  S      Ryd( 2S)     0.00081

   342    H   35  S      Val( 1S)     0.77271
   343    H   35  S      Ryd( 2S)     0.00091

   344    H   36  S      Val( 1S)     0.76124
   345    H   36  S      Ryd( 2S)     0.00080

   346    H   37  S      Val( 1S)     0.75833
   347    H   37  S      Ryd( 2S)     0.00103

   348    H   38  S      Val( 1S)     0.76595
   349    H   38  S      Ryd( 2S)     0.00194

   350    H   39  S      Val( 1S)     0.76940
   351    H   39  S      Ryd( 2S)     0.00081

   352    H   40  S      Val( 1S)     0.74534
   353    H   40  S      Ryd( 2S)     0.00146

   354    H   41  S      Val( 1S)     0.76981
   355    H   41  S      Ryd( 2S)     0.00099

   356    H   42  S      Val( 1S)     0.77103
   357    H   42  S      Ryd( 2S)     0.00088

   358    H   43  S      Val( 1S)     0.74306
   359    H   43  S      Ryd( 2S)     0.00160

   360    H   44  S      Val( 1S)     0.77082
   361    H   44  S      Ryd( 2S)     0.00090

 WARNING:  1 low occupancy (<1.9990e) core orbital  found on  C    3
           1 low occupancy (<1.9990e) core orbital  found on  C    8
           1 low occupancy (<1.9990e) core orbital  found on  C   11
           1 low occupancy (<1.9990e) core orbital  found on  C   12


 Summary of Natural Population Analysis:                  
                                                          
                                       Natural Population 
                Natural  -----------------------------------------------
    Atom  No    Charge         Core      Valence    Rydberg      Total
 -----------------------------------------------------------------------
      C    1   -0.32247      1.99942     4.30914    0.01391     6.32247
      O    2   -0.45781      1.99975     6.44643    0.01163     8.45781
      C    3    0.36122      1.99880     3.61752    0.02246     5.63878
      C    4   -0.36877      1.99904     4.35537    0.01435     6.36877
      C    5   -0.21366      1.99907     4.19854    0.01605     6.21366
      C    6   -0.03807      1.99902     4.02378    0.01528     6.03807
      C    7   -0.04394      1.99903     4.02990    0.01501     6.04394
      C    8   -0.24236      1.99900     4.22756    0.01580     6.24236
      C    9   -0.24348      1.99906     4.22896    0.01546     6.24348
      C   10   -0.23724      1.99906     4.22250    0.01569     6.23724
      C   11   -0.09180      1.99893     4.07559    0.01728     6.09180
      C   12   -0.25825      1.99899     4.24387    0.01538     6.25825
      C   13    0.67676      1.99928     3.28299    0.04097     5.32324
      O   14   -0.59194      1.99979     6.57493    0.01721     8.59194
      N   15   -0.47853      1.99928     5.46561    0.01364     7.47853
      C   16   -0.05705      1.99920     4.04224    0.01561     6.05705
      C   17   -0.68362      1.99941     4.67564    0.00858     6.68362
      C   18   -0.68564      1.99941     4.67780    0.00844     6.68564
      C   19   -0.05623      1.99924     4.03962    0.01737     6.05623
      C   20   -0.68251      1.99940     4.67467    0.00843     6.68251
      C   21   -0.68459      1.99940     4.67680    0.00839     6.68459
      H   22    0.23270      0.00000     0.76677    0.00053     0.76730
      H   23    0.21488      0.00000     0.78316    0.00196     0.78512
      H   24    0.21576      0.00000     0.78228    0.00197     0.78424
      H   25    0.23345      0.00000     0.76570    0.00085     0.76655
      H   26    0.23163      0.00000     0.76721    0.00115     0.76837
      H   27    0.24440      0.00000     0.75404    0.00156     0.75560
      H   28    0.23030      0.00000     0.76861    0.00109     0.76970
      H   29    0.24580      0.00000     0.75300    0.00120     0.75420
      H   30    0.22779      0.00000     0.77083    0.00138     0.77221
      H   31    0.26306      0.00000     0.73476    0.00219     0.73694
      H   32    0.22672      0.00000     0.77239    0.00090     0.77328
      H   33    0.23494      0.00000     0.76406    0.00100     0.76506
      H   34    0.23754      0.00000     0.76166    0.00081     0.76246
      H   35    0.22638      0.00000     0.77271    0.00091     0.77362
      H   36    0.23797      0.00000     0.76124    0.00080     0.76203
      H   37    0.24064      0.00000     0.75833    0.00103     0.75936
      H   38    0.23212      0.00000     0.76595    0.00194     0.76788
      H   39    0.22979      0.00000     0.76940    0.00081     0.77021
      H   40    0.25320      0.00000     0.74534    0.00146     0.74680
      H   41    0.22920      0.00000     0.76981    0.00099     0.77080
      H   42    0.22809      0.00000     0.77103    0.00088     0.77191
      H   43    0.25533      0.00000     0.74306    0.00160     0.74467
      H   44    0.22828      0.00000     0.77082    0.00090     0.77172
 =======================================================================
   * Total *   -0.00000     41.98358   111.66161    0.35481   154.00000

                                 Natural Population      
 --------------------------------------------------------
   Core                      41.98358 ( 99.9609% of  42)
   Valence                  111.66161 ( 99.6979% of 112)
   Natural Minimal Basis    153.64519 ( 99.7696% of 154)
   Natural Rydberg Basis      0.35481 (  0.2304% of 154)
 --------------------------------------------------------

    Atom  No          Natural Electron Configuration
 ----------------------------------------------------------------------------
      C    1      [core]2S( 1.10)2p( 3.21)3p( 0.01)3d( 0.01)
      O    2      [core]2S( 1.59)2p( 4.85)3p( 0.01)3d( 0.01)
      C    3      [core]2S( 0.84)2p( 2.78)3p( 0.01)3d( 0.01)
      C    4      [core]2S( 0.95)2p( 3.40)3p( 0.01)
      C    5      [core]2S( 0.94)2p( 3.26)3p( 0.01)
      C    6      [core]2S( 0.87)2p( 3.16)3p( 0.01)
      C    7      [core]2S( 0.87)2p( 3.16)3p( 0.01)
      C    8      [core]2S( 0.95)2p( 3.27)3p( 0.01)
      C    9      [core]2S( 0.94)2p( 3.29)3p( 0.01)
      C   10      [core]2S( 0.95)2p( 3.27)3p( 0.01)
      C   11      [core]2S( 0.91)2p( 3.17)3p( 0.01)
      C   12      [core]2S( 0.93)2p( 3.31)3p( 0.01)
      C   13      [core]2S( 0.77)2p( 2.52)3p( 0.03)3d( 0.01)
      O   14      [core]2S( 1.70)2p( 4.87)3d( 0.01)
      N   15      [core]2S( 1.21)2p( 4.26)3p( 0.01)
      C   16      [core]2S( 0.95)2p( 3.09)3p( 0.01)3d( 0.01)
      C   17      [core]2S( 1.10)2p( 3.57)
      C   18      [core]2S( 1.10)2p( 3.57)
      C   19      [core]2S( 0.95)2p( 3.09)3p( 0.01)
      C   20      [core]2S( 1.10)2p( 3.57)
      C   21      [core]2S( 1.10)2p( 3.58)
      H   22            1S( 0.77)
      H   23            1S( 0.78)
      H   24            1S( 0.78)
      H   25            1S( 0.77)
      H   26            1S( 0.77)
      H   27            1S( 0.75)
      H   28            1S( 0.77)
      H   29            1S( 0.75)
      H   30            1S( 0.77)
      H   31            1S( 0.73)
      H   32            1S( 0.77)
      H   33            1S( 0.76)
      H   34            1S( 0.76)
      H   35            1S( 0.77)
      H   36            1S( 0.76)
      H   37            1S( 0.76)
      H   38            1S( 0.77)
      H   39            1S( 0.77)
      H   40            1S( 0.75)
      H   41            1S( 0.77)
      H   42            1S( 0.77)
      H   43            1S( 0.74)
      H   44            1S( 0.77)


 NBO analysis skipped by request.
 Leave Link  607 at Thu Sep 30 20:59:17 2021, MaxMem= 1879048192 cpu:      34.9
 (Enter /sw/target/amd/app/gaussian/Gaussian09RevA.02_gcc-4.9.2/g09/l9999.exe)
 1\1\GINC-HERMITE\SP\RTD-B3LYP-FC\6-31G(d)\C18H23N1O2\JSCHLEINITZ\30-Se
 p-2021\0\\#p TD(NStates=10, Root=1) b3lyp/6-31G* volume pop=NPA densit
 y=current Geom=AllCheck Guess=Read\\COc1ccc2c(c1)ccc(c2)C(=O)N(C(C)C)C
 (C)C_conf_0\\0,1\C,0,5.7367097924,-11.6416348218,-5.81445612\O,0,5.509
 5653318,-10.2946296132,-6.1973396668\C,0,5.5253241423,-9.3253499385,-5
 .235353164\C,0,5.7464755295,-9.586498695,-3.8574785529\C,0,5.744835833
 5,-8.5462690923,-2.9531985744\C,0,5.5238131384,-7.208065415,-3.3627823
 206\C,0,5.3065396409,-6.9499106931,-4.7562889047\C,0,5.3101653412,-8.0
 281503276,-5.6684896301\C,0,5.1068025836,-5.6006499284,-5.168551065\C,
 0,5.1206169809,-4.5736782531,-4.258740426\C,0,5.296128061,-4.827476953
 ,-2.8678788646\C,0,5.5068898579,-6.1245246847,-2.4446905114\C,0,5.4224
 307241,-3.6271536376,-1.960169236\O,0,6.1791482568,-2.7209418421,-2.31
 58217728\N,0,4.7308351483,-3.5842440129,-0.7714938279\C,0,3.5849219101
 ,-4.4696091626,-0.4648423127\C,0,3.8156787518,-5.3006870034,0.80706806
 05\C,0,2.2552875563,-3.6986639121,-0.4038967945\C,0,5.0112325546,-2.47
 06059126,0.1758662484\C,0,6.4602807513,-2.5102598445,0.6825735304\C,0,
 4.6248242115,-1.0877332027,-0.3741032355\H,0,5.6831329795,-12.22499940
 15,-6.7355183132\H,0,4.9696404265,-12.0012533893,-5.1157521626\H,0,6.7
 28178684,-11.7741036171,-5.3615504338\H,0,5.9173960318,-10.5983682162,
 -3.5085744149\H,0,5.914568378,-8.7520459593,-1.8988415619\H,0,5.147410
 9469,-7.8503052015,-6.7274667652\H,0,4.9571363779,-5.3936915631,-6.225
 4173211\H,0,5.0067041572,-3.5444595535,-4.5838366673\H,0,5.6850041376,
 -6.3366161108,-1.393105968\H,0,3.5103395682,-5.1615773128,-1.303553789
 8\H,0,3.8711612493,-4.6739393267,1.7043294315\H,0,4.7453855628,-5.8753
 479807,0.7408872211\H,0,2.9875340954,-6.0042539555,0.949318975\H,0,2.2
 252868101,-2.985845257,0.4274755579\H,0,1.4270917866,-4.4027649743,-0.
 2636392504\H,0,2.0813241955,-3.1486555399,-1.334342397\H,0,4.365123752
 5,-2.6694755823,1.0365245163\H,0,6.6018040016,-1.748306019,1.457955252
 3\H,0,7.1617756807,-2.3145092816,-0.1305064689\H,0,6.6919057202,-3.488
 0121508,1.1195264381\H,0,3.5828064602,-1.074554907,-0.7105719958\H,0,5
 .2656071888,-0.8131338393,-1.2128760209\H,0,4.7332087309,-0.3362891401
 ,0.4173775442\\Version=AM64L-G09RevA.02\State=1-A\HF=-904.986258\RMSD=
 7.348e-09\Dipole=-0.8024241,-1.7982162,0.492598\Quadrupole=-9.4438011,
 8.1498712,1.2939299,-7.1441828,-1.7010807,9.4242727\PG=C01 [X(C18H23N1
 O2)]\\@


 HE THAT WALD REACHE THE SWEITE ROSE
 SULD NOW AND THEN BE SCRATCHED WT THE SCHARPE BREERES.
 -- PROVERBS AND REASONS OF THE YEAR 1585
           AS REPRINTED IN PAISLEY MAGAZINE 1828.
 Job cpu time:  0 days  9 hours  5 minutes 21.1 seconds.
 File lengths (MBytes):  RWF=    426 Int=      0 D2E=      0 Chk=     59 Scr=      1
 Normal termination of Gaussian 09 at Thu Sep 30 20:59:29 2021.
