 Entering Gaussian System, Link 0=g09
 Input=C18H33P_2787_conf_0.com
 Output=C18H33P_2787_conf_0.log
 Initial command:
 /sw/target/amd/app/gaussian/Gaussian09RevA.02_gcc-4.9.2/g09/l1.exe /home/jschleinitz/gaussian/Gau-2053539.inp -scrdir=/home/jschleinitz/gaussian/
 Entering Link 1 = /sw/target/amd/app/gaussian/Gaussian09RevA.02_gcc-4.9.2/g09/l1.exe PID=   2053543.
  
 Copyright (c) 1988,1990,1992,1993,1995,1998,2003,2009, Gaussian, Inc.
                  All Rights Reserved.
  
 This is part of the Gaussian(R) 09 program.  It is based on
 the Gaussian(R) 03 system (copyright 2003, Gaussian, Inc.),
 the Gaussian(R) 98 system (copyright 1998, Gaussian, Inc.),
 the Gaussian(R) 94 system (copyright 1995, Gaussian, Inc.),
 the Gaussian 92(TM) system (copyright 1992, Gaussian, Inc.),
 the Gaussian 90(TM) system (copyright 1990, Gaussian, Inc.),
 the Gaussian 88(TM) system (copyright 1988, Gaussian, Inc.),
 the Gaussian 86(TM) system (copyright 1986, Carnegie Mellon
 University), and the Gaussian 82(TM) system (copyright 1983,
 Carnegie Mellon University). Gaussian is a federally registered
 trademark of Gaussian, Inc.
  
 This software contains proprietary and confidential information,
 including trade secrets, belonging to Gaussian, Inc.
  
 This software is provided under written license and may be
 used, copied, transmitted, or stored only in accord with that
 written license.
  
 The following legend is applicable only to US Government
 contracts under FAR:
  
                    RESTRICTED RIGHTS LEGEND
  
 Use, reproduction and disclosure by the US Government is
 subject to restrictions as set forth in subparagraphs (a)
 and (c) of the Commercial Computer Software - Restricted
 Rights clause in FAR 52.227-19.
  
 Gaussian, Inc.
 340 Quinnipiac St., Bldg. 40, Wallingford CT 06492
  
  
 ---------------------------------------------------------------
 Warning -- This program may not be used in any manner that
 competes with the business of Gaussian, Inc. or will provide
 assistance to any competitor of Gaussian, Inc.  The licensee
 of this program is prohibited from giving any competitor of
 Gaussian, Inc. access to this program.  By using this program,
 the user acknowledges that Gaussian, Inc. is engaged in the
 business of creating and licensing software in the field of
 computational chemistry and represents and warrants to the
 licensee that it is not a competitor of Gaussian, Inc. and that
 it will not use this program in any manner prohibited above.
 ---------------------------------------------------------------
  

 Cite this work as:
 Gaussian 09, Revision A.02,
 M. J. Frisch, G. W. Trucks, H. B. Schlegel, G. E. Scuseria, 
 M. A. Robb, J. R. Cheeseman, G. Scalmani, V. Barone, B. Mennucci, 
 G. A. Petersson, H. Nakatsuji, M. Caricato, X. Li, H. P. Hratchian, 
 A. F. Izmaylov, J. Bloino, G. Zheng, J. L. Sonnenberg, M. Hada, 
 M. Ehara, K. Toyota, R. Fukuda, J. Hasegawa, M. Ishida, T. Nakajima, 
 Y. Honda, O. Kitao, H. Nakai, T. Vreven, J. A. Montgomery, Jr., 
 J. E. Peralta, F. Ogliaro, M. Bearpark, J. J. Heyd, E. Brothers, 
 K. N. Kudin, V. N. Staroverov, R. Kobayashi, J. Normand, 
 K. Raghavachari, A. Rendell, J. C. Burant, S. S. Iyengar, J. Tomasi, 
 M. Cossi, N. Rega, J. M. Millam, M. Klene, J. E. Knox, J. B. Cross, 
 V. Bakken, C. Adamo, J. Jaramillo, R. Gomperts, R. E. Stratmann, 
 O. Yazyev, A. J. Austin, R. Cammi, C. Pomelli, J. W. Ochterski, 
 R. L. Martin, K. Morokuma, V. G. Zakrzewski, G. A. Voth, 
 P. Salvador, J. J. Dannenberg, S. Dapprich, A. D. Daniels, 
 O. Farkas, J. B. Foresman, J. V. Ortiz, J. Cioslowski, 
 and D. J. Fox, Gaussian, Inc., Wallingford CT, 2009.
 
 ******************************************
 Gaussian 09:  AM64L-G09RevA.02 11-Jun-2009
                 1-Oct-2021 
 ******************************************
 %nproc=8
 Will use up to    8 processors via shared memory.
 %mem=16gb
 %chk=C18H33P_2787_conf_0.chk
 -----------------------------------
 #p opt b3lyp/6-31G* scf=(xqc,tight)
 -----------------------------------
 1/14=-1,18=20,19=15,26=3,38=1/1,3;
 2/9=110,12=2,17=6,18=5,40=1/2;
 3/5=1,6=6,7=1,11=2,16=1,25=1,30=1,71=1,74=-5/1,2,3;
 4//1;
 5/5=2,8=3,13=1,32=2,38=5/2,8;
 6/7=2,8=2,9=2,10=2,28=1/1;
 7//1,2,3,16;
 1/14=-1,18=20,19=15/3(2);
 2/9=110/2;
 99//99;
 2/9=110/2;
 3/5=1,6=6,7=1,11=2,16=1,25=1,30=1,71=1,74=-5/1,2,3;
 4/5=5,16=3/1;
 5/5=2,8=3,13=1,32=2,38=5/2,8;
 7//1,2,3,16;
 1/14=-1,18=20,19=15/3(-5);
 2/9=110/2;
 6/7=2,8=2,9=2,10=2,19=2,28=1/1;
 99/9=1/99;
 Leave Link    1 at Fri Oct  1 18:35:24 2021, MaxMem= 2147483648 cpu:       0.1
 (Enter /sw/target/amd/app/gaussian/Gaussian09RevA.02_gcc-4.9.2/g09/l101.exe)
 ------------------------------------
 C1CCC(CC1)P(C1CCCCC1)C1CCCCC1_conf_0
 ------------------------------------
 Symbolic Z-matrix:
 Charge =  0 Multiplicity = 1
 C                    -1.4235    0.67447   0.24334 
 C                    -1.18236  -0.80139   0.50493 
 C                     0.20722  -1.21309   0.02591 
 C                     1.3574   -0.40873   0.67645 
 C                     1.04952   1.10517   0.56661 
 C                    -0.37606   1.49587   0.97603 
 P                     3.01632  -0.7833   -0.17265 
 C                     4.20026   0.41146   0.70423 
 C                     5.55766   0.50803  -0.02793 
 C                     6.66452   1.20174   0.76876 
 C                     6.73769   0.69278   2.20229 
 C                     5.41394   0.9445    2.90357 
 C                     4.28764   0.17396   2.21989 
 C                     3.54423  -2.5095    0.41949 
 C                     4.91383  -2.88276  -0.19211 
 C                     5.34291  -4.32864   0.01707 
 C                     4.27929  -5.30384  -0.44732 
 C                     2.97886  -5.02441   0.27922 
 C                     2.50415  -3.58784   0.07359 
 H                    -2.42452   0.95418   0.57947 
 H                    -1.37478   0.88274  -0.83022 
 H                    -1.93779  -1.39662  -0.01828 
 H                    -1.28747  -1.01825   1.57514 
 H                     0.25125  -1.12685  -1.06466 
 H                     0.28478  -2.27296   0.25443 
 H                     1.43809  -0.68366   1.73479 
 H                     1.21223   1.45232  -0.4612 
 H                     1.73024   1.68052   1.20388 
 H                    -0.53784   2.56148   0.76624 
 H                    -0.49642   1.36381   2.05866 
 H                     3.7592    1.4053    0.5712 
 H                     5.41897   1.04782  -0.97499 
 H                     5.9387   -0.46568  -0.32506 
 H                     6.48587   2.28491   0.77358 
 H                     7.62525   1.04104   0.2711 
 H                     7.54504   1.2054    2.73465 
 H                     6.9718   -0.37905   2.20904 
 H                     5.18722   2.01747   2.90712 
 H                     5.48475   0.62872   3.9506 
 H                     3.33881   0.45482   2.69807 
 H                     4.44075  -0.88285   2.45069 
 H                     3.63787  -2.50088   1.50893 
 H                     5.69834  -2.27691   0.27359 
 H                     4.92469  -2.66373  -1.26917 
 H                     5.55666  -4.49303   1.08056 
 H                     6.27749  -4.51635  -0.52534 
 H                     4.60385  -6.33093  -0.24691 
 H                     4.13207  -5.21557  -1.53041 
 H                     3.11138  -5.21109   1.35298 
 H                     2.20345  -5.71856  -0.06753 
 H                     1.65     -3.47918   0.74253 
 H                     2.15081  -3.47267  -0.95858 
 
 NAtoms=     52 NQM=     52 NQMF=      0 NMic=      0 NMicF=      0 NTot=     52.
                    Isotopes and Nuclear Properties:
 (Nuclear quadrupole moments (NQMom) in fm**2, nuclear magnetic moments (NMagM)
  in nuclear magnetons)

  Atom         1           2           3           4           5           6           7           8           9          10
 IAtWgt=          12          12          12          12          12          12          31          12          12          12
 AtmWgt=  12.0000000  12.0000000  12.0000000  12.0000000  12.0000000  12.0000000  30.9737634  12.0000000  12.0000000  12.0000000
 NucSpn=           0           0           0           0           0           0           1           0           0           0
 AtZEff=   0.0000000   0.0000000   0.0000000   0.0000000   0.0000000   0.0000000   0.0000000   0.0000000   0.0000000   0.0000000
 NQMom=    0.0000000   0.0000000   0.0000000   0.0000000   0.0000000   0.0000000   0.0000000   0.0000000   0.0000000   0.0000000
 NMagM=    0.0000000   0.0000000   0.0000000   0.0000000   0.0000000   0.0000000   1.1316000   0.0000000   0.0000000   0.0000000

  Atom        11          12          13          14          15          16          17          18          19          20
 IAtWgt=          12          12          12          12          12          12          12          12          12           1
 AtmWgt=  12.0000000  12.0000000  12.0000000  12.0000000  12.0000000  12.0000000  12.0000000  12.0000000  12.0000000   1.0078250
 NucSpn=           0           0           0           0           0           0           0           0           0           1
 AtZEff=   0.0000000   0.0000000   0.0000000   0.0000000   0.0000000   0.0000000   0.0000000   0.0000000   0.0000000   0.0000000
 NQMom=    0.0000000   0.0000000   0.0000000   0.0000000   0.0000000   0.0000000   0.0000000   0.0000000   0.0000000   0.0000000
 NMagM=    0.0000000   0.0000000   0.0000000   0.0000000   0.0000000   0.0000000   0.0000000   0.0000000   0.0000000   2.7928460

  Atom        21          22          23          24          25          26          27          28          29          30
 IAtWgt=           1           1           1           1           1           1           1           1           1           1
 AtmWgt=   1.0078250   1.0078250   1.0078250   1.0078250   1.0078250   1.0078250   1.0078250   1.0078250   1.0078250   1.0078250
 NucSpn=           1           1           1           1           1           1           1           1           1           1
 AtZEff=   0.0000000   0.0000000   0.0000000   0.0000000   0.0000000   0.0000000   0.0000000   0.0000000   0.0000000   0.0000000
 NQMom=    0.0000000   0.0000000   0.0000000   0.0000000   0.0000000   0.0000000   0.0000000   0.0000000   0.0000000   0.0000000
 NMagM=    2.7928460   2.7928460   2.7928460   2.7928460   2.7928460   2.7928460   2.7928460   2.7928460   2.7928460   2.7928460

  Atom        31          32          33          34          35          36          37          38          39          40
 IAtWgt=           1           1           1           1           1           1           1           1           1           1
 AtmWgt=   1.0078250   1.0078250   1.0078250   1.0078250   1.0078250   1.0078250   1.0078250   1.0078250   1.0078250   1.0078250
 NucSpn=           1           1           1           1           1           1           1           1           1           1
 AtZEff=   0.0000000   0.0000000   0.0000000   0.0000000   0.0000000   0.0000000   0.0000000   0.0000000   0.0000000   0.0000000
 NQMom=    0.0000000   0.0000000   0.0000000   0.0000000   0.0000000   0.0000000   0.0000000   0.0000000   0.0000000   0.0000000
 NMagM=    2.7928460   2.7928460   2.7928460   2.7928460   2.7928460   2.7928460   2.7928460   2.7928460   2.7928460   2.7928460

  Atom        41          42          43          44          45          46          47          48          49          50
 IAtWgt=           1           1           1           1           1           1           1           1           1           1
 AtmWgt=   1.0078250   1.0078250   1.0078250   1.0078250   1.0078250   1.0078250   1.0078250   1.0078250   1.0078250   1.0078250
 NucSpn=           1           1           1           1           1           1           1           1           1           1
 AtZEff=   0.0000000   0.0000000   0.0000000   0.0000000   0.0000000   0.0000000   0.0000000   0.0000000   0.0000000   0.0000000
 NQMom=    0.0000000   0.0000000   0.0000000   0.0000000   0.0000000   0.0000000   0.0000000   0.0000000   0.0000000   0.0000000
 NMagM=    2.7928460   2.7928460   2.7928460   2.7928460   2.7928460   2.7928460   2.7928460   2.7928460   2.7928460   2.7928460

  Atom        51          52
 IAtWgt=           1           1
 AtmWgt=   1.0078250   1.0078250
 NucSpn=           1           1
 AtZEff=   0.0000000   0.0000000
 NQMom=    0.0000000   0.0000000
 NMagM=    2.7928460   2.7928460
 Leave Link  101 at Fri Oct  1 18:35:24 2021, MaxMem= 2147483648 cpu:       0.2
 (Enter /sw/target/amd/app/gaussian/Gaussian09RevA.02_gcc-4.9.2/g09/l103.exe)

 GradGradGradGradGradGradGradGradGradGradGradGradGradGradGradGradGradGrad
 Berny optimization.
 Initialization pass.
                           ----------------------------
                           !    Initial Parameters    !
                           ! (Angstroms and Degrees)  !
 --------------------------                            --------------------------
 ! Name  Definition              Value          Derivative Info.                !
 --------------------------------------------------------------------------------
 ! R1    R(1,2)                  1.5181         estimate D2E/DX2                !
 ! R2    R(1,6)                  1.5194         estimate D2E/DX2                !
 ! R3    R(1,20)                 1.0924         estimate D2E/DX2                !
 ! R4    R(1,21)                 1.0947         estimate D2E/DX2                !
 ! R5    R(2,3)                  1.5264         estimate D2E/DX2                !
 ! R6    R(2,22)                 1.0949         estimate D2E/DX2                !
 ! R7    R(2,23)                 1.097          estimate D2E/DX2                !
 ! R8    R(3,4)                  1.547          estimate D2E/DX2                !
 ! R9    R(3,24)                 1.0949         estimate D2E/DX2                !
 ! R10   R(3,25)                 1.087          estimate D2E/DX2                !
 ! R11   R(4,5)                  1.5488         estimate D2E/DX2                !
 ! R12   R(4,7)                  1.9009         estimate D2E/DX2                !
 ! R13   R(4,26)                 1.0964         estimate D2E/DX2                !
 ! R14   R(5,6)                  1.5338         estimate D2E/DX2                !
 ! R15   R(5,27)                 1.097          estimate D2E/DX2                !
 ! R16   R(5,28)                 1.0957         estimate D2E/DX2                !
 ! R17   R(6,29)                 1.098          estimate D2E/DX2                !
 ! R18   R(6,30)                 1.0973         estimate D2E/DX2                !
 ! R19   R(7,8)                  1.8969         estimate D2E/DX2                !
 ! R20   R(7,14)                 1.8998         estimate D2E/DX2                !
 ! R21   R(8,9)                  1.5453         estimate D2E/DX2                !
 ! R22   R(8,13)                 1.5366         estimate D2E/DX2                !
 ! R23   R(8,31)                 1.0954         estimate D2E/DX2                !
 ! R24   R(9,10)                 1.5301         estimate D2E/DX2                !
 ! R25   R(9,32)                 1.0989         estimate D2E/DX2                !
 ! R26   R(9,33)                 1.087          estimate D2E/DX2                !
 ! R27   R(10,11)                1.523          estimate D2E/DX2                !
 ! R28   R(10,34)                1.0978         estimate D2E/DX2                !
 ! R29   R(10,35)                1.0938         estimate D2E/DX2                !
 ! R30   R(11,12)                1.519          estimate D2E/DX2                !
 ! R31   R(11,36)                1.0945         estimate D2E/DX2                !
 ! R32   R(11,37)                1.0971         estimate D2E/DX2                !
 ! R33   R(12,13)                1.5263         estimate D2E/DX2                !
 ! R34   R(12,38)                1.0967         estimate D2E/DX2                !
 ! R35   R(12,39)                1.0959         estimate D2E/DX2                !
 ! R36   R(13,40)                1.099          estimate D2E/DX2                !
 ! R37   R(13,41)                1.0925         estimate D2E/DX2                !
 ! R38   R(14,15)                1.5457         estimate D2E/DX2                !
 ! R39   R(14,19)                1.5376         estimate D2E/DX2                !
 ! R40   R(14,42)                1.0935         estimate D2E/DX2                !
 ! R41   R(15,16)                1.5226         estimate D2E/DX2                !
 ! R42   R(15,43)                1.0952         estimate D2E/DX2                !
 ! R43   R(15,44)                1.0992         estimate D2E/DX2                !
 ! R44   R(16,17)                1.5159         estimate D2E/DX2                !
 ! R45   R(16,45)                1.0971         estimate D2E/DX2                !
 ! R46   R(16,46)                1.0968         estimate D2E/DX2                !
 ! R47   R(17,18)                1.5156         estimate D2E/DX2                !
 ! R48   R(17,47)                1.0956         estimate D2E/DX2                !
 ! R49   R(17,48)                1.0966         estimate D2E/DX2                !
 ! R50   R(18,19)                1.5269         estimate D2E/DX2                !
 ! R51   R(18,49)                1.0979         estimate D2E/DX2                !
 ! R52   R(18,50)                1.097          estimate D2E/DX2                !
 ! R53   R(19,51)                1.0903         estimate D2E/DX2                !
 ! R54   R(19,52)                1.097          estimate D2E/DX2                !
 ! A1    A(2,1,6)              109.4483         estimate D2E/DX2                !
 ! A2    A(2,1,20)             109.9659         estimate D2E/DX2                !
 ! A3    A(2,1,21)             110.2966         estimate D2E/DX2                !
 ! A4    A(6,1,20)             110.1765         estimate D2E/DX2                !
 ! A5    A(6,1,21)             109.8394         estimate D2E/DX2                !
 ! A6    A(20,1,21)            107.0883         estimate D2E/DX2                !
 ! A7    A(1,2,3)              110.6549         estimate D2E/DX2                !
 ! A8    A(1,2,22)             109.6691         estimate D2E/DX2                !
 ! A9    A(1,2,23)             110.1859         estimate D2E/DX2                !
 ! A10   A(3,2,22)             109.3612         estimate D2E/DX2                !
 ! A11   A(3,2,23)             109.8801         estimate D2E/DX2                !
 ! A12   A(22,2,23)            107.0148         estimate D2E/DX2                !
 ! A13   A(2,3,4)              113.8688         estimate D2E/DX2                !
 ! A14   A(2,3,24)             109.1445         estimate D2E/DX2                !
 ! A15   A(2,3,25)             105.187          estimate D2E/DX2                !
 ! A16   A(4,3,24)             110.3666         estimate D2E/DX2                !
 ! A17   A(4,3,25)             111.4404         estimate D2E/DX2                !
 ! A18   A(24,3,25)            106.4595         estimate D2E/DX2                !
 ! A19   A(3,4,5)              109.3068         estimate D2E/DX2                !
 ! A20   A(3,4,7)              111.0121         estimate D2E/DX2                !
 ! A21   A(3,4,26)             109.2842         estimate D2E/DX2                !
 ! A22   A(5,4,7)              109.5371         estimate D2E/DX2                !
 ! A23   A(5,4,26)             109.1587         estimate D2E/DX2                !
 ! A24   A(7,4,26)             108.5136         estimate D2E/DX2                !
 ! A25   A(4,5,6)              114.5077         estimate D2E/DX2                !
 ! A26   A(4,5,27)             110.2605         estimate D2E/DX2                !
 ! A27   A(4,5,28)             110.3971         estimate D2E/DX2                !
 ! A28   A(6,5,27)             107.8994         estimate D2E/DX2                !
 ! A29   A(6,5,28)             106.7641         estimate D2E/DX2                !
 ! A30   A(27,5,28)            106.6559         estimate D2E/DX2                !
 ! A31   A(1,6,5)              111.9812         estimate D2E/DX2                !
 ! A32   A(1,6,29)             109.3252         estimate D2E/DX2                !
 ! A33   A(1,6,30)             109.5788         estimate D2E/DX2                !
 ! A34   A(5,6,29)             109.4593         estimate D2E/DX2                !
 ! A35   A(5,6,30)             109.5521         estimate D2E/DX2                !
 ! A36   A(29,6,30)            106.8066         estimate D2E/DX2                !
 ! A37   A(4,7,8)              102.3629         estimate D2E/DX2                !
 ! A38   A(4,7,14)             106.3996         estimate D2E/DX2                !
 ! A39   A(8,7,14)             104.7612         estimate D2E/DX2                !
 ! A40   A(7,8,9)              111.6295         estimate D2E/DX2                !
 ! A41   A(7,8,13)             113.2104         estimate D2E/DX2                !
 ! A42   A(7,8,31)             105.3079         estimate D2E/DX2                !
 ! A43   A(9,8,13)             115.2797         estimate D2E/DX2                !
 ! A44   A(9,8,31)             103.8542         estimate D2E/DX2                !
 ! A45   A(13,8,31)            106.4332         estimate D2E/DX2                !
 ! A46   A(8,9,10)             114.6506         estimate D2E/DX2                !
 ! A47   A(8,9,32)             109.1582         estimate D2E/DX2                !
 ! A48   A(8,9,33)             112.4232         estimate D2E/DX2                !
 ! A49   A(10,9,32)            108.5026         estimate D2E/DX2                !
 ! A50   A(10,9,33)            107.1499         estimate D2E/DX2                !
 ! A51   A(32,9,33)            104.3994         estimate D2E/DX2                !
 ! A52   A(9,10,11)            111.9229         estimate D2E/DX2                !
 ! A53   A(9,10,34)            109.3838         estimate D2E/DX2                !
 ! A54   A(9,10,35)            109.3825         estimate D2E/DX2                !
 ! A55   A(11,10,34)           109.4765         estimate D2E/DX2                !
 ! A56   A(11,10,35)           109.6917         estimate D2E/DX2                !
 ! A57   A(34,10,35)           106.8506         estimate D2E/DX2                !
 ! A58   A(10,11,12)           109.7128         estimate D2E/DX2                !
 ! A59   A(10,11,36)           109.6788         estimate D2E/DX2                !
 ! A60   A(10,11,37)           110.0313         estimate D2E/DX2                !
 ! A61   A(12,11,36)           109.9155         estimate D2E/DX2                !
 ! A62   A(12,11,37)           110.1817         estimate D2E/DX2                !
 ! A63   A(36,11,37)           107.2872         estimate D2E/DX2                !
 ! A64   A(11,12,13)           110.6469         estimate D2E/DX2                !
 ! A65   A(11,12,38)           110.1076         estimate D2E/DX2                !
 ! A66   A(11,12,39)           109.6953         estimate D2E/DX2                !
 ! A67   A(13,12,38)           110.0483         estimate D2E/DX2                !
 ! A68   A(13,12,39)           109.2785         estimate D2E/DX2                !
 ! A69   A(38,12,39)           106.9886         estimate D2E/DX2                !
 ! A70   A(8,13,12)            113.9377         estimate D2E/DX2                !
 ! A71   A(8,13,40)            109.9114         estimate D2E/DX2                !
 ! A72   A(8,13,41)            111.4599         estimate D2E/DX2                !
 ! A73   A(12,13,40)           108.2513         estimate D2E/DX2                !
 ! A74   A(12,13,41)           106.8757         estimate D2E/DX2                !
 ! A75   A(40,13,41)           106.0379         estimate D2E/DX2                !
 ! A76   A(7,14,15)            110.0184         estimate D2E/DX2                !
 ! A77   A(7,14,19)            112.2815         estimate D2E/DX2                !
 ! A78   A(7,14,42)            109.097          estimate D2E/DX2                !
 ! A79   A(15,14,19)           109.9374         estimate D2E/DX2                !
 ! A80   A(15,14,42)           108.6773         estimate D2E/DX2                !
 ! A81   A(19,14,42)           106.713          estimate D2E/DX2                !
 ! A82   A(14,15,16)           115.1284         estimate D2E/DX2                !
 ! A83   A(14,15,43)           109.4434         estimate D2E/DX2                !
 ! A84   A(14,15,44)           110.3868         estimate D2E/DX2                !
 ! A85   A(16,15,43)           105.3689         estimate D2E/DX2                !
 ! A86   A(16,15,44)           108.7273         estimate D2E/DX2                !
 ! A87   A(43,15,44)           107.4198         estimate D2E/DX2                !
 ! A88   A(15,16,17)           111.7818         estimate D2E/DX2                !
 ! A89   A(15,16,45)           109.2904         estimate D2E/DX2                !
 ! A90   A(15,16,46)           109.5548         estimate D2E/DX2                !
 ! A91   A(17,16,45)           109.71           estimate D2E/DX2                !
 ! A92   A(17,16,46)           109.6502         estimate D2E/DX2                !
 ! A93   A(45,16,46)           106.7215         estimate D2E/DX2                !
 ! A94   A(16,17,18)           109.6678         estimate D2E/DX2                !
 ! A95   A(16,17,47)           109.8277         estimate D2E/DX2                !
 ! A96   A(16,17,48)           110.181          estimate D2E/DX2                !
 ! A97   A(18,17,47)           109.8354         estimate D2E/DX2                !
 ! A98   A(18,17,48)           110.086          estimate D2E/DX2                !
 ! A99   A(47,17,48)           107.2103         estimate D2E/DX2                !
 ! A100  A(17,18,19)           112.0654         estimate D2E/DX2                !
 ! A101  A(17,18,49)           109.5067         estimate D2E/DX2                !
 ! A102  A(17,18,50)           109.7742         estimate D2E/DX2                !
 ! A103  A(19,18,49)           109.2214         estimate D2E/DX2                !
 ! A104  A(19,18,50)           109.4525         estimate D2E/DX2                !
 ! A105  A(49,18,50)           106.6712         estimate D2E/DX2                !
 ! A106  A(14,19,18)           114.7863         estimate D2E/DX2                !
 ! A107  A(14,19,51)           108.7833         estimate D2E/DX2                !
 ! A108  A(14,19,52)           110.8486         estimate D2E/DX2                !
 ! A109  A(18,19,51)           104.7552         estimate D2E/DX2                !
 ! A110  A(18,19,52)           109.0031         estimate D2E/DX2                !
 ! A111  A(51,19,52)           108.3282         estimate D2E/DX2                !
 ! D1    D(6,1,2,3)            -59.4954         estimate D2E/DX2                !
 ! D2    D(6,1,2,22)           179.7745         estimate D2E/DX2                !
 ! D3    D(6,1,2,23)            62.2259         estimate D2E/DX2                !
 ! D4    D(20,1,2,3)           179.3428         estimate D2E/DX2                !
 ! D5    D(20,1,2,22)           58.6127         estimate D2E/DX2                !
 ! D6    D(20,1,2,23)          -58.9358         estimate D2E/DX2                !
 ! D7    D(21,1,2,3)            61.458          estimate D2E/DX2                !
 ! D8    D(21,1,2,22)          -59.2721         estimate D2E/DX2                !
 ! D9    D(21,1,2,23)         -176.8207         estimate D2E/DX2                !
 ! D10   D(2,1,6,5)             57.1825         estimate D2E/DX2                !
 ! D11   D(2,1,6,29)           178.6662         estimate D2E/DX2                !
 ! D12   D(2,1,6,30)           -64.5941         estimate D2E/DX2                !
 ! D13   D(20,1,6,5)           178.2167         estimate D2E/DX2                !
 ! D14   D(20,1,6,29)          -60.2996         estimate D2E/DX2                !
 ! D15   D(20,1,6,30)           56.4401         estimate D2E/DX2                !
 ! D16   D(21,1,6,5)           -64.0479         estimate D2E/DX2                !
 ! D17   D(21,1,6,29)           57.4358         estimate D2E/DX2                !
 ! D18   D(21,1,6,30)          174.1755         estimate D2E/DX2                !
 ! D19   D(1,2,3,4)             57.6671         estimate D2E/DX2                !
 ! D20   D(1,2,3,24)           -66.1446         estimate D2E/DX2                !
 ! D21   D(1,2,3,25)           179.9635         estimate D2E/DX2                !
 ! D22   D(22,2,3,4)           178.5801         estimate D2E/DX2                !
 ! D23   D(22,2,3,24)           54.7684         estimate D2E/DX2                !
 ! D24   D(22,2,3,25)          -59.1236         estimate D2E/DX2                !
 ! D25   D(23,2,3,4)           -64.234          estimate D2E/DX2                !
 ! D26   D(23,2,3,24)          171.9543         estimate D2E/DX2                !
 ! D27   D(23,2,3,25)           58.0624         estimate D2E/DX2                !
 ! D28   D(2,3,4,5)            -49.8794         estimate D2E/DX2                !
 ! D29   D(2,3,4,7)           -170.82           estimate D2E/DX2                !
 ! D30   D(2,3,4,26)            69.526          estimate D2E/DX2                !
 ! D31   D(24,3,4,5)            73.2686         estimate D2E/DX2                !
 ! D32   D(24,3,4,7)           -47.6719         estimate D2E/DX2                !
 ! D33   D(24,3,4,26)         -167.3259         estimate D2E/DX2                !
 ! D34   D(25,3,4,5)          -168.6654         estimate D2E/DX2                !
 ! D35   D(25,3,4,7)            70.3941         estimate D2E/DX2                !
 ! D36   D(25,3,4,26)          -49.2599         estimate D2E/DX2                !
 ! D37   D(3,4,5,6)             47.1968         estimate D2E/DX2                !
 ! D38   D(3,4,5,27)           -74.6963         estimate D2E/DX2                !
 ! D39   D(3,4,5,28)           167.7085         estimate D2E/DX2                !
 ! D40   D(7,4,5,6)            169.0305         estimate D2E/DX2                !
 ! D41   D(7,4,5,27)            47.1374         estimate D2E/DX2                !
 ! D42   D(7,4,5,28)           -70.4578         estimate D2E/DX2                !
 ! D43   D(26,4,5,6)           -72.2862         estimate D2E/DX2                !
 ! D44   D(26,4,5,27)          165.8207         estimate D2E/DX2                !
 ! D45   D(26,4,5,28)           48.2255         estimate D2E/DX2                !
 ! D46   D(3,4,7,8)            175.6222         estimate D2E/DX2                !
 ! D47   D(3,4,7,14)           -74.7195         estimate D2E/DX2                !
 ! D48   D(5,4,7,8)             54.8175         estimate D2E/DX2                !
 ! D49   D(5,4,7,14)           164.4758         estimate D2E/DX2                !
 ! D50   D(26,4,7,8)           -64.2647         estimate D2E/DX2                !
 ! D51   D(26,4,7,14)           45.3936         estimate D2E/DX2                !
 ! D52   D(4,5,6,1)            -52.6024         estimate D2E/DX2                !
 ! D53   D(4,5,6,29)          -174.0089         estimate D2E/DX2                !
 ! D54   D(4,5,6,30)            69.1895         estimate D2E/DX2                !
 ! D55   D(27,5,6,1)            70.5711         estimate D2E/DX2                !
 ! D56   D(27,5,6,29)          -50.8354         estimate D2E/DX2                !
 ! D57   D(27,5,6,30)         -167.637          estimate D2E/DX2                !
 ! D58   D(28,5,6,1)          -175.1069         estimate D2E/DX2                !
 ! D59   D(28,5,6,29)           63.4866         estimate D2E/DX2                !
 ! D60   D(28,5,6,30)          -53.3149         estimate D2E/DX2                !
 ! D61   D(4,7,8,9)           -167.6492         estimate D2E/DX2                !
 ! D62   D(4,7,8,13)            60.2935         estimate D2E/DX2                !
 ! D63   D(4,7,8,31)           -55.5877         estimate D2E/DX2                !
 ! D64   D(14,7,8,9)            81.4559         estimate D2E/DX2                !
 ! D65   D(14,7,8,13)          -50.6014         estimate D2E/DX2                !
 ! D66   D(14,7,8,31)         -166.4826         estimate D2E/DX2                !
 ! D67   D(4,7,14,15)         -178.3283         estimate D2E/DX2                !
 ! D68   D(4,7,14,19)           58.8864         estimate D2E/DX2                !
 ! D69   D(4,7,14,42)          -59.1965         estimate D2E/DX2                !
 ! D70   D(8,7,14,15)          -70.3686         estimate D2E/DX2                !
 ! D71   D(8,7,14,19)          166.8461         estimate D2E/DX2                !
 ! D72   D(8,7,14,42)           48.7631         estimate D2E/DX2                !
 ! D73   D(7,8,9,10)          -167.2554         estimate D2E/DX2                !
 ! D74   D(7,8,9,32)            70.8018         estimate D2E/DX2                !
 ! D75   D(7,8,9,33)           -44.5486         estimate D2E/DX2                !
 ! D76   D(13,8,9,10)          -36.2503         estimate D2E/DX2                !
 ! D77   D(13,8,9,32)         -158.1931         estimate D2E/DX2                !
 ! D78   D(13,8,9,33)           86.4565         estimate D2E/DX2                !
 ! D79   D(31,8,9,10)           79.771          estimate D2E/DX2                !
 ! D80   D(31,8,9,32)          -42.1718         estimate D2E/DX2                !
 ! D81   D(31,8,9,33)         -157.5222         estimate D2E/DX2                !
 ! D82   D(7,8,13,12)          169.4091         estimate D2E/DX2                !
 ! D83   D(7,8,13,40)          -68.9064         estimate D2E/DX2                !
 ! D84   D(7,8,13,41)           48.3593         estimate D2E/DX2                !
 ! D85   D(9,8,13,12)           39.1643         estimate D2E/DX2                !
 ! D86   D(9,8,13,40)          160.8489         estimate D2E/DX2                !
 ! D87   D(9,8,13,41)          -81.8855         estimate D2E/DX2                !
 ! D88   D(31,8,13,12)         -75.3791         estimate D2E/DX2                !
 ! D89   D(31,8,13,40)          46.3055         estimate D2E/DX2                !
 ! D90   D(31,8,13,41)         163.5711         estimate D2E/DX2                !
 ! D91   D(8,9,10,11)           46.5002         estimate D2E/DX2                !
 ! D92   D(8,9,10,34)          -75.0071         estimate D2E/DX2                !
 ! D93   D(8,9,10,35)          168.2789         estimate D2E/DX2                !
 ! D94   D(32,9,10,11)         168.7991         estimate D2E/DX2                !
 ! D95   D(32,9,10,34)          47.2918         estimate D2E/DX2                !
 ! D96   D(32,9,10,35)         -69.4222         estimate D2E/DX2                !
 ! D97   D(33,9,10,11)         -79.0091         estimate D2E/DX2                !
 ! D98   D(33,9,10,34)         159.4836         estimate D2E/DX2                !
 ! D99   D(33,9,10,35)          42.7695         estimate D2E/DX2                !
 ! D100  D(9,10,11,12)         -59.6833         estimate D2E/DX2                !
 ! D101  D(9,10,11,36)         179.4911         estimate D2E/DX2                !
 ! D102  D(9,10,11,37)          61.6964         estimate D2E/DX2                !
 ! D103  D(34,10,11,12)         61.7706         estimate D2E/DX2                !
 ! D104  D(34,10,11,36)        -59.055          estimate D2E/DX2                !
 ! D105  D(34,10,11,37)       -176.8497         estimate D2E/DX2                !
 ! D106  D(35,10,11,12)        178.7158         estimate D2E/DX2                !
 ! D107  D(35,10,11,36)         57.8902         estimate D2E/DX2                !
 ! D108  D(35,10,11,37)        -59.9045         estimate D2E/DX2                !
 ! D109  D(10,11,12,13)         62.461          estimate D2E/DX2                !
 ! D110  D(10,11,12,38)        -59.4142         estimate D2E/DX2                !
 ! D111  D(10,11,12,39)       -176.9            estimate D2E/DX2                !
 ! D112  D(36,11,12,13)       -176.8567         estimate D2E/DX2                !
 ! D113  D(36,11,12,38)         61.2682         estimate D2E/DX2                !
 ! D114  D(36,11,12,39)        -56.2176         estimate D2E/DX2                !
 ! D115  D(37,11,12,13)        -58.8283         estimate D2E/DX2                !
 ! D116  D(37,11,12,38)        179.2966         estimate D2E/DX2                !
 ! D117  D(37,11,12,39)         61.8107         estimate D2E/DX2                !
 ! D118  D(11,12,13,8)         -52.2805         estimate D2E/DX2                !
 ! D119  D(11,12,13,40)       -174.8791         estimate D2E/DX2                !
 ! D120  D(11,12,13,41)         71.2899         estimate D2E/DX2                !
 ! D121  D(38,12,13,8)          69.6295         estimate D2E/DX2                !
 ! D122  D(38,12,13,40)        -52.9691         estimate D2E/DX2                !
 ! D123  D(38,12,13,41)       -166.8001         estimate D2E/DX2                !
 ! D124  D(39,12,13,8)        -173.1674         estimate D2E/DX2                !
 ! D125  D(39,12,13,40)         64.2341         estimate D2E/DX2                !
 ! D126  D(39,12,13,41)        -49.597          estimate D2E/DX2                !
 ! D127  D(7,14,15,16)        -170.3397         estimate D2E/DX2                !
 ! D128  D(7,14,15,43)          71.2348         estimate D2E/DX2                !
 ! D129  D(7,14,15,44)         -46.7918         estimate D2E/DX2                !
 ! D130  D(19,14,15,16)        -46.1854         estimate D2E/DX2                !
 ! D131  D(19,14,15,43)       -164.6109         estimate D2E/DX2                !
 ! D132  D(19,14,15,44)         77.3625         estimate D2E/DX2                !
 ! D133  D(42,14,15,16)         70.2722         estimate D2E/DX2                !
 ! D134  D(42,14,15,43)        -48.1532         estimate D2E/DX2                !
 ! D135  D(42,14,15,44)       -166.1798         estimate D2E/DX2                !
 ! D136  D(7,14,19,18)         168.8788         estimate D2E/DX2                !
 ! D137  D(7,14,19,51)         -74.1615         estimate D2E/DX2                !
 ! D138  D(7,14,19,52)          44.8474         estimate D2E/DX2                !
 ! D139  D(15,14,19,18)         46.0479         estimate D2E/DX2                !
 ! D140  D(15,14,19,51)        163.0076         estimate D2E/DX2                !
 ! D141  D(15,14,19,52)        -77.9836         estimate D2E/DX2                !
 ! D142  D(42,14,19,18)        -71.6361         estimate D2E/DX2                !
 ! D143  D(42,14,19,51)         45.3236         estimate D2E/DX2                !
 ! D144  D(42,14,19,52)        164.3324         estimate D2E/DX2                !
 ! D145  D(14,15,16,17)         53.2766         estimate D2E/DX2                !
 ! D146  D(14,15,16,45)        -68.3685         estimate D2E/DX2                !
 ! D147  D(14,15,16,46)        175.028          estimate D2E/DX2                !
 ! D148  D(43,15,16,17)        173.9557         estimate D2E/DX2                !
 ! D149  D(43,15,16,45)         52.3105         estimate D2E/DX2                !
 ! D150  D(43,15,16,46)        -64.2929         estimate D2E/DX2                !
 ! D151  D(44,15,16,17)        -71.1459         estimate D2E/DX2                !
 ! D152  D(44,15,16,45)        167.209          estimate D2E/DX2                !
 ! D153  D(44,15,16,46)         50.6055         estimate D2E/DX2                !
 ! D154  D(15,16,17,18)        -57.0274         estimate D2E/DX2                !
 ! D155  D(15,16,17,47)       -177.8194         estimate D2E/DX2                !
 ! D156  D(15,16,17,48)         64.3003         estimate D2E/DX2                !
 ! D157  D(45,16,17,18)         64.3755         estimate D2E/DX2                !
 ! D158  D(45,16,17,47)        -56.4165         estimate D2E/DX2                !
 ! D159  D(45,16,17,48)       -174.2968         estimate D2E/DX2                !
 ! D160  D(46,16,17,18)       -178.7239         estimate D2E/DX2                !
 ! D161  D(46,16,17,47)         60.4841         estimate D2E/DX2                !
 ! D162  D(46,16,17,48)        -57.3962         estimate D2E/DX2                !
 ! D163  D(16,17,18,19)         57.2343         estimate D2E/DX2                !
 ! D164  D(16,17,18,49)        -64.1292         estimate D2E/DX2                !
 ! D165  D(16,17,18,50)        179.0773         estimate D2E/DX2                !
 ! D166  D(47,17,18,19)        178.0216         estimate D2E/DX2                !
 ! D167  D(47,17,18,49)         56.6581         estimate D2E/DX2                !
 ! D168  D(47,17,18,50)        -60.1353         estimate D2E/DX2                !
 ! D169  D(48,17,18,19)        -64.1505         estimate D2E/DX2                !
 ! D170  D(48,17,18,49)        174.4859         estimate D2E/DX2                !
 ! D171  D(48,17,18,50)         57.6925         estimate D2E/DX2                !
 ! D172  D(17,18,19,14)        -53.4766         estimate D2E/DX2                !
 ! D173  D(17,18,19,51)       -172.7105         estimate D2E/DX2                !
 ! D174  D(17,18,19,52)         71.5277         estimate D2E/DX2                !
 ! D175  D(49,18,19,14)         68.0509         estimate D2E/DX2                !
 ! D176  D(49,18,19,51)        -51.183          estimate D2E/DX2                !
 ! D177  D(49,18,19,52)       -166.9448         estimate D2E/DX2                !
 ! D178  D(50,18,19,14)       -175.5035         estimate D2E/DX2                !
 ! D179  D(50,18,19,51)         65.2626         estimate D2E/DX2                !
 ! D180  D(50,18,19,52)        -50.4992         estimate D2E/DX2                !
 --------------------------------------------------------------------------------
 Trust Radius=3.00D-01 FncErr=1.00D-07 GrdErr=1.00D-06
 Number of steps in this run= 312 maximum allowed number of steps= 312.
 GradGradGradGradGradGradGradGradGradGradGradGradGradGradGradGradGradGrad

 Leave Link  103 at Fri Oct  1 18:35:24 2021, MaxMem= 2147483648 cpu:       0.0
 (Enter /sw/target/amd/app/gaussian/Gaussian09RevA.02_gcc-4.9.2/g09/l202.exe)
 Stoichiometry    C18H33P
 Framework group  C1[X(C18H33P)]
 Deg. of freedom   150
 Full point group                 C1      NOp   1
 Largest Abelian subgroup         C1      NOp   1
 Largest concise Abelian subgroup C1      NOp   1
                         Standard orientation:                         
 ---------------------------------------------------------------------
 Center     Atomic      Atomic             Coordinates (Angstroms)
 Number     Number       Type             X           Y           Z
 ---------------------------------------------------------------------
      1          6           0        4.843837   -0.158719   -0.207311
      2          6           0        4.146542    1.053569    0.383326
      3          6           0        2.718037    1.162753   -0.143324
      4          6           0        1.849174   -0.085319    0.140395
      5          6           0        2.615621   -1.355036   -0.305848
      6          6           0        4.074570   -1.415431    0.163585
      7         15           0        0.191110    0.014045   -0.783860
      8          6           0       -0.597729   -1.664119   -0.384392
      9          6           0       -1.827903   -1.942232   -1.277279
     10          6           0       -2.695776   -3.116541   -0.820244
     11          6           0       -2.980277   -3.065197    0.675020
     12          6           0       -1.672792   -3.107746    1.447120
     13          6           0       -0.814789   -1.888462    1.120213
     14          6           0       -0.869400    1.282412    0.151885
     15          6           0       -2.261716    1.398573   -0.509289
     16          6           0       -3.126137    2.543648    0.000614
     17          6           0       -2.399908    3.872270   -0.072159
     18          6           0       -1.106977    3.790637    0.714439
     19          6           0       -0.202242    2.666260    0.215839
     20          1           0        5.868022   -0.219434    0.167703
     21          1           0        4.904941   -0.068409   -1.296531
     22          1           0        4.700259    1.961084    0.121553
     23          1           0        4.136458    0.988308    1.478347
     24          1           0        2.746423    1.371025   -1.217820
     25          1           0        2.306481    2.049700    0.331547
     26          1           0        1.645077   -0.147572    1.215870
     27          1           0        2.609716   -1.437528   -1.399718
     28          1           0        2.122143   -2.254177    0.079568
     29          1           0        4.567162   -2.288536   -0.284470
     30          1           0        4.104794   -1.557509    1.251202
     31          1           0        0.134810   -2.412069   -0.706725
     32          1           0       -1.490990   -2.136828   -2.304972
     33          1           0       -2.480048   -1.077101   -1.365847
     34          1           0       -2.190257   -4.059941   -1.064479
     35          1           0       -3.638325   -3.108942   -1.375246
     36          1           0       -3.609300   -3.914411    0.959902
     37          1           0       -3.535410   -2.151358    0.920777
     38          1           0       -1.124727   -4.027596    1.210078
     39          1           0       -1.879723   -3.126573    2.523145
     40          1           0        0.154516   -2.004339    1.625026
     41          1           0       -1.297250   -1.026706    1.587306
     42          1           0       -0.999074    0.947786    1.184814
     43          1           0       -2.837474    0.488758   -0.308948
     44          1           0       -2.161174    1.490880   -1.599936
     45          1           0       -3.422536    2.340260    1.037195
     46          1           0       -4.050456    2.595873   -0.587434
     47          1           0       -3.034786    4.665745    0.337413
     48          1           0       -2.189539    4.131714   -1.116667
     49          1           0       -1.333539    3.628266    1.776363
     50          1           0       -0.571993    4.746089    0.649313
     51          1           0        0.616111    2.628565    0.935377
     52          1           0        0.210219    2.946385   -0.761344
 ---------------------------------------------------------------------
 Rotational constants (GHZ):      0.3415613      0.2674318      0.1653718
 Leave Link  202 at Fri Oct  1 18:35:24 2021, MaxMem= 2147483648 cpu:       0.0
 (Enter /sw/target/amd/app/gaussian/Gaussian09RevA.02_gcc-4.9.2/g09/l301.exe)
 Standard basis: 6-31G(d) (6D, 7F)
 Ernie: Thresh=  0.10000D-02 Tol=  0.10000D-05 Strict=F.
 There are   355 symmetry adapted basis functions of A   symmetry.
 Integral buffers will be    131072 words long.
 Raffenetti 2 integral format.
 Two-electron integral symmetry is turned on.
   355 basis functions,   688 primitive gaussians,   355 cartesian basis functions
    78 alpha electrons       78 beta electrons
       nuclear repulsion energy      1720.6073426180 Hartrees.
 IExCor=  402 DFT=T Ex+Corr=B3LYP ExCW=0 ScaHFX=  0.200000
 ScaDFX=  0.800000  0.720000  1.000000  0.810000 ScalE2=  1.000000  1.000000
 IRadAn=      0 IRanWt=     -1 IRanGd=            0 ICorTp=0
 NAtoms=   52 NActive=   52 NUniq=   52 SFac= 7.50D-01 NAtFMM=   80 NAOKFM=F Big=F
 Leave Link  301 at Fri Oct  1 18:35:24 2021, MaxMem= 2147483648 cpu:       0.1
 (Enter /sw/target/amd/app/gaussian/Gaussian09RevA.02_gcc-4.9.2/g09/l302.exe)
 NPDir=0 NMtPBC=     1 NCelOv=     1 NCel=       1 NClECP=     1 NCelD=      1
         NCelK=      1 NCelE2=     1 NClLst=     1 CellRange=     0.0.
 One-electron integrals computed using PRISM.
 NBasis=   355 RedAO= T  NBF=   355
 NBsUse=   355 1.00D-06 NBFU=   355
 Precomputing XC quadrature grid using
 IXCGrd= 2 IRadAn=           0 IRanWt=          -1 IRanGd=           0 AccXCQ= 1.00D-10.
 NRdTot=    3299 NPtTot=      420568 NUsed=      444350 NTot=      444382
 NSgBfM=   351   351   351   351   351 NAtAll=    52    52.
 Leave Link  302 at Fri Oct  1 18:35:25 2021, MaxMem= 2147483648 cpu:       5.7
 (Enter /sw/target/amd/app/gaussian/Gaussian09RevA.02_gcc-4.9.2/g09/l303.exe)
 DipDrv:  MaxL=1.
 Leave Link  303 at Fri Oct  1 18:35:25 2021, MaxMem= 2147483648 cpu:       0.2
 (Enter /sw/target/amd/app/gaussian/Gaussian09RevA.02_gcc-4.9.2/g09/l401.exe)
 Harris functional with IExCor=  402 diagonalized for initial guess.
 ExpMin= 9.98D-02 ExpMax= 1.94D+04 ExpMxC= 2.91D+03 IAcc=2 IRadAn=         0 AccDes= 0.00D+00
 HarFok:  IExCor=  402 AccDes= 0.00D+00 IRadAn=         0 IDoV= 1
 ScaDFX=  1.000000  1.000000  1.000000  1.000000
 FoFCou: FMM=F IPFlag=           0 FMFlag=      100000 FMFlg1=           0
         NFxFlg=           0 DoJE=T BraDBF=F KetDBF=T FulRan=T
         Omega=  0.000000  0.000000  1.000000  0.000000  0.000000 ICntrl=     500 IOpCl=  0
         NMat0=    1 NMatS0=    1 NMatT0=    0 NMatD0=    1 NMtDS0=    0 NMtDT0=    0
         I1Cent=           4 NGrid=           0.
 Petite list used in FoFCou.
 Harris En= -1047.32981718629    
 Initial guess orbital symmetries:
       Occupied  (A) (A) (A) (A) (A) (A) (A) (A) (A) (A) (A) (A)
                 (A) (A) (A) (A) (A) (A) (A) (A) (A) (A) (A) (A)
                 (A) (A) (A) (A) (A) (A) (A) (A) (A) (A) (A) (A)
                 (A) (A) (A) (A) (A) (A) (A) (A) (A) (A) (A) (A)
                 (A) (A) (A) (A) (A) (A) (A) (A) (A) (A) (A) (A)
                 (A) (A) (A) (A) (A) (A) (A) (A) (A) (A) (A) (A)
                 (A) (A) (A) (A) (A) (A)
       Virtual   (A) (A) (A) (A) (A) (A) (A) (A) (A) (A) (A) (A)
                 (A) (A) (A) (A) (A) (A) (A) (A) (A) (A) (A) (A)
                 (A) (A) (A) (A) (A) (A) (A) (A) (A) (A) (A) (A)
                 (A) (A) (A) (A) (A) (A) (A) (A) (A) (A) (A) (A)
                 (A) (A) (A) (A) (A) (A) (A) (A) (A) (A) (A) (A)
                 (A) (A) (A) (A) (A) (A) (A) (A) (A) (A) (A) (A)
                 (A) (A) (A) (A) (A) (A) (A) (A) (A) (A) (A) (A)
                 (A) (A) (A) (A) (A) (A) (A) (A) (A) (A) (A) (A)
                 (A) (A) (A) (A) (A) (A) (A) (A) (A) (A) (A) (A)
                 (A) (A) (A) (A) (A) (A) (A) (A) (A) (A) (A) (A)
                 (A) (A) (A) (A) (A) (A) (A) (A) (A) (A) (A) (A)
                 (A) (A) (A) (A) (A) (A) (A) (A) (A) (A) (A) (A)
                 (A) (A) (A) (A) (A) (A) (A) (A) (A) (A) (A) (A)
                 (A) (A) (A) (A) (A) (A) (A) (A) (A) (A) (A) (A)
                 (A) (A) (A) (A) (A) (A) (A) (A) (A) (A) (A) (A)
                 (A) (A) (A) (A) (A) (A) (A) (A) (A) (A) (A) (A)
                 (A) (A) (A) (A) (A) (A) (A) (A) (A) (A) (A) (A)
                 (A) (A) (A) (A) (A) (A) (A) (A) (A) (A) (A) (A)
                 (A) (A) (A) (A) (A) (A) (A) (A) (A) (A) (A) (A)
                 (A) (A) (A) (A) (A) (A) (A) (A) (A) (A) (A) (A)
                 (A) (A) (A) (A) (A) (A) (A) (A) (A) (A) (A) (A)
                 (A) (A) (A) (A) (A) (A) (A) (A) (A) (A) (A) (A)
                 (A) (A) (A) (A) (A) (A) (A) (A) (A) (A) (A) (A)
                 (A)
 The electronic state of the initial guess is 1-A.
 Leave Link  401 at Fri Oct  1 18:35:32 2021, MaxMem= 2147483648 cpu:      51.3
 (Enter /sw/target/amd/app/gaussian/Gaussian09RevA.02_gcc-4.9.2/g09/l502.exe)
 Closed shell SCF:
 Requested convergence on RMS density matrix=1.00D-08 within  64 cycles.
 Requested convergence on MAX density matrix=1.00D-06.
 Requested convergence on             energy=1.00D-06.
 No special actions if energy rises.
 Using DIIS extrapolation, IDIIS=  1040.
 Integral symmetry usage will be decided dynamically.
       443869 words used for storage of precomputed grid.
 Keep R1 ints in memory in canonical form, NReq=2019911543.
 IEnd=      833054 IEndB=      833054 NGot=  2147483648 MDV=   150261526
 LenX=   150261526 LenY=   150135060
 Symmetry not used in FoFDir.
 MinBra= 0 MaxBra= 2 Meth= 1.
 IRaf=       0 NMat=   1 IRICut=       1 DoRegI=T DoRafI=F ISym2E= 0 JSym2E=0.
 Integral accuracy reduced to 1.0D-05 until final iterations.

 Cycle   1  Pass 0  IDiag  1:
 E= -1046.43098683756    
 DIIS: error= 3.12D-02 at cycle   1 NSaved=   1.
 NSaved= 1 IEnMin= 1 EnMin= -1046.43098683756     IErMin= 1 ErrMin= 3.12D-02
 ErrMax= 3.12D-02 EMaxC= 1.00D-01 BMatC= 6.54D-01 BMatP= 6.54D-01
 IDIUse=3 WtCom= 6.88D-01 WtEn= 3.12D-01
 Coeff-Com:  0.100D+01
 Coeff-En:   0.100D+01
 Coeff:      0.100D+01
 Gap=     0.321 Goal=   None    Shift=    0.000
 GapD=    0.321 DampG=1.000 DampE=0.500 DampFc=0.5000 IDamp=-1.
 Damping current iteration by 5.00D-01
 RMSDP=5.79D-03 MaxDP=1.63D-01              OVMax= 1.91D-01

 Cycle   2  Pass 0  IDiag  1:
 E= -1046.71512402257     Delta-E=       -0.284137185019 Rises=F Damp=T
 DIIS: error= 7.01D-03 at cycle   2 NSaved=   2.
 NSaved= 2 IEnMin= 2 EnMin= -1046.71512402257     IErMin= 2 ErrMin= 7.01D-03
 ErrMax= 7.01D-03 EMaxC= 1.00D-01 BMatC= 4.57D-02 BMatP= 6.54D-01
 IDIUse=3 WtCom= 9.30D-01 WtEn= 7.01D-02
 Coeff-Com:  0.129D+00 0.871D+00
 Coeff-En:   0.215D+00 0.785D+00
 Coeff:      0.135D+00 0.865D+00
 Gap=     0.348 Goal=   None    Shift=    0.000
 RMSDP=1.25D-03 MaxDP=9.57D-02 DE=-2.84D-01 OVMax= 1.22D-01

 Cycle   3  Pass 0  IDiag  1:
 E= -1047.14774013268     Delta-E=       -0.432616110108 Rises=F Damp=F
 DIIS: error= 3.74D-03 at cycle   3 NSaved=   3.
 NSaved= 3 IEnMin= 3 EnMin= -1047.14774013268     IErMin= 3 ErrMin= 3.74D-03
 ErrMax= 3.74D-03 EMaxC= 1.00D-01 BMatC= 7.81D-03 BMatP= 4.57D-02
 IDIUse=3 WtCom= 9.63D-01 WtEn= 3.74D-02
 Coeff-Com:  0.878D-02 0.268D+00 0.723D+00
 Coeff-En:   0.000D+00 0.000D+00 0.100D+01
 Coeff:      0.845D-02 0.258D+00 0.734D+00
 Gap=     0.272 Goal=   None    Shift=    0.000
 RMSDP=4.56D-04 MaxDP=3.31D-02 DE=-4.33D-01 OVMax= 2.35D-02

 Cycle   4  Pass 0  IDiag  1:
 E= -1047.15481438942     Delta-E=       -0.007074256738 Rises=F Damp=F
 DIIS: error= 7.62D-04 at cycle   4 NSaved=   4.
 NSaved= 4 IEnMin= 4 EnMin= -1047.15481438942     IErMin= 4 ErrMin= 7.62D-04
 ErrMax= 7.62D-04 EMaxC= 1.00D-01 BMatC= 7.18D-04 BMatP= 7.81D-03
 IDIUse=3 WtCom= 9.92D-01 WtEn= 7.62D-03
 Coeff-Com: -0.229D-02 0.356D-01 0.251D+00 0.715D+00
 Coeff-En:   0.000D+00 0.000D+00 0.000D+00 0.100D+01
 Coeff:     -0.227D-02 0.353D-01 0.250D+00 0.717D+00
 Gap=     0.262 Goal=   None    Shift=    0.000
 RMSDP=1.54D-04 MaxDP=1.53D-02 DE=-7.07D-03 OVMax= 9.16D-03

 Cycle   5  Pass 0  IDiag  1:
 E= -1047.15549073091     Delta-E=       -0.000676341488 Rises=F Damp=F
 DIIS: error= 2.94D-04 at cycle   5 NSaved=   5.
 NSaved= 5 IEnMin= 5 EnMin= -1047.15549073091     IErMin= 5 ErrMin= 2.94D-04
 ErrMax= 2.94D-04 EMaxC= 1.00D-01 BMatC= 1.26D-04 BMatP= 7.18D-04
 IDIUse=3 WtCom= 9.97D-01 WtEn= 2.94D-03
 Coeff-Com: -0.160D-02 0.276D-02 0.870D-01 0.375D+00 0.536D+00
 Coeff-En:   0.000D+00 0.000D+00 0.000D+00 0.679D-01 0.932D+00
 Coeff:     -0.160D-02 0.275D-02 0.868D-01 0.375D+00 0.538D+00
 Gap=     0.262 Goal=   None    Shift=    0.000
 RMSDP=4.65D-05 MaxDP=3.27D-03 DE=-6.76D-04 OVMax= 3.01D-03

 Cycle   6  Pass 0  IDiag  1:
 E= -1047.15562647532     Delta-E=       -0.000135744417 Rises=F Damp=F
 DIIS: error= 5.78D-05 at cycle   6 NSaved=   6.
 NSaved= 6 IEnMin= 6 EnMin= -1047.15562647532     IErMin= 6 ErrMin= 5.78D-05
 ErrMax= 5.78D-05 EMaxC= 1.00D-01 BMatC= 3.94D-06 BMatP= 1.26D-04
 IDIUse=1 WtCom= 1.00D+00 WtEn= 0.00D+00
 Coeff-Com: -0.657D-03 0.878D-04 0.351D-01 0.164D+00 0.269D+00 0.532D+00
 Coeff:     -0.657D-03 0.878D-04 0.351D-01 0.164D+00 0.269D+00 0.532D+00
 Gap=     0.262 Goal=   None    Shift=    0.000
 RMSDP=9.05D-06 MaxDP=4.22D-04 DE=-1.36D-04 OVMax= 6.39D-04

 Initial convergence to 1.0D-05 achieved.  Increase integral accuracy.
 Cycle   7  Pass 1  IDiag  1:
 E= -1047.15545310996     Delta-E=        0.000173365368 Rises=F Damp=F
 DIIS: error= 2.64D-05 at cycle   1 NSaved=   1.
 NSaved= 1 IEnMin= 1 EnMin= -1047.15545310996     IErMin= 1 ErrMin= 2.64D-05
 ErrMax= 2.64D-05 EMaxC= 1.00D-01 BMatC= 9.53D-07 BMatP= 9.53D-07
 IDIUse=1 WtCom= 1.00D+00 WtEn= 0.00D+00
 Coeff-Com:  0.100D+01
 Coeff:      0.100D+01
 Gap=     0.262 Goal=   None    Shift=    0.000
 RMSDP=9.05D-06 MaxDP=4.22D-04 DE= 1.73D-04 OVMax= 4.93D-04

 Cycle   8  Pass 1  IDiag  1:
 E= -1047.15545359200     Delta-E=       -0.000000482047 Rises=F Damp=F
 DIIS: error= 2.56D-05 at cycle   2 NSaved=   2.
 NSaved= 2 IEnMin= 2 EnMin= -1047.15545359200     IErMin= 2 ErrMin= 2.56D-05
 ErrMax= 2.56D-05 EMaxC= 1.00D-01 BMatC= 8.31D-07 BMatP= 9.53D-07
 IDIUse=1 WtCom= 1.00D+00 WtEn= 0.00D+00
 Coeff-Com:  0.478D+00 0.522D+00
 Coeff:      0.478D+00 0.522D+00
 Gap=     0.262 Goal=   None    Shift=    0.000
 RMSDP=4.53D-06 MaxDP=2.09D-04 DE=-4.82D-07 OVMax= 3.25D-04

 Cycle   9  Pass 1  IDiag  1:
 E= -1047.15545437716     Delta-E=       -0.000000785158 Rises=F Damp=F
 DIIS: error= 1.09D-05 at cycle   3 NSaved=   3.
 NSaved= 3 IEnMin= 3 EnMin= -1047.15545437716     IErMin= 3 ErrMin= 1.09D-05
 ErrMax= 1.09D-05 EMaxC= 1.00D-01 BMatC= 1.12D-07 BMatP= 8.31D-07
 IDIUse=1 WtCom= 1.00D+00 WtEn= 0.00D+00
 Coeff-Com: -0.116D-02 0.263D+00 0.738D+00
 Coeff:     -0.116D-02 0.263D+00 0.738D+00
 Gap=     0.262 Goal=   None    Shift=    0.000
 RMSDP=1.40D-06 MaxDP=6.48D-05 DE=-7.85D-07 OVMax= 1.01D-04

 Cycle  10  Pass 1  IDiag  1:
 E= -1047.15545449114     Delta-E=       -0.000000113975 Rises=F Damp=F
 DIIS: error= 2.45D-06 at cycle   4 NSaved=   4.
 NSaved= 4 IEnMin= 4 EnMin= -1047.15545449114     IErMin= 4 ErrMin= 2.45D-06
 ErrMax= 2.45D-06 EMaxC= 1.00D-01 BMatC= 6.29D-09 BMatP= 1.12D-07
 IDIUse=1 WtCom= 1.00D+00 WtEn= 0.00D+00
 Coeff-Com: -0.144D-01 0.116D+00 0.372D+00 0.527D+00
 Coeff:     -0.144D-01 0.116D+00 0.372D+00 0.527D+00
 Gap=     0.262 Goal=   None    Shift=    0.000
 RMSDP=4.00D-07 MaxDP=3.85D-05 DE=-1.14D-07 OVMax= 2.60D-05

 Cycle  11  Pass 1  IDiag  1:
 E= -1047.15545449845     Delta-E=       -0.000000007310 Rises=F Damp=F
 DIIS: error= 3.42D-07 at cycle   5 NSaved=   5.
 NSaved= 5 IEnMin= 5 EnMin= -1047.15545449845     IErMin= 5 ErrMin= 3.42D-07
 ErrMax= 3.42D-07 EMaxC= 1.00D-01 BMatC= 1.82D-10 BMatP= 6.29D-09
 IDIUse=1 WtCom= 1.00D+00 WtEn= 0.00D+00
 Coeff-Com: -0.591D-02 0.345D-01 0.116D+00 0.214D+00 0.641D+00
 Coeff:     -0.591D-02 0.345D-01 0.116D+00 0.214D+00 0.641D+00
 Gap=     0.262 Goal=   None    Shift=    0.000
 RMSDP=6.56D-08 MaxDP=5.68D-06 DE=-7.31D-09 OVMax= 3.54D-06

 Cycle  12  Pass 1  IDiag  1:
 E= -1047.15545449864     Delta-E=       -0.000000000191 Rises=F Damp=F
 DIIS: error= 1.14D-07 at cycle   6 NSaved=   6.
 NSaved= 6 IEnMin= 6 EnMin= -1047.15545449864     IErMin= 6 ErrMin= 1.14D-07
 ErrMax= 1.14D-07 EMaxC= 1.00D-01 BMatC= 1.45D-11 BMatP= 1.82D-10
 IDIUse=1 WtCom= 1.00D+00 WtEn= 0.00D+00
 Coeff-Com: -0.140D-02 0.596D-02 0.214D-01 0.499D-01 0.265D+00 0.659D+00
 Coeff:     -0.140D-02 0.596D-02 0.214D-01 0.499D-01 0.265D+00 0.659D+00
 Gap=     0.262 Goal=   None    Shift=    0.000
 RMSDP=1.54D-08 MaxDP=4.38D-07 DE=-1.91D-10 OVMax= 5.10D-07

 Cycle  13  Pass 1  IDiag  1:
 E= -1047.15545449867     Delta-E=       -0.000000000030 Rises=F Damp=F
 DIIS: error= 4.64D-08 at cycle   7 NSaved=   7.
 NSaved= 7 IEnMin= 7 EnMin= -1047.15545449867     IErMin= 7 ErrMin= 4.64D-08
 ErrMax= 4.64D-08 EMaxC= 1.00D-01 BMatC= 1.62D-12 BMatP= 1.45D-11
 IDIUse=1 WtCom= 1.00D+00 WtEn= 0.00D+00
 Coeff-Com: -0.773D-04-0.667D-03-0.163D-02 0.156D-02 0.575D-01 0.303D+00
 Coeff-Com:  0.641D+00
 Coeff:     -0.773D-04-0.667D-03-0.163D-02 0.156D-02 0.575D-01 0.303D+00
 Coeff:      0.641D+00
 Gap=     0.262 Goal=   None    Shift=    0.000
 RMSDP=4.66D-09 MaxDP=2.11D-07 DE=-2.96D-11 OVMax= 1.99D-07

 SCF Done:  E(RB3LYP) =  -1047.15545450     A.U. after   13 cycles
             Convg  =    0.4658D-08             -V/T =  2.0076
 KE= 1.039214423888D+03 PE=-5.884044963719D+03 EE= 2.077067742715D+03
 Leave Link  502 at Fri Oct  1 19:10:19 2021, MaxMem= 2147483648 cpu:     955.2
 (Enter /sw/target/amd/app/gaussian/Gaussian09RevA.02_gcc-4.9.2/g09/l508.exe)
 QCSCF skips out because SCF is already converged.
 Leave Link  508 at Fri Oct  1 19:10:31 2021, MaxMem= 2147483648 cpu:       0.0
 (Enter /sw/target/amd/app/gaussian/Gaussian09RevA.02_gcc-4.9.2/g09/l601.exe)
 Copying SCF densities to generalized density rwf, IOpCl= 0 IROHF=0.

 **********************************************************************

            Population analysis using the SCF density.

 **********************************************************************

 Orbital symmetries:
       Occupied  (A) (A) (A) (A) (A) (A) (A) (A) (A) (A) (A) (A)
                 (A) (A) (A) (A) (A) (A) (A) (A) (A) (A) (A) (A)
                 (A) (A) (A) (A) (A) (A) (A) (A) (A) (A) (A) (A)
                 (A) (A) (A) (A) (A) (A) (A) (A) (A) (A) (A) (A)
                 (A) (A) (A) (A) (A) (A) (A) (A) (A) (A) (A) (A)
                 (A) (A) (A) (A) (A) (A) (A) (A) (A) (A) (A) (A)
                 (A) (A) (A) (A) (A) (A)
       Virtual   (A) (A) (A) (A) (A) (A) (A) (A) (A) (A) (A) (A)
                 (A) (A) (A) (A) (A) (A) (A) (A) (A) (A) (A) (A)
                 (A) (A) (A) (A) (A) (A) (A) (A) (A) (A) (A) (A)
                 (A) (A) (A) (A) (A) (A) (A) (A) (A) (A) (A) (A)
                 (A) (A) (A) (A) (A) (A) (A) (A) (A) (A) (A) (A)
                 (A) (A) (A) (A) (A) (A) (A) (A) (A) (A) (A) (A)
                 (A) (A) (A) (A) (A) (A) (A) (A) (A) (A) (A) (A)
                 (A) (A) (A) (A) (A) (A) (A) (A) (A) (A) (A) (A)
                 (A) (A) (A) (A) (A) (A) (A) (A) (A) (A) (A) (A)
                 (A) (A) (A) (A) (A) (A) (A) (A) (A) (A) (A) (A)
                 (A) (A) (A) (A) (A) (A) (A) (A) (A) (A) (A) (A)
                 (A) (A) (A) (A) (A) (A) (A) (A) (A) (A) (A) (A)
                 (A) (A) (A) (A) (A) (A) (A) (A) (A) (A) (A) (A)
                 (A) (A) (A) (A) (A) (A) (A) (A) (A) (A) (A) (A)
                 (A) (A) (A) (A) (A) (A) (A) (A) (A) (A) (A) (A)
                 (A) (A) (A) (A) (A) (A) (A) (A) (A) (A) (A) (A)
                 (A) (A) (A) (A) (A) (A) (A) (A) (A) (A) (A) (A)
                 (A) (A) (A) (A) (A) (A) (A) (A) (A) (A) (A) (A)
                 (A) (A) (A) (A) (A) (A) (A) (A) (A) (A) (A) (A)
                 (A) (A) (A) (A) (A) (A) (A) (A) (A) (A) (A) (A)
                 (A) (A) (A) (A) (A) (A) (A) (A) (A) (A) (A) (A)
                 (A) (A) (A) (A) (A) (A) (A) (A) (A) (A) (A) (A)
                 (A) (A) (A) (A) (A) (A) (A) (A) (A) (A) (A) (A)
                 (A)
 The electronic state is 1-A.
 Alpha  occ. eigenvalues --  -77.05816 -10.18642 -10.18522 -10.18433 -10.17743
 Alpha  occ. eigenvalues --  -10.17536 -10.17461 -10.17424 -10.17333 -10.17266
 Alpha  occ. eigenvalues --  -10.17261 -10.17233 -10.17217 -10.17198 -10.17185
 Alpha  occ. eigenvalues --  -10.17071 -10.17047 -10.16979 -10.16883  -6.52586
 Alpha  occ. eigenvalues --   -4.68834  -4.68833  -4.68338  -0.83187  -0.82426
 Alpha  occ. eigenvalues --   -0.82298  -0.75676  -0.74066  -0.73869  -0.73602
 Alpha  occ. eigenvalues --   -0.73167  -0.72944  -0.63431  -0.60828  -0.60486
 Alpha  occ. eigenvalues --   -0.60160  -0.59742  -0.59554  -0.54925  -0.54544
 Alpha  occ. eigenvalues --   -0.54037  -0.52257  -0.47227  -0.47199  -0.46357
 Alpha  occ. eigenvalues --   -0.44024  -0.43715  -0.43670  -0.43496  -0.43308
 Alpha  occ. eigenvalues --   -0.42961  -0.42830  -0.42784  -0.40285  -0.38267
 Alpha  occ. eigenvalues --   -0.37991  -0.37331  -0.37097  -0.36940  -0.36231
 Alpha  occ. eigenvalues --   -0.35245  -0.34899  -0.34719  -0.34114  -0.34024
 Alpha  occ. eigenvalues --   -0.33771  -0.33666  -0.33115  -0.31980  -0.31271
 Alpha  occ. eigenvalues --   -0.30666  -0.30358  -0.29670  -0.29508  -0.28641
 Alpha  occ. eigenvalues --   -0.26725  -0.26437  -0.19959
 Alpha virt. eigenvalues --    0.06256   0.06460   0.06708   0.08957   0.09549
 Alpha virt. eigenvalues --    0.09995   0.10994   0.11966   0.12407   0.12822
 Alpha virt. eigenvalues --    0.13158   0.13665   0.14557   0.15118   0.15296
 Alpha virt. eigenvalues --    0.15589   0.15909   0.16423   0.16890   0.17040
 Alpha virt. eigenvalues --    0.17195   0.17541   0.17771   0.17994   0.18195
 Alpha virt. eigenvalues --    0.18449   0.18723   0.19251   0.19519   0.19654
 Alpha virt. eigenvalues --    0.19931   0.20596   0.20821   0.21495   0.22247
 Alpha virt. eigenvalues --    0.23071   0.23995   0.24731   0.25373   0.25697
 Alpha virt. eigenvalues --    0.26101   0.26741   0.26885   0.27380   0.27773
 Alpha virt. eigenvalues --    0.28210   0.28305   0.28526   0.29435   0.29882
 Alpha virt. eigenvalues --    0.30884   0.31681   0.31911   0.33391   0.38941
 Alpha virt. eigenvalues --    0.43906   0.45810   0.47133   0.47459   0.49556
 Alpha virt. eigenvalues --    0.51828   0.53065   0.54021   0.54238   0.54660
 Alpha virt. eigenvalues --    0.55054   0.55406   0.56225   0.56501   0.57707
 Alpha virt. eigenvalues --    0.58344   0.59564   0.60443   0.61051   0.61499
 Alpha virt. eigenvalues --    0.62028   0.62934   0.63823   0.64704   0.65993
 Alpha virt. eigenvalues --    0.66829   0.67065   0.67440   0.68016   0.68780
 Alpha virt. eigenvalues --    0.71238   0.71416   0.71678   0.72917   0.73947
 Alpha virt. eigenvalues --    0.74093   0.75282   0.75904   0.78067   0.78232
 Alpha virt. eigenvalues --    0.79095   0.80263   0.81361   0.82040   0.82371
 Alpha virt. eigenvalues --    0.83053   0.84086   0.84748   0.86305   0.86695
 Alpha virt. eigenvalues --    0.86863   0.87754   0.88081   0.88518   0.88724
 Alpha virt. eigenvalues --    0.89195   0.89635   0.89704   0.89940   0.90406
 Alpha virt. eigenvalues --    0.91365   0.91481   0.92316   0.92796   0.93581
 Alpha virt. eigenvalues --    0.93979   0.94304   0.94811   0.94927   0.95645
 Alpha virt. eigenvalues --    0.95982   0.96322   0.96564   0.96812   0.97082
 Alpha virt. eigenvalues --    0.97885   0.98597   0.99483   1.00202   1.00803
 Alpha virt. eigenvalues --    1.01149   1.02922   1.05133   1.05907   1.07488
 Alpha virt. eigenvalues --    1.08137   1.08963   1.11314   1.11689   1.13444
 Alpha virt. eigenvalues --    1.16725   1.17141   1.20050   1.21388   1.23648
 Alpha virt. eigenvalues --    1.26554   1.26836   1.28689   1.35772   1.37031
 Alpha virt. eigenvalues --    1.38998   1.39336   1.40428   1.40974   1.41157
 Alpha virt. eigenvalues --    1.42104   1.42688   1.44023   1.47912   1.51491
 Alpha virt. eigenvalues --    1.56906   1.59371   1.60663   1.61609   1.63051
 Alpha virt. eigenvalues --    1.67188   1.70627   1.71774   1.72088   1.72413
 Alpha virt. eigenvalues --    1.73200   1.74232   1.75200   1.77545   1.80435
 Alpha virt. eigenvalues --    1.81348   1.83019   1.84247   1.88848   1.89286
 Alpha virt. eigenvalues --    1.89498   1.90210   1.91283   1.91580   1.92540
 Alpha virt. eigenvalues --    1.92859   1.93418   1.93654   1.94446   1.95377
 Alpha virt. eigenvalues --    1.98309   1.98924   1.99941   2.00814   2.01710
 Alpha virt. eigenvalues --    2.02256   2.02794   2.03246   2.03723   2.04182
 Alpha virt. eigenvalues --    2.05417   2.07679   2.10639   2.12144   2.12509
 Alpha virt. eigenvalues --    2.13775   2.14442   2.15452   2.15942   2.16490
 Alpha virt. eigenvalues --    2.17310   2.24356   2.26079   2.27367   2.28169
 Alpha virt. eigenvalues --    2.28785   2.30029   2.36356   2.37242   2.37707
 Alpha virt. eigenvalues --    2.38367   2.38551   2.39363   2.39922   2.40228
 Alpha virt. eigenvalues --    2.40591   2.41039   2.41533   2.41752   2.42282
 Alpha virt. eigenvalues --    2.42816   2.43750   2.44214   2.45222   2.46169
 Alpha virt. eigenvalues --    2.59821   2.61043   2.62036   2.63749   2.64393
 Alpha virt. eigenvalues --    2.65451   2.67991   2.69843   2.70910   2.72297
 Alpha virt. eigenvalues --    2.72643   2.73802   2.75536   2.76749   2.78466
 Alpha virt. eigenvalues --    2.80029   2.81089   2.83336   3.57917   4.15172
 Alpha virt. eigenvalues --    4.15780   4.16263   4.25428   4.26465   4.27438
 Alpha virt. eigenvalues --    4.28663   4.30104   4.31301   4.53636   4.54287
 Alpha virt. eigenvalues --    4.54990   4.55678   4.56184   4.56420   4.59339
 Alpha virt. eigenvalues --    4.60849   4.64246
          Condensed to atoms (all electrons):
 Mulliken atomic charges:
              1
     1  C   -0.248816
     2  C   -0.258522
     3  C   -0.278528
     4  C   -0.264561
     5  C   -0.286985
     6  C   -0.259400
     7  P    0.399305
     8  C   -0.282778
     9  C   -0.280753
    10  C   -0.261496
    11  C   -0.250778
    12  C   -0.257830
    13  C   -0.277245
    14  C   -0.265049
    15  C   -0.284424
    16  C   -0.258723
    17  C   -0.249565
    18  C   -0.259249
    19  C   -0.278605
    20  H    0.126293
    21  H    0.128548
    22  H    0.128555
    23  H    0.124591
    24  H    0.143751
    25  H    0.139547
    26  H    0.134907
    27  H    0.145336
    28  H    0.136546
    29  H    0.128895
    30  H    0.126069
    31  H    0.149172
    32  H    0.140670
    33  H    0.146217
    34  H    0.125649
    35  H    0.129866
    36  H    0.128546
    37  H    0.125721
    38  H    0.125830
    39  H    0.126720
    40  H    0.134513
    41  H    0.136271
    42  H    0.137088
    43  H    0.140604
    44  H    0.145670
    45  H    0.124903
    46  H    0.130203
    47  H    0.126399
    48  H    0.128221
    49  H    0.124677
    50  H    0.130024
    51  H    0.141306
    52  H    0.142695
 Sum of Mulliken atomic charges =  -0.00000
 Mulliken charges with hydrogens summed into heavy atoms:
              1
     1  C    0.006024
     2  C   -0.005377
     3  C    0.004771
     4  C   -0.129654
     5  C   -0.005103
     6  C   -0.004436
     7  P    0.399305
     8  C   -0.133606
     9  C    0.006133
    10  C   -0.005981
    11  C    0.003489
    12  C   -0.005280
    13  C   -0.006461
    14  C   -0.127961
    15  C    0.001850
    16  C   -0.003616
    17  C    0.005055
    18  C   -0.004548
    19  C    0.005396
 Sum of Mulliken charges with hydrogens summed into heavy atoms =  -0.00000
 Electronic spatial extent (au):  <R**2>=           6992.0533
 Charge=             -0.0000 electrons
 Dipole moment (field-independent basis, Debye):
    X=             -0.1439    Y=             -0.1840    Z=              1.2769  Tot=              1.2980
 Quadrupole moment (field-independent basis, Debye-Ang):
   XX=           -127.5097   YY=           -127.2478   ZZ=           -131.5358
   XY=             -0.4556   XZ=              0.4054   YZ=              0.7812
 Traceless Quadrupole moment (field-independent basis, Debye-Ang):
   XX=              1.2547   YY=              1.5166   ZZ=             -2.7713
   XY=             -0.4556   XZ=              0.4054   YZ=              0.7812
 Octapole moment (field-independent basis, Debye-Ang**2):
  XXX=             -1.5974  YYY=             -0.6863  ZZZ=              8.2792  XYY=              2.4236
  XXY=              0.6648  XXZ=             -2.9581  XZZ=             -0.5753  YZZ=             -0.0890
  YYZ=             -3.1805  XYZ=              0.4714
 Hexadecapole moment (field-independent basis, Debye-Ang**3):
 XXXX=          -5130.8620 YYYY=          -3947.7456 ZZZZ=           -649.1142 XXXY=              0.1945
 XXXZ=              2.5957 YYYX=              2.9982 YYYZ=              1.8783 ZZZX=              1.6749
 ZZZY=              3.1304 XXYY=          -1515.7154 XXZZ=           -951.1877 YYZZ=           -765.7029
 XXYZ=              0.3192 YYXZ=             -3.1827 ZZXY=             -4.1599
 N-N= 1.720607342618D+03 E-N=-5.884044919376D+03  KE= 1.039214423888D+03
 No NMR shielding tensors so no spin-rotation constants.
 Leave Link  601 at Fri Oct  1 19:10:36 2021, MaxMem= 2147483648 cpu:       3.6
 (Enter /sw/target/amd/app/gaussian/Gaussian09RevA.02_gcc-4.9.2/g09/l701.exe)
 Compute integral first derivatives.
 ... and contract with generalized density number  0.
 Leave Link  701 at Fri Oct  1 19:10:41 2021, MaxMem= 2147483648 cpu:       3.2
 (Enter /sw/target/amd/app/gaussian/Gaussian09RevA.02_gcc-4.9.2/g09/l702.exe)
 L702 exits ... SP integral derivatives will be done elsewhere.
 Leave Link  702 at Fri Oct  1 19:10:42 2021, MaxMem= 2147483648 cpu:       0.1
 (Enter /sw/target/amd/app/gaussian/Gaussian09RevA.02_gcc-4.9.2/g09/l703.exe)
 Compute integral first derivatives, UseDBF=F ICtDFT=           0.
 Integral derivatives from FoFDir, PRISM(SPDF).
 Calling FoFJK, ICntrl=      2127 FMM=F ISym2X=0 I1Cent= 0 IOpClX= 0 NMat=1 NMatS=1 NMatT=0.
 FoFCou: FMM=F IPFlag=           0 FMFlag=      100000 FMFlg1=         800
         NFxFlg=           0 DoJE=F BraDBF=F KetDBF=F FulRan=T
         Omega=  0.000000  0.000000  1.000000  0.000000  0.000000 ICntrl=    2127 IOpCl=  0
         NMat0=    1 NMatS0=    1 NMatT0=    0 NMatD0=    1 NMtDS0=    0 NMtDT0=    0
         I1Cent=           0 NGrid=           0.
 Symmetry not used in FoFCou.
 Leave Link  703 at Fri Oct  1 19:15:27 2021, MaxMem= 2147483648 cpu:     316.0
 (Enter /sw/target/amd/app/gaussian/Gaussian09RevA.02_gcc-4.9.2/g09/l716.exe)
 Dipole        =-5.66194310D-02-7.23937297D-02 5.02354171D-01
 ***** Axes restored to original set *****
 -------------------------------------------------------------------
 Center     Atomic                   Forces (Hartrees/Bohr)
 Number     Number              X              Y              Z
 -------------------------------------------------------------------
      1        6          -0.005436772    0.000952610    0.006640051
      2        6          -0.002063584    0.002353255   -0.005768959
      3        6          -0.001165118   -0.007214425    0.003871967
      4        6          -0.000632814   -0.000310817   -0.001037124
      5        6           0.003262434    0.004359207    0.004561004
      6        6          -0.000375076    0.004066383   -0.000858592
      7       15          -0.001605174    0.003827521   -0.017567781
      8        6          -0.001943191    0.000588663    0.003730682
      9        6           0.004324115   -0.001243468   -0.008140609
     10        6           0.000296884    0.002046517   -0.000659371
     11        6           0.004035159    0.007531320    0.000840243
     12        6           0.000083621   -0.002466536    0.005421062
     13        6          -0.000613194    0.001133563    0.006640569
     14        6           0.002243605   -0.002763807    0.002000498
     15        6           0.008085614    0.008575748    0.002613239
     16        6           0.002438888   -0.003897569   -0.001515122
     17        6           0.002472732   -0.008875705    0.002497600
     18        6          -0.000592332   -0.003475870   -0.001404121
     19        6          -0.008475862   -0.000914223    0.003530608
     20        1          -0.003805762    0.002526782   -0.000064238
     21        1           0.000063254   -0.000373635   -0.003270652
     22        1          -0.000828040   -0.003213867    0.000079792
     23        1          -0.000667501    0.000420642    0.001800696
     24        1           0.001435274    0.001911108   -0.002390599
     25        1           0.005883887   -0.002737402   -0.001957333
     26        1          -0.003623810    0.000261600    0.002738856
     27        1           0.001842250   -0.001785195   -0.002444534
     28        1           0.003050505   -0.000639301   -0.001610929
     29        1           0.002383472    0.000957996    0.001792758
     30        1          -0.000798419   -0.000410698    0.001561364
     31        1          -0.004858834    0.000026398   -0.000540459
     32        1          -0.002779502   -0.001299463    0.000518459
     33        1          -0.000798796   -0.005127608    0.000762529
     34        1           0.000843247    0.001657798    0.001871720
     35        1           0.001502389    0.001182198   -0.003116841
     36        1           0.002794370   -0.000614265    0.001290965
     37        1           0.000397578   -0.001851520    0.000631067
     38        1           0.001143309    0.002361714   -0.000171610
     39        1          -0.001608708    0.001088108    0.002319936
     40        1          -0.001324010   -0.002255175   -0.002597224
     41        1           0.000378736   -0.003740365   -0.001321708
     42        1           0.002357657   -0.001621952    0.003696003
     43        1          -0.001567434    0.003796369   -0.003210685
     44        1          -0.001497504    0.001576992    0.000404370
     45        1           0.000077627   -0.001606172    0.001815230
     46        1           0.001971704    0.001855581    0.000877056
     47        1           0.000432807   -0.002366270   -0.001971206
     48        1          -0.000134521    0.000364994   -0.002032860
     49        1           0.000929489   -0.000826294    0.001338528
     50        1          -0.002178072    0.000599923    0.001268099
     51        1          -0.004593081    0.004230437   -0.002743109
     52        1          -0.000763497    0.001378175   -0.000719285
 -------------------------------------------------------------------
 Cartesian Forces:  Max     0.017567781 RMS     0.003268816
 Leave Link  716 at Fri Oct  1 19:15:28 2021, MaxMem= 2147483648 cpu:       0.1
 (Enter /sw/target/amd/app/gaussian/Gaussian09RevA.02_gcc-4.9.2/g09/l103.exe)

 GradGradGradGradGradGradGradGradGradGradGradGradGradGradGradGradGradGrad
 Berny optimization.
 Internal  Forces:  Max     0.010342327 RMS     0.002323574
 Search for a local minimum.
 Step number   1 out of a maximum of  312
 All quantities printed in internal units (Hartrees-Bohrs-Radians)
 RMS Force = .23236D-02 SwitMx=.10000D-02 MixMth= 1
 Mixed Optimization -- RFO/linear search
 Second derivative matrix not updated -- first step.
     Eigenvalues ---    0.00230   0.00230   0.00230   0.00382   0.00436
     Eigenvalues ---    0.00449   0.00530   0.00539   0.00581   0.00761
     Eigenvalues ---    0.00763   0.00789   0.01863   0.01866   0.01888
     Eigenvalues ---    0.01899   0.02052   0.02082   0.03202   0.03541
     Eigenvalues ---    0.03553   0.03554   0.03810   0.03846   0.03866
     Eigenvalues ---    0.03879   0.04013   0.04343   0.04383   0.04400
     Eigenvalues ---    0.04416   0.04683   0.04684   0.04709   0.04722
     Eigenvalues ---    0.04757   0.04822   0.04919   0.04932   0.04970
     Eigenvalues ---    0.05132   0.05165   0.05297   0.05396   0.05400
     Eigenvalues ---    0.05407   0.05529   0.05547   0.05582   0.05928
     Eigenvalues ---    0.05961   0.05979   0.06512   0.06612   0.06645
     Eigenvalues ---    0.07887   0.07906   0.07938   0.08052   0.08055
     Eigenvalues ---    0.08234   0.08245   0.08264   0.08298   0.08496
     Eigenvalues ---    0.08498   0.08517   0.08577   0.08594   0.08643
     Eigenvalues ---    0.08647   0.08718   0.08728   0.08816   0.08949
     Eigenvalues ---    0.09464   0.11984   0.11996   0.12058   0.12250
     Eigenvalues ---    0.12281   0.12328   0.13550   0.14042   0.14249
     Eigenvalues ---    0.14454   0.15255   0.16219   0.16479   0.16665
     Eigenvalues ---    0.17051   0.17298   0.18311   0.19546   0.19606
     Eigenvalues ---    0.19762   0.20854   0.20958   0.21022   0.26949
     Eigenvalues ---    0.27148   0.27236   0.27258   0.27875   0.27921
     Eigenvalues ---    0.27975   0.28353   0.28491   0.29463   0.29492
     Eigenvalues ---    0.29628   0.29766   0.29775   0.29845   0.29937
     Eigenvalues ---    0.30093   0.30157   0.33776   0.33792   0.33807
     Eigenvalues ---    0.33899   0.33916   0.33924   0.33985   0.34000
     Eigenvalues ---    0.34003   0.34012   0.34015   0.34017   0.34020
     Eigenvalues ---    0.34042   0.34053   0.34059   0.34079   0.34139
     Eigenvalues ---    0.34164   0.34169   0.34194   0.34222   0.34257
     Eigenvalues ---    0.34257   0.34279   0.34295   0.34373   0.34412
     Eigenvalues ---    0.34525   0.34540   0.34772   0.35161   0.35162
     Eigenvalues --- 1000.000001000.000001000.000001000.000001000.00000
     Eigenvalues --- 1000.000001000.000001000.000001000.000001000.00000
     Eigenvalues --- 1000.000001000.000001000.000001000.000001000.00000
     Eigenvalues --- 1000.000001000.000001000.000001000.000001000.00000
     Eigenvalues --- 1000.000001000.000001000.000001000.000001000.00000
     Eigenvalues --- 1000.000001000.000001000.000001000.000001000.00000
[...]
   149    C   10  pz     Ryd( 3p)     0.00243
   150    C   10  dxy    Ryd( 3d)     0.00103
   151    C   10  dxz    Ryd( 3d)     0.00093
   152    C   10  dyz    Ryd( 3d)     0.00040
   153    C   10  dx2y2  Ryd( 3d)     0.00046
   154    C   10  dz2    Ryd( 3d)     0.00074

   155    C   11  S      Cor( 1S)     1.99933
   156    C   11  S      Val( 2S)     1.03436
   157    C   11  S      Ryd( 3S)     0.00065
   158    C   11  S      Ryd( 4S)     0.00002
   159    C   11  px     Val( 2p)     1.13513
   160    C   11  px     Ryd( 3p)     0.00141
   161    C   11  py     Val( 2p)     1.23751
   162    C   11  py     Ryd( 3p)     0.00434
   163    C   11  pz     Val( 2p)     1.04186
   164    C   11  pz     Ryd( 3p)     0.00162
   165    C   11  dxy    Ryd( 3d)     0.00115
   166    C   11  dxz    Ryd( 3d)     0.00064
   167    C   11  dyz    Ryd( 3d)     0.00039
   168    C   11  dx2y2  Ryd( 3d)     0.00044
   169    C   11  dz2    Ryd( 3d)     0.00092

   170    C   12  S      Cor( 1S)     1.99931
   171    C   12  S      Val( 2S)     1.03433
   172    C   12  S      Ryd( 3S)     0.00072
   173    C   12  S      Ryd( 4S)     0.00002
   174    C   12  px     Val( 2p)     1.12559
   175    C   12  px     Ryd( 3p)     0.00234
   176    C   12  py     Val( 2p)     1.10005
   177    C   12  py     Ryd( 3p)     0.00169
   178    C   12  pz     Val( 2p)     1.17999
   179    C   12  pz     Ryd( 3p)     0.00407
   180    C   12  dxy    Ryd( 3d)     0.00114
   181    C   12  dxz    Ryd( 3d)     0.00064
   182    C   12  dyz    Ryd( 3d)     0.00027
   183    C   12  dx2y2  Ryd( 3d)     0.00041
   184    C   12  dz2    Ryd( 3d)     0.00113

   185    C   13  S      Cor( 1S)     1.99926
   186    C   13  S      Val( 2S)     1.02848
   187    C   13  S      Ryd( 3S)     0.00123
   188    C   13  S      Ryd( 4S)     0.00002
   189    C   13  px     Val( 2p)     1.20490
   190    C   13  px     Ryd( 3p)     0.00420
   191    C   13  py     Val( 2p)     1.12966
   192    C   13  py     Ryd( 3p)     0.00201
   193    C   13  pz     Val( 2p)     1.08724
   194    C   13  pz     Ryd( 3p)     0.00307
   195    C   13  dxy    Ryd( 3d)     0.00102
   196    C   13  dxz    Ryd( 3d)     0.00099
   197    C   13  dyz    Ryd( 3d)     0.00038
   198    C   13  dx2y2  Ryd( 3d)     0.00048
   199    C   13  dz2    Ryd( 3d)     0.00073

   200    C   14  S      Cor( 1S)     1.99920
   201    C   14  S      Val( 2S)     1.10172
   202    C   14  S      Ryd( 3S)     0.00560
   203    C   14  S      Ryd( 4S)     0.00002
   204    C   14  px     Val( 2p)     1.09525
   205    C   14  px     Ryd( 3p)     0.00615
   206    C   14  py     Val( 2p)     1.18443
   207    C   14  py     Ryd( 3p)     0.00791
   208    C   14  pz     Val( 2p)     1.22664
   209    C   14  pz     Ryd( 3p)     0.00421
   210    C   14  dxy    Ryd( 3d)     0.00083
   211    C   14  dxz    Ryd( 3d)     0.00049
   212    C   14  dyz    Ryd( 3d)     0.00080
   213    C   14  dx2y2  Ryd( 3d)     0.00067
   214    C   14  dz2    Ryd( 3d)     0.00108

   215    C   15  S      Cor( 1S)     1.99930
   216    C   15  S      Val( 2S)     1.02920
   217    C   15  S      Ryd( 3S)     0.00100
   218    C   15  S      Ryd( 4S)     0.00003
   219    C   15  px     Val( 2p)     1.07797
   220    C   15  px     Ryd( 3p)     0.00248
   221    C   15  py     Val( 2p)     1.15160
   222    C   15  py     Ryd( 3p)     0.00375
   223    C   15  pz     Val( 2p)     1.19405
   224    C   15  pz     Ryd( 3p)     0.00236
   225    C   15  dxy    Ryd( 3d)     0.00100
   226    C   15  dxz    Ryd( 3d)     0.00035
   227    C   15  dyz    Ryd( 3d)     0.00040
   228    C   15  dx2y2  Ryd( 3d)     0.00056
   229    C   15  dz2    Ryd( 3d)     0.00125

   230    C   16  S      Cor( 1S)     1.99932
   231    C   16  S      Val( 2S)     1.03140
   232    C   16  S      Ryd( 3S)     0.00068
   233    C   16  S      Ryd( 4S)     0.00002
   234    C   16  px     Val( 2p)     1.17027
   235    C   16  px     Ryd( 3p)     0.00354
   236    C   16  py     Val( 2p)     1.04267
   237    C   16  py     Ryd( 3p)     0.00174
   238    C   16  pz     Val( 2p)     1.19661
   239    C   16  pz     Ryd( 3p)     0.00258
   240    C   16  dxy    Ryd( 3d)     0.00063
   241    C   16  dxz    Ryd( 3d)     0.00049
   242    C   16  dyz    Ryd( 3d)     0.00057
   243    C   16  dx2y2  Ryd( 3d)     0.00084
   244    C   16  dz2    Ryd( 3d)     0.00107

   245    C   17  S      Cor( 1S)     1.99932
   246    C   17  S      Val( 2S)     1.03304
   247    C   17  S      Ryd( 3S)     0.00061
   248    C   17  S      Ryd( 4S)     0.00002
   249    C   17  px     Val( 2p)     1.06178
   250    C   17  px     Ryd( 3p)     0.00199
   251    C   17  py     Val( 2p)     1.13287
   252    C   17  py     Ryd( 3p)     0.00239
   253    C   17  pz     Val( 2p)     1.21926
   254    C   17  pz     Ryd( 3p)     0.00297
   255    C   17  dxy    Ryd( 3d)     0.00079
   256    C   17  dxz    Ryd( 3d)     0.00045
   257    C   17  dyz    Ryd( 3d)     0.00077
   258    C   17  dx2y2  Ryd( 3d)     0.00060
   259    C   17  dz2    Ryd( 3d)     0.00094

   260    C   18  S      Cor( 1S)     1.99933
   261    C   18  S      Val( 2S)     1.03136
   262    C   18  S      Ryd( 3S)     0.00068
   263    C   18  S      Ryd( 4S)     0.00002
   264    C   18  px     Val( 2p)     1.08456
   265    C   18  px     Ryd( 3p)     0.00247
   266    C   18  py     Val( 2p)     1.14555
   267    C   18  py     Ryd( 3p)     0.00360
   268    C   18  pz     Val( 2p)     1.17861
   269    C   18  pz     Ryd( 3p)     0.00180
   270    C   18  dxy    Ryd( 3d)     0.00100
   271    C   18  dxz    Ryd( 3d)     0.00035
   272    C   18  dyz    Ryd( 3d)     0.00041
   273    C   18  dx2y2  Ryd( 3d)     0.00057
   274    C   18  dz2    Ryd( 3d)     0.00127

   275    C   19  S      Cor( 1S)     1.99930
   276    C   19  S      Val( 2S)     1.02421
   277    C   19  S      Ryd( 3S)     0.00090
   278    C   19  S      Ryd( 4S)     0.00002
   279    C   19  px     Val( 2p)     1.16867
   280    C   19  px     Ryd( 3p)     0.00345
   281    C   19  py     Val( 2p)     1.04806
   282    C   19  py     Ryd( 3p)     0.00191
   283    C   19  pz     Val( 2p)     1.21095
   284    C   19  pz     Ryd( 3p)     0.00322
   285    C   19  dxy    Ryd( 3d)     0.00061
   286    C   19  dxz    Ryd( 3d)     0.00049
   287    C   19  dyz    Ryd( 3d)     0.00053
   288    C   19  dx2y2  Ryd( 3d)     0.00087
   289    C   19  dz2    Ryd( 3d)     0.00107

   290    H   20  S      Val( 1S)     0.76176
   291    H   20  S      Ryd( 2S)     0.00116

   292    H   21  S      Val( 1S)     0.77254
   293    H   21  S      Ryd( 2S)     0.00225

   294    H   22  S      Val( 1S)     0.76299
   295    H   22  S      Ryd( 2S)     0.00243

   296    H   23  S      Val( 1S)     0.77493
   297    H   23  S      Ryd( 2S)     0.00200

   298    H   24  S      Val( 1S)     0.76807
   299    H   24  S      Ryd( 2S)     0.00608

   300    H   25  S      Val( 1S)     0.75819
   301    H   25  S      Ryd( 2S)     0.00127

   302    H   26  S      Val( 1S)     0.75707
   303    H   26  S      Ryd( 2S)     0.01000

   304    H   27  S      Val( 1S)     0.76738
   305    H   27  S      Ryd( 2S)     0.01020

   306    H   28  S      Val( 1S)     0.76888
   307    H   28  S      Ryd( 2S)     0.00218

   308    H   29  S      Val( 1S)     0.75852
   309    H   29  S      Ryd( 2S)     0.00164

   310    H   30  S      Val( 1S)     0.77392
   311    H   30  S      Ryd( 2S)     0.00224

   312    H   31  S      Val( 1S)     0.73196
   313    H   31  S      Ryd( 2S)     0.00256

   314    H   32  S      Val( 1S)     0.75813
   315    H   32  S      Ryd( 2S)     0.00368

   316    H   33  S      Val( 1S)     0.77127
   317    H   33  S      Ryd( 2S)     0.00207

   318    H   34  S      Val( 1S)     0.77510
   319    H   34  S      Ryd( 2S)     0.00260

   320    H   35  S      Val( 1S)     0.75881
   321    H   35  S      Ryd( 2S)     0.00136

   322    H   36  S      Val( 1S)     0.76014
   323    H   36  S      Ryd( 2S)     0.00168

   324    H   37  S      Val( 1S)     0.77297
   325    H   37  S      Ryd( 2S)     0.00182

   326    H   38  S      Val( 1S)     0.77135
   327    H   38  S      Ryd( 2S)     0.00202

   328    H   39  S      Val( 1S)     0.75351
   329    H   39  S      Ryd( 2S)     0.00120

   330    H   40  S      Val( 1S)     0.76405
   331    H   40  S      Ryd( 2S)     0.00307

   332    H   41  S      Val( 1S)     0.76802
   333    H   41  S      Ryd( 2S)     0.00386

   334    H   42  S      Val( 1S)     0.74849
   335    H   42  S      Ryd( 2S)     0.00331

   336    H   43  S      Val( 1S)     0.77249
   337    H   43  S      Ryd( 2S)     0.00270

   338    H   44  S      Val( 1S)     0.77621
   339    H   44  S      Ryd( 2S)     0.00705

   340    H   45  S      Val( 1S)     0.77555
   341    H   45  S      Ryd( 2S)     0.00263

   342    H   46  S      Val( 1S)     0.76767
   343    H   46  S      Ryd( 2S)     0.00337

   344    H   47  S      Val( 1S)     0.76360
   345    H   47  S      Ryd( 2S)     0.00147

   346    H   48  S      Val( 1S)     0.77415
   347    H   48  S      Ryd( 2S)     0.00272

   348    H   49  S      Val( 1S)     0.77527
   349    H   49  S      Ryd( 2S)     0.00198

   350    H   50  S      Val( 1S)     0.76647
   351    H   50  S      Ryd( 2S)     0.00288

   352    H   51  S      Val( 1S)     0.76674
   353    H   51  S      Ryd( 2S)     0.00174

   354    H   52  S      Val( 1S)     0.77410
   355    H   52  S      Ryd( 2S)     0.00532

 WARNING:  1 low occupancy (<1.9990e) core orbital  found on  P    7


 Summary of Natural Population Analysis:                  
                                                          
                                       Natural Population 
                Natural  -----------------------------------------------
    Atom  No    Charge         Core      Valence    Rydberg      Total
 -----------------------------------------------------------------------
      C    1   -0.45858      1.99932     4.44774    0.01152     6.45858
      C    2   -0.45580      1.99932     4.44427    0.01220     6.45580
      C    3   -0.46446      1.99930     4.45117    0.01399     6.46446
      C    4   -0.55429      1.99917     4.53375    0.02136     6.55429
      C    5   -0.47073      1.99929     4.45748    0.01396     6.47073
      C    6   -0.45450      1.99932     4.44285    0.01233     6.45450
      P    7    1.01145      9.99770     3.88905    0.10180    13.98855
      C    8   -0.55988      1.99917     4.54017    0.02053     6.55988
      C    9   -0.45927      1.99929     4.44476    0.01522     6.45927
      C   10   -0.45960      1.99933     4.44731    0.01296     6.45960
      C   11   -0.45978      1.99933     4.44886    0.01159     6.45978
      C   12   -0.45169      1.99931     4.43996    0.01242     6.45169
      C   13   -0.46367      1.99926     4.45028    0.01413     6.46367
      C   14   -0.63502      1.99920     4.60805    0.02777     6.63502
      C   15   -0.46529      1.99930     4.45282    0.01318     6.46529
      C   16   -0.45243      1.99932     4.44094    0.01216     6.45243
      C   17   -0.45780      1.99932     4.44695    0.01153     6.45780
      C   18   -0.45159      1.99933     4.44007    0.01219     6.45159
      C   19   -0.46426      1.99930     4.45189    0.01308     6.46426
      H   20    0.23708      0.00000     0.76176    0.00116     0.76292
      H   21    0.22521      0.00000     0.77254    0.00225     0.77479
      H   22    0.23458      0.00000     0.76299    0.00243     0.76542
      H   23    0.22307      0.00000     0.77493    0.00200     0.77693
      H   24    0.22585      0.00000     0.76807    0.00608     0.77415
      H   25    0.24053      0.00000     0.75819    0.00127     0.75947
      H   26    0.23293      0.00000     0.75707    0.01000     0.76707
      H   27    0.22242      0.00000     0.76738    0.01020     0.77758
      H   28    0.22895      0.00000     0.76888    0.00218     0.77105
      H   29    0.23984      0.00000     0.75852    0.00164     0.76016
      H   30    0.22385      0.00000     0.77392    0.00224     0.77615
      H   31    0.26548      0.00000     0.73196    0.00256     0.73452
      H   32    0.23819      0.00000     0.75813    0.00368     0.76181
      H   33    0.22666      0.00000     0.77127    0.00207     0.77334
      H   34    0.22230      0.00000     0.77510    0.00260     0.77770
      H   35    0.23983      0.00000     0.75881    0.00136     0.76017
      H   36    0.23818      0.00000     0.76014    0.00168     0.76182
      H   37    0.22520      0.00000     0.77297    0.00182     0.77480
      H   38    0.22663      0.00000     0.77135    0.00202     0.77337
      H   39    0.24529      0.00000     0.75351    0.00120     0.75471
      H   40    0.23287      0.00000     0.76405    0.00307     0.76713
      H   41    0.22812      0.00000     0.76802    0.00386     0.77188
      H   42    0.24820      0.00000     0.74849    0.00331     0.75180
      H   43    0.22481      0.00000     0.77249    0.00270     0.77519
      H   44    0.21674      0.00000     0.77621    0.00705     0.78326
      H   45    0.22182      0.00000     0.77555    0.00263     0.77818
      H   46    0.22896      0.00000     0.76767    0.00337     0.77104
      H   47    0.23493      0.00000     0.76360    0.00147     0.76507
      H   48    0.22314      0.00000     0.77415    0.00272     0.77686
      H   49    0.22275      0.00000     0.77527    0.00198     0.77725
      H   50    0.23065      0.00000     0.76647    0.00288     0.76935
      H   51    0.23152      0.00000     0.76674    0.00174     0.76848
      H   52    0.22059      0.00000     0.77410    0.00532     0.77941
 =======================================================================
   * Total *   -0.00000     45.98488   109.54866    0.46646   156.00000

                                 Natural Population      
 --------------------------------------------------------
   Core                      45.98488 ( 99.9671% of  46)
   Valence                  109.54866 ( 99.5897% of 110)
   Natural Minimal Basis    155.53354 ( 99.7010% of 156)
   Natural Rydberg Basis      0.46646 (  0.2990% of 156)
 --------------------------------------------------------

    Atom  No          Natural Electron Configuration
 ----------------------------------------------------------------------------
      C    1      [core]2S( 1.03)2p( 3.42)3p( 0.01)
      C    2      [core]2S( 1.03)2p( 3.41)3p( 0.01)
      C    3      [core]2S( 1.02)2p( 3.43)3p( 0.01)
      C    4      [core]2S( 1.08)2p( 3.46)3p( 0.01)
      C    5      [core]2S( 1.04)2p( 3.42)3p( 0.01)
      C    6      [core]2S( 1.03)2p( 3.41)3p( 0.01)
      P    7      [core]3S( 1.31)3p( 2.58)3d( 0.03)4p( 0.07)
      C    8      [core]2S( 1.08)2p( 3.46)3p( 0.01)
      C    9      [core]2S( 1.02)2p( 3.42)3p( 0.01)
      C   10      [core]2S( 1.03)2p( 3.41)3p( 0.01)
      C   11      [core]2S( 1.03)2p( 3.41)3p( 0.01)
      C   12      [core]2S( 1.03)2p( 3.41)3p( 0.01)
      C   13      [core]2S( 1.03)2p( 3.42)3p( 0.01)
      C   14      [core]2S( 1.10)2p( 3.51)3S( 0.01)3p( 0.02)
      C   15      [core]2S( 1.03)2p( 3.42)3p( 0.01)
      C   16      [core]2S( 1.03)2p( 3.41)3p( 0.01)
      C   17      [core]2S( 1.03)2p( 3.41)3p( 0.01)
      C   18      [core]2S( 1.03)2p( 3.41)3p( 0.01)
      C   19      [core]2S( 1.02)2p( 3.43)3p( 0.01)
      H   20            1S( 0.76)
      H   21            1S( 0.77)
      H   22            1S( 0.76)
      H   23            1S( 0.77)
      H   24            1S( 0.77)2S( 0.01)
      H   25            1S( 0.76)
      H   26            1S( 0.76)2S( 0.01)
      H   27            1S( 0.77)2S( 0.01)
      H   28            1S( 0.77)
      H   29            1S( 0.76)
      H   30            1S( 0.77)
      H   31            1S( 0.73)
      H   32            1S( 0.76)
      H   33            1S( 0.77)
      H   34            1S( 0.78)
      H   35            1S( 0.76)
      H   36            1S( 0.76)
      H   37            1S( 0.77)
      H   38            1S( 0.77)
      H   39            1S( 0.75)
      H   40            1S( 0.76)
      H   41            1S( 0.77)
      H   42            1S( 0.75)
      H   43            1S( 0.77)
      H   44            1S( 0.78)2S( 0.01)
      H   45            1S( 0.78)
      H   46            1S( 0.77)
      H   47            1S( 0.76)
      H   48            1S( 0.77)
      H   49            1S( 0.78)
      H   50            1S( 0.77)
      H   51            1S( 0.77)
      H   52            1S( 0.77)2S( 0.01)


 NBO analysis skipped by request.
 Leave Link  607 at Sun Oct  3 00:41:54 2021, MaxMem= 2147483648 cpu:      46.8
 (Enter /sw/target/amd/app/gaussian/Gaussian09RevA.02_gcc-4.9.2/g09/l9999.exe)
 1\1\GINC-HERMITE\SP\RTD-B3LYP-FC\6-31G(d)\C18H33P1\JSCHLEINITZ\03-Oct-
 2021\0\\#p TD(NStates=10, Root=1) b3lyp/6-31G* volume pop=NPA density=
 current Geom=AllCheck Guess=Read\\C1CCC(CC1)P(C1CCCCC1)C1CCCCC1_conf_0
 \\0,1\C,0,-1.315867761,0.7689618299,0.5285621374\C,0,-1.1225292453,-0.
 6438634835,-0.0374408556\C,0,0.296914352,-0.8330259817,-0.5959444347\C
 ,0,1.3906886956,-0.5362299572,0.4586973091\C,0,1.1861984962,0.88995494
 58,1.0109433488\C,0,-0.2349509513,1.094393105,1.5671464435\P,0,3.09896
 2375,-0.8601511611,-0.3389220616\C,0,4.2679191316,0.2836360943,0.62995
 64455\C,0,5.5750105967,0.5405492791,-0.1560543269\C,0,6.4391157328,1.6
 153505488,0.5253318065\C,0,6.7359290989,1.2610553313,1.9897660398\C,0,
 5.440608922,1.0049523264,2.7740505106\C,0,4.5734594356,-0.072583249,2.
 0979862848\C,0,3.4812121755,-2.5871754675,0.3627565043\C,0,4.879863453
 7,-3.0656076927,-0.0841054765\C,0,5.2044685047,-4.481771431,0.42157933
 35\C,0,4.1354880858,-5.4954317096,-0.0052903771\C,0,2.741513158,-5.035
 3757529,0.4399897592\C,0,2.4169815703,-3.6198477145,-0.0682754403\H,0,
 -2.31443416,0.8733112839,0.9722822056\H,0,-1.2605796675,1.4982886342,-
 0.293315526\H,0,-1.8622002688,-0.845777715,-0.8232001655\H,0,-1.303571
 8394,-1.3824018836,0.7581091823\H,0,0.4448480963,-0.1549209521,-1.4488
 245591\H,0,0.4078762914,-1.8467546168,-0.9966098153\H,0,1.2664004084,-
 1.2374295496,1.2981380247\H,0,1.3674403056,1.6236944294,0.2107417359\H
 ,0,1.9082570166,1.1069392157,1.8051061131\H,0,-0.34571959,2.1267174258
 ,1.9244282037\H,0,-0.3707083023,0.4452670641,2.4451261616\H,0,3.727580
 4226,1.2410020569,0.6283967599\H,0,5.3360783569,0.8410487541,-1.183342
 2794\H,0,6.1583287794,-0.3866857554,-0.2353318072\H,0,5.9114394506,2.5
 802148034,0.4867529252\H,0,7.3755757039,1.750674216,-0.0314824612\H,0,
 7.3175263351,2.0609139827,2.465937829\H,0,7.3623124638,0.3569813373,2.
 0230428463\H,0,4.8669660705,1.9414975618,2.8404679433\H,0,5.6715440565
 ,0.7074395719,3.8054958852\H,0,3.6429536722,-0.2100491285,2.6635847832
 \H,0,5.1068052807,-1.0321775293,2.1430232433\H,0,3.4670788672,-2.53119
 09945,1.4617025787\H,0,5.6526531408,-2.373571204,0.2666841744\H,0,4.92
 67883367,-3.0515222321,-1.1827909023\H,0,5.2713134147,-4.4673317427,1.
 5197297478\H,0,6.1923791182,-4.7886679449,0.0539880991\H,0,4.361206226
 2,-6.48756679,0.4064948715\H,0,4.1505050461,-5.5991863017,-1.100416824
 2\H,0,2.6920456508,-5.0440247226,1.539081163\H,0,1.9750890392,-5.73847
 35059,0.0885029085\H,0,1.4276872733,-3.328293301,0.3004216652\H,0,2.35
 18258883,-3.6355720939,-1.1663841179\\Version=AM64L-G09RevA.02\State=1
 -A\HF=-1047.1717106\RMSD=1.114e-09\Dipole=0.0692434,0.2012253,0.533918
 4\Quadrupole=1.1642645,-0.9838518,-0.1804127,1.1177282,0.4934216,0.811
 8879\PG=C01 [X(C18H33P1)]\\@


 WE HAVE LEFT UNDONE THOSE THINGS WHICH WE OUGHT TO HAVE DONE,
 AND WE HAVE DONE THOSE THINGS WHICH WE OUGHT NOT TO HAVE DONE.
                   BOOK OF COMMON PRAYER                      
 Job cpu time:  0 days 11 hours 21 minutes 32.4 seconds.
 File lengths (MBytes):  RWF=    412 Int=      0 D2E=      0 Chk=     58 Scr=      1
 Normal termination of Gaussian 09 at Sun Oct  3 00:42:13 2021.
