 Entering Gaussian System, Link 0=g09
 Input=C18H20N2O2_5d63_conf_0.com
 Output=C18H20N2O2_5d63_conf_0.log
 Initial command:
 /sw/target/amd/app/gaussian/Gaussian09RevA.02_gcc-4.9.2/g09/l1.exe /home/jschleinitz/gaussian/Gau-3727750.inp -scrdir=/home/jschleinitz/gaussian/
 Entering Link 1 = /sw/target/amd/app/gaussian/Gaussian09RevA.02_gcc-4.9.2/g09/l1.exe PID=   3727752.
  
 Copyright (c) 1988,1990,1992,1993,1995,1998,2003,2009, Gaussian, Inc.
                  All Rights Reserved.
  
 This is part of the Gaussian(R) 09 program.  It is based on
 the Gaussian(R) 03 system (copyright 2003, Gaussian, Inc.),
 the Gaussian(R) 98 system (copyright 1998, Gaussian, Inc.),
 the Gaussian(R) 94 system (copyright 1995, Gaussian, Inc.),
 the Gaussian 92(TM) system (copyright 1992, Gaussian, Inc.),
 the Gaussian 90(TM) system (copyright 1990, Gaussian, Inc.),
 the Gaussian 88(TM) system (copyright 1988, Gaussian, Inc.),
 the Gaussian 86(TM) system (copyright 1986, Carnegie Mellon
 University), and the Gaussian 82(TM) system (copyright 1983,
 Carnegie Mellon University). Gaussian is a federally registered
 trademark of Gaussian, Inc.
  
 This software contains proprietary and confidential information,
 including trade secrets, belonging to Gaussian, Inc.
  
 This software is provided under written license and may be
 used, copied, transmitted, or stored only in accord with that
 written license.
  
 The following legend is applicable only to US Government
 contracts under FAR:
  
                    RESTRICTED RIGHTS LEGEND
  
 Use, reproduction and disclosure by the US Government is
 subject to restrictions as set forth in subparagraphs (a)
 and (c) of the Commercial Computer Software - Restricted
 Rights clause in FAR 52.227-19.
  
 Gaussian, Inc.
 340 Quinnipiac St., Bldg. 40, Wallingford CT 06492
  
  
 ---------------------------------------------------------------
 Warning -- This program may not be used in any manner that
 competes with the business of Gaussian, Inc. or will provide
 assistance to any competitor of Gaussian, Inc.  The licensee
 of this program is prohibited from giving any competitor of
 Gaussian, Inc. access to this program.  By using this program,
 the user acknowledges that Gaussian, Inc. is engaged in the
 business of creating and licensing software in the field of
 computational chemistry and represents and warrants to the
 licensee that it is not a competitor of Gaussian, Inc. and that
 it will not use this program in any manner prohibited above.
 ---------------------------------------------------------------
  

 Cite this work as:
 Gaussian 09, Revision A.02,
 M. J. Frisch, G. W. Trucks, H. B. Schlegel, G. E. Scuseria, 
 M. A. Robb, J. R. Cheeseman, G. Scalmani, V. Barone, B. Mennucci, 
 G. A. Petersson, H. Nakatsuji, M. Caricato, X. Li, H. P. Hratchian, 
 A. F. Izmaylov, J. Bloino, G. Zheng, J. L. Sonnenberg, M. Hada, 
 M. Ehara, K. Toyota, R. Fukuda, J. Hasegawa, M. Ishida, T. Nakajima, 
 Y. Honda, O. Kitao, H. Nakai, T. Vreven, J. A. Montgomery, Jr., 
 J. E. Peralta, F. Ogliaro, M. Bearpark, J. J. Heyd, E. Brothers, 
 K. N. Kudin, V. N. Staroverov, R. Kobayashi, J. Normand, 
 K. Raghavachari, A. Rendell, J. C. Burant, S. S. Iyengar, J. Tomasi, 
 M. Cossi, N. Rega, J. M. Millam, M. Klene, J. E. Knox, J. B. Cross, 
 V. Bakken, C. Adamo, J. Jaramillo, R. Gomperts, R. E. Stratmann, 
 O. Yazyev, A. J. Austin, R. Cammi, C. Pomelli, J. W. Ochterski, 
 R. L. Martin, K. Morokuma, V. G. Zakrzewski, G. A. Voth, 
 P. Salvador, J. J. Dannenberg, S. Dapprich, A. D. Daniels, 
 O. Farkas, J. B. Foresman, J. V. Ortiz, J. Cioslowski, 
 and D. J. Fox, Gaussian, Inc., Wallingford CT, 2009.
 
 ******************************************
 Gaussian 09:  AM64L-G09RevA.02 11-Jun-2009
                30-Sep-2021 
 ******************************************
 %nproc=7
 Will use up to    7 processors via shared memory.
 %mem=14gb
 %chk=C18H20N2O2_5d63_conf_0.chk
 -----------------------------------
 #p opt b3lyp/6-31G* scf=(xqc,tight)
 -----------------------------------
 1/14=-1,18=20,19=15,26=3,38=1/1,3;
 2/9=110,12=2,17=6,18=5,40=1/2;
 3/5=1,6=6,7=1,11=2,16=1,25=1,30=1,71=1,74=-5/1,2,3;
 4//1;
 5/5=2,8=3,13=1,32=2,38=5/2,8;
 6/7=2,8=2,9=2,10=2,28=1/1;
 7//1,2,3,16;
 1/14=-1,18=20,19=15/3(2);
 2/9=110/2;
 99//99;
 2/9=110/2;
 3/5=1,6=6,7=1,11=2,16=1,25=1,30=1,71=1,74=-5/1,2,3;
 4/5=5,16=3/1;
 5/5=2,8=3,13=1,32=2,38=5/2,8;
 7//1,2,3,16;
 1/14=-1,18=20,19=15/3(-5);
 2/9=110/2;
 6/7=2,8=2,9=2,10=2,19=2,28=1/1;
 99/9=1/99;
 Leave Link    1 at Thu Sep 30 16:22:33 2021, MaxMem= 1879048192 cpu:       0.1
 (Enter /sw/target/amd/app/gaussian/Gaussian09RevA.02_gcc-4.9.2/g09/l101.exe)
 --------------------------------------------
 CCN(C(=O)Oc1ccc2c(c1)n(C)c1c2cccc1)CC_conf_0
 --------------------------------------------
 Symbolic Z-matrix:
 Charge =  0 Multiplicity = 1
 C                     3.72724   0.38676  -0.5234 
 C                     2.90647  -0.55523  -1.38952 
 N                     1.49688  -0.19264  -1.38179 
 C                     1.02535   0.7142   -2.32508 
 O                     1.73466   1.2307   -3.18138 
 O                    -0.33987   0.96015  -2.17156 
 C                    -1.06612   1.74604  -3.08897 
 C                    -2.08218   2.52898  -2.55154 
 C                    -2.91548   3.26684  -3.39623 
 C                    -2.73055   3.19513  -4.79585 
 C                    -1.70676   2.39129  -5.30059 
 C                    -0.85779   1.64949  -4.46456 
 N                    -1.74946   2.49652  -6.67581 
 C                    -0.83643   1.82105  -7.57334 
 C                    -2.77108   3.33457  -7.07331 
 C                    -3.40172   3.78626  -5.91159 
 C                    -4.49964   4.66507  -6.03191 
 C                    -4.93427   5.0606   -7.30046 
 C                    -4.28914   4.59893  -8.44295 
 C                    -3.19575   3.73352  -8.35134 
 C                     0.6233   -0.81216  -0.38774 
 C                     0.02584  -2.11398  -0.90001 
 H                     4.78389   0.10342  -0.54697 
 H                     3.38757   0.36079   0.51702 
 H                     3.64153   1.41996  -0.87571 
 H                     3.01184  -1.58825  -1.04045 
 H                     3.28613  -0.51979  -2.41687 
 H                    -2.23484   2.5648   -1.47696 
 H                    -3.70925   3.87993  -2.97958 
 H                    -0.07927   1.01604  -4.8726 
 H                    -0.52086   0.87256  -7.13216 
 H                     0.02573   2.47339  -7.73308 
 H                    -1.33942   1.60869  -8.51894 
 H                    -5.00755   5.03081  -5.14427 
 H                    -5.78313   5.73311  -7.39199 
 H                    -4.6398    4.91385  -9.42302 
 H                    -2.70032   3.38306  -9.2507 
 H                    -0.18871  -0.12506  -0.12672 
 H                     1.19686  -0.9858    0.5287 
 H                    -0.52783  -1.95803  -1.83198 
 H                    -0.66199  -2.53399  -0.15978 
 H                     0.80804  -2.85389  -1.09791 
 
 NAtoms=     42 NQM=     42 NQMF=      0 NMic=      0 NMicF=      0 NTot=     42.
                    Isotopes and Nuclear Properties:
 (Nuclear quadrupole moments (NQMom) in fm**2, nuclear magnetic moments (NMagM)
  in nuclear magnetons)

  Atom         1           2           3           4           5           6           7           8           9          10
 IAtWgt=          12          12          14          12          16          16          12          12          12          12
 AtmWgt=  12.0000000  12.0000000  14.0030740  12.0000000  15.9949146  15.9949146  12.0000000  12.0000000  12.0000000  12.0000000
 NucSpn=           0           0           2           0           0           0           0           0           0           0
 AtZEff=   0.0000000   0.0000000   0.0000000   0.0000000   0.0000000   0.0000000   0.0000000   0.0000000   0.0000000   0.0000000
 NQMom=    0.0000000   0.0000000   2.0440000   0.0000000   0.0000000   0.0000000   0.0000000   0.0000000   0.0000000   0.0000000
 NMagM=    0.0000000   0.0000000   0.4037610   0.0000000   0.0000000   0.0000000   0.0000000   0.0000000   0.0000000   0.0000000

  Atom        11          12          13          14          15          16          17          18          19          20
 IAtWgt=          12          12          14          12          12          12          12          12          12          12
 AtmWgt=  12.0000000  12.0000000  14.0030740  12.0000000  12.0000000  12.0000000  12.0000000  12.0000000  12.0000000  12.0000000
 NucSpn=           0           0           2           0           0           0           0           0           0           0
 AtZEff=   0.0000000   0.0000000   0.0000000   0.0000000   0.0000000   0.0000000   0.0000000   0.0000000   0.0000000   0.0000000
 NQMom=    0.0000000   0.0000000   2.0440000   0.0000000   0.0000000   0.0000000   0.0000000   0.0000000   0.0000000   0.0000000
 NMagM=    0.0000000   0.0000000   0.4037610   0.0000000   0.0000000   0.0000000   0.0000000   0.0000000   0.0000000   0.0000000

  Atom        21          22          23          24          25          26          27          28          29          30
 IAtWgt=          12          12           1           1           1           1           1           1           1           1
 AtmWgt=  12.0000000  12.0000000   1.0078250   1.0078250   1.0078250   1.0078250   1.0078250   1.0078250   1.0078250   1.0078250
 NucSpn=           0           0           1           1           1           1           1           1           1           1
 AtZEff=   0.0000000   0.0000000   0.0000000   0.0000000   0.0000000   0.0000000   0.0000000   0.0000000   0.0000000   0.0000000
 NQMom=    0.0000000   0.0000000   0.0000000   0.0000000   0.0000000   0.0000000   0.0000000   0.0000000   0.0000000   0.0000000
 NMagM=    0.0000000   0.0000000   2.7928460   2.7928460   2.7928460   2.7928460   2.7928460   2.7928460   2.7928460   2.7928460

  Atom        31          32          33          34          35          36          37          38          39          40
 IAtWgt=           1           1           1           1           1           1           1           1           1           1
 AtmWgt=   1.0078250   1.0078250   1.0078250   1.0078250   1.0078250   1.0078250   1.0078250   1.0078250   1.0078250   1.0078250
 NucSpn=           1           1           1           1           1           1           1           1           1           1
 AtZEff=   0.0000000   0.0000000   0.0000000   0.0000000   0.0000000   0.0000000   0.0000000   0.0000000   0.0000000   0.0000000
 NQMom=    0.0000000   0.0000000   0.0000000   0.0000000   0.0000000   0.0000000   0.0000000   0.0000000   0.0000000   0.0000000
 NMagM=    2.7928460   2.7928460   2.7928460   2.7928460   2.7928460   2.7928460   2.7928460   2.7928460   2.7928460   2.7928460

  Atom        41          42
 IAtWgt=           1           1
 AtmWgt=   1.0078250   1.0078250
 NucSpn=           1           1
 AtZEff=   0.0000000   0.0000000
 NQMom=    0.0000000   0.0000000
 NMagM=    2.7928460   2.7928460
 Leave Link  101 at Thu Sep 30 16:22:34 2021, MaxMem= 1879048192 cpu:       0.2
 (Enter /sw/target/amd/app/gaussian/Gaussian09RevA.02_gcc-4.9.2/g09/l103.exe)

 GradGradGradGradGradGradGradGradGradGradGradGradGradGradGradGradGradGrad
 Berny optimization.
 Initialization pass.
                           ----------------------------
                           !    Initial Parameters    !
                           ! (Angstroms and Degrees)  !
 --------------------------                            --------------------------
 ! Name  Definition              Value          Derivative Info.                !
 --------------------------------------------------------------------------------
 ! R1    R(1,2)                  1.5203         estimate D2E/DX2                !
 ! R2    R(1,23)                 1.0942         estimate D2E/DX2                !
 ! R3    R(1,24)                 1.0948         estimate D2E/DX2                !
 ! R4    R(1,25)                 1.095          estimate D2E/DX2                !
 ! R5    R(2,3)                  1.4555         estimate D2E/DX2                !
 ! R6    R(2,26)                 1.0955         estimate D2E/DX2                !
 ! R7    R(2,27)                 1.0958         estimate D2E/DX2                !
 ! R8    R(3,4)                  1.3909         estimate D2E/DX2                !
 ! R9    R(3,21)                 1.4612         estimate D2E/DX2                !
 ! R10   R(4,5)                  1.226          estimate D2E/DX2                !
 ! R11   R(4,6)                  1.3957         estimate D2E/DX2                !
 ! R12   R(6,7)                  1.4095         estimate D2E/DX2                !
 ! R13   R(7,8)                  1.3908         estimate D2E/DX2                !
 ! R14   R(7,12)                 1.3946         estimate D2E/DX2                !
 ! R15   R(8,9)                  1.3973         estimate D2E/DX2                !
 ! R16   R(8,28)                 1.086          estimate D2E/DX2                !
 ! R17   R(9,10)                 1.4136         estimate D2E/DX2                !
 ! R18   R(9,29)                 1.0861         estimate D2E/DX2                !
 ! R19   R(10,11)                1.3961         estimate D2E/DX2                !
 ! R20   R(10,16)                1.43           estimate D2E/DX2                !
 ! R21   R(11,12)                1.4036         estimate D2E/DX2                !
 ! R22   R(11,13)                1.3799         estimate D2E/DX2                !
 ! R23   R(12,30)                1.0834         estimate D2E/DX2                !
 ! R24   R(13,14)                1.4476         estimate D2E/DX2                !
 ! R25   R(13,15)                1.3799         estimate D2E/DX2                !
 ! R26   R(14,31)                1.0926         estimate D2E/DX2                !
 ! R27   R(14,32)                1.0929         estimate D2E/DX2                !
 ! R28   R(14,33)                1.0919         estimate D2E/DX2                !
 ! R29   R(15,16)                1.3969         estimate D2E/DX2                !
 ! R30   R(15,20)                1.4046         estimate D2E/DX2                !
 ! R31   R(16,17)                1.4115         estimate D2E/DX2                !
 ! R32   R(17,18)                1.3981         estimate D2E/DX2                !
 ! R33   R(17,34)                1.0861         estimate D2E/DX2                !
 ! R34   R(18,19)                1.3909         estimate D2E/DX2                !
 ! R35   R(18,35)                1.0868         estimate D2E/DX2                !
 ! R36   R(19,20)                1.3974         estimate D2E/DX2                !
 ! R37   R(19,36)                1.0875         estimate D2E/DX2                !
 ! R38   R(20,37)                1.085          estimate D2E/DX2                !
 ! R39   R(21,22)                1.5212         estimate D2E/DX2                !
 ! R40   R(21,38)                1.0953         estimate D2E/DX2                !
 ! R41   R(21,39)                1.095          estimate D2E/DX2                !
 ! R42   R(22,40)                1.0952         estimate D2E/DX2                !
 ! R43   R(22,41)                1.0943         estimate D2E/DX2                !
 ! R44   R(22,42)                1.0948         estimate D2E/DX2                !
 ! A1    A(2,1,23)             110.4039         estimate D2E/DX2                !
 ! A2    A(2,1,24)             111.0528         estimate D2E/DX2                !
 ! A3    A(2,1,25)             111.0447         estimate D2E/DX2                !
 ! A4    A(23,1,24)            108.297          estimate D2E/DX2                !
 ! A5    A(23,1,25)            108.2389         estimate D2E/DX2                !
 ! A6    A(24,1,25)            107.6904         estimate D2E/DX2                !
 ! A7    A(1,2,3)              111.4373         estimate D2E/DX2                !
 ! A8    A(1,2,26)             110.5378         estimate D2E/DX2                !
 ! A9    A(1,2,27)             109.0887         estimate D2E/DX2                !
 ! A10   A(3,2,26)             109.0485         estimate D2E/DX2                !
 ! A11   A(3,2,27)             109.4179         estimate D2E/DX2                !
 ! A12   A(26,2,27)            107.2114         estimate D2E/DX2                !
 ! A13   A(2,3,4)              119.1532         estimate D2E/DX2                !
 ! A14   A(2,3,21)             118.4895         estimate D2E/DX2                !
 ! A15   A(4,3,21)             122.3527         estimate D2E/DX2                !
 ! A16   A(3,4,5)              123.5196         estimate D2E/DX2                !
 ! A17   A(3,4,6)              111.8344         estimate D2E/DX2                !
 ! A18   A(5,4,6)              124.6458         estimate D2E/DX2                !
 ! A19   A(4,6,7)              122.051          estimate D2E/DX2                !
 ! A20   A(6,7,8)              116.0272         estimate D2E/DX2                !
 ! A21   A(6,7,12)             121.7641         estimate D2E/DX2                !
 ! A22   A(8,7,12)             121.956          estimate D2E/DX2                !
 ! A23   A(7,8,9)              119.9589         estimate D2E/DX2                !
 ! A24   A(7,8,28)             120.2417         estimate D2E/DX2                !
 ! A25   A(9,8,28)             119.7984         estimate D2E/DX2                !
 ! A26   A(8,9,10)             119.587          estimate D2E/DX2                !
 ! A27   A(8,9,29)             120.1367         estimate D2E/DX2                !
 ! A28   A(10,9,29)            120.2704         estimate D2E/DX2                !
 ! A29   A(9,10,11)            118.8884         estimate D2E/DX2                !
 ! A30   A(9,10,16)            133.6431         estimate D2E/DX2                !
 ! A31   A(11,10,16)           107.4654         estimate D2E/DX2                !
 ! A32   A(10,11,12)           122.1766         estimate D2E/DX2                !
 ! A33   A(10,11,13)           107.0801         estimate D2E/DX2                !
 ! A34   A(12,11,13)           130.7418         estimate D2E/DX2                !
 ! A35   A(7,12,11)            117.4242         estimate D2E/DX2                !
 ! A36   A(7,12,30)            121.2845         estimate D2E/DX2                !
 ! A37   A(11,12,30)           121.2863         estimate D2E/DX2                !
 ! A38   A(11,13,14)           124.2511         estimate D2E/DX2                !
 ! A39   A(11,13,15)           110.8745         estimate D2E/DX2                !
 ! A40   A(14,13,15)           124.8735         estimate D2E/DX2                !
 ! A41   A(13,14,31)           109.6871         estimate D2E/DX2                !
 ! A42   A(13,14,32)           108.0398         estimate D2E/DX2                !
 ! A43   A(13,14,33)           109.7032         estimate D2E/DX2                !
 ! A44   A(31,14,32)           110.4466         estimate D2E/DX2                !
 ! A45   A(31,14,33)           108.2931         estimate D2E/DX2                !
 ! A46   A(32,14,33)           110.6659         estimate D2E/DX2                !
 ! A47   A(13,15,16)           106.9211         estimate D2E/DX2                !
 ! A48   A(13,15,20)           131.183          estimate D2E/DX2                !
 ! A49   A(16,15,20)           121.8959         estimate D2E/DX2                !
 ! A50   A(10,16,15)           107.6577         estimate D2E/DX2                !
 ! A51   A(10,16,17)           133.5514         estimate D2E/DX2                !
 ! A52   A(15,16,17)           118.79           estimate D2E/DX2                !
 ! A53   A(16,17,18)           119.6911         estimate D2E/DX2                !
 ! A54   A(16,17,34)           120.2483         estimate D2E/DX2                !
 ! A55   A(18,17,34)           120.0603         estimate D2E/DX2                !
 ! A56   A(17,18,19)           120.4783         estimate D2E/DX2                !
 ! A57   A(17,18,35)           119.6229         estimate D2E/DX2                !
 ! A58   A(19,18,35)           119.8988         estimate D2E/DX2                !
 ! A59   A(18,19,20)           120.9715         estimate D2E/DX2                !
 ! A60   A(18,19,36)           119.6418         estimate D2E/DX2                !
 ! A61   A(20,19,36)           119.3867         estimate D2E/DX2                !
 ! A62   A(15,20,19)           118.1709         estimate D2E/DX2                !
 ! A63   A(15,20,37)           121.6305         estimate D2E/DX2                !
 ! A64   A(19,20,37)           120.198          estimate D2E/DX2                !
 ! A65   A(3,21,22)            111.6261         estimate D2E/DX2                !
 ! A66   A(3,21,38)            109.8398         estimate D2E/DX2                !
 ! A67   A(3,21,39)            108.8714         estimate D2E/DX2                !
 ! A68   A(22,21,38)           109.0224         estimate D2E/DX2                !
 ! A69   A(22,21,39)           110.6013         estimate D2E/DX2                !
 ! A70   A(38,21,39)           106.7598         estimate D2E/DX2                !
 ! A71   A(21,22,40)           111.3004         estimate D2E/DX2                !
 ! A72   A(21,22,41)           110.3366         estimate D2E/DX2                !
 ! A73   A(21,22,42)           111.0172         estimate D2E/DX2                !
 ! A74   A(40,22,41)           108.2116         estimate D2E/DX2                !
 ! A75   A(40,22,42)           107.6758         estimate D2E/DX2                !
 ! A76   A(41,22,42)           108.1782         estimate D2E/DX2                !
 ! D1    D(23,1,2,3)          -179.6002         estimate D2E/DX2                !
 ! D2    D(23,1,2,26)           58.9652         estimate D2E/DX2                !
 ! D3    D(23,1,2,27)          -58.6812         estimate D2E/DX2                !
 ! D4    D(24,1,2,3)            60.2608         estimate D2E/DX2                !
 ! D5    D(24,1,2,26)          -61.1737         estimate D2E/DX2                !
 ! D6    D(24,1,2,27)         -178.8202         estimate D2E/DX2                !
 ! D7    D(25,1,2,3)           -59.5396         estimate D2E/DX2                !
 ! D8    D(25,1,2,26)          179.0259         estimate D2E/DX2                !
 ! D9    D(25,1,2,27)           61.3794         estimate D2E/DX2                !
 ! D10   D(1,2,3,4)             89.1107         estimate D2E/DX2                !
 ! D11   D(1,2,3,21)           -91.6511         estimate D2E/DX2                !
 ! D12   D(26,2,3,4)          -148.5925         estimate D2E/DX2                !
 ! D13   D(26,2,3,21)           30.6457         estimate D2E/DX2                !
 ! D14   D(27,2,3,4)           -31.6156         estimate D2E/DX2                !
 ! D15   D(27,2,3,21)          147.6226         estimate D2E/DX2                !
 ! D16   D(2,3,4,5)              0.3797         estimate D2E/DX2                !
 ! D17   D(2,3,4,6)           -179.4643         estimate D2E/DX2                !
 ! D18   D(21,3,4,5)          -178.8277         estimate D2E/DX2                !
 ! D19   D(21,3,4,6)             1.3283         estimate D2E/DX2                !
 ! D20   D(2,3,21,22)          -89.2702         estimate D2E/DX2                !
 ! D21   D(2,3,21,38)          149.6798         estimate D2E/DX2                !
 ! D22   D(2,3,21,39)           33.1091         estimate D2E/DX2                !
 ! D23   D(4,3,21,22)           89.9422         estimate D2E/DX2                !
 ! D24   D(4,3,21,38)          -31.1077         estimate D2E/DX2                !
 ! D25   D(4,3,21,39)         -147.6784         estimate D2E/DX2                !
 ! D26   D(3,4,6,7)           -173.8656         estimate D2E/DX2                !
 ! D27   D(5,4,6,7)              6.2925         estimate D2E/DX2                !
 ! D28   D(4,6,7,8)           -144.9499         estimate D2E/DX2                !
 ! D29   D(4,6,7,12)            40.7195         estimate D2E/DX2                !
 ! D30   D(6,7,8,9)           -175.4567         estimate D2E/DX2                !
 ! D31   D(6,7,8,28)             4.1746         estimate D2E/DX2                !
 ! D32   D(12,7,8,9)            -1.1379         estimate D2E/DX2                !
 ! D33   D(12,7,8,28)          178.4933         estimate D2E/DX2                !
 ! D34   D(6,7,12,11)          174.8086         estimate D2E/DX2                !
 ! D35   D(6,7,12,30)           -4.392          estimate D2E/DX2                !
 ! D36   D(8,7,12,11)            0.8141         estimate D2E/DX2                !
 ! D37   D(8,7,12,30)         -178.3865         estimate D2E/DX2                !
 ! D38   D(7,8,9,10)             0.9465         estimate D2E/DX2                !
 ! D39   D(7,8,9,29)          -179.9428         estimate D2E/DX2                !
 ! D40   D(28,8,9,10)         -178.6863         estimate D2E/DX2                !
 ! D41   D(28,8,9,29)            0.4244         estimate D2E/DX2                !
 ! D42   D(8,9,10,11)           -0.4773         estimate D2E/DX2                !
 ! D43   D(8,9,10,16)          178.7882         estimate D2E/DX2                !
 ! D44   D(29,9,10,11)        -179.5868         estimate D2E/DX2                !
 ! D45   D(29,9,10,16)          -0.3213         estimate D2E/DX2                !
 ! D46   D(9,10,11,12)           0.1775         estimate D2E/DX2                !
 ! D47   D(9,10,11,13)         179.7736         estimate D2E/DX2                !
 ! D48   D(16,10,11,12)       -179.2653         estimate D2E/DX2                !
 ! D49   D(16,10,11,13)          0.3308         estimate D2E/DX2                !
 ! D50   D(9,10,16,15)        -179.5178         estimate D2E/DX2                !
 ! D51   D(9,10,16,17)           0.1263         estimate D2E/DX2                !
 ! D52   D(11,10,16,15)         -0.192          estimate D2E/DX2                !
 ! D53   D(11,10,16,17)        179.4522         estimate D2E/DX2                !
 ! D54   D(10,11,12,7)          -0.3335         estimate D2E/DX2                !
 ! D55   D(10,11,12,30)        178.8671         estimate D2E/DX2                !
 ! D56   D(13,11,12,7)        -179.8238         estimate D2E/DX2                !
 ! D57   D(13,11,12,30)         -0.6232         estimate D2E/DX2                !
 ! D58   D(10,11,13,14)        179.3147         estimate D2E/DX2                !
 ! D59   D(10,11,13,15)         -0.358          estimate D2E/DX2                !
 ! D60   D(12,11,13,14)         -1.1366         estimate D2E/DX2                !
 ! D61   D(12,11,13,15)        179.1908         estimate D2E/DX2                !
 ! D62   D(11,13,14,31)         30.9944         estimate D2E/DX2                !
 ! D63   D(11,13,14,32)        -89.4521         estimate D2E/DX2                !
 ! D64   D(11,13,14,33)        149.8255         estimate D2E/DX2                !
 ! D65   D(15,13,14,31)       -149.3784         estimate D2E/DX2                !
 ! D66   D(15,13,14,32)         90.1751         estimate D2E/DX2                !
 ! D67   D(15,13,14,33)        -30.5474         estimate D2E/DX2                !
 ! D68   D(11,13,15,16)          0.237          estimate D2E/DX2                !
 ! D69   D(11,13,15,20)       -179.708          estimate D2E/DX2                !
 ! D70   D(14,13,15,16)       -179.4332         estimate D2E/DX2                !
 ! D71   D(14,13,15,20)          0.6219         estimate D2E/DX2                !
 ! D72   D(13,15,16,10)         -0.0231         estimate D2E/DX2                !
 ! D73   D(13,15,16,17)       -179.7288         estimate D2E/DX2                !
 ! D74   D(20,15,16,10)        179.9282         estimate D2E/DX2                !
 ! D75   D(20,15,16,17)          0.2225         estimate D2E/DX2                !
 ! D76   D(13,15,20,19)        179.408          estimate D2E/DX2                !
 ! D77   D(13,15,20,37)         -0.3039         estimate D2E/DX2                !
 ! D78   D(16,15,20,19)         -0.53           estimate D2E/DX2                !
 ! D79   D(16,15,20,37)        179.7581         estimate D2E/DX2                !
 ! D80   D(10,16,17,18)       -179.4276         estimate D2E/DX2                !
 ! D81   D(10,16,17,34)          0.3813         estimate D2E/DX2                !
 ! D82   D(15,16,17,18)          0.1855         estimate D2E/DX2                !
 ! D83   D(15,16,17,34)        179.9944         estimate D2E/DX2                !
 ! D84   D(16,17,18,19)         -0.276          estimate D2E/DX2                !
 ! D85   D(16,17,18,35)        179.6736         estimate D2E/DX2                !
 ! D86   D(34,17,18,19)        179.9148         estimate D2E/DX2                !
 ! D87   D(34,17,18,35)         -0.1357         estimate D2E/DX2                !
 ! D88   D(17,18,19,20)         -0.0417         estimate D2E/DX2                !
 ! D89   D(17,18,19,36)        179.8863         estimate D2E/DX2                !
 ! D90   D(35,18,19,20)       -179.991          estimate D2E/DX2                !
 ! D91   D(35,18,19,36)         -0.063          estimate D2E/DX2                !
 ! D92   D(18,19,20,15)          0.4362         estimate D2E/DX2                !
 ! D93   D(18,19,20,37)       -179.8476         estimate D2E/DX2                !
 ! D94   D(36,19,20,15)       -179.492          estimate D2E/DX2                !
 ! D95   D(36,19,20,37)          0.2242         estimate D2E/DX2                !
 ! D96   D(3,21,22,40)         -57.0629         estimate D2E/DX2                !
 ! D97   D(3,21,22,41)        -177.2119         estimate D2E/DX2                !
 ! D98   D(3,21,22,42)          62.8657         estimate D2E/DX2                !
 ! D99   D(38,21,22,40)         64.4616         estimate D2E/DX2                !
 ! D100  D(38,21,22,41)        -55.6874         estimate D2E/DX2                !
 ! D101  D(38,21,22,42)       -175.6099         estimate D2E/DX2                !
 ! D102  D(39,21,22,40)       -178.4444         estimate D2E/DX2                !
 ! D103  D(39,21,22,41)         61.4066         estimate D2E/DX2                !
 ! D104  D(39,21,22,42)        -58.5158         estimate D2E/DX2                !
 --------------------------------------------------------------------------------
 Trust Radius=3.00D-01 FncErr=1.00D-07 GrdErr=1.00D-06
 Number of steps in this run= 234 maximum allowed number of steps= 252.
 GradGradGradGradGradGradGradGradGradGradGradGradGradGradGradGradGradGrad

 Leave Link  103 at Thu Sep 30 16:22:34 2021, MaxMem= 1879048192 cpu:       0.0
 (Enter /sw/target/amd/app/gaussian/Gaussian09RevA.02_gcc-4.9.2/g09/l202.exe)
                          Input orientation:                          
 ---------------------------------------------------------------------
 Center     Atomic      Atomic             Coordinates (Angstroms)
 Number     Number       Type             X           Y           Z
 ---------------------------------------------------------------------
      1          6           0        3.727240    0.386757   -0.523396
      2          6           0        2.906466   -0.555226   -1.389517
      3          7           0        1.496884   -0.192645   -1.381788
      4          6           0        1.025354    0.714199   -2.325077
      5          8           0        1.734661    1.230703   -3.181384
      6          8           0       -0.339870    0.960155   -2.171561
      7          6           0       -1.066115    1.746044   -3.088972
      8          6           0       -2.082182    2.528980   -2.551537
      9          6           0       -2.915482    3.266837   -3.396227
     10          6           0       -2.730546    3.195129   -4.795851
     11          6           0       -1.706761    2.391289   -5.300586
     12          6           0       -0.857790    1.649488   -4.464560
     13          7           0       -1.749461    2.496522   -6.675806
     14          6           0       -0.836428    1.821053   -7.573337
     15          6           0       -2.771085    3.334568   -7.073309
     16          6           0       -3.401719    3.786258   -5.911586
     17          6           0       -4.499644    4.665071   -6.031911
     18          6           0       -4.934274    5.060598   -7.300455
     19          6           0       -4.289138    4.598928   -8.442952
     20          6           0       -3.195748    3.733520   -8.351344
     21          6           0        0.623297   -0.812158   -0.387742
     22          6           0        0.025838   -2.113976   -0.900015
     23          1           0        4.783888    0.103423   -0.546968
     24          1           0        3.387566    0.360791    0.517024
     25          1           0        3.641531    1.419958   -0.875709
     26          1           0        3.011836   -1.588249   -1.040449
     27          1           0        3.286128   -0.519790   -2.416868
     28          1           0       -2.234836    2.564795   -1.476965
     29          1           0       -3.709253    3.879931   -2.979584
     30          1           0       -0.079274    1.016038   -4.872596
     31          1           0       -0.520861    0.872555   -7.132163
     32          1           0        0.025728    2.473392   -7.733076
     33          1           0       -1.339424    1.608689   -8.518937
     34          1           0       -5.007545    5.030806   -5.144274
     35          1           0       -5.783133    5.733109   -7.391987
     36          1           0       -4.639800    4.913853   -9.423021
     37          1           0       -2.700315    3.383056   -9.250700
     38          1           0       -0.188709   -0.125057   -0.126722
     39          1           0        1.196856   -0.985798    0.528705
     40          1           0       -0.527825   -1.958026   -1.831977
     41          1           0       -0.661995   -2.533989   -0.159776
     42          1           0        0.808041   -2.853893   -1.097907
 ---------------------------------------------------------------------
                    Distance matrix (angstroms):
                    1          2          3          4          5
     1  C    0.000000
     2  C    1.520252   0.000000
     3  N    2.459070   1.455489   0.000000
     4  C    3.263963   2.454648   1.390864   0.000000
     5  O    3.427464   2.788092   2.306730   1.226032   0.000000
     6  O    4.425676   3.666970   2.307890   1.395671   2.323063
     7  C    5.604114   4.895446   3.638950   2.454075   2.849292
     8  C    6.515508   5.979066   4.645995   3.605758   4.080505
     9  C    7.789337   7.247768   5.957764   4.815964   5.080928
    10  C    8.236735   7.579194   6.403437   5.134834   5.138438
    11  C    7.507866   6.727576   5.683048   4.373870   4.204921
    12  C    6.176549   5.337254   4.294349   2.999731   2.922794
    13  N    8.502794   7.676957   6.767348   5.459406   5.094349
    14  C    8.519737   7.608915   6.916256   5.677639   5.123306
    15  C    9.686030   8.925838   7.940416   6.620045   6.314672
    16  C    9.560924   8.893301   7.768337   6.472988   6.353525
    17  C   10.785607  10.181051   9.009961   7.737933   7.667265
    18  C   11.949692  11.311670  10.197401   8.897345   8.724078
    19  C   12.030131  11.317816  10.310056   8.986842   8.678433
    20  C   10.972937  10.202813   9.274173   7.952980   7.569776
    21  C    3.330204   2.506478   1.461190   2.498936   3.634948
    22  C    4.482842   3.311696   2.467305   3.320905   4.394496
    23  H    1.094230   2.160652   3.404258   4.202534   4.184339
    24  H    1.094773   2.169203   2.736138   3.712476   4.143315
    25  H    1.094977   2.169256   2.730588   3.072970   2.998017
    26  H    2.163283   1.095485   2.087894   3.301159   3.763146
    27  H    2.145144   1.095832   2.092799   2.577257   2.460846
    28  H    6.418683   6.014580   4.640934   3.843545   4.521256
    29  H    8.575345   8.121987   6.800198   5.732952   6.057667
    30  H    5.813869   4.849263   4.016333   2.793056   2.489305
    31  H    7.871350   6.838356   6.186499   5.052122   4.563366
    32  H    8.368675   7.596836   7.043502   5.774120   5.018230
    33  H    9.544258   8.575473   7.888495   6.690007   6.171089
    34  H   10.918616  10.389107   9.151412   7.935795   7.984427
    35  H   12.892176  12.291539  11.146107   9.859946   9.722040
    36  H   13.027098  12.304233  11.331225  10.005592   9.651808
    37  H   11.245314  10.428051   9.608428   8.304677   7.819094
    38  H    3.969125   3.370431   2.102613   2.647842   3.855957
    39  H    3.064908   2.605328   2.090236   3.326180   4.355097
    40  H    5.031497   3.736037   2.723727   3.129904   4.136150
    41  H    5.284728   4.261653   3.411153   4.252811   5.389525
    42  H    4.399272   3.126067   2.763572   3.779478   4.677972
                    6          7          8          9         10
     6  O    0.000000
     7  C    1.409502   0.000000
     8  C    2.375130   1.390761   0.000000
     9  C    3.668020   2.413996   1.397256   0.000000
    10  C    4.194918   2.789912   2.429213   1.413609   0.000000
    11  C    3.702342   2.391235   2.777979   2.419540   1.396084
    12  C    2.449748   1.394620   2.435631   2.826880   2.450709
    13  N    4.963426   3.727675   4.137795   3.564916   2.232669
    14  C    5.492440   4.490870   5.222215   4.884772   3.631830
    15  C    5.964544   4.615764   4.644349   3.680539   2.282083
    16  C    5.599069   4.193408   3.822546   2.614050   1.429956
    17  C    6.777347   5.382446   4.745525   3.378085   2.611184
    18  C    8.014221   6.609502   6.090627   4.747220   3.822229
    19  C    8.256375   6.869638   6.622998   5.397298   4.207280
    20  C    7.351008   6.014811   6.027330   4.984930   3.625991
    21  C    2.692730   4.085970   4.812985   6.181597   6.836522
    22  C    3.346767   4.569863   5.359880   6.620845   7.138752
    23  H    5.442994   6.586541   7.552783   8.798054   9.169425
    24  H    4.634814   5.895541   6.635906   7.967876   8.584369
    25  H    4.212150   5.212178   6.066236   7.263497   7.689090
    26  H    4.359783   5.651871   6.721903   8.015900   8.364131
    27  H    3.924063   4.952550   6.175102   7.331961   7.460599
    28  H    2.578416   2.152865   1.085952   2.153999   3.414389
    29  H    4.531085   3.398766   2.157696   1.086069   2.173855
    30  H    2.714153   2.165197   3.418764   3.910222   3.432720
    31  H    4.964676   4.172252   5.115037   5.042223   3.966788
    32  H    5.775292   4.825853   5.594168   5.299861   4.092095
    33  H    6.458242   5.438574   6.083460   5.610309   4.279414
    34  H    6.869820   5.527097   4.641031   3.247150   2.945477
    35  H    8.925416   7.527475   6.884289   5.502001   4.743370
    36  H    9.311542   7.932618   7.710144   6.481372   5.292445
    37  H    7.845786   6.581589   6.781616   5.859578   4.458914
    38  H    2.319893   3.611896   4.063113   5.443336   6.267802
    39  H    3.666018   5.066713   5.709084   7.099388   7.826590
    40  H    2.943879   3.948408   4.802813   5.953736   6.339679
    41  H    4.044760   5.202133   5.776773   7.014443   7.654730
    42  H    4.125214   5.351282   6.280266   7.523977   7.923827
                   11         12         13         14         15
    11  C    0.000000
    12  C    1.403552   0.000000
    13  N    1.379901   2.530247   0.000000
    14  C    2.499609   3.113580   1.447566   0.000000
    15  C    2.272688   3.647707   1.379872   2.506722   0.000000
    16  C    2.278628   3.623707   2.231011   3.633754   1.396898
    17  C    3.674931   4.981308   3.560999   4.887083   2.417160
    18  C    4.641285   6.024591   4.136147   5.230818   2.776718
    19  C    4.627829   6.025027   3.740705   4.515975   2.403958
    20  C    3.650451   4.991625   2.535614   3.135158   1.404590
    21  C    6.310885   4.987360   7.491134   7.790851   8.568195
    22  C    6.531794   5.258369   7.600535   7.794945   8.695917
    23  H    8.364194   7.040339   9.272229   9.160134  10.493381
    24  H    7.994978   6.670829   9.093250   9.242750  10.216921
    25  H    7.009083   5.759898   7.991427   8.066673   9.121273
    26  H    7.500043   6.097662   8.432826   8.313309   9.699057
    27  H    6.459036   5.105964   7.252162   7.004583   8.557357
    28  H    3.863812   3.414641   5.221896   6.298766   5.674432
    29  H    3.407796   3.912910   4.406434   5.796090   4.235111
    30  H    2.173293   1.083439   2.869307   2.918104   4.179063
    31  H    2.658493   2.798795   2.086861   1.092641   3.335938
    32  H    2.987519   3.484626   2.066313   1.092875   2.999847
    33  H    3.332444   4.083088   2.086506   1.091908   2.667987
    34  H    4.229263   5.395905   4.402647   5.796644   3.405900
    35  H    5.670849   7.035964   5.221007   6.309275   3.863545
    36  H    5.653364   7.038893   4.663126   5.239502   3.392254
    37  H    4.192154   5.413621   2.884466   2.954230   2.179080
    38  H    5.950240   4.734292   7.224897   7.723921   8.178799
    39  H    7.335961   6.008244   8.527151   8.812248   9.602121
    40  H    5.686622   4.478116   6.693135   6.880398   7.779160
    41  H    7.195681   6.005913   8.303449   8.599866   9.310487
    42  H    7.176257   5.864280   8.141296   8.154175   9.317329
                   16         17         18         19         20
    16  C    0.000000
    17  C    1.411463   0.000000
    18  C    2.429325   1.398052   0.000000
    19  C    2.802812   2.421117   1.390913   0.000000
    20  C    2.449004   2.819167   2.426516   1.397435   0.000000
    21  C    8.237660   9.386224  10.637738  10.876501   9.933139
    22  C    8.466213   9.631813  10.818635  10.980801  10.004705
    23  H   10.456891  11.707997  12.830660  12.840402  11.737141
    24  H    9.957673  11.118608  12.347234  12.536935  11.548301
    25  H    8.975902  10.168378  11.317069  11.413349  10.391635
    26  H    9.682304  10.974563  12.105185  12.098861  10.968341
    27  H    8.688062  10.028438  11.070915  10.949868   9.763368
    28  H    4.745467   5.503458   6.886874   7.542071   7.038918
    29  H    2.949574   3.249286   4.643768   5.540903   5.398234
    30  H    4.448850   5.848002   6.769342   6.580843   5.403592
    31  H    4.275373   5.605751   6.086562   5.459298   4.102017
    32  H    4.097418   5.308146   5.610919   4.862088   3.513984
    33  H    3.974059   5.051115   5.130626   4.200966   2.826470
    34  H    2.171714   1.086105   2.157631   3.403513   3.905235
    35  H    3.413641   2.153568   1.086835   2.150096   3.407826
    36  H    3.890307   3.403111   2.147915   1.087510   2.151038
    37  H    3.435727   3.904068   3.407077   2.157582   1.084951
    38  H    7.686774   8.740753  10.043598  10.406212   9.569499
    39  H    9.241037  10.364560  11.638101  11.906969  10.973704
    40  H    7.609158   8.790916   9.928853  10.042216   9.056138
    41  H    8.974127  10.051666  11.265852  11.517191  10.620893
    42  H    9.218741  10.442736  11.579505  11.639392  10.584738
                   21         22         23         24         25
    21  C    0.000000
    22  C    1.521219   0.000000
    23  H    4.263116   5.261229   0.000000
    24  H    3.136175   4.408364   1.774269   0.000000
    25  H    3.785524   5.055938   1.773785   1.768061   0.000000
    26  H    2.594891   3.035176   2.499089   2.523024   3.077818
    27  H    3.360580   3.933416   2.475521   3.064871   2.502819
    28  H    4.556221   5.228233   7.495714   6.359641   6.016964
    29  H    6.892339   7.362230   9.607969   8.658836   8.031923
    30  H    4.893855   5.058600   6.572234   6.441764   5.475641
    31  H    7.045181   6.932382   8.490979   8.605101   7.534479
    32  H    8.068820   8.230107   8.938511   9.155828   7.823505
    33  H    8.707991   8.588955  10.164303  10.273766   9.124936
    34  H    9.405914   9.715791  11.886399  11.150660  10.298806
    35  H   11.530061  11.724615  13.791649  13.248244  12.242934
    36  H   11.921563  11.991672  13.810520  13.563682  12.403399
    37  H   10.353658  10.362587  11.938351  11.899782  10.687059
    38  H    1.095259   2.144716   4.995551   3.666087   4.197475
    39  H    1.094987   2.164557   3.900034   2.571506   3.706275
    40  H    2.173455   1.095179   5.840814   5.121035   5.450573
    41  H    2.160705   1.094294   6.063291   5.023619   5.887834
    42  H    2.169595   1.094751   4.985640   4.426753   5.132625
                   26         27         28         29         30
    26  H    0.000000
    27  H    1.763908   0.000000
    28  H    6.705661   6.393679   0.000000
    29  H    8.878866   8.283088   2.482207   0.000000
    30  H    5.569796   4.440191   4.309920   4.996211   0.000000
    31  H    7.459523   6.218183   6.146760   6.037720   2.306779
    32  H    8.378844   6.917472   6.652626   6.206780   3.212048
    33  H    9.223972   7.947415   7.162770   6.438871   3.903206
    34  H   11.178719  10.345670   5.217115   2.774159   6.362392
    35  H   13.088002  12.087268   7.590528   5.215798   7.818701
    36  H   13.080229  11.892477   8.627963   6.591874   7.529790
    37  H   11.169188   9.887920   7.830529   6.371164   5.624982
    38  H    3.635837   4.180320   3.639382   6.047560   4.882356
    39  H    2.473730   3.641239   5.329721   7.749407   5.899992
    40  H    3.645882   4.117870   4.847250   6.746867   4.276870
    41  H    3.894489   4.973845   5.496037   7.640384   5.928991
    42  H    2.542020   3.650836   6.226151   8.324123   5.478318
                   31         32         33         34         35
    31  H    0.000000
    32  H    1.795141   0.000000
    33  H    1.770616   1.796921   0.000000
    34  H    6.432192   6.210966   6.046019   0.000000
    35  H    7.168263   6.669704   6.166636   2.479310   0.000000
    36  H    6.208525   5.529821   4.757516   4.296114   2.470524
    37  H    3.942186   3.249920   2.352845   4.990102   4.298991
    38  H    7.083909   8.040805   8.646346   8.659096  10.881166
    39  H    8.068018   9.032970   9.748020  10.338124  12.514044
    40  H    6.008678   7.400463   7.622046   8.937728  10.848296
    41  H    7.761356   9.105037   9.353944  10.047645  12.119235
    42  H    7.215583   8.545024   8.921767  10.600123  12.521805
                   36         37         38         39         40
    36  H    0.000000
    37  H    2.476820   0.000000
    38  H   11.472751  10.092671   0.000000
    39  H   12.957981  11.397876   1.757910   0.000000
    40  H   11.034265   9.395973   2.526394   3.081002   0.000000
    41  H   12.533994  11.036805   2.455208   2.515199   1.773695
    42  H   12.622376  10.847862   3.063210   2.507354   1.768042
                   41         42
    41  H    0.000000
    42  H    1.772973   0.000000
 Stoichiometry    C18H20N2O2
 Framework group  C1[X(C18H20N2O2)]
 Deg. of freedom   120
 Full point group                 C1      NOp   1
 Largest Abelian subgroup         C1      NOp   1
 Largest concise Abelian subgroup C1      NOp   1
                         Standard orientation:                         
 ---------------------------------------------------------------------
 Center     Atomic      Atomic             Coordinates (Angstroms)
 Number     Number       Type             X           Y           Z
 ---------------------------------------------------------------------
      1          6           0       -5.825179    0.857849   -1.667870
      2          6           0       -5.221228    1.091181   -0.292383
      3          7           0       -4.230904    0.075402    0.033039
      4          6           0       -2.904230    0.281619   -0.330158
      5          8           0       -2.509777    1.286370   -0.911568
      6          8           0       -2.091135   -0.789250    0.044028
      7          6           0       -0.689986   -0.752184   -0.104644
      8          6           0       -0.079447   -1.956851   -0.436660
      9          6           0        1.313585   -2.035881   -0.511090
     10          6           0        2.093723   -0.891614   -0.227668
     11          6           0        1.447225    0.298293    0.111760
     12          6           0        0.048877    0.394777    0.184369
     13          7           0        2.428126    1.241518    0.340426
     14          6           0        2.165964    2.617669    0.705017
     15          6           0        3.684027    0.696705    0.167397
     16          6           0        3.501090   -0.641290   -0.189849
     17          6           0        4.638263   -1.443956   -0.423928
     18          6           0        5.915423   -0.890957   -0.291254
     19          6           0        6.072491    0.444665    0.063829
     20          6           0        4.963239    1.262652    0.294658
     21          6           0       -4.668924   -1.121292    0.747980
     22          6           0       -4.599082   -0.930715    2.255597
     23          1           0       -6.561296    1.634074   -1.897968
     24          1           0       -6.324510   -0.115115   -1.718239
     25          1           0       -5.053455    0.876388   -2.444449
     26          1           0       -6.002218    1.088169    0.475819
     27          1           0       -4.749387    2.080001   -0.271211
     28          1           0       -0.681286   -2.839241   -0.632796
     29          1           0        1.793352   -2.974927   -0.771018
     30          1           0       -0.437292    1.320865    0.466929
     31          1           0        1.241515    2.675192    1.284629
     32          1           0        2.076514    3.200425   -0.215184
     33          1           0        2.982283    2.996612    1.323312
     34          1           0        4.523475   -2.487338   -0.702858
     35          1           0        6.790352   -1.511421   -0.466562
     36          1           0        7.072332    0.860305    0.165017
     37          1           0        5.100269    2.303463    0.568619
     38          1           0       -4.040903   -1.973280    0.466380
     39          1           0       -5.690147   -1.365498    0.437399
     40          1           0       -3.587642   -0.658921    2.575807
     41          1           0       -4.883894   -1.854039    2.769246
     42          1           0       -5.276305   -0.135144    2.582576
 ---------------------------------------------------------------------
 Rotational constants (GHZ):      0.8063788      0.1158733      0.1090237
 Leave Link  202 at Thu Sep 30 16:22:35 2021, MaxMem= 1879048192 cpu:       0.1
 (Enter /sw/target/amd/app/gaussian/Gaussian09RevA.02_gcc-4.9.2/g09/l301.exe)
 Standard basis: 6-31G(d) (6D, 7F)
 Ernie: Thresh=  0.10000D-02 Tol=  0.10000D-05 Strict=F.
 There are   370 symmetry adapted basis functions of A   symmetry.
 Integral buffers will be    131072 words long.
 Raffenetti 2 integral format.
 Two-electron integral symmetry is turned on.
   370 basis functions,   696 primitive gaussians,   370 cartesian basis functions
    79 alpha electrons       79 beta electrons
       nuclear repulsion energy      1710.2643230430 Hartrees.
 IExCor=  402 DFT=T Ex+Corr=B3LYP ExCW=0 ScaHFX=  0.200000
 ScaDFX=  0.800000  0.720000  1.000000  0.810000 ScalE2=  1.000000  1.000000
 IRadAn=      0 IRanWt=     -1 IRanGd=            0 ICorTp=0
 NAtoms=   42 NActive=   42 NUniq=   42 SFac= 7.50D-01 NAtFMM=   80 NAOKFM=F Big=F
 Leave Link  301 at Thu Sep 30 16:22:35 2021, MaxMem= 1879048192 cpu:       0.1
 (Enter /sw/target/amd/app/gaussian/Gaussian09RevA.02_gcc-4.9.2/g09/l302.exe)
 NPDir=0 NMtPBC=     1 NCelOv=     1 NCel=       1 NClECP=     1 NCelD=      1
         NCelK=      1 NCelE2=     1 NClLst=     1 CellRange=     0.0.
 One-electron integrals computed using PRISM.
 NBasis=   370 RedAO= T  NBF=   370
 NBsUse=   370 1.00D-06 NBFU=   370
 Precomputing XC quadrature grid using
 IXCGrd= 2 IRadAn=           0 IRanWt=          -1 IRanGd=           0 AccXCQ= 1.00D-10.
 NRdTot=    2694 NPtTot=      344022 NUsed=      363439 NTot=      363471
 NSgBfM=   363   364   364   364   364 NAtAll=    42    42.
 Leave Link  302 at Thu Sep 30 16:22:40 2021, MaxMem= 1879048192 cpu:       4.8
 (Enter /sw/target/amd/app/gaussian/Gaussian09RevA.02_gcc-4.9.2/g09/l303.exe)
 DipDrv:  MaxL=1.
 Leave Link  303 at Thu Sep 30 16:22:41 2021, MaxMem= 1879048192 cpu:       0.3
 (Enter /sw/target/amd/app/gaussian/Gaussian09RevA.02_gcc-4.9.2/g09/l401.exe)
 Harris functional with IExCor=  402 diagonalized for initial guess.
 ExpMin= 1.61D-01 ExpMax= 5.48D+03 ExpMxC= 8.25D+02 IAcc=1 IRadAn=         1 AccDes= 0.00D+00
 HarFok:  IExCor=  402 AccDes= 0.00D+00 IRadAn=         1 IDoV= 1
 ScaDFX=  1.000000  1.000000  1.000000  1.000000
 FoFCou: FMM=F IPFlag=           0 FMFlag=      100000 FMFlg1=           0
         NFxFlg=           0 DoJE=T BraDBF=F KetDBF=T FulRan=T
         Omega=  0.000000  0.000000  1.000000  0.000000  0.000000 ICntrl=     500 IOpCl=  0
         NMat0=    1 NMatS0=    1 NMatT0=    0 NMatD0=    1 NMtDS0=    0 NMtDT0=    0
         I1Cent=           4 NGrid=           0.
 Petite list used in FoFCou.
 Harris En= -958.089122265634    
 Initial guess orbital symmetries:
       Occupied  (A) (A) (A) (A) (A) (A) (A) (A) (A) (A) (A) (A)
                 (A) (A) (A) (A) (A) (A) (A) (A) (A) (A) (A) (A)
                 (A) (A) (A) (A) (A) (A) (A) (A) (A) (A) (A) (A)
                 (A) (A) (A) (A) (A) (A) (A) (A) (A) (A) (A) (A)
                 (A) (A) (A) (A) (A) (A) (A) (A) (A) (A) (A) (A)
                 (A) (A) (A) (A) (A) (A) (A) (A) (A) (A) (A) (A)
                 (A) (A) (A) (A) (A) (A) (A)
       Virtual   (A) (A) (A) (A) (A) (A) (A) (A) (A) (A) (A) (A)
                 (A) (A) (A) (A) (A) (A) (A) (A) (A) (A) (A) (A)
                 (A) (A) (A) (A) (A) (A) (A) (A) (A) (A) (A) (A)
                 (A) (A) (A) (A) (A) (A) (A) (A) (A) (A) (A) (A)
                 (A) (A) (A) (A) (A) (A) (A) (A) (A) (A) (A) (A)
                 (A) (A) (A) (A) (A) (A) (A) (A) (A) (A) (A) (A)
                 (A) (A) (A) (A) (A) (A) (A) (A) (A) (A) (A) (A)
                 (A) (A) (A) (A) (A) (A) (A) (A) (A) (A) (A) (A)
                 (A) (A) (A) (A) (A) (A) (A) (A) (A) (A) (A) (A)
                 (A) (A) (A) (A) (A) (A) (A) (A) (A) (A) (A) (A)
                 (A) (A) (A) (A) (A) (A) (A) (A) (A) (A) (A) (A)
                 (A) (A) (A) (A) (A) (A) (A) (A) (A) (A) (A) (A)
                 (A) (A) (A) (A) (A) (A) (A) (A) (A) (A) (A) (A)
                 (A) (A) (A) (A) (A) (A) (A) (A) (A) (A) (A) (A)
                 (A) (A) (A) (A) (A) (A) (A) (A) (A) (A) (A) (A)
                 (A) (A) (A) (A) (A) (A) (A) (A) (A) (A) (A) (A)
                 (A) (A) (A) (A) (A) (A) (A) (A) (A) (A) (A) (A)
                 (A) (A) (A) (A) (A) (A) (A) (A) (A) (A) (A) (A)
                 (A) (A) (A) (A) (A) (A) (A) (A) (A) (A) (A) (A)
                 (A) (A) (A) (A) (A) (A) (A) (A) (A) (A) (A) (A)
                 (A) (A) (A) (A) (A) (A) (A) (A) (A) (A) (A) (A)
                 (A) (A) (A) (A) (A) (A) (A) (A) (A) (A) (A) (A)
                 (A) (A) (A) (A) (A) (A) (A) (A) (A) (A) (A) (A)
                 (A) (A) (A) (A) (A) (A) (A) (A) (A) (A) (A) (A)
                 (A) (A) (A)
 The electronic state of the initial guess is 1-A.
 Leave Link  401 at Thu Sep 30 16:22:57 2021, MaxMem= 1879048192 cpu:      18.3
 (Enter /sw/target/amd/app/gaussian/Gaussian09RevA.02_gcc-4.9.2/g09/l502.exe)
 Closed shell SCF:
 Requested convergence on RMS density matrix=1.00D-08 within  64 cycles.
 Requested convergence on MAX density matrix=1.00D-06.
 Requested convergence on             energy=1.00D-06.
 No special actions if energy rises.
 Using DIIS extrapolation, IDIIS=  1040.
 Integral symmetry usage will be decided dynamically.
       363048 words used for storage of precomputed grid.
 IEnd=      784678 IEndB=      784678 NGot=  1879048192 MDV=  1878405009
 LenX=  1878405009 LenY=  1878267668
 Fock matrices will be formed incrementally for  20 cycles.
 Integral accuracy reduced to 1.0D-05 until final iterations.

 Cycle   1  Pass 0  IDiag  1:
 FoFCou: FMM=F IPFlag=           0 FMFlag=      100000 FMFlg1=           0
         NFxFlg=           0 DoJE=F BraDBF=F KetDBF=F FulRan=T
         Omega=  0.000000  0.000000  1.000000  0.000000  0.000000 ICntrl=       0 IOpCl=  0
         NMat0=    1 NMatS0=    1 NMatT0=    0 NMatD0=    1 NMtDS0=    0 NMtDT0=    0
         I1Cent=           0 NGrid=           0.
 Symmetry not used in FoFCou.
 E= -957.361306286095    
 DIIS: error= 3.71D-02 at cycle   1 NSaved=   1.
 NSaved= 1 IEnMin= 1 EnMin= -957.361306286095     IErMin= 1 ErrMin= 3.71D-02
 ErrMax= 3.71D-02 EMaxC= 1.00D-01 BMatC= 5.84D-01 BMatP= 5.84D-01
 IDIUse=3 WtCom= 6.29D-01 WtEn= 3.71D-01
 Coeff-Com:  0.100D+01
 Coeff-En:   0.100D+01
 Coeff:      0.100D+01
 Gap=     0.197 Goal=   None    Shift=    0.000
 GapD=    0.197 DampG=1.000 DampE=0.500 DampFc=0.5000 IDamp=-1.
 Damping current iteration by 5.00D-01
 RMSDP=4.83D-03 MaxDP=2.09D-01              OVMax= 2.02D-01

 Cycle   2  Pass 0  IDiag  1:
 RMSU=  1.67D-03    CP:  9.71D-01
 E= -957.585111178936     Delta-E=       -0.223804892841 Rises=F Damp=T
 DIIS: error= 9.21D-03 at cycle   2 NSaved=   2.
 NSaved= 2 IEnMin= 2 EnMin= -957.585111178936     IErMin= 2 ErrMin= 9.21D-03
 ErrMax= 9.21D-03 EMaxC= 1.00D-01 BMatC= 6.54D-02 BMatP= 5.84D-01
 IDIUse=3 WtCom= 9.08D-01 WtEn= 9.21D-02
 Coeff-Com:  0.150D+00 0.850D+00
 Coeff-En:   0.219D+00 0.781D+00
 Coeff:      0.156D+00 0.844D+00
 Gap=     0.187 Goal=   None    Shift=    0.000
 RMSDP=1.58D-03 MaxDP=7.47D-02 DE=-2.24D-01 OVMax= 1.91D-01

 Cycle   3  Pass 0  IDiag  1:
 RMSU=  1.09D-03    CP:  9.53D-01  9.07D-01
 E= -957.880813788641     Delta-E=       -0.295702609705 Rises=F Damp=F
 DIIS: error= 1.46D-02 at cycle   3 NSaved=   3.
 NSaved= 3 IEnMin= 3 EnMin= -957.880813788641     IErMin= 2 ErrMin= 9.21D-03
 ErrMax= 1.46D-02 EMaxC= 1.00D-01 BMatC= 8.63D-02 BMatP= 6.54D-02
 IDIUse=2 WtCom= 0.00D+00 WtEn= 1.00D+00
 Coeff-En:   0.000D+00 0.000D+00 0.100D+01
 Coeff:      0.000D+00 0.000D+00 0.100D+01
 Gap=     0.181 Goal=   None    Shift=    0.000
 RMSDP=2.38D-03 MaxDP=1.71D-01 DE=-2.96D-01 OVMax= 3.05D-01

 Cycle   4  Pass 0  IDiag  1:
 RMSU=  1.04D-03    CP:  9.61D-01  1.18D+00 -1.37D-01
 E= -957.530079305400     Delta-E=        0.350734483241 Rises=F Damp=F
 DIIS: error= 3.79D-02 at cycle   4 NSaved=   4.
 NSaved= 4 IEnMin= 3 EnMin= -957.880813788641     IErMin= 2 ErrMin= 9.21D-03
 ErrMax= 3.79D-02 EMaxC= 1.00D-01 BMatC= 5.32D-01 BMatP= 6.54D-02
 IDIUse=2 WtCom= 0.00D+00 WtEn= 1.00D+00
 Coeff-En:   0.000D+00 0.000D+00 0.802D+00 0.198D+00
 Coeff:      0.000D+00 0.000D+00 0.802D+00 0.198D+00
 Gap=     0.214 Goal=   None    Shift=    0.000
 RMSDP=1.28D-03 MaxDP=9.00D-02 DE= 3.51D-01 OVMax= 1.42D-01

 Cycle   5  Pass 0  IDiag  1:
 RMSU=  1.88D-04    CP:  9.59D-01  9.78D-01  4.28D-01  4.82D-01
 E= -957.922519629856     Delta-E=       -0.392440324455 Rises=F Damp=F
 DIIS: error= 9.50D-03 at cycle   5 NSaved=   5.
 NSaved= 5 IEnMin= 5 EnMin= -957.922519629856     IErMin= 2 ErrMin= 9.21D-03
 ErrMax= 9.50D-03 EMaxC= 1.00D-01 BMatC= 3.72D-02 BMatP= 6.54D-02
 IDIUse=3 WtCom= 9.05D-01 WtEn= 9.50D-02
 Coeff-Com: -0.229D-03 0.288D-01 0.340D+00-0.532D-01 0.685D+00
 Coeff-En:   0.000D+00 0.000D+00 0.340D+00 0.000D+00 0.660D+00
 Coeff:     -0.208D-03 0.260D-01 0.340D+00-0.482D-01 0.682D+00
 Gap=     0.170 Goal=   None    Shift=    0.000
 RMSDP=4.92D-04 MaxDP=2.98D-02 DE=-3.92D-01 OVMax= 3.97D-02

 Cycle   6  Pass 0  IDiag  1:
 RMSU=  8.54D-05    CP:  9.57D-01  9.36D-01  6.55D-01  2.87D-01  5.93D-01
 E= -957.952258861895     Delta-E=       -0.029739232039 Rises=F Damp=F
 DIIS: error= 1.06D-03 at cycle   6 NSaved=   6.
 NSaved= 6 IEnMin= 6 EnMin= -957.952258861895     IErMin= 6 ErrMin= 1.06D-03
 ErrMax= 1.06D-03 EMaxC= 1.00D-01 BMatC= 6.21D-04 BMatP= 3.72D-02
 IDIUse=3 WtCom= 9.89D-01 WtEn= 1.06D-02
 Coeff-Com: -0.401D-02 0.157D-01 0.168D+00-0.593D-01 0.463D+00 0.417D+00
 Coeff-En:   0.000D+00 0.000D+00 0.000D+00 0.000D+00 0.000D+00 0.100D+01
 Coeff:     -0.397D-02 0.155D-01 0.166D+00-0.587D-01 0.458D+00 0.423D+00
 Gap=     0.171 Goal=   None    Shift=    0.000
 RMSDP=8.17D-05 MaxDP=3.63D-03 DE=-2.97D-02 OVMax= 9.94D-03

 Cycle   7  Pass 0  IDiag  1:
 RMSU=  2.06D-05    CP:  9.57D-01  9.44D-01  6.43D-01  2.91D-01  7.25D-01
                    CP:  4.88D-01
 E= -957.952872352006     Delta-E=       -0.000613490110 Rises=F Damp=F
 DIIS: error= 1.49D-04 at cycle   7 NSaved=   7.
 NSaved= 7 IEnMin= 7 EnMin= -957.952872352006     IErMin= 7 ErrMin= 1.49D-04
 ErrMax= 1.49D-04 EMaxC= 1.00D-01 BMatC= 1.81D-05 BMatP= 6.21D-04
 IDIUse=3 WtCom= 9.99D-01 WtEn= 1.49D-03
 Coeff-Com: -0.109D-02 0.406D-02 0.510D-01-0.212D-01 0.144D+00 0.174D+00
 Coeff-Com:  0.648D+00
 Coeff-En:   0.000D+00 0.000D+00 0.000D+00 0.000D+00 0.000D+00 0.000D+00
 Coeff-En:   0.100D+01
 Coeff:     -0.109D-02 0.406D-02 0.509D-01-0.211D-01 0.144D+00 0.174D+00
 Coeff:      0.649D+00
 Gap=     0.171 Goal=   None    Shift=    0.000
 RMSDP=1.66D-05 MaxDP=7.73D-04 DE=-6.13D-04 OVMax= 1.79D-03

 Cycle   8  Pass 0  IDiag  1:
 RMSU=  7.29D-06    CP:  9.57D-01  9.42D-01  6.47D-01  2.90D-01  7.25D-01
                    CP:  5.16D-01  6.47D-01
 E= -957.952886506596     Delta-E=       -0.000014154590 Rises=F Damp=F
 DIIS: error= 6.75D-05 at cycle   8 NSaved=   8.
 NSaved= 8 IEnMin= 8 EnMin= -957.952886506596     IErMin= 8 ErrMin= 6.75D-05
 ErrMax= 6.75D-05 EMaxC= 1.00D-01 BMatC= 4.07D-06 BMatP= 1.81D-05
 IDIUse=1 WtCom= 1.00D+00 WtEn= 0.00D+00
 Coeff-Com:  0.120D-04-0.207D-03 0.125D-01-0.533D-02 0.320D-01 0.570D-01
 Coeff-Com:  0.407D+00 0.497D+00
 Coeff:      0.120D-04-0.207D-03 0.125D-01-0.533D-02 0.320D-01 0.570D-01
 Coeff:      0.407D+00 0.497D+00
 Gap=     0.171 Goal=   None    Shift=    0.000
 RMSDP=6.97D-06 MaxDP=2.53D-04 DE=-1.42D-05 OVMax= 8.54D-04

 Initial convergence to 1.0D-05 achieved.  Increase integral accuracy.
 Cycle   9  Pass 1  IDiag  1:
 E= -957.952910655157     Delta-E=       -0.000024148561 Rises=F Damp=F
 DIIS: error= 4.36D-05 at cycle   1 NSaved=   1.
 NSaved= 1 IEnMin= 1 EnMin= -957.952910655157     IErMin= 1 ErrMin= 4.36D-05
 ErrMax= 4.36D-05 EMaxC= 1.00D-01 BMatC= 6.53D-07 BMatP= 6.53D-07
 IDIUse=1 WtCom= 1.00D+00 WtEn= 0.00D+00
 Coeff-Com:  0.100D+01
 Coeff:      0.100D+01
 Gap=     0.171 Goal=   None    Shift=    0.000
 RMSDP=6.97D-06 MaxDP=2.53D-04 DE=-2.41D-05 OVMax= 5.33D-04

 Cycle  10  Pass 1  IDiag  1:
 RMSU=  2.23D-05    CP:  1.00D+00
 E= -957.952910309138     Delta-E=        0.000000346020 Rises=F Damp=F
 DIIS: error= 3.41D-05 at cycle   2 NSaved=   2.
 NSaved= 2 IEnMin= 1 EnMin= -957.952910655157     IErMin= 2 ErrMin= 3.41D-05
 ErrMax= 3.41D-05 EMaxC= 1.00D-01 BMatC= 9.71D-07 BMatP= 6.53D-07
 IDIUse=1 WtCom= 1.00D+00 WtEn= 0.00D+00
 Coeff-Com:  0.561D+00 0.439D+00
 Coeff:      0.561D+00 0.439D+00
 Gap=     0.171 Goal=   None    Shift=    0.000
 RMSDP=4.05D-06 MaxDP=1.60D-04 DE= 3.46D-07 OVMax= 5.25D-04

 Cycle  11  Pass 1  IDiag  1:
 RMSU=  2.84D-06    CP:  1.00D+00  9.84D-01
 E= -957.952911215283     Delta-E=       -0.000000906145 Rises=F Damp=F
 DIIS: error= 1.35D-05 at cycle   3 NSaved=   3.
 NSaved= 3 IEnMin= 3 EnMin= -957.952911215283     IErMin= 3 ErrMin= 1.35D-05
 ErrMax= 1.35D-05 EMaxC= 1.00D-01 BMatC= 1.15D-07 BMatP= 6.53D-07
 IDIUse=1 WtCom= 1.00D+00 WtEn= 0.00D+00
 Coeff-Com:  0.457D-01 0.254D+00 0.700D+00
 Coeff:      0.457D-01 0.254D+00 0.700D+00
 Gap=     0.171 Goal=   None    Shift=    0.000
 RMSDP=1.34D-06 MaxDP=5.18D-05 DE=-9.06D-07 OVMax= 1.71D-04

 Cycle  12  Pass 1  IDiag  1:
 RMSU=  4.55D-07    CP:  1.00D+00  9.97D-01  7.24D-01
 E= -957.952911329046     Delta-E=       -0.000000113762 Rises=F Damp=F
 DIIS: error= 3.88D-06 at cycle   4 NSaved=   4.
 NSaved= 4 IEnMin= 4 EnMin= -957.952911329046     IErMin= 4 ErrMin= 3.88D-06
 ErrMax= 3.88D-06 EMaxC= 1.00D-01 BMatC= 1.48D-08 BMatP= 1.15D-07
 IDIUse=1 WtCom= 1.00D+00 WtEn= 0.00D+00
 Coeff-Com: -0.568D-02 0.128D+00 0.424D+00 0.454D+00
 Coeff:     -0.568D-02 0.128D+00 0.424D+00 0.454D+00
 Gap=     0.171 Goal=   None    Shift=    0.000
 RMSDP=3.66D-07 MaxDP=1.70D-05 DE=-1.14D-07 OVMax= 3.74D-05

 Cycle  13  Pass 1  IDiag  1:
 RMSU=  1.14D-07    CP:  1.00D+00  9.97D-01  7.61D-01  5.46D-01
 E= -957.952911343076     Delta-E=       -0.000000014031 Rises=F Damp=F
 DIIS: error= 8.60D-07 at cycle   5 NSaved=   5.
 NSaved= 5 IEnMin= 5 EnMin= -957.952911343076     IErMin= 5 ErrMin= 8.60D-07
 ErrMax= 8.60D-07 EMaxC= 1.00D-01 BMatC= 5.01D-10 BMatP= 1.48D-08
 IDIUse=1 WtCom= 1.00D+00 WtEn= 0.00D+00
 Coeff-Com: -0.489D-02 0.638D-01 0.217D+00 0.262D+00 0.462D+00
 Coeff:     -0.489D-02 0.638D-01 0.217D+00 0.262D+00 0.462D+00
 Gap=     0.171 Goal=   None    Shift=    0.000
 RMSDP=8.47D-08 MaxDP=2.99D-06 DE=-1.40D-08 OVMax= 7.35D-06

 Cycle  14  Pass 1  IDiag  1:
 RMSU=  4.57D-08    CP:  1.00D+00  9.97D-01  7.57D-01  5.39D-01  6.80D-01
 E= -957.952911343607     Delta-E=       -0.000000000531 Rises=F Damp=F
 DIIS: error= 2.57D-07 at cycle   6 NSaved=   6.
 NSaved= 6 IEnMin= 6 EnMin= -957.952911343607     IErMin= 6 ErrMin= 2.57D-07
 ErrMax= 2.57D-07 EMaxC= 1.00D-01 BMatC= 3.36D-11 BMatP= 5.01D-10
 IDIUse=1 WtCom= 1.00D+00 WtEn= 0.00D+00
 Coeff-Com: -0.208D-02 0.224D-01 0.771D-01 0.986D-01 0.247D+00 0.557D+00
 Coeff:     -0.208D-02 0.224D-01 0.771D-01 0.986D-01 0.247D+00 0.557D+00
 Gap=     0.171 Goal=   None    Shift=    0.000
 RMSDP=2.17D-08 MaxDP=7.93D-07 DE=-5.31D-10 OVMax= 2.07D-06

 Cycle  15  Pass 1  IDiag  1:
 RMSU=  1.19D-08    CP:  1.00D+00  9.97D-01  7.57D-01  5.40D-01  7.35D-01
                    CP:  8.38D-01
 E= -957.952911343612     Delta-E=       -0.000000000005 Rises=F Damp=F
 DIIS: error= 1.02D-07 at cycle   7 NSaved=   7.
 NSaved= 7 IEnMin= 7 EnMin= -957.952911343612     IErMin= 7 ErrMin= 1.02D-07
 ErrMax= 1.02D-07 EMaxC= 1.00D-01 BMatC= 5.80D-12 BMatP= 3.36D-11
 IDIUse=1 WtCom= 1.00D+00 WtEn= 0.00D+00
 Coeff-Com: -0.422D-03 0.256D-02 0.958D-02 0.152D-01 0.695D-01 0.325D+00
 Coeff-Com:  0.579D+00
 Coeff:     -0.422D-03 0.256D-02 0.958D-02 0.152D-01 0.695D-01 0.325D+00
 Coeff:      0.579D+00
 Gap=     0.171 Goal=   None    Shift=    0.000
 RMSDP=8.92D-09 MaxDP=3.91D-07 DE=-5.00D-12 OVMax= 7.78D-07

 SCF Done:  E(RB3LYP) =  -957.952911344     A.U. after   15 cycles
             Convg  =    0.8921D-08             -V/T =  2.0096
 KE= 9.488823620212D+02 PE=-5.645880666908D+03 EE= 2.028781070500D+03
 Leave Link  502 at Thu Sep 30 16:31:39 2021, MaxMem= 1879048192 cpu:     782.5
 (Enter /sw/target/amd/app/gaussian/Gaussian09RevA.02_gcc-4.9.2/g09/l508.exe)
 QCSCF skips out because SCF is already converged.
 Leave Link  508 at Thu Sep 30 16:31:40 2021, MaxMem= 1879048192 cpu:       0.0
 (Enter /sw/target/amd/app/gaussian/Gaussian09RevA.02_gcc-4.9.2/g09/l601.exe)
 Copying SCF densities to generalized density rwf, IOpCl= 0 IROHF=0.

 **********************************************************************

            Population analysis using the SCF density.

 **********************************************************************

 Orbital symmetries:
       Occupied  (A) (A) (A) (A) (A) (A) (A) (A) (A) (A) (A) (A)
                 (A) (A) (A) (A) (A) (A) (A) (A) (A) (A) (A) (A)
                 (A) (A) (A) (A) (A) (A) (A) (A) (A) (A) (A) (A)
                 (A) (A) (A) (A) (A) (A) (A) (A) (A) (A) (A) (A)
                 (A) (A) (A) (A) (A) (A) (A) (A) (A) (A) (A) (A)
                 (A) (A) (A) (A) (A) (A) (A) (A) (A) (A) (A) (A)
                 (A) (A) (A) (A) (A) (A) (A)
       Virtual   (A) (A) (A) (A) (A) (A) (A) (A) (A) (A) (A) (A)
                 (A) (A) (A) (A) (A) (A) (A) (A) (A) (A) (A) (A)
                 (A) (A) (A) (A) (A) (A) (A) (A) (A) (A) (A) (A)
                 (A) (A) (A) (A) (A) (A) (A) (A) (A) (A) (A) (A)
                 (A) (A) (A) (A) (A) (A) (A) (A) (A) (A) (A) (A)
                 (A) (A) (A) (A) (A) (A) (A) (A) (A) (A) (A) (A)
                 (A) (A) (A) (A) (A) (A) (A) (A) (A) (A) (A) (A)
                 (A) (A) (A) (A) (A) (A) (A) (A) (A) (A) (A) (A)
                 (A) (A) (A) (A) (A) (A) (A) (A) (A) (A) (A) (A)
                 (A) (A) (A) (A) (A) (A) (A) (A) (A) (A) (A) (A)
                 (A) (A) (A) (A) (A) (A) (A) (A) (A) (A) (A) (A)
                 (A) (A) (A) (A) (A) (A) (A) (A) (A) (A) (A) (A)
                 (A) (A) (A) (A) (A) (A) (A) (A) (A) (A) (A) (A)
                 (A) (A) (A) (A) (A) (A) (A) (A) (A) (A) (A) (A)
                 (A) (A) (A) (A) (A) (A) (A) (A) (A) (A) (A) (A)
                 (A) (A) (A) (A) (A) (A) (A) (A) (A) (A) (A) (A)
                 (A) (A) (A) (A) (A) (A) (A) (A) (A) (A) (A) (A)
                 (A) (A) (A) (A) (A) (A) (A) (A) (A) (A) (A) (A)
                 (A) (A) (A) (A) (A) (A) (A) (A) (A) (A) (A) (A)
                 (A) (A) (A) (A) (A) (A) (A) (A) (A) (A) (A) (A)
                 (A) (A) (A) (A) (A) (A) (A) (A) (A) (A) (A) (A)
                 (A) (A) (A) (A) (A) (A) (A) (A) (A) (A) (A) (A)
                 (A) (A) (A) (A) (A) (A) (A) (A) (A) (A) (A) (A)
                 (A) (A) (A) (A) (A) (A) (A) (A) (A) (A) (A) (A)
                 (A) (A) (A)
 The electronic state is 1-A.
 Alpha  occ. eigenvalues --  -19.19372 -19.11665 -14.37307 -14.36369 -10.33431
 Alpha  occ. eigenvalues --  -10.24919 -10.22633 -10.22385 -10.22152 -10.21930
 Alpha  occ. eigenvalues --  -10.21639 -10.19065 -10.18683 -10.18657 -10.18458
 Alpha  occ. eigenvalues --  -10.18352 -10.18149 -10.18055 -10.17952 -10.17907
 Alpha  occ. eigenvalues --  -10.17659 -10.17616  -1.09206  -1.00758  -0.98903
 Alpha  occ. eigenvalues --   -0.93647  -0.84653  -0.84087  -0.78816  -0.77352
 Alpha  occ. eigenvalues --   -0.74896  -0.74682  -0.73808  -0.71447  -0.69089
 Alpha  occ. eigenvalues --   -0.65868  -0.64116  -0.62456  -0.60824  -0.58675
 Alpha  occ. eigenvalues --   -0.57673  -0.55310  -0.52661  -0.51710  -0.50028
 Alpha  occ. eigenvalues --   -0.49346  -0.48847  -0.47023  -0.46130  -0.45566
 Alpha  occ. eigenvalues --   -0.45112  -0.44175  -0.43931  -0.43579  -0.42748
 Alpha  occ. eigenvalues --   -0.42495  -0.42139  -0.40698  -0.39923  -0.39798
 Alpha  occ. eigenvalues --   -0.39590  -0.39020  -0.37917  -0.37158  -0.37143
 Alpha  occ. eigenvalues --   -0.36329  -0.35491  -0.34794  -0.34467  -0.34186
 Alpha  occ. eigenvalues --   -0.33471  -0.32164  -0.30250  -0.26898  -0.26560
 Alpha  occ. eigenvalues --   -0.24641  -0.23782  -0.20416  -0.19500
 Alpha virt. eigenvalues --   -0.02426   0.00882   0.03390   0.04097   0.06029
 Alpha virt. eigenvalues --    0.08223   0.08785   0.10407   0.10897   0.11717
 Alpha virt. eigenvalues --    0.12185   0.13372   0.13639   0.14364   0.14907
 Alpha virt. eigenvalues --    0.15319   0.15662   0.15910   0.16465   0.16753
 Alpha virt. eigenvalues --    0.17307   0.17543   0.17699   0.18182   0.19354
 Alpha virt. eigenvalues --    0.19965   0.20077   0.20531   0.20784   0.21478
 Alpha virt. eigenvalues --    0.22470   0.23875   0.25500   0.26210   0.26352
 Alpha virt. eigenvalues --    0.27695   0.27958   0.29632   0.30383   0.32961
 Alpha virt. eigenvalues --    0.34685   0.36453   0.37049   0.38170   0.41085
 Alpha virt. eigenvalues --    0.41622   0.43180   0.45937   0.47876   0.48897
 Alpha virt. eigenvalues --    0.49491   0.49953   0.51263   0.51690   0.52190
 Alpha virt. eigenvalues --    0.52908   0.53280   0.54215   0.54670   0.54794
 Alpha virt. eigenvalues --    0.55584   0.55991   0.56684   0.57154   0.58441
 Alpha virt. eigenvalues --    0.59110   0.59543   0.59934   0.60258   0.60879
 Alpha virt. eigenvalues --    0.61155   0.61929   0.62221   0.62413   0.62812
 Alpha virt. eigenvalues --    0.63646   0.63913   0.64693   0.65432   0.66453
 Alpha virt. eigenvalues --    0.66817   0.67575   0.69744   0.70301   0.71639
 Alpha virt. eigenvalues --    0.72739   0.74326   0.74795   0.75768   0.78780
 Alpha virt. eigenvalues --    0.79059   0.79642   0.81090   0.82234   0.82788
 Alpha virt. eigenvalues --    0.83017   0.83873   0.84273   0.84523   0.85172
 Alpha virt. eigenvalues --    0.85973   0.86910   0.87327   0.88125   0.88368
 Alpha virt. eigenvalues --    0.88743   0.89619   0.89893   0.90203   0.90969
 Alpha virt. eigenvalues --    0.91654   0.91754   0.92915   0.93792   0.94634
 Alpha virt. eigenvalues --    0.95723   0.96710   0.97456   0.97816   0.98317
 Alpha virt. eigenvalues --    0.99184   0.99703   1.01119   1.02477   1.02623
 Alpha virt. eigenvalues --    1.04167   1.05407   1.07444   1.08528   1.10933
 Alpha virt. eigenvalues --    1.11115   1.11758   1.13490   1.14926   1.17264
 Alpha virt. eigenvalues --    1.18646   1.19730   1.20794   1.21857   1.23688
 Alpha virt. eigenvalues --    1.24346   1.25540   1.28631   1.30515   1.32174
 Alpha virt. eigenvalues --    1.32690   1.33720   1.35670   1.36308   1.36639
 Alpha virt. eigenvalues --    1.38142   1.40395   1.42864   1.44134   1.45073
 Alpha virt. eigenvalues --    1.45985   1.46334   1.48098   1.48973   1.49308
 Alpha virt. eigenvalues --    1.50949   1.51103   1.52856   1.57020   1.60428
 Alpha virt. eigenvalues --    1.60900   1.62054   1.63292   1.67474   1.69723
 Alpha virt. eigenvalues --    1.72706   1.73925   1.75808   1.77950   1.78905
 Alpha virt. eigenvalues --    1.79483   1.80260   1.80502   1.81656   1.81808
 Alpha virt. eigenvalues --    1.83527   1.83751   1.85213   1.86119   1.87609
 Alpha virt. eigenvalues --    1.89893   1.91372   1.92248   1.93356   1.94137
 Alpha virt. eigenvalues --    1.94762   1.95342   1.96001   1.97440   1.98257
 Alpha virt. eigenvalues --    1.98533   1.99596   2.01370   2.01827   2.03125
 Alpha virt. eigenvalues --    2.04668   2.05186   2.05898   2.07342   2.09735
 Alpha virt. eigenvalues --    2.10584   2.11620   2.12303   2.13416   2.14378
 Alpha virt. eigenvalues --    2.15912   2.18228   2.18398   2.19158   2.20215
 Alpha virt. eigenvalues --    2.22587   2.24038   2.24691   2.26317   2.26780
 Alpha virt. eigenvalues --    2.27463   2.30341   2.31432   2.32078   2.32610
 Alpha virt. eigenvalues --    2.33493   2.34324   2.35597   2.38118   2.39350
 Alpha virt. eigenvalues --    2.40953   2.41864   2.42887   2.47643   2.48935
 Alpha virt. eigenvalues --    2.50140   2.52540   2.54419   2.55174   2.58399
 Alpha virt. eigenvalues --    2.59407   2.61222   2.63293   2.64292   2.65378
 Alpha virt. eigenvalues --    2.66554   2.67674   2.68129   2.69524   2.70761
 Alpha virt. eigenvalues --    2.71616   2.73648   2.75705   2.78481   2.80846
 Alpha virt. eigenvalues --    2.82516   2.86115   2.91615   2.92917   2.94807
 Alpha virt. eigenvalues --    2.98875   2.99771   3.07601   3.17789   3.22304
 Alpha virt. eigenvalues --    3.27220   3.35951   3.41114   3.52690   4.01729
 Alpha virt. eigenvalues --    4.06834   4.09691   4.10435   4.11779   4.14251
 Alpha virt. eigenvalues --    4.14958   4.17160   4.20220   4.23019   4.26042
 Alpha virt. eigenvalues --    4.31639   4.36826   4.40350   4.42863   4.44648
 Alpha virt. eigenvalues --    4.47044   4.50239   4.54407   4.61822   4.77347
 Alpha virt. eigenvalues --    4.87910
          Condensed to atoms (all electrons):
              1          2          3          4          5          6
     1  C    5.112241   0.377564  -0.064054  -0.003137  -0.002644  -0.000109
     2  C    0.377564   4.876657   0.293952  -0.026686   0.001861   0.002597
     3  N   -0.064054   0.293952   6.994328   0.322719  -0.088904  -0.088446
     4  C   -0.003137  -0.026686   0.322719   4.161724   0.538679   0.250346
     5  O   -0.002644   0.001861  -0.088904   0.538679   8.107041  -0.068515
     6  O   -0.000109   0.002597  -0.088446   0.250346  -0.068515   8.358415
     7  C    0.000004  -0.000011   0.002143  -0.009206  -0.000979   0.197146
     8  C   -0.000000   0.000002  -0.000244   0.000499   0.000122  -0.046669
     9  C    0.000000  -0.000000   0.000001  -0.000042  -0.000001   0.003109
    10  C    0.000000  -0.000000   0.000000   0.000031   0.000007   0.000350
    11  C   -0.000000  -0.000000  -0.000010   0.000152  -0.000120   0.002620
    12  C   -0.000000  -0.000008   0.000099  -0.001242  -0.000412  -0.039316
    13  N    0.000000   0.000000  -0.000000  -0.000006  -0.000001  -0.000020
    14  C   -0.000000  -0.000000  -0.000000  -0.000001  -0.000001   0.000000
    15  C    0.000000  -0.000000   0.000000  -0.000000   0.000000   0.000000
    16  C    0.000000   0.000000   0.000000   0.000000   0.000000  -0.000000
    17  C   -0.000000   0.000000  -0.000000  -0.000000  -0.000000  -0.000000
    18  C    0.000000  -0.000000   0.000000  -0.000000   0.000000   0.000000
    19  C    0.000000   0.000000   0.000000   0.000000   0.000000   0.000000
    20  C   -0.000000  -0.000000  -0.000000  -0.000000   0.000000  -0.000000
    21  C   -0.003302  -0.040855   0.286199  -0.026053   0.002501  -0.001668
    22  C   -0.000058  -0.003177  -0.069785   0.000267  -0.000029  -0.001840
    23  H    0.358974  -0.028580   0.005153  -0.000014  -0.000034   0.000000
    24  H    0.375959  -0.035848  -0.002526   0.000132   0.000012  -0.000002
    25  H    0.379169  -0.028801  -0.005987   0.003374   0.003653  -0.000026
    26  H   -0.048330   0.375987  -0.044009   0.004202   0.000561  -0.000041
    27  H   -0.043264   0.374691  -0.035329  -0.003233   0.012402   0.000203
    28  H    0.000000   0.000000  -0.000020   0.000081   0.000013  -0.001016
    29  H   -0.000000   0.000000  -0.000000  -0.000000  -0.000000  -0.000053
    30  H   -0.000001  -0.000002  -0.000235   0.001882   0.011426  -0.006828
    31  H    0.000000   0.000000  -0.000000  -0.000005  -0.000019   0.000001
    32  H   -0.000000   0.000000   0.000000   0.000000   0.000000   0.000000
    33  H    0.000000   0.000000  -0.000000  -0.000000  -0.000000  -0.000000
    34  H   -0.000000   0.000000  -0.000000   0.000000  -0.000000  -0.000000
    35  H    0.000000   0.000000  -0.000000  -0.000000  -0.000000  -0.000000
    36  H    0.000000   0.000000  -0.000000  -0.000000  -0.000000  -0.000000
    37  H   -0.000000   0.000000  -0.000000   0.000000   0.000000  -0.000000
    38  H    0.000070   0.004313  -0.029670  -0.007328   0.000090   0.010161
    39  H    0.002024  -0.001891  -0.040421   0.002273  -0.000077   0.000383
    40  H   -0.000003  -0.000050  -0.003245   0.002251  -0.000080   0.003239
    41  H    0.000007   0.000016   0.005153  -0.000082  -0.000000  -0.000017
    42  H    0.000037   0.001718  -0.002137   0.000017  -0.000002   0.000024
              7          8          9         10         11         12
     1  C    0.000004  -0.000000   0.000000   0.000000  -0.000000  -0.000000
     2  C   -0.000011   0.000002  -0.000000  -0.000000  -0.000000  -0.000008
     3  N    0.002143  -0.000244   0.000001   0.000000  -0.000010   0.000099
     4  C   -0.009206   0.000499  -0.000042   0.000031   0.000152  -0.001242
     5  O   -0.000979   0.000122  -0.000001   0.000007  -0.000120  -0.000412
     6  O    0.197146  -0.046669   0.003109   0.000350   0.002620  -0.039316
     7  C    4.515734   0.521774  -0.009006  -0.032387   0.017774   0.487555
     8  C    0.521774   5.037975   0.479438  -0.006620  -0.039556  -0.067002
     9  C   -0.009006   0.479438   5.131843   0.503860  -0.070512  -0.057364
    10  C   -0.032387  -0.006620   0.503860   5.026524   0.414493  -0.063791
    11  C    0.017774  -0.039556  -0.070512   0.414493   4.796631   0.409340
    12  C    0.487555  -0.067002  -0.057364  -0.063791   0.409340   5.263799
    13  N    0.003449  -0.000082   0.011797  -0.055271   0.285168  -0.085914
    14  C    0.000068  -0.000001  -0.000157   0.007513  -0.046205  -0.004932
    15  C    0.000002  -0.000239   0.015019   0.014022  -0.104268   0.002810
    16  C   -0.000197   0.007954  -0.108269   0.252199   0.017930   0.016133
    17  C    0.000006   0.000069  -0.016687  -0.111204   0.015661  -0.000136
    18  C    0.000000   0.000001   0.000103   0.008485  -0.000339   0.000001
    19  C    0.000000  -0.000000   0.000005  -0.000156  -0.000027   0.000003
    20  C    0.000002   0.000002  -0.000130   0.015853   0.002794  -0.000268
    21  C   -0.000014   0.000020  -0.000000   0.000000   0.000001  -0.000025
    22  C    0.000085  -0.000001  -0.000000   0.000000  -0.000000   0.000003
[...]
   133    C    9  dyz    Ryd( 3d)     0.00044
   134    C    9  dx2y2  Ryd( 3d)     0.00063
   135    C    9  dz2    Ryd( 3d)     0.00038

   136    C   10  S      Cor( 1S)     1.99901
   137    C   10  S      Val( 2S)     0.85547
   138    C   10  S      Ryd( 3S)     0.00070
   139    C   10  S      Ryd( 4S)     0.00007
   140    C   10  px     Val( 2p)     1.06960
   141    C   10  px     Ryd( 3p)     0.00463
   142    C   10  py     Val( 2p)     1.08053
   143    C   10  py     Ryd( 3p)     0.00531
   144    C   10  pz     Val( 2p)     1.06236
   145    C   10  pz     Ryd( 3p)     0.00195
   146    C   10  dxy    Ryd( 3d)     0.00074
   147    C   10  dxz    Ryd( 3d)     0.00084
   148    C   10  dyz    Ryd( 3d)     0.00059
   149    C   10  dx2y2  Ryd( 3d)     0.00066
   150    C   10  dz2    Ryd( 3d)     0.00040

   151    C   11  S      Cor( 1S)     1.99900
   152    C   11  S      Val( 2S)     0.82116
   153    C   11  S      Ryd( 3S)     0.00161
   154    C   11  S      Ryd( 4S)     0.00009
   155    C   11  px     Val( 2p)     1.01096
   156    C   11  px     Ryd( 3p)     0.00451
   157    C   11  py     Val( 2p)     0.94962
   158    C   11  py     Ryd( 3p)     0.00610
   159    C   11  pz     Val( 2p)     1.03076
   160    C   11  pz     Ryd( 3p)     0.00201
   161    C   11  dxy    Ryd( 3d)     0.00128
   162    C   11  dxz    Ryd( 3d)     0.00143
   163    C   11  dyz    Ryd( 3d)     0.00069
   164    C   11  dx2y2  Ryd( 3d)     0.00074
   165    C   11  dz2    Ryd( 3d)     0.00052

   166    C   12  S      Cor( 1S)     1.99894
   167    C   12  S      Val( 2S)     0.94845
   168    C   12  S      Ryd( 3S)     0.00093
   169    C   12  S      Ryd( 4S)     0.00005
   170    C   12  px     Val( 2p)     1.07662
   171    C   12  px     Ryd( 3p)     0.00386
   172    C   12  py     Val( 2p)     1.18714
   173    C   12  py     Ryd( 3p)     0.00320
   174    C   12  pz     Val( 2p)     1.08591
   175    C   12  pz     Ryd( 3p)     0.00350
   176    C   12  dxy    Ryd( 3d)     0.00062
   177    C   12  dxz    Ryd( 3d)     0.00066
   178    C   12  dyz    Ryd( 3d)     0.00053
   179    C   12  dx2y2  Ryd( 3d)     0.00064
   180    C   12  dz2    Ryd( 3d)     0.00044

   181    N   13  S      Cor( 1S)     1.99924
   182    N   13  S      Val( 2S)     1.17788
   183    N   13  S      Ryd( 3S)     0.00048
   184    N   13  S      Ryd( 4S)     0.00002
   185    N   13  px     Val( 2p)     1.31824
   186    N   13  px     Ryd( 3p)     0.00142
   187    N   13  py     Val( 2p)     1.31505
   188    N   13  py     Ryd( 3p)     0.00218
   189    N   13  pz     Val( 2p)     1.43069
   190    N   13  pz     Ryd( 3p)     0.00309
   191    N   13  dxy    Ryd( 3d)     0.00082
   192    N   13  dxz    Ryd( 3d)     0.00090
   193    N   13  dyz    Ryd( 3d)     0.00069
   194    N   13  dx2y2  Ryd( 3d)     0.00078
   195    N   13  dz2    Ryd( 3d)     0.00054

   196    C   14  S      Cor( 1S)     1.99945
   197    C   14  S      Val( 2S)     1.08534
   198    C   14  S      Ryd( 3S)     0.00106
   199    C   14  S      Ryd( 4S)     0.00001
   200    C   14  px     Val( 2p)     1.25778
   201    C   14  px     Ryd( 3p)     0.00302
   202    C   14  py     Val( 2p)     0.89676
   203    C   14  py     Ryd( 3p)     0.00194
   204    C   14  pz     Val( 2p)     1.22211
   205    C   14  pz     Ryd( 3p)     0.00124
   206    C   14  dxy    Ryd( 3d)     0.00039
   207    C   14  dxz    Ryd( 3d)     0.00098
   208    C   14  dyz    Ryd( 3d)     0.00128
   209    C   14  dx2y2  Ryd( 3d)     0.00132
   210    C   14  dz2    Ryd( 3d)     0.00052

   211    C   15  S      Cor( 1S)     1.99899
   212    C   15  S      Val( 2S)     0.82399
   213    C   15  S      Ryd( 3S)     0.00156
   214    C   15  S      Ryd( 4S)     0.00008
   215    C   15  px     Val( 2p)     0.94071
   216    C   15  px     Ryd( 3p)     0.00402
   217    C   15  py     Val( 2p)     1.02574
   218    C   15  py     Ryd( 3p)     0.00649
   219    C   15  pz     Val( 2p)     1.03264
   220    C   15  pz     Ryd( 3p)     0.00198
   221    C   15  dxy    Ryd( 3d)     0.00112
   222    C   15  dxz    Ryd( 3d)     0.00135
   223    C   15  dyz    Ryd( 3d)     0.00072
   224    C   15  dx2y2  Ryd( 3d)     0.00090
   225    C   15  dz2    Ryd( 3d)     0.00051

   226    C   16  S      Cor( 1S)     1.99901
   227    C   16  S      Val( 2S)     0.85689
   228    C   16  S      Ryd( 3S)     0.00071
   229    C   16  S      Ryd( 4S)     0.00007
   230    C   16  px     Val( 2p)     1.08709
   231    C   16  px     Ryd( 3p)     0.00435
   232    C   16  py     Val( 2p)     1.06311
   233    C   16  py     Ryd( 3p)     0.00582
   234    C   16  pz     Val( 2p)     1.05292
   235    C   16  pz     Ryd( 3p)     0.00195
   236    C   16  dxy    Ryd( 3d)     0.00060
   237    C   16  dxz    Ryd( 3d)     0.00095
   238    C   16  dyz    Ryd( 3d)     0.00048
   239    C   16  dx2y2  Ryd( 3d)     0.00081
   240    C   16  dz2    Ryd( 3d)     0.00040

   241    C   17  S      Cor( 1S)     1.99905
   242    C   17  S      Val( 2S)     0.94449
   243    C   17  S      Ryd( 3S)     0.00072
   244    C   17  S      Ryd( 4S)     0.00005
   245    C   17  px     Val( 2p)     1.05389
   246    C   17  px     Ryd( 3p)     0.00391
   247    C   17  py     Val( 2p)     1.18010
   248    C   17  py     Ryd( 3p)     0.00443
   249    C   17  pz     Val( 2p)     1.06896
   250    C   17  pz     Ryd( 3p)     0.00377
   251    C   17  dxy    Ryd( 3d)     0.00066
   252    C   17  dxz    Ryd( 3d)     0.00053
   253    C   17  dyz    Ryd( 3d)     0.00043
   254    C   17  dx2y2  Ryd( 3d)     0.00074
   255    C   17  dz2    Ryd( 3d)     0.00038

   256    C   18  S      Cor( 1S)     1.99912
   257    C   18  S      Val( 2S)     0.96593
   258    C   18  S      Ryd( 3S)     0.00050
   259    C   18  S      Ryd( 4S)     0.00003
   260    C   18  px     Val( 2p)     1.14186
   261    C   18  px     Ryd( 3p)     0.00470
   262    C   18  py     Val( 2p)     1.09380
   263    C   18  py     Ryd( 3p)     0.00443
   264    C   18  pz     Val( 2p)     0.96788
   265    C   18  pz     Ryd( 3p)     0.00137
   266    C   18  dxy    Ryd( 3d)     0.00084
   267    C   18  dxz    Ryd( 3d)     0.00058
   268    C   18  dyz    Ryd( 3d)     0.00060
   269    C   18  dx2y2  Ryd( 3d)     0.00066
   270    C   18  dz2    Ryd( 3d)     0.00046

   271    C   19  S      Cor( 1S)     1.99914
   272    C   19  S      Val( 2S)     0.95357
   273    C   19  S      Ryd( 3S)     0.00061
   274    C   19  S      Ryd( 4S)     0.00003
   275    C   19  px     Val( 2p)     1.16507
   276    C   19  px     Ryd( 3p)     0.00490
   277    C   19  py     Val( 2p)     1.07741
   278    C   19  py     Ryd( 3p)     0.00488
   279    C   19  pz     Val( 2p)     1.08696
   280    C   19  pz     Ryd( 3p)     0.00330
   281    C   19  dxy    Ryd( 3d)     0.00073
   282    C   19  dxz    Ryd( 3d)     0.00040
   283    C   19  dyz    Ryd( 3d)     0.00044
   284    C   19  dx2y2  Ryd( 3d)     0.00067
   285    C   19  dz2    Ryd( 3d)     0.00048

   286    C   20  S      Cor( 1S)     1.99902
   287    C   20  S      Val( 2S)     0.94633
   288    C   20  S      Ryd( 3S)     0.00076
   289    C   20  S      Ryd( 4S)     0.00004
   290    C   20  px     Val( 2p)     1.05765
   291    C   20  px     Ryd( 3p)     0.00415
   292    C   20  py     Val( 2p)     1.18412
   293    C   20  py     Ryd( 3p)     0.00365
   294    C   20  pz     Val( 2p)     1.06774
   295    C   20  pz     Ryd( 3p)     0.00312
   296    C   20  dxy    Ryd( 3d)     0.00058
   297    C   20  dxz    Ryd( 3d)     0.00072
   298    C   20  dyz    Ryd( 3d)     0.00042
   299    C   20  dx2y2  Ryd( 3d)     0.00079
   300    C   20  dz2    Ryd( 3d)     0.00041

   301    C   21  S      Cor( 1S)     1.99934
   302    C   21  S      Val( 2S)     1.01618
   303    C   21  S      Ryd( 3S)     0.00134
   304    C   21  S      Ryd( 4S)     0.00003
   305    C   21  px     Val( 2p)     1.20642
   306    C   21  px     Ryd( 3p)     0.00525
   307    C   21  py     Val( 2p)     0.94123
   308    C   21  py     Ryd( 3p)     0.00238
   309    C   21  pz     Val( 2p)     1.07906
   310    C   21  pz     Ryd( 3p)     0.00124
   311    C   21  dxy    Ryd( 3d)     0.00088
   312    C   21  dxz    Ryd( 3d)     0.00096
   313    C   21  dyz    Ryd( 3d)     0.00117
   314    C   21  dx2y2  Ryd( 3d)     0.00098
   315    C   21  dz2    Ryd( 3d)     0.00091

   316    C   22  S      Cor( 1S)     1.99945
   317    C   22  S      Val( 2S)     1.11101
   318    C   22  S      Ryd( 3S)     0.00044
   319    C   22  S      Ryd( 4S)     0.00001
   320    C   22  px     Val( 2p)     1.24838
   321    C   22  px     Ryd( 3p)     0.00143
   322    C   22  py     Val( 2p)     1.23722
   323    C   22  py     Ryd( 3p)     0.00138
   324    C   22  pz     Val( 2p)     1.08378
   325    C   22  pz     Ryd( 3p)     0.00093
   326    C   22  dxy    Ryd( 3d)     0.00071
   327    C   22  dxz    Ryd( 3d)     0.00071
   328    C   22  dyz    Ryd( 3d)     0.00042
   329    C   22  dx2y2  Ryd( 3d)     0.00068
   330    C   22  dz2    Ryd( 3d)     0.00071

   331    H   23  S      Val( 1S)     0.76625
   332    H   23  S      Ryd( 2S)     0.00091

   333    H   24  S      Val( 1S)     0.77551
   334    H   24  S      Ryd( 2S)     0.00094

   335    H   25  S      Val( 1S)     0.75528
   336    H   25  S      Ryd( 2S)     0.00130

   337    H   26  S      Val( 1S)     0.77349
   338    H   26  S      Ryd( 2S)     0.00137

   339    H   27  S      Val( 1S)     0.74270
   340    H   27  S      Ryd( 2S)     0.00199

   341    H   28  S      Val( 1S)     0.75697
   342    H   28  S      Ryd( 2S)     0.00113

   343    H   29  S      Val( 1S)     0.76321
   344    H   29  S      Ryd( 2S)     0.00085

   345    H   30  S      Val( 1S)     0.73953
   346    H   30  S      Ryd( 2S)     0.00146

   347    H   31  S      Val( 1S)     0.74785
   348    H   31  S      Ryd( 2S)     0.00095

   349    H   32  S      Val( 1S)     0.74631
   350    H   32  S      Ryd( 2S)     0.00124

   351    H   33  S      Val( 1S)     0.75166
   352    H   33  S      Ryd( 2S)     0.00107

   353    H   34  S      Val( 1S)     0.76553
   354    H   34  S      Ryd( 2S)     0.00092

   355    H   35  S      Val( 1S)     0.76554
   356    H   35  S      Ryd( 2S)     0.00079

   357    H   36  S      Val( 1S)     0.76715
   358    H   36  S      Ryd( 2S)     0.00076

   359    H   37  S      Val( 1S)     0.76941
   360    H   37  S      Ryd( 2S)     0.00095

   361    H   38  S      Val( 1S)     0.74691
   362    H   38  S      Ryd( 2S)     0.00159

   363    H   39  S      Val( 1S)     0.76980
   364    H   39  S      Ryd( 2S)     0.00144

   365    H   40  S      Val( 1S)     0.75909
   366    H   40  S      Ryd( 2S)     0.00131

   367    H   41  S      Val( 1S)     0.76597
   368    H   41  S      Ryd( 2S)     0.00095

   369    H   42  S      Val( 1S)     0.77305
   370    H   42  S      Ryd( 2S)     0.00094

 WARNING:  1 low occupancy (<1.9990e) core orbital  found on  C    7
           1 low occupancy (<1.9990e) core orbital  found on  C   12
           1 low occupancy (<1.9990e) core orbital  found on  C   15


 Summary of Natural Population Analysis:                  
                                                          
                                       Natural Population 
                Natural  -----------------------------------------------
    Atom  No    Charge         Core      Valence    Rydberg      Total
 -----------------------------------------------------------------------
      C    1   -0.68810      1.99945     4.68125    0.00740     6.68810
      C    2   -0.25397      1.99935     4.23913    0.01549     6.25397
      N    3   -0.50360      1.99930     5.49068    0.01363     7.50360
      C    4    0.94227      1.99937     3.01289    0.04548     5.05773
      O    5   -0.66279      1.99978     6.64413    0.01888     8.66279
      O    6   -0.55850      1.99969     6.54845    0.01035     8.55850
      C    7    0.25051      1.99876     3.72825    0.02247     5.74949
      C    8   -0.21698      1.99905     4.20374    0.01420     6.21698
      C    9   -0.26107      1.99905     4.24624    0.01578     6.26107
      C   10   -0.08287      1.99901     4.06797    0.01589     6.08287
      C   11    0.16951      1.99900     3.81250    0.01899     5.83049
      C   12   -0.31149      1.99894     4.29811    0.01444     6.31149
      N   13   -0.25200      1.99924     5.24186    0.01091     7.25200
      C   14   -0.47324      1.99945     4.46200    0.01178     6.47324
      C   15    0.15919      1.99899     3.82308    0.01874     5.84081
      C   16   -0.07517      1.99901     4.06001    0.01615     6.07517
      C   17   -0.26210      1.99905     4.24743    0.01562     6.26210
      C   18   -0.18277      1.99912     4.16947    0.01418     6.18277
      C   19   -0.29859      1.99914     4.28301    0.01644     6.29859
      C   20   -0.26950      1.99902     4.25584    0.01464     6.26950
      C   21   -0.25738      1.99934     4.24290    0.01514     6.25738
      C   22   -0.68726      1.99945     4.68039    0.00742     6.68726
      H   23    0.23283      0.00000     0.76625    0.00091     0.76717
      H   24    0.22355      0.00000     0.77551    0.00094     0.77645
      H   25    0.24343      0.00000     0.75528    0.00130     0.75657
      H   26    0.22514      0.00000     0.77349    0.00137     0.77486
      H   27    0.25531      0.00000     0.74270    0.00199     0.74469
      H   28    0.24191      0.00000     0.75697    0.00113     0.75809
      H   29    0.23593      0.00000     0.76321    0.00085     0.76407
      H   30    0.25901      0.00000     0.73953    0.00146     0.74099
      H   31    0.25120      0.00000     0.74785    0.00095     0.74880
      H   32    0.25245      0.00000     0.74631    0.00124     0.74755
      H   33    0.24727      0.00000     0.75166    0.00107     0.75273
      H   34    0.23355      0.00000     0.76553    0.00092     0.76645
      H   35    0.23367      0.00000     0.76554    0.00079     0.76633
      H   36    0.23209      0.00000     0.76715    0.00076     0.76791
      H   37    0.22964      0.00000     0.76941    0.00095     0.77036
      H   38    0.25150      0.00000     0.74691    0.00159     0.74850
      H   39    0.22876      0.00000     0.76980    0.00144     0.77124
      H   40    0.23960      0.00000     0.75909    0.00131     0.76040
      H   41    0.23308      0.00000     0.76597    0.00095     0.76692
      H   42    0.22601      0.00000     0.77305    0.00094     0.77399
 =======================================================================
   * Total *    0.00000     43.98257   113.64053    0.37690   158.00000

                                 Natural Population      
 --------------------------------------------------------
   Core                      43.98257 ( 99.9604% of  44)
   Valence                  113.64053 ( 99.6847% of 114)
   Natural Minimal Basis    157.62310 ( 99.7615% of 158)
   Natural Rydberg Basis      0.37690 (  0.2385% of 158)
 --------------------------------------------------------

    Atom  No          Natural Electron Configuration
 ----------------------------------------------------------------------------
      C    1      [core]2S( 1.11)2p( 3.57)
      C    2      [core]2S( 1.02)2p( 3.22)3p( 0.01)
      N    3      [core]2S( 1.20)2p( 4.29)3p( 0.01)
      C    4      [core]2S( 0.69)2p( 2.32)3p( 0.03)3d( 0.01)
      O    5      [core]2S( 1.70)2p( 4.94)3d( 0.02)
      O    6      [core]2S( 1.59)2p( 4.96)3d( 0.01)
      C    7      [core]2S( 0.83)2p( 2.90)3p( 0.02)3d( 0.01)
      C    8      [core]2S( 0.97)2p( 3.24)3p( 0.01)
      C    9      [core]2S( 0.94)2p( 3.31)3p( 0.01)
      C   10      [core]2S( 0.86)2p( 3.21)3p( 0.01)
      C   11      [core]2S( 0.82)2p( 2.99)3p( 0.01)
      C   12      [core]2S( 0.95)2p( 3.35)3p( 0.01)
      N   13      [core]2S( 1.18)2p( 4.06)3p( 0.01)
      C   14      [core]2S( 1.09)2p( 3.38)3p( 0.01)
      C   15      [core]2S( 0.82)2p( 3.00)3p( 0.01)
      C   16      [core]2S( 0.86)2p( 3.20)3p( 0.01)
      C   17      [core]2S( 0.94)2p( 3.30)3p( 0.01)
      C   18      [core]2S( 0.97)2p( 3.20)3p( 0.01)
      C   19      [core]2S( 0.95)2p( 3.33)3p( 0.01)
      C   20      [core]2S( 0.95)2p( 3.31)3p( 0.01)
      C   21      [core]2S( 1.02)2p( 3.23)3p( 0.01)
      C   22      [core]2S( 1.11)2p( 3.57)
      H   23            1S( 0.77)
      H   24            1S( 0.78)
      H   25            1S( 0.76)
      H   26            1S( 0.77)
      H   27            1S( 0.74)
      H   28            1S( 0.76)
      H   29            1S( 0.76)
      H   30            1S( 0.74)
      H   31            1S( 0.75)
      H   32            1S( 0.75)
      H   33            1S( 0.75)
      H   34            1S( 0.77)
      H   35            1S( 0.77)
      H   36            1S( 0.77)
      H   37            1S( 0.77)
      H   38            1S( 0.75)
      H   39            1S( 0.77)
      H   40            1S( 0.76)
      H   41            1S( 0.77)
      H   42            1S( 0.77)


 NBO analysis skipped by request.
 Leave Link  607 at Fri Oct  1 05:14:00 2021, MaxMem= 1879048192 cpu:      35.9
 (Enter /sw/target/amd/app/gaussian/Gaussian09RevA.02_gcc-4.9.2/g09/l9999.exe)
 1\1\GINC-HERMITE\SP\RTD-B3LYP-FC\6-31G(d)\C18H20N2O2\JSCHLEINITZ\01-Oc
 t-2021\0\\#p TD(NStates=10, Root=1) b3lyp/6-31G* volume pop=NPA densit
 y=current Geom=AllCheck Guess=Read\\CCN(C(=O)Oc1ccc2c(c1)n(C)c1c2cccc1
 )CC_conf_0\\0,1\C,0,3.7495307296,0.4694546326,-0.714644651\C,0,2.87141
 67282,-0.5632694901,-1.4256886124\N,0,1.4472363754,-0.2151852583,-1.40
 97957828\C,0,0.9766912298,0.5520135286,-2.4334909703\O,0,1.6560432781,
 0.9937226085,-3.3436182112\O,0,-0.3798922932,0.7492166135,-2.298099287
 \C,0,-1.1039152707,1.5344531114,-3.1932224555\C,0,-2.1571549374,2.2595
 017922,-2.610342769\C,0,-3.0034647634,3.0238799839,-3.4046180635\C,0,-
 2.7939398835,3.067879276,-4.7870639612\C,0,-1.7241676391,2.3194351297,
 -5.3460934751\C,0,-0.8661140118,1.5398668188,-4.56505145\N,0,-1.714120
 9238,2.5021054054,-6.72329465\C,0,-0.736756645,1.9559870682,-7.6398530
 49\C,0,-2.7392245233,3.3786151439,-7.0637062321\C,0,-3.445866118,3.746
 1195693,-5.8868745701\C,0,-4.5387090558,4.6143872643,-5.9834545384\C,0
 ,-4.9078474821,5.1058648692,-7.2331901218\C,0,-4.1931791928,4.73909189
 77,-8.3860632933\C,0,-3.1009828248,3.8755392389,-8.3190192937\C,0,0.61
 80256315,-0.6901953421,-0.2972917707\C,0,-0.0530293673,-2.0382485454,-
 0.5746821657\H,0,4.7996243864,0.1552178801,-0.7334256881\H,0,3.4527676
 074,0.5953339156,0.3331516773\H,0,3.67096519,1.4385090099,-1.216390552
 8\H,0,2.9735929207,-1.5474259622,-0.9541524273\H,0,3.1804303641,-0.661
 0152673,-2.4685675141\H,0,-2.2907352693,2.2070927739,-1.5349805654\H,0
 ,-3.8155746792,3.5844485812,-2.9496278302\H,0,-0.03232576,0.9928894553
 ,-4.9806846007\H,0,-0.3795348686,0.9938428709,-7.2644737844\H,0,0.1253
 648492,2.6231865791,-7.7717690557\H,0,-1.2032713863,1.7848769324,-8.61
 39216889\H,0,-5.091046602,4.9041890143,-5.0931358082\H,0,-5.7537875912
 ,5.7819488912,-7.3191820936\H,0,-4.4932870349,5.1385981022,-9.3511152\
 H,0,-2.5511578633,3.6087001891,-9.2166282503\H,0,-0.1351689022,0.06674
 72931,-0.0721650315\H,0,1.2710131429,-0.7646238725,0.5799353213\H,0,-0
 .740976276,-1.9558358875,-1.4216137653\H,0,-0.6236223068,-2.3676699729
 ,0.3015563156\H,0,0.6882539556,-2.8115560457,-0.8065132527\\Version=AM
 64L-G09RevA.02\State=1-A\HF=-957.9603722\RMSD=3.777e-09\Dipole=0.44731
 03,-0.8761193,-0.0203031\Quadrupole=-6.8867383,-4.4515177,11.338256,-4
 .8685704,-0.3820673,-2.920828\PG=C01 [X(C18H20N2O2)]\\@


 ONLY THE DAY DAWNS TO WHICH YOU ARE AWAKE.

                                 -- THOREAU
 Job cpu time:  0 days  9 hours  5 minutes 56.4 seconds.
 File lengths (MBytes):  RWF=    445 Int=      0 D2E=      0 Chk=     61 Scr=      1
 Normal termination of Gaussian 09 at Fri Oct  1 05:14:03 2021.
