 Entering Gaussian System, Link 0=g09
 Input=C18H12B3F3O3_43ff_conf_0.com
 Output=C18H12B3F3O3_43ff_conf_0.log
 Initial command:
 /sw/target/amd/app/gaussian/Gaussian09RevA.02_gcc-4.9.2/g09/l1.exe /home/jschleinitz/gaussian/Gau-3218163.inp -scrdir=/home/jschleinitz/gaussian/
 Entering Link 1 = /sw/target/amd/app/gaussian/Gaussian09RevA.02_gcc-4.9.2/g09/l1.exe PID=   3218165.
  
 Copyright (c) 1988,1990,1992,1993,1995,1998,2003,2009, Gaussian, Inc.
                  All Rights Reserved.
  
 This is part of the Gaussian(R) 09 program.  It is based on
 the Gaussian(R) 03 system (copyright 2003, Gaussian, Inc.),
 the Gaussian(R) 98 system (copyright 1998, Gaussian, Inc.),
 the Gaussian(R) 94 system (copyright 1995, Gaussian, Inc.),
 the Gaussian 92(TM) system (copyright 1992, Gaussian, Inc.),
 the Gaussian 90(TM) system (copyright 1990, Gaussian, Inc.),
 the Gaussian 88(TM) system (copyright 1988, Gaussian, Inc.),
 the Gaussian 86(TM) system (copyright 1986, Carnegie Mellon
 University), and the Gaussian 82(TM) system (copyright 1983,
 Carnegie Mellon University). Gaussian is a federally registered
 trademark of Gaussian, Inc.
  
 This software contains proprietary and confidential information,
 including trade secrets, belonging to Gaussian, Inc.
  
 This software is provided under written license and may be
 used, copied, transmitted, or stored only in accord with that
 written license.
  
 The following legend is applicable only to US Government
 contracts under FAR:
  
                    RESTRICTED RIGHTS LEGEND
  
 Use, reproduction and disclosure by the US Government is
 subject to restrictions as set forth in subparagraphs (a)
 and (c) of the Commercial Computer Software - Restricted
 Rights clause in FAR 52.227-19.
  
 Gaussian, Inc.
 340 Quinnipiac St., Bldg. 40, Wallingford CT 06492
  
  
 ---------------------------------------------------------------
 Warning -- This program may not be used in any manner that
 competes with the business of Gaussian, Inc. or will provide
 assistance to any competitor of Gaussian, Inc.  The licensee
 of this program is prohibited from giving any competitor of
 Gaussian, Inc. access to this program.  By using this program,
 the user acknowledges that Gaussian, Inc. is engaged in the
 business of creating and licensing software in the field of
 computational chemistry and represents and warrants to the
 licensee that it is not a competitor of Gaussian, Inc. and that
 it will not use this program in any manner prohibited above.
 ---------------------------------------------------------------
  

 Cite this work as:
 Gaussian 09, Revision A.02,
 M. J. Frisch, G. W. Trucks, H. B. Schlegel, G. E. Scuseria, 
 M. A. Robb, J. R. Cheeseman, G. Scalmani, V. Barone, B. Mennucci, 
 G. A. Petersson, H. Nakatsuji, M. Caricato, X. Li, H. P. Hratchian, 
 A. F. Izmaylov, J. Bloino, G. Zheng, J. L. Sonnenberg, M. Hada, 
 M. Ehara, K. Toyota, R. Fukuda, J. Hasegawa, M. Ishida, T. Nakajima, 
 Y. Honda, O. Kitao, H. Nakai, T. Vreven, J. A. Montgomery, Jr., 
 J. E. Peralta, F. Ogliaro, M. Bearpark, J. J. Heyd, E. Brothers, 
 K. N. Kudin, V. N. Staroverov, R. Kobayashi, J. Normand, 
 K. Raghavachari, A. Rendell, J. C. Burant, S. S. Iyengar, J. Tomasi, 
 M. Cossi, N. Rega, J. M. Millam, M. Klene, J. E. Knox, J. B. Cross, 
 V. Bakken, C. Adamo, J. Jaramillo, R. Gomperts, R. E. Stratmann, 
 O. Yazyev, A. J. Austin, R. Cammi, C. Pomelli, J. W. Ochterski, 
 R. L. Martin, K. Morokuma, V. G. Zakrzewski, G. A. Voth, 
 P. Salvador, J. J. Dannenberg, S. Dapprich, A. D. Daniels, 
 O. Farkas, J. B. Foresman, J. V. Ortiz, J. Cioslowski, 
 and D. J. Fox, Gaussian, Inc., Wallingford CT, 2009.
 
 ******************************************
 Gaussian 09:  AM64L-G09RevA.02 11-Jun-2009
                 4-Oct-2021 
 ******************************************
 %nproc=6
 Will use up to    6 processors via shared memory.
 %mem=12gb
 %chk=C18H12B3F3O3_43ff_conf_0.chk
 -----------------------------------
 #p opt b3lyp/6-31G* scf=(xqc,tight)
 -----------------------------------
 1/14=-1,18=20,19=15,26=3,38=1/1,3;
 2/9=110,12=2,17=6,18=5,40=1/2;
 3/5=1,6=6,7=1,11=2,16=1,25=1,30=1,71=1,74=-5/1,2,3;
 4//1;
 5/5=2,8=3,13=1,32=2,38=5/2,8;
 6/7=2,8=2,9=2,10=2,28=1/1;
 7//1,2,3,16;
 1/14=-1,18=20,19=15/3(2);
 2/9=110/2;
 99//99;
 2/9=110/2;
 3/5=1,6=6,7=1,11=2,16=1,25=1,30=1,71=1,74=-5/1,2,3;
 4/5=5,16=3/1;
 5/5=2,8=3,13=1,32=2,38=5/2,8;
 7//1,2,3,16;
 1/14=-1,18=20,19=15/3(-5);
 2/9=110/2;
 6/7=2,8=2,9=2,10=2,19=2,28=1/1;
 99/9=1/99;
 Leave Link    1 at Mon Oct  4 00:47:10 2021, MaxMem= 1610612736 cpu:       0.1
 (Enter /sw/target/amd/app/gaussian/Gaussian09RevA.02_gcc-4.9.2/g09/l101.exe)
 ----------------------------------------------------
 Fc1ccc(cc1)b1ob(ob(o1)c1ccc(cc1)F)c1ccc(cc1)F_conf_0
 ----------------------------------------------------
 Symbolic Z-matrix:
 Charge =  0 Multiplicity = 1
 F                     2.2592   -0.08242  -0.16569 
 C                     0.90402  -0.06595  -0.12858 
 C                     0.18437   0.56308  -1.1483 
 C                    -1.21356   0.58157  -1.1123 
 C                    -1.90182  -0.03162  -0.05168 
 C                    -1.1719   -0.66222   0.97007 
 C                     0.22604  -0.67793   0.92944 
 B                    -3.47556  -0.0116   -0.009 
 O                    -4.20529   0.62438  -1.03779 
 B                    -5.61723   0.6461   -1.00421 
 O                    -6.29951   0.0269    0.06649 
 B                    -5.57821  -0.61156   1.09976 
 O                    -4.16614  -0.62834   1.05806 
 C                    -6.34416  -1.29931   2.29111 
 C                    -7.74861  -1.28338   2.33442 
 C                    -8.42705  -1.89445   3.39377 
 C                    -7.71064  -2.5244    4.41521 
 C                    -6.31357  -2.5442    4.37858 
 C                    -5.63038  -1.93456   3.32137 
 F                    -8.37065  -3.11597   5.44119 
 C                    -6.42552   1.3571   -2.15301 
 C                    -5.74916   1.97399  -3.21906 
 C                    -6.46935   2.60522  -4.23828 
 C                    -7.86638   2.62537  -4.20111 
 C                    -8.5457    2.01377  -3.14377 
 C                    -7.83011   1.3812   -2.12211 
 F                    -8.56232   3.23801  -5.19033 
 H                     0.70898   1.03719  -1.96789 
 H                    -1.75218   1.07463  -1.91268 
 H                    -1.67795  -1.14233   1.79905 
 H                     0.78306  -1.16516   1.71938 
 H                    -8.32298  -0.80051   1.55291 
 H                    -9.50904  -1.87885   3.42172 
 H                    -5.75839  -3.03196   5.1695 
 H                    -4.54733  -1.96118   3.31208 
 H                    -4.66679   1.96983  -3.26688 
 H                    -5.94283   3.07877  -5.05694 
 H                    -9.62763   2.02919  -3.11458 
 H                    -8.37596   0.91323  -1.31162 
 
 NAtoms=     39 NQM=     39 NQMF=      0 NMic=      0 NMicF=      0 NTot=     39.
                    Isotopes and Nuclear Properties:
 (Nuclear quadrupole moments (NQMom) in fm**2, nuclear magnetic moments (NMagM)
  in nuclear magnetons)

  Atom         1           2           3           4           5           6           7           8           9          10
 IAtWgt=          19          12          12          12          12          12          12          11          16          11
 AtmWgt=  18.9984032  12.0000000  12.0000000  12.0000000  12.0000000  12.0000000  12.0000000  11.0093053  15.9949146  11.0093053
 NucSpn=           1           0           0           0           0           0           0           3           0           3
 AtZEff=   0.0000000   0.0000000   0.0000000   0.0000000   0.0000000   0.0000000   0.0000000   0.0000000   0.0000000   0.0000000
 NQMom=    0.0000000   0.0000000   0.0000000   0.0000000   0.0000000   0.0000000   0.0000000   4.0590000   0.0000000   4.0590000
 NMagM=    2.6288670   0.0000000   0.0000000   0.0000000   0.0000000   0.0000000   0.0000000   2.6886370   0.0000000   2.6886370

  Atom        11          12          13          14          15          16          17          18          19          20
 IAtWgt=          16          11          16          12          12          12          12          12          12          19
 AtmWgt=  15.9949146  11.0093053  15.9949146  12.0000000  12.0000000  12.0000000  12.0000000  12.0000000  12.0000000  18.9984032
 NucSpn=           0           3           0           0           0           0           0           0           0           1
 AtZEff=   0.0000000   0.0000000   0.0000000   0.0000000   0.0000000   0.0000000   0.0000000   0.0000000   0.0000000   0.0000000
 NQMom=    0.0000000   4.0590000   0.0000000   0.0000000   0.0000000   0.0000000   0.0000000   0.0000000   0.0000000   0.0000000
 NMagM=    0.0000000   2.6886370   0.0000000   0.0000000   0.0000000   0.0000000   0.0000000   0.0000000   0.0000000   2.6288670

  Atom        21          22          23          24          25          26          27          28          29          30
 IAtWgt=          12          12          12          12          12          12          19           1           1           1
 AtmWgt=  12.0000000  12.0000000  12.0000000  12.0000000  12.0000000  12.0000000  18.9984032   1.0078250   1.0078250   1.0078250
 NucSpn=           0           0           0           0           0           0           1           1           1           1
 AtZEff=   0.0000000   0.0000000   0.0000000   0.0000000   0.0000000   0.0000000   0.0000000   0.0000000   0.0000000   0.0000000
 NQMom=    0.0000000   0.0000000   0.0000000   0.0000000   0.0000000   0.0000000   0.0000000   0.0000000   0.0000000   0.0000000
 NMagM=    0.0000000   0.0000000   0.0000000   0.0000000   0.0000000   0.0000000   2.6288670   2.7928460   2.7928460   2.7928460

  Atom        31          32          33          34          35          36          37          38          39
 IAtWgt=           1           1           1           1           1           1           1           1           1
 AtmWgt=   1.0078250   1.0078250   1.0078250   1.0078250   1.0078250   1.0078250   1.0078250   1.0078250   1.0078250
 NucSpn=           1           1           1           1           1           1           1           1           1
 AtZEff=   0.0000000   0.0000000   0.0000000   0.0000000   0.0000000   0.0000000   0.0000000   0.0000000   0.0000000
 NQMom=    0.0000000   0.0000000   0.0000000   0.0000000   0.0000000   0.0000000   0.0000000   0.0000000   0.0000000
 NMagM=    2.7928460   2.7928460   2.7928460   2.7928460   2.7928460   2.7928460   2.7928460   2.7928460   2.7928460
 Leave Link  101 at Mon Oct  4 00:47:12 2021, MaxMem= 1610612736 cpu:       0.2
 (Enter /sw/target/amd/app/gaussian/Gaussian09RevA.02_gcc-4.9.2/g09/l103.exe)

 GradGradGradGradGradGradGradGradGradGradGradGradGradGradGradGradGradGrad
 Berny optimization.
 Initialization pass.
                           ----------------------------
                           !    Initial Parameters    !
                           ! (Angstroms and Degrees)  !
 --------------------------                            --------------------------
 ! Name  Definition              Value          Derivative Info.                !
 --------------------------------------------------------------------------------
 ! R1    R(1,2)                  1.3558         estimate D2E/DX2                !
 ! R2    R(2,3)                  1.3976         estimate D2E/DX2                !
 ! R3    R(2,7)                  1.3977         estimate D2E/DX2                !
 ! R4    R(3,4)                  1.3985         estimate D2E/DX2                !
 ! R5    R(3,28)                 1.0825         estimate D2E/DX2                !
 ! R6    R(4,5)                  1.4052         estimate D2E/DX2                !
 ! R7    R(4,29)                 1.0834         estimate D2E/DX2                !
 ! R8    R(5,6)                  1.4051         estimate D2E/DX2                !
 ! R9    R(5,8)                  1.5745         estimate D2E/DX2                !
 ! R10   R(6,7)                  1.3986         estimate D2E/DX2                !
 ! R11   R(6,30)                 1.0834         estimate D2E/DX2                !
 ! R12   R(7,31)                 1.0824         estimate D2E/DX2                !
 ! R13   R(8,9)                  1.4126         estimate D2E/DX2                !
 ! R14   R(8,13)                 1.4128         estimate D2E/DX2                !
 ! R15   R(9,10)                 1.4125         estimate D2E/DX2                !
 ! R16   R(10,11)                1.4126         estimate D2E/DX2                !
 ! R17   R(10,21)                1.5744         estimate D2E/DX2                !
 ! R18   R(11,12)                1.4126         estimate D2E/DX2                !
 ! R19   R(12,13)                1.4128         estimate D2E/DX2                !
 ! R20   R(12,14)                1.5745         estimate D2E/DX2                !
 ! R21   R(14,15)                1.4052         estimate D2E/DX2                !
 ! R22   R(14,19)                1.4052         estimate D2E/DX2                !
 ! R23   R(15,16)                1.3985         estimate D2E/DX2                !
 ! R24   R(15,32)                1.0834         estimate D2E/DX2                !
 ! R25   R(16,17)                1.3977         estimate D2E/DX2                !
 ! R26   R(16,33)                1.0825         estimate D2E/DX2                !
 ! R27   R(17,18)                1.3977         estimate D2E/DX2                !
 ! R28   R(17,20)                1.3558         estimate D2E/DX2                !
 ! R29   R(18,19)                1.3986         estimate D2E/DX2                !
 ! R30   R(18,34)                1.0824         estimate D2E/DX2                !
 ! R31   R(19,35)                1.0834         estimate D2E/DX2                !
 ! R32   R(21,22)                1.4052         estimate D2E/DX2                !
 ! R33   R(21,26)                1.4051         estimate D2E/DX2                !
 ! R34   R(22,23)                1.3986         estimate D2E/DX2                !
 ! R35   R(22,36)                1.0834         estimate D2E/DX2                !
 ! R36   R(23,24)                1.3977         estimate D2E/DX2                !
 ! R37   R(23,37)                1.0824         estimate D2E/DX2                !
 ! R38   R(24,25)                1.3977         estimate D2E/DX2                !
 ! R39   R(24,27)                1.3558         estimate D2E/DX2                !
 ! R40   R(25,26)                1.3986         estimate D2E/DX2                !
 ! R41   R(25,38)                1.0824         estimate D2E/DX2                !
 ! R42   R(26,39)                1.0834         estimate D2E/DX2                !
 ! A1    A(1,2,3)              120.0113         estimate D2E/DX2                !
 ! A2    A(1,2,7)              120.0164         estimate D2E/DX2                !
 ! A3    A(3,2,7)              119.9723         estimate D2E/DX2                !
 ! A4    A(2,3,4)              120.1227         estimate D2E/DX2                !
 ! A5    A(2,3,28)             120.0            estimate D2E/DX2                !
 ! A6    A(4,3,28)             119.8772         estimate D2E/DX2                !
 ! A7    A(3,4,5)              120.215          estimate D2E/DX2                !
 ! A8    A(3,4,29)             118.9421         estimate D2E/DX2                !
 ! A9    A(5,4,29)             120.843          estimate D2E/DX2                !
 ! A10   A(4,5,6)              119.3565         estimate D2E/DX2                !
 ! A11   A(4,5,8)              120.2968         estimate D2E/DX2                !
 ! A12   A(6,5,8)              120.3467         estimate D2E/DX2                !
 ! A13   A(5,6,7)              120.2077         estimate D2E/DX2                !
 ! A14   A(5,6,30)             120.8384         estimate D2E/DX2                !
 ! A15   A(7,6,30)             118.9539         estimate D2E/DX2                !
 ! A16   A(2,7,6)              120.1258         estimate D2E/DX2                !
 ! A17   A(2,7,31)             119.9928         estimate D2E/DX2                !
 ! A18   A(6,7,31)             119.8814         estimate D2E/DX2                !
 ! A19   A(5,8,9)              120.1551         estimate D2E/DX2                !
 ! A20   A(5,8,13)             120.2331         estimate D2E/DX2                !
 ! A21   A(9,8,13)             119.6117         estimate D2E/DX2                !
 ! A22   A(8,9,10)             120.3975         estimate D2E/DX2                !
 ! A23   A(9,10,11)            119.6101         estimate D2E/DX2                !
 ! A24   A(9,10,21)            120.1858         estimate D2E/DX2                !
 ! A25   A(11,10,21)           120.2041         estimate D2E/DX2                !
 ! A26   A(10,11,12)           120.3924         estimate D2E/DX2                !
 ! A27   A(11,12,13)           119.6122         estimate D2E/DX2                !
 ! A28   A(11,12,14)           120.1643         estimate D2E/DX2                !
 ! A29   A(13,12,14)           120.2234         estimate D2E/DX2                !
 ! A30   A(8,13,12)            120.3762         estimate D2E/DX2                !
 ! A31   A(12,14,15)           120.3037         estimate D2E/DX2                !
 ! A32   A(12,14,19)           120.3405         estimate D2E/DX2                !
 ! A33   A(15,14,19)           119.3558         estimate D2E/DX2                !
 ! A34   A(14,15,16)           120.2146         estimate D2E/DX2                !
 ! A35   A(14,15,32)           120.8425         estimate D2E/DX2                !
 ! A36   A(16,15,32)           118.9429         estimate D2E/DX2                !
 ! A37   A(15,16,17)           120.1228         estimate D2E/DX2                !
 ! A38   A(15,16,33)           119.8781         estimate D2E/DX2                !
 ! A39   A(17,16,33)           119.9991         estimate D2E/DX2                !
 ! A40   A(16,17,18)           119.9726         estimate D2E/DX2                !
 ! A41   A(16,17,20)           120.0115         estimate D2E/DX2                !
 ! A42   A(18,17,20)           120.0158         estimate D2E/DX2                !
 ! A43   A(17,18,19)           120.1258         estimate D2E/DX2                !
 ! A44   A(17,18,34)           119.9936         estimate D2E/DX2                !
 ! A45   A(19,18,34)           119.8805         estimate D2E/DX2                !
 ! A46   A(14,19,18)           120.2084         estimate D2E/DX2                !
 ! A47   A(14,19,35)           120.8392         estimate D2E/DX2                !
 ! A48   A(18,19,35)           118.9524         estimate D2E/DX2                !
 ! A49   A(10,21,22)           120.3139         estimate D2E/DX2                !
 ! A50   A(10,21,26)           120.3252         estimate D2E/DX2                !
 ! A51   A(22,21,26)           119.3609         estimate D2E/DX2                !
 ! A52   A(21,22,23)           120.2101         estimate D2E/DX2                !
 ! A53   A(21,22,36)           120.842          estimate D2E/DX2                !
 ! A54   A(23,22,36)           118.9479         estimate D2E/DX2                !
 ! A55   A(22,23,24)           120.1226         estimate D2E/DX2                !
 ! A56   A(22,23,37)           119.8772         estimate D2E/DX2                !
 ! A57   A(24,23,37)           120.0001         estimate D2E/DX2                !
 ! A58   A(23,24,25)           119.9748         estimate D2E/DX2                !
 ! A59   A(23,24,27)           120.0121         estimate D2E/DX2                !
 ! A60   A(25,24,27)           120.013          estimate D2E/DX2                !
 ! A61   A(24,25,26)           120.1233         estimate D2E/DX2                !
 ! A62   A(24,25,38)           119.9987         estimate D2E/DX2                !
 ! A63   A(26,25,38)           119.878          estimate D2E/DX2                !
 ! A64   A(21,26,25)           120.2082         estimate D2E/DX2                !
 ! A65   A(21,26,39)           120.8413         estimate D2E/DX2                !
 ! A66   A(25,26,39)           118.9505         estimate D2E/DX2                !
 ! D1    D(1,2,3,4)           -179.9948         estimate D2E/DX2                !
 ! D2    D(1,2,3,28)             0.0011         estimate D2E/DX2                !
 ! D3    D(7,2,3,4)              0.0027         estimate D2E/DX2                !
 ! D4    D(7,2,3,28)           179.9986         estimate D2E/DX2                !
 ! D5    D(1,2,7,6)            179.9953         estimate D2E/DX2                !
 ! D6    D(1,2,7,31)            -0.0004         estimate D2E/DX2                !
 ! D7    D(3,2,7,6)             -0.0022         estimate D2E/DX2                !
 ! D8    D(3,2,7,31)          -179.9979         estimate D2E/DX2                !
 ! D9    D(2,3,4,5)             -0.0005         estimate D2E/DX2                !
 ! D10   D(2,3,4,29)           179.995          estimate D2E/DX2                !
 ! D11   D(28,3,4,5)          -179.9964         estimate D2E/DX2                !
 ! D12   D(28,3,4,29)           -0.0009         estimate D2E/DX2                !
 ! D13   D(3,4,5,6)             -0.0022         estimate D2E/DX2                !
 ! D14   D(3,4,5,8)            179.9823         estimate D2E/DX2                !
 ! D15   D(29,4,5,6)          -179.9977         estimate D2E/DX2                !
 ! D16   D(29,4,5,8)            -0.0131         estimate D2E/DX2                !
 ! D17   D(4,5,6,7)              0.0027         estimate D2E/DX2                !
 ! D18   D(4,5,6,30)           179.9967         estimate D2E/DX2                !
 ! D19   D(8,5,6,7)           -179.9818         estimate D2E/DX2                !
 ! D20   D(8,5,6,30)             0.0122         estimate D2E/DX2                !
 ! D21   D(4,5,8,9)             -0.0322         estimate D2E/DX2                !
 ! D22   D(4,5,8,13)          -179.9908         estimate D2E/DX2                !
 ! D23   D(6,5,8,9)            179.9522         estimate D2E/DX2                !
 ! D24   D(6,5,8,13)            -0.0064         estimate D2E/DX2                !
 ! D25   D(5,6,7,2)             -0.0005         estimate D2E/DX2                !
 ! D26   D(5,6,7,31)           179.9952         estimate D2E/DX2                !
 ! D27   D(30,6,7,2)          -179.9946         estimate D2E/DX2                !
 ! D28   D(30,6,7,31)            0.0011         estimate D2E/DX2                !
 ! D29   D(5,8,9,10)          -179.9616         estimate D2E/DX2                !
 ! D30   D(13,8,9,10)           -0.0026         estimate D2E/DX2                !
 ! D31   D(5,8,13,12)          179.9657         estimate D2E/DX2                !
 ! D32   D(9,8,13,12)            0.0068         estimate D2E/DX2                !
 ! D33   D(8,9,10,11)            0.0007         estimate D2E/DX2                !
 ! D34   D(8,9,10,21)          179.9628         estimate D2E/DX2                !
 ! D35   D(9,10,11,12)          -0.003          estimate D2E/DX2                !
 ! D36   D(21,10,11,12)       -179.9651         estimate D2E/DX2                !
 ! D37   D(9,10,21,22)           0.0267         estimate D2E/DX2                !
 ! D38   D(9,10,21,26)        -179.9603         estimate D2E/DX2                !
 ! D39   D(11,10,21,22)        179.9886         estimate D2E/DX2                !
 ! D40   D(11,10,21,26)          0.0016         estimate D2E/DX2                !
 ! D41   D(10,11,12,13)          0.0071         estimate D2E/DX2                !
 ! D42   D(10,11,12,14)        179.9629         estimate D2E/DX2                !
 ! D43   D(11,12,13,8)          -0.0091         estimate D2E/DX2                !
 ! D44   D(14,12,13,8)        -179.9649         estimate D2E/DX2                !
 ! D45   D(11,12,14,15)          0.0307         estimate D2E/DX2                !
 ! D46   D(11,12,14,19)       -179.9522         estimate D2E/DX2                !
 ! D47   D(13,12,14,15)        179.9862         estimate D2E/DX2                !
 ! D48   D(13,12,14,19)          0.0034         estimate D2E/DX2                !
 ! D49   D(12,14,15,16)       -179.9776         estimate D2E/DX2                !
 ! D50   D(12,14,15,32)          0.0167         estimate D2E/DX2                !
 ! D51   D(19,14,15,16)          0.0054         estimate D2E/DX2                !
 ! D52   D(19,14,15,32)        179.9997         estimate D2E/DX2                !
 ! D53   D(12,14,19,18)        179.9767         estimate D2E/DX2                !
 ! D54   D(12,14,19,35)         -0.0148         estimate D2E/DX2                !
 ! D55   D(15,14,19,18)         -0.0063         estimate D2E/DX2                !
 ! D56   D(15,14,19,35)       -179.9978         estimate D2E/DX2                !
 ! D57   D(14,15,16,17)         -0.0002         estimate D2E/DX2                !
 ! D58   D(14,15,16,33)        179.9948         estimate D2E/DX2                !
 ! D59   D(32,15,16,17)       -179.9945         estimate D2E/DX2                !
 ! D60   D(32,15,16,33)          0.0005         estimate D2E/DX2                !
 ! D61   D(15,16,17,18)         -0.0043         estimate D2E/DX2                !
 ! D62   D(15,16,17,20)        179.9932         estimate D2E/DX2                !
 ! D63   D(33,16,17,18)       -179.9993         estimate D2E/DX2                !
 ! D64   D(33,16,17,20)         -0.0018         estimate D2E/DX2                !
 ! D65   D(16,17,18,19)          0.0035         estimate D2E/DX2                !
 ! D66   D(16,17,18,34)        179.9984         estimate D2E/DX2                !
 ! D67   D(20,17,18,19)       -179.994          estimate D2E/DX2                !
 ! D68   D(20,17,18,34)          0.0008         estimate D2E/DX2                !
 ! D69   D(17,18,19,14)          0.0018         estimate D2E/DX2                !
 ! D70   D(17,18,19,35)        179.9935         estimate D2E/DX2                !
 ! D71   D(34,18,19,14)       -179.9931         estimate D2E/DX2                !
 ! D72   D(34,18,19,35)         -0.0014         estimate D2E/DX2                !
 ! D73   D(10,21,22,23)       -179.9865         estimate D2E/DX2                !
 ! D74   D(10,21,22,36)          0.0101         estimate D2E/DX2                !
 ! D75   D(26,21,22,23)          0.0006         estimate D2E/DX2                !
 ! D76   D(26,21,22,36)        179.9972         estimate D2E/DX2                !
 ! D77   D(10,21,26,25)        179.9855         estimate D2E/DX2                !
 ! D78   D(10,21,26,39)         -0.0088         estimate D2E/DX2                !
 ! D79   D(22,21,26,25)         -0.0016         estimate D2E/DX2                !
 ! D80   D(22,21,26,39)       -179.9959         estimate D2E/DX2                !
 ! D81   D(21,22,23,24)          0.0009         estimate D2E/DX2                !
 ! D82   D(21,22,23,37)        179.9979         estimate D2E/DX2                !
 ! D83   D(36,22,23,24)       -179.9957         estimate D2E/DX2                !
 ! D84   D(36,22,23,37)          0.0013         estimate D2E/DX2                !
 ! D85   D(22,23,24,25)         -0.0014         estimate D2E/DX2                !
 ! D86   D(22,23,24,27)        179.9965         estimate D2E/DX2                !
 ! D87   D(37,23,24,25)       -179.9984         estimate D2E/DX2                !
 ! D88   D(37,23,24,27)         -0.0005         estimate D2E/DX2                !
 ! D89   D(23,24,25,26)          0.0005         estimate D2E/DX2                !
 ! D90   D(23,24,25,38)        179.9974         estimate D2E/DX2                !
 ! D91   D(27,24,25,26)       -179.9975         estimate D2E/DX2                !
 ! D92   D(27,24,25,38)         -0.0005         estimate D2E/DX2                !
 ! D93   D(24,25,26,21)          0.0011         estimate D2E/DX2                !
 ! D94   D(24,25,26,39)        179.9955         estimate D2E/DX2                !
 ! D95   D(38,25,26,21)       -179.9959         estimate D2E/DX2                !
 ! D96   D(38,25,26,39)         -0.0015         estimate D2E/DX2                !
 --------------------------------------------------------------------------------
 Trust Radius=3.00D-01 FncErr=1.00D-07 GrdErr=1.00D-06
 Number of steps in this run= 214 maximum allowed number of steps= 234.
 GradGradGradGradGradGradGradGradGradGradGradGradGradGradGradGradGradGrad

 Leave Link  103 at Mon Oct  4 00:47:12 2021, MaxMem= 1610612736 cpu:       0.0
 (Enter /sw/target/amd/app/gaussian/Gaussian09RevA.02_gcc-4.9.2/g09/l202.exe)
                          Input orientation:                          
 ---------------------------------------------------------------------
 Center     Atomic      Atomic             Coordinates (Angstroms)
 Number     Number       Type             X           Y           Z
 ---------------------------------------------------------------------
      1          9           0        2.259199   -0.082425   -0.165691
      2          6           0        0.904020   -0.065946   -0.128580
      3          6           0        0.184371    0.563080   -1.148301
      4          6           0       -1.213563    0.581567   -1.112299
      5          6           0       -1.901819   -0.031620   -0.051678
      6          6           0       -1.171896   -0.662215    0.970069
      7          6           0        0.226037   -0.677930    0.929442
      8          5           0       -3.475564   -0.011600   -0.009001
      9          8           0       -4.205286    0.624375   -1.037788
     10          5           0       -5.617227    0.646105   -1.004209
     11          8           0       -6.299508    0.026903    0.066488
     12          5           0       -5.578209   -0.611555    1.099756
     13          8           0       -4.166145   -0.628337    1.058061
     14          6           0       -6.344163   -1.299309    2.291112
     15          6           0       -7.748607   -1.283375    2.334423
     16          6           0       -8.427055   -1.894450    3.393772
     17          6           0       -7.710643   -2.524399    4.415215
     18          6           0       -6.313572   -2.544202    4.378580
     19          6           0       -5.630375   -1.934561    3.321365
     20          9           0       -8.370649   -3.115972    5.441187
     21          6           0       -6.425518    1.357103   -2.153006
     22          6           0       -5.749159    1.973990   -3.219059
     23          6           0       -6.469355    2.605218   -4.238281
     24          6           0       -7.866378    2.625373   -4.201115
     25          6           0       -8.545698    2.013772   -3.143775
     26          6           0       -7.830111    1.381197   -2.122105
     27          9           0       -8.562316    3.238007   -5.190330
     28          1           0        0.708981    1.037192   -1.967889
     29          1           0       -1.752175    1.074634   -1.912677
     30          1           0       -1.677950   -1.142334    1.799053
     31          1           0        0.783056   -1.165161    1.719384
     32          1           0       -8.322981   -0.800512    1.552912
     33          1           0       -9.509037   -1.878847    3.421720
     34          1           0       -5.758387   -3.031962    5.169495
     35          1           0       -4.547326   -1.961179    3.312081
     36          1           0       -4.666787    1.969834   -3.266884
     37          1           0       -5.942831    3.078770   -5.056940
     38          1           0       -9.627631    2.029186   -3.114582
     39          1           0       -8.375956    0.913234   -1.311621
 ---------------------------------------------------------------------
                    Distance matrix (angstroms):
                    1          2          3          4          5
     1  F    0.000000
     2  C    1.355787   0.000000
     3  C    2.384766   1.397641   0.000000
     4  C    3.660195   2.423043   1.398520   0.000000
     5  C    4.162889   2.807102   2.430728   1.405209   0.000000
     6  C    3.660399   2.423220   2.797911   2.425900   1.405135
     7  C    2.384888   1.397711   2.420508   2.797765   2.430654
     8  B    5.737341   4.381554   3.876002   2.585684   1.574451
     9  O    6.561226   5.235285   4.391476   2.992957   2.590117
    10  B    7.954367   6.618188   5.803982   4.405463   3.894982
    11  O    8.562553   7.206767   6.618450   5.250145   4.399665
    12  B    7.956526   6.620106   6.296099   5.036553   3.895892
    13  O    6.563584   5.237459   5.021404   3.859025   2.591286
    14  C    9.029647   7.740300   7.610507   6.437698   5.179780
    15  C   10.385039   9.078352   8.858381   7.620020   6.437803
    16  C   11.408297  10.139988  10.041242   8.858318   7.610517
    17  C   11.240359  10.045022  10.139846   9.078132   7.740123
    18  C   10.010152   8.862837   9.078815   8.119746   6.738236
    19  C    8.822435   7.621822   7.747736   6.745110   5.375941
    20  F   12.394885  11.240305  11.408118  10.384790   9.029427
    21  C    9.024742   7.735987   6.732796   5.371126   5.177643
    22  C    8.813949   7.614275   6.440923   5.191233   5.371853
    23  C    9.999853   8.853893   7.615141   6.441294   6.733717
    24  C   11.231390  10.037361   8.853660   7.614320   7.736498
    25  C   11.402141  10.134782   9.071964   7.741983   7.608274
    26  C   10.380940   9.074878   8.114773   6.740758   6.436410
    27  F   12.384565  11.231604   9.999889   8.814260   9.025432
    28  H    2.627668   2.153605   1.082461   2.153092   3.410352
    29  H    4.525690   3.396955   2.143868   1.083431   2.170141
    30  H    4.526011   3.397197   3.881182   3.415181   2.170025
    31  H    2.627703   2.153573   3.401303   3.880204   3.410298
    32  H   10.744850   9.407686   9.029451   7.717339   6.663125
    33  H   12.433343  11.150022  10.991372   9.768615   8.564258
    34  H   10.072024   9.014129   9.389103   8.554178   7.150931
    35  H    7.871048   6.719169   6.975375   6.095463   4.694335
    36  H    7.861199   6.710235   5.477325   4.300497   4.689181
    37  H   10.059362   9.003185   7.690823   6.645464   7.145415
    38  H   12.427855  11.145468  10.113907   8.769337   8.562504
    39  H   10.742952   9.406186   8.569043   7.172838   6.662932
                    6          7          8          9         10
     6  C    0.000000
     7  C    1.398612   0.000000
     8  B    2.586265   3.876406   0.000000
     9  O    3.858531   5.020221   1.412572   0.000000
    10  B    5.036908   6.295697   2.451476   1.412508   0.000000
    11  O    5.252023   6.619986   2.825214   2.441754   1.412554
    12  B    4.408512   5.807124   2.451613   2.825162   2.451510
    13  O    2.995733   4.394344   1.412759   2.442008   2.825385
    14  C    5.376187   6.738530   3.895840   4.399651   3.895152
    15  C    6.745401   8.120067   5.036660   5.250376   4.405921
    16  C    7.747907   9.079033   6.296130   6.618651   5.804462
    17  C    7.621808   8.862897   6.619950   7.206771   6.618507
    18  C    6.449546   7.625353   5.806826   6.619803   6.295821
    19  C    5.198605   6.449650   4.408211   5.251785   5.036923
    20  F    8.822350  10.010140   7.956352   8.562568   7.954727
    21  C    6.436753   7.608287   3.895168   2.590373   1.574353
    22  C    6.741640   7.742461   4.406390   2.993818   2.585778
    23  C    8.115793   9.072634   5.804940   4.392368   3.876012
    24  C    9.075542  10.135166   6.618662   5.235859   4.381368
    25  C    8.857628  10.038909   6.295649   5.020436   3.876106
    26  C    7.620295   8.857396   5.036583   3.858481   2.585906
    27  F   10.381742  11.402689   7.954945   6.561889   5.737170
    28  H    3.880371   3.401383   4.737892   5.018518   6.411126
    29  H    3.415201   3.881037   2.788182   2.643089   3.993442
    30  H    1.083429   2.144076   2.789092   4.190031   5.155065
    31  H    2.153199   1.082439   4.738552   5.973944   7.187647
    32  H    7.176131   8.572599   5.153582   5.069265   3.994080
    33  H    8.774890  10.120539   7.187437   7.367707   6.411740
    34  H    6.654831   7.702782   6.414880   7.369619   7.187678
    35  H    4.308811   5.487139   3.997389   5.071829   5.154898
    36  H    6.090462   6.968467   3.994859   2.644261   2.788422
    37  H    8.548780   9.381071   6.412447   5.019631   4.737986
    38  H    9.768698  10.989876   7.187306   5.973976   4.738135
    39  H    7.719238   9.030418   5.154219   4.189620   2.788628
                   11         12         13         14         15
    11  O    0.000000
    12  B    1.412638   0.000000
    13  O    2.442088   1.412779   0.000000
    14  C    2.590326   1.574490   2.591212   0.000000
    15  C    2.993368   2.585802   3.859043   1.405203   0.000000
    16  C    4.391910   3.876112   5.021348   2.430739   1.398543
    17  C    5.235635   4.381610   5.237270   2.807120   2.423071
    18  C    5.020450   3.876412   4.394067   2.430682   2.797783
    19  C    3.858666   2.586235   2.995453   1.405154   2.425903
    20  F    6.561607   5.737407   6.563381   4.162918   3.660236
    21  C    2.590649   3.895384   4.399738   5.178160   5.372124
    22  C    3.858607   5.036510   5.250885   6.436653   6.741616
    23  C    5.020716   6.295746   6.619055   7.608809   7.743260
    24  C    5.236369   6.619113   7.206753   7.737524   7.616130
    25  C    4.393040   5.805678   6.619415   6.735077   6.443383
    26  C    2.994461   4.407098   5.251317   5.373048   5.192998
    27  F    6.562440   7.955451   8.562554   9.026595   8.816287
    28  H    7.367379   7.187320   5.974714   8.564179   9.768609
    29  H    5.068833   5.153303   4.189588   6.662868   7.717206
    30  H    5.072247   3.997845   2.646578   4.694710   6.095850
    31  H    7.369925   6.415304   5.021964   7.151372   8.554621
    32  H    2.643581   2.788338   4.189727   2.170129   1.083430
    33  H    5.019018   4.738032   5.974709   3.410362   2.153117
    34  H    5.974124   4.738524   5.021607   3.410324   3.880227
    35  H    4.190046   2.789012   2.646200   2.170039   3.415177
    36  H    4.189526   5.153816   5.070137   6.662748   7.173258
    37  H    5.974163   7.187236   7.368344   8.562857   8.770484
    38  H    5.020433   6.413422   7.368936   7.147138   6.647966
    39  H    2.645072   3.995887   5.070932   4.690759   4.302592
                   16         17         18         19         20
    16  C    0.000000
    17  C    1.397650   0.000000
    18  C    2.420503   1.397692   0.000000
    19  C    2.797904   2.423206   1.398615   0.000000
    20  F    2.384786   1.355797   2.384874   3.660393   0.000000
    21  C    6.733907   7.736868   7.608833   6.437084   9.025725
    22  C    8.115756   9.075520   8.857581   7.620238  10.381705
    23  C    9.073469  10.135914  10.039477   8.857862  11.403466
    24  C    8.855815  10.039200  10.136413   9.076365  11.233491
    25  C    7.617598   8.856107   9.074323   8.117048  10.002324
    26  C    6.442911   7.616069   7.743872   6.742733   8.815900
    27  F   10.002361  11.233751  11.404158  10.382711  12.387047
    28  H   10.991318  11.149843  10.120291   8.774677  12.433136
    29  H    9.029280   9.407369   8.572178   7.175716  10.744520
    30  H    6.975616   6.719210   5.487092   4.308912   7.870998
    31  H    9.389440   9.014319   7.702935   6.655105  10.072130
    32  H    2.143897   3.396987   3.881054   3.415204   4.525738
    33  H    1.082456   2.153600   3.401364   3.880360   2.627671
    34  H    3.401310   2.153569   1.082445   2.153198   2.627696
    35  H    3.881162   3.397160   2.144052   1.083416   4.525974
    36  H    8.569519   9.406266   9.030036   7.718668  10.743116
    37  H   10.115277  11.146407  10.990191   9.768680  12.428991
    38  H    7.693828   9.005988   9.383302   8.550483  10.062497
    39  H    5.479638   6.712422   6.970343   6.092021   7.863520
                   21         22         23         24         25
    21  C    0.000000
    22  C    1.405162   0.000000
    23  C    2.430655   1.398551   0.000000
    24  C    2.807015   2.423087   1.397663   0.000000
    25  C    2.430638   2.797835   2.420527   1.397676   0.000000
    26  C    1.405140   2.425917   2.797872   2.423132   1.398580
    27  F    4.162816   3.660260   2.384807   1.355801   2.384830
    28  H    7.144066   6.644590   7.690376   9.002577   9.380058
    29  H    4.688036   4.300157   5.477491   6.710083   6.967750
    30  H    6.663735   7.174097   8.570362   9.407139   9.030975
    31  H    8.562755   8.769967  10.114693  11.145994  10.990068
    32  H    4.689297   6.090496   6.969422   6.712228   5.479842
    33  H    7.145421   8.548741   9.382010   9.005217   7.693258
    34  H    8.563176   9.768699  10.990429  11.147080  10.116274
    35  H    6.663766   7.719181   9.030733   9.407480   8.571190
    36  H    2.170092   1.083436   2.143962   3.397043   3.881113
    37  H    3.410272   2.153104   1.082443   2.153611   3.401373
    38  H    3.410257   3.880271   3.401355   2.153602   1.082436
    39  H    2.170060   3.415199   3.881143   3.397096   2.144011
                   26         27         28         29         30
    26  C    0.000000
    27  F    3.660310   0.000000
    28  H    8.547409  10.059058   0.000000
    29  H    6.089265   7.861374   2.462059   0.000000
    30  H    7.719636  10.743992   4.963630   4.324049   0.000000
    31  H    9.768707  12.428517   4.295560   4.963462   2.462402
    32  H    4.302154   7.863729   9.866587   7.661722   6.658368
    33  H    6.646854  10.062101  11.914657   9.866496   8.031278
    34  H    8.771285  12.429823  10.455961   9.114331   5.619657
    35  H    7.174854  10.744425   8.031007   6.657862   3.345606
    36  H    3.415206   4.525821   5.608572   3.336199   6.654507
    37  H    3.880314   2.627709   7.612941   5.609327   9.111069
    38  H    2.153132   2.627712  10.447224   8.023624   9.869132
    39  H    1.083430   4.525890   9.109453   6.652954   7.665829
                   31         32         33         34         35
    31  H    0.000000
    32  H    9.114856   0.000000
    33  H   10.456313   2.462108   0.000000
    34  H    7.627496   4.963485   4.295552   0.000000
    35  H    5.619902   4.324049   4.963605   2.462363   0.000000
    36  H    8.024454   6.653797   9.110278   9.868235   7.664850
    37  H   10.448306   8.025217  10.449089  11.914489   9.868589
    38  H   11.914424   5.612024   7.616432  10.450464   9.112328
    39  H    9.868852   3.338456   5.611070   8.026276   6.655771
                   36         37         38         39
    36  H    0.000000
    37  H    2.462179   0.000000
    38  H    4.963536   4.295594   0.000000
    39  H    4.324048   4.963573   2.462256   0.000000
 Stoichiometry    C18H12B3F3O3
 Framework group  C1[X(C18H12B3F3O3)]
 Deg. of freedom   111
 Full point group                 C1      NOp   1
 Largest Abelian subgroup         C1      NOp   1
 Largest concise Abelian subgroup C1      NOp   1
                         Standard orientation:                         
 ---------------------------------------------------------------------
 Center     Atomic      Atomic             Coordinates (Angstroms)
 Number     Number       Type             X           Y           Z
 ---------------------------------------------------------------------
      1          9           0       -5.741124   -4.267007   -0.002503
      2          6           0       -4.652509   -3.458877   -0.001262
      3          6           0       -4.812591   -2.070435   -0.000264
      4          6           0       -3.691287   -1.234650    0.000908
      5          6           0       -2.398605   -1.785636    0.001098
      6          6           0       -2.245118   -3.182363    0.000148
      7          6           0       -3.369709   -4.013872   -0.001032
      8          5           0       -1.134900   -0.846516    0.001996
      9          8           0       -1.293895    0.557080    0.001931
     10          5           0       -0.163745    1.404393    0.001918
     11          8           0        1.131359    0.840466    0.001954
     12          5           0        1.300153   -0.562051    0.002068
     13          8           0        0.164111   -1.401905    0.001992
     14          6           0        2.746219   -1.184877    0.001228
     15          6           0        3.877337   -0.351111    0.001010
     16          6           0        5.160945   -0.906334   -0.000209
     17          6           0        5.324783   -2.294348   -0.001215
     18          6           0        4.204214   -3.129732   -0.000911
     19          6           0        2.918406   -2.579441    0.000325
     20          9           0        6.570200   -2.830184   -0.002535
     21          6           0       -0.346727    2.968076    0.000962
     22          6           0       -1.633976    3.531520    0.000682
     23          6           0       -1.794008    4.920884   -0.000452
     24          6           0       -0.673298    5.756029   -0.001332
     25          6           0        0.610085    5.202469   -0.001049
     26          6           0        0.775473    3.813703    0.000105
     27          9           0       -0.831035    7.102623   -0.002502
     28          1           0       -5.805851   -1.640137   -0.000463
     29          1           0       -3.837531   -0.161135    0.001587
     30          1           0       -1.259767   -3.632811    0.000218
     31          1           0       -3.245344   -5.089143   -0.001839
     32          1           0        3.772514    0.727236    0.001686
     33          1           0        6.028480   -0.258961   -0.000456
     34          1           0        4.330708   -4.204760   -0.001716
     35          1           0        2.063243   -3.244639    0.000434
     36          1           0       -2.515815    2.902080    0.001281
     37          1           0       -2.788124    5.349154   -0.000696
     38          1           0        1.478301    5.848895   -0.001772
     39          1           0        1.778881    3.405055    0.000232
 ---------------------------------------------------------------------
 Rotational constants (GHZ):      0.1266627      0.1264625      0.0632813
 Leave Link  202 at Mon Oct  4 00:47:13 2021, MaxMem= 1610612736 cpu:       0.1
 (Enter /sw/target/amd/app/gaussian/Gaussian09RevA.02_gcc-4.9.2/g09/l301.exe)
 Standard basis: 6-31G(d) (6D, 7F)
 Ernie: Thresh=  0.10000D-02 Tol=  0.10000D-05 Strict=F.
 There are   429 symmetry adapted basis functions of A   symmetry.
 Integral buffers will be    131072 words long.
 Raffenetti 2 integral format.
 Two-electron integral symmetry is turned on.
   429 basis functions,   804 primitive gaussians,   429 cartesian basis functions
    93 alpha electrons       93 beta electrons
       nuclear repulsion energy      2076.0162664732 Hartrees.
 IExCor=  402 DFT=T Ex+Corr=B3LYP ExCW=0 ScaHFX=  0.200000
 ScaDFX=  0.800000  0.720000  1.000000  0.810000 ScalE2=  1.000000  1.000000
 IRadAn=      0 IRanWt=     -1 IRanGd=            0 ICorTp=0
 NAtoms=   39 NActive=   39 NUniq=   39 SFac= 7.50D-01 NAtFMM=   80 NAOKFM=F Big=F
 Leave Link  301 at Mon Oct  4 00:47:13 2021, MaxMem= 1610612736 cpu:       0.1
 (Enter /sw/target/amd/app/gaussian/Gaussian09RevA.02_gcc-4.9.2/g09/l302.exe)
 NPDir=0 NMtPBC=     1 NCelOv=     1 NCel=       1 NClECP=     1 NCelD=      1
         NCelK=      1 NCelE2=     1 NClLst=     1 CellRange=     0.0.
 One-electron integrals computed using PRISM.
 NBasis=   429 RedAO= T  NBF=   429
 NBsUse=   429 1.00D-06 NBFU=   429
 Precomputing XC quadrature grid using
 IXCGrd= 2 IRadAn=           0 IRanWt=          -1 IRanGd=           0 AccXCQ= 1.00D-10.
 NRdTot=    2490 NPtTot=      317448 NUsed=      335398 NTot=      335430
 NSgBfM=   406   406   406   409   409 NAtAll=    39    39.
 Leave Link  302 at Mon Oct  4 00:47:24 2021, MaxMem= 1610612736 cpu:       4.5
 (Enter /sw/target/amd/app/gaussian/Gaussian09RevA.02_gcc-4.9.2/g09/l303.exe)
 DipDrv:  MaxL=1.
 Leave Link  303 at Mon Oct  4 00:47:26 2021, MaxMem= 1610612736 cpu:       0.3
 (Enter /sw/target/amd/app/gaussian/Gaussian09RevA.02_gcc-4.9.2/g09/l401.exe)
 Harris functional with IExCor=  402 diagonalized for initial guess.
 ExpMin= 1.27D-01 ExpMax= 7.00D+03 ExpMxC= 1.05D+03 IAcc=1 IRadAn=         1 AccDes= 0.00D+00
 HarFok:  IExCor=  402 AccDes= 0.00D+00 IRadAn=         1 IDoV= 1
 ScaDFX=  1.000000  1.000000  1.000000  1.000000
 FoFCou: FMM=F IPFlag=           0 FMFlag=      100000 FMFlg1=           0
         NFxFlg=           0 DoJE=T BraDBF=F KetDBF=T FulRan=T
         Omega=  0.000000  0.000000  1.000000  0.000000  0.000000 ICntrl=     500 IOpCl=  0
         NMat0=    1 NMatS0=    1 NMatT0=    0 NMatD0=    1 NMtDS0=    0 NMtDT0=    0
         I1Cent=           4 NGrid=           0.
 Petite list used in FoFCou.
 Harris En= -1293.36806543611    
 Initial guess orbital symmetries:
       Occupied  (A) (A) (A) (A) (A) (A) (A) (A) (A) (A) (A) (A)
                 (A) (A) (A) (A) (A) (A) (A) (A) (A) (A) (A) (A)
                 (A) (A) (A) (A) (A) (A) (A) (A) (A) (A) (A) (A)
                 (A) (A) (A) (A) (A) (A) (A) (A) (A) (A) (A) (A)
                 (A) (A) (A) (A) (A) (A) (A) (A) (A) (A) (A) (A)
                 (A) (A) (A) (A) (A) (A) (A) (A) (A) (A) (A) (A)
                 (A) (A) (A) (A) (A) (A) (A) (A) (A) (A) (A) (A)
                 (A) (A) (A) (A) (A) (A) (A) (A) (A)
       Virtual   (A) (A) (A) (A) (A) (A) (A) (A) (A) (A) (A) (A)
                 (A) (A) (A) (A) (A) (A) (A) (A) (A) (A) (A) (A)
                 (A) (A) (A) (A) (A) (A) (A) (A) (A) (A) (A) (A)
                 (A) (A) (A) (A) (A) (A) (A) (A) (A) (A) (A) (A)
                 (A) (A) (A) (A) (A) (A) (A) (A) (A) (A) (A) (A)
                 (A) (A) (A) (A) (A) (A) (A) (A) (A) (A) (A) (A)
                 (A) (A) (A) (A) (A) (A) (A) (A) (A) (A) (A) (A)
                 (A) (A) (A) (A) (A) (A) (A) (A) (A) (A) (A) (A)
                 (A) (A) (A) (A) (A) (A) (A) (A) (A) (A) (A) (A)
                 (A) (A) (A) (A) (A) (A) (A) (A) (A) (A) (A) (A)
                 (A) (A) (A) (A) (A) (A) (A) (A) (A) (A) (A) (A)
                 (A) (A) (A) (A) (A) (A) (A) (A) (A) (A) (A) (A)
                 (A) (A) (A) (A) (A) (A) (A) (A) (A) (A) (A) (A)
                 (A) (A) (A) (A) (A) (A) (A) (A) (A) (A) (A) (A)
                 (A) (A) (A) (A) (A) (A) (A) (A) (A) (A) (A) (A)
                 (A) (A) (A) (A) (A) (A) (A) (A) (A) (A) (A) (A)
                 (A) (A) (A) (A) (A) (A) (A) (A) (A) (A) (A) (A)
                 (A) (A) (A) (A) (A) (A) (A) (A) (A) (A) (A) (A)
                 (A) (A) (A) (A) (A) (A) (A) (A) (A) (A) (A) (A)
                 (A) (A) (A) (A) (A) (A) (A) (A) (A) (A) (A) (A)
                 (A) (A) (A) (A) (A) (A) (A) (A) (A) (A) (A) (A)
                 (A) (A) (A) (A) (A) (A) (A) (A) (A) (A) (A) (A)
                 (A) (A) (A) (A) (A) (A) (A) (A) (A) (A) (A) (A)
                 (A) (A) (A) (A) (A) (A) (A) (A) (A) (A) (A) (A)
                 (A) (A) (A) (A) (A) (A) (A) (A) (A) (A) (A) (A)
                 (A) (A) (A) (A) (A) (A) (A) (A) (A) (A) (A) (A)
                 (A) (A) (A) (A) (A) (A) (A) (A) (A) (A) (A) (A)
                 (A) (A) (A) (A) (A) (A) (A) (A) (A) (A) (A) (A)
 The electronic state of the initial guess is 1-A.
 Leave Link  401 at Mon Oct  4 00:47:54 2021, MaxMem= 1610612736 cpu:      18.9
 (Enter /sw/target/amd/app/gaussian/Gaussian09RevA.02_gcc-4.9.2/g09/l502.exe)
 Closed shell SCF:
 Requested convergence on RMS density matrix=1.00D-08 within  64 cycles.
 Requested convergence on MAX density matrix=1.00D-06.
 Requested convergence on             energy=1.00D-06.
 No special actions if energy rises.
 Using DIIS extrapolation, IDIIS=  1040.
 Integral symmetry usage will be decided dynamically.
       335034 words used for storage of precomputed grid.
 IEnd=      898482 IEndB=      898482 NGot=  1610612736 MDV=  1609902949
 LenX=  1609902949 LenY=  1609718467
 Fock matrices will be formed incrementally for  20 cycles.
 Integral accuracy reduced to 1.0D-05 until final iterations.

 Cycle   1  Pass 0  IDiag  1:
 FoFCou: FMM=F IPFlag=           0 FMFlag=      100000 FMFlg1=           0
         NFxFlg=           0 DoJE=F BraDBF=F KetDBF=F FulRan=T
         Omega=  0.000000  0.000000  1.000000  0.000000  0.000000 ICntrl=       0 IOpCl=  0
         NMat0=    1 NMatS0=    1 NMatT0=    0 NMatD0=    1 NMtDS0=    0 NMtDT0=    0
         I1Cent=           0 NGrid=           0.
 Symmetry not used in FoFCou.
 E= -1292.62410522778    
 DIIS: error= 4.80D-02 at cycle   1 NSaved=   1.
 NSaved= 1 IEnMin= 1 EnMin= -1292.62410522778     IErMin= 1 ErrMin= 4.80D-02
 ErrMax= 4.80D-02 EMaxC= 1.00D-01 BMatC= 6.42D-01 BMatP= 6.42D-01
 IDIUse=3 WtCom= 5.20D-01 WtEn= 4.80D-01
 Coeff-Com:  0.100D+01
 Coeff-En:   0.100D+01
 Coeff:      0.100D+01
 Gap=     0.198 Goal=   None    Shift=    0.000
 GapD=    0.198 DampG=1.000 DampE=0.500 DampFc=0.5000 IDamp=-1.
 Damping current iteration by 5.00D-01
 RMSDP=3.93D-03 MaxDP=1.57D-01              OVMax= 2.57D-01

 Cycle   2  Pass 0  IDiag  1:
 RMSU=  1.37D-03    CP:  9.79D-01
 E= -1292.86471642626     Delta-E=       -0.240611198480 Rises=F Damp=T
 DIIS: error= 9.03D-03 at cycle   2 NSaved=   2.
 NSaved= 2 IEnMin= 2 EnMin= -1292.86471642626     IErMin= 2 ErrMin= 9.03D-03
 ErrMax= 9.03D-03 EMaxC= 1.00D-01 BMatC= 4.99D-02 BMatP= 6.42D-01
 IDIUse=3 WtCom= 9.10D-01 WtEn= 9.03D-02
 Coeff-Com:  0.118D+00 0.882D+00
 Coeff-En:   0.204D+00 0.796D+00
 Coeff:      0.126D+00 0.874D+00
 Gap=     0.207 Goal=   None    Shift=    0.000
 RMSDP=1.12D-03 MaxDP=5.13D-02 DE=-2.41D-01 OVMax= 2.25D-01

 Cycle   3  Pass 0  IDiag  1:
 RMSU=  7.50D-04    CP:  9.75D-01  8.18D-01
 E= -1293.19755016303     Delta-E=       -0.332833736769 Rises=F Damp=F
 DIIS: error= 1.04D-02 at cycle   3 NSaved=   3.
 NSaved= 3 IEnMin= 3 EnMin= -1293.19755016303     IErMin= 2 ErrMin= 9.03D-03
 ErrMax= 1.04D-02 EMaxC= 1.00D-01 BMatC= 3.39D-02 BMatP= 4.99D-02
 IDIUse=3 WtCom= 8.96D-01 WtEn= 1.04D-01
 Coeff-Com:  0.140D-01 0.444D+00 0.542D+00
 Coeff-En:   0.000D+00 0.000D+00 0.100D+01
 Coeff:      0.125D-01 0.398D+00 0.590D+00
 Gap=     0.212 Goal=   None    Shift=    0.000
 RMSDP=7.09D-04 MaxDP=3.31D-02 DE=-3.33D-01 OVMax= 7.90D-02

 Cycle   4  Pass 0  IDiag  1:
 RMSU=  3.20D-04    CP:  9.76D-01  9.03D-01  5.10D-01
 E= -1293.22205435391     Delta-E=       -0.024504190884 Rises=F Damp=F
 DIIS: error= 6.67D-03 at cycle   4 NSaved=   4.
 NSaved= 4 IEnMin= 4 EnMin= -1293.22205435391     IErMin= 4 ErrMin= 6.67D-03
 ErrMax= 6.67D-03 EMaxC= 1.00D-01 BMatC= 9.79D-03 BMatP= 3.39D-02
 IDIUse=3 WtCom= 9.33D-01 WtEn= 6.67D-02
 Coeff-Com: -0.358D-02 0.112D+00 0.362D+00 0.530D+00
 Coeff-En:   0.000D+00 0.000D+00 0.276D+00 0.724D+00
 Coeff:     -0.334D-02 0.105D+00 0.356D+00 0.543D+00
 Gap=     0.201 Goal=   None    Shift=    0.000
 RMSDP=3.24D-04 MaxDP=1.12D-02 DE=-2.45D-02 OVMax= 3.42D-02

 Cycle   5  Pass 0  IDiag  1:
 RMSU=  9.52D-05    CP:  9.76D-01  8.60D-01  6.83D-01  5.28D-01
 E= -1293.23285004342     Delta-E=       -0.010795689510 Rises=F Damp=F
 DIIS: error= 1.42D-03 at cycle   5 NSaved=   5.
 NSaved= 5 IEnMin= 5 EnMin= -1293.23285004342     IErMin= 5 ErrMin= 1.42D-03
 ErrMax= 1.42D-03 EMaxC= 1.00D-01 BMatC= 8.43D-04 BMatP= 9.79D-03
 IDIUse=3 WtCom= 9.86D-01 WtEn= 1.42D-02
 Coeff-Com: -0.287D-02 0.227D-01 0.155D+00 0.318D+00 0.507D+00
 Coeff-En:   0.000D+00 0.000D+00 0.000D+00 0.215D-01 0.978D+00
 Coeff:     -0.283D-02 0.224D-01 0.153D+00 0.314D+00 0.514D+00
 Gap=     0.201 Goal=   None    Shift=    0.000
 RMSDP=8.14D-05 MaxDP=3.12D-03 DE=-1.08D-02 OVMax= 7.55D-03

 Cycle   6  Pass 0  IDiag  1:
 RMSU=  2.93D-05    CP:  9.76D-01  8.73D-01  6.67D-01  5.90D-01  5.77D-01
 E= -1293.23367576089     Delta-E=       -0.000825717467 Rises=F Damp=F
 DIIS: error= 3.91D-04 at cycle   6 NSaved=   6.
 NSaved= 6 IEnMin= 6 EnMin= -1293.23367576089     IErMin= 6 ErrMin= 3.91D-04
 ErrMax= 3.91D-04 EMaxC= 1.00D-01 BMatC= 5.74D-05 BMatP= 8.43D-04
 IDIUse=3 WtCom= 9.96D-01 WtEn= 3.91D-03
 Coeff-Com: -0.883D-03 0.677D-03 0.407D-01 0.104D+00 0.271D+00 0.584D+00
 Coeff-En:   0.000D+00 0.000D+00 0.000D+00 0.000D+00 0.000D+00 0.100D+01
 Coeff:     -0.880D-03 0.674D-03 0.406D-01 0.104D+00 0.270D+00 0.586D+00
 Gap=     0.201 Goal=   None    Shift=    0.000
 RMSDP=1.76D-05 MaxDP=8.55D-04 DE=-8.26D-04 OVMax= 1.19D-03

 Cycle   7  Pass 0  IDiag  1:
 RMSU=  6.24D-06    CP:  9.76D-01  8.72D-01  6.69D-01  5.97D-01  6.16D-01
                    CP:  6.70D-01
 E= -1293.23372353674     Delta-E=       -0.000047775846 Rises=F Damp=F
 DIIS: error= 5.50D-05 at cycle   7 NSaved=   7.
 NSaved= 7 IEnMin= 7 EnMin= -1293.23372353674     IErMin= 7 ErrMin= 5.50D-05
 ErrMax= 5.50D-05 EMaxC= 1.00D-01 BMatC= 1.05D-06 BMatP= 5.74D-05
 IDIUse=1 WtCom= 1.00D+00 WtEn= 0.00D+00
 Coeff-Com: -0.155D-03-0.616D-03 0.941D-02 0.248D-01 0.814D-01 0.217D+00
 Coeff-Com:  0.668D+00
 Coeff:     -0.155D-03-0.616D-03 0.941D-02 0.248D-01 0.814D-01 0.217D+00
 Coeff:      0.668D+00
 Gap=     0.201 Goal=   None    Shift=    0.000
 RMSDP=4.02D-06 MaxDP=1.14D-04 DE=-4.78D-05 OVMax= 2.28D-04

 Initial convergence to 1.0D-05 achieved.  Increase integral accuracy.
 Cycle   8  Pass 1  IDiag  1:
 E= -1293.23378484437     Delta-E=       -0.000061307632 Rises=F Damp=F
 DIIS: error= 3.88D-05 at cycle   1 NSaved=   1.
 NSaved= 1 IEnMin= 1 EnMin= -1293.23378484437     IErMin= 1 ErrMin= 3.88D-05
 ErrMax= 3.88D-05 EMaxC= 1.00D-01 BMatC= 5.37D-07 BMatP= 5.37D-07
 IDIUse=1 WtCom= 1.00D+00 WtEn= 0.00D+00
 Coeff-Com:  0.100D+01
 Coeff:      0.100D+01
 Gap=     0.201 Goal=   None    Shift=    0.000
 RMSDP=4.02D-06 MaxDP=1.14D-04 DE=-6.13D-05 OVMax= 1.77D-04

 Cycle   9  Pass 1  IDiag  1:
 RMSU=  1.02D-05    CP:  1.00D+00
 E= -1293.23378515725     Delta-E=       -0.000000312879 Rises=F Damp=F
 DIIS: error= 2.07D-05 at cycle   2 NSaved=   2.
 NSaved= 2 IEnMin= 2 EnMin= -1293.23378515725     IErMin= 2 ErrMin= 2.07D-05
 ErrMax= 2.07D-05 EMaxC= 1.00D-01 BMatC= 3.14D-07 BMatP= 5.37D-07
 IDIUse=1 WtCom= 1.00D+00 WtEn= 0.00D+00
 Coeff-Com:  0.411D+00 0.589D+00
 Coeff:      0.411D+00 0.589D+00
 Gap=     0.201 Goal=   None    Shift=    0.000
 RMSDP=1.66D-06 MaxDP=1.08D-04 DE=-3.13D-07 OVMax= 1.47D-04

 Cycle  10  Pass 1  IDiag  1:
 RMSU=  1.17D-06    CP:  1.00D+00  9.92D-01
 E= -1293.23378537983     Delta-E=       -0.000000222585 Rises=F Damp=F
 DIIS: error= 1.08D-05 at cycle   3 NSaved=   3.
 NSaved= 3 IEnMin= 3 EnMin= -1293.23378537983     IErMin= 3 ErrMin= 1.08D-05
 ErrMax= 1.08D-05 EMaxC= 1.00D-01 BMatC= 6.84D-08 BMatP= 3.14D-07
 IDIUse=1 WtCom= 1.00D+00 WtEn= 0.00D+00
 Coeff-Com: -0.797D-02 0.315D+00 0.692D+00
 Coeff:     -0.797D-02 0.315D+00 0.692D+00
 Gap=     0.201 Goal=   None    Shift=    0.000
 RMSDP=5.64D-07 MaxDP=3.46D-05 DE=-2.23D-07 OVMax= 5.21D-05

 Cycle  11  Pass 1  IDiag  1:
 RMSU=  1.44D-07    CP:  1.00D+00  1.00D+00  7.01D-01
 E= -1293.23378543816     Delta-E=       -0.000000058325 Rises=F Damp=F
 DIIS: error= 2.04D-06 at cycle   4 NSaved=   4.
 NSaved= 4 IEnMin= 4 EnMin= -1293.23378543816     IErMin= 4 ErrMin= 2.04D-06
 ErrMax= 2.04D-06 EMaxC= 1.00D-01 BMatC= 1.87D-09 BMatP= 6.84D-08
 IDIUse=1 WtCom= 1.00D+00 WtEn= 0.00D+00
 Coeff-Com: -0.911D-02 0.177D+00 0.401D+00 0.431D+00
 Coeff:     -0.911D-02 0.177D+00 0.401D+00 0.431D+00
 Gap=     0.201 Goal=   None    Shift=    0.000
 RMSDP=1.28D-07 MaxDP=4.92D-06 DE=-5.83D-08 OVMax= 1.33D-05

 Cycle  12  Pass 1  IDiag  1:
 RMSU=  5.92D-08    CP:  1.00D+00  1.00D+00  7.03D-01  5.27D-01
 E= -1293.23378543996     Delta-E=       -0.000000001799 Rises=F Damp=F
 DIIS: error= 6.47D-07 at cycle   5 NSaved=   5.
 NSaved= 5 IEnMin= 5 EnMin= -1293.23378543996     IErMin= 5 ErrMin= 6.47D-07
 ErrMax= 6.47D-07 EMaxC= 1.00D-01 BMatC= 1.19D-10 BMatP= 1.87D-09
 IDIUse=1 WtCom= 1.00D+00 WtEn= 0.00D+00
 Coeff-Com: -0.366D-02 0.518D-01 0.118D+00 0.230D+00 0.604D+00
 Coeff:     -0.366D-02 0.518D-01 0.118D+00 0.230D+00 0.604D+00
 Gap=     0.201 Goal=   None    Shift=    0.000
 RMSDP=3.37D-08 MaxDP=1.19D-06 DE=-1.80D-09 OVMax= 3.67D-06

 Cycle  13  Pass 1  IDiag  1:
 RMSU=  1.54D-08    CP:  1.00D+00  1.00D+00  7.01D-01  6.16D-01  7.88D-01
 E= -1293.23378544010     Delta-E=       -0.000000000147 Rises=F Damp=F
 DIIS: error= 1.92D-07 at cycle   6 NSaved=   6.
 NSaved= 6 IEnMin= 6 EnMin= -1293.23378544010     IErMin= 6 ErrMin= 1.92D-07
 ErrMax= 1.92D-07 EMaxC= 1.00D-01 BMatC= 1.50D-11 BMatP= 1.19D-10
 IDIUse=1 WtCom= 1.00D+00 WtEn= 0.00D+00
 Coeff-Com: -0.100D-02 0.107D-01 0.237D-01 0.875D-01 0.338D+00 0.541D+00
 Coeff:     -0.100D-02 0.107D-01 0.237D-01 0.875D-01 0.338D+00 0.541D+00
 Gap=     0.201 Goal=   None    Shift=    0.000
 RMSDP=1.14D-08 MaxDP=5.63D-07 DE=-1.47D-10 OVMax= 1.27D-06

 Cycle  14  Pass 1  IDiag  1:
 RMSU=  4.81D-09    CP:  1.00D+00  1.00D+00  7.01D-01  6.11D-01  8.26D-01
                    CP:  6.15D-01
 E= -1293.23378544015     Delta-E=       -0.000000000046 Rises=F Damp=F
 DIIS: error= 5.47D-08 at cycle   7 NSaved=   7.
 NSaved= 7 IEnMin= 7 EnMin= -1293.23378544015     IErMin= 7 ErrMin= 5.47D-08
 ErrMax= 5.47D-08 EMaxC= 1.00D-01 BMatC= 1.58D-12 BMatP= 1.50D-11
 IDIUse=1 WtCom= 1.00D+00 WtEn= 0.00D+00
 Coeff-Com: -0.110D-03-0.447D-03-0.164D-02 0.208D-01 0.114D+00 0.303D+00
 Coeff-Com:  0.565D+00
 Coeff:     -0.110D-03-0.447D-03-0.164D-02 0.208D-01 0.114D+00 0.303D+00
 Coeff:      0.565D+00
 Gap=     0.201 Goal=   None    Shift=    0.000
 RMSDP=3.12D-09 MaxDP=1.32D-07 DE=-4.59D-11 OVMax= 2.59D-07

 SCF Done:  E(RB3LYP) =  -1293.23378544     A.U. after   14 cycles
             Convg  =    0.3118D-08             -V/T =  2.0093
 KE= 1.281380727641D+03 PE=-7.175977830094D+03 EE= 2.525347050540D+03
 Leave Link  502 at Mon Oct  4 01:06:13 2021, MaxMem= 1610612736 cpu:     889.1
 (Enter /sw/target/amd/app/gaussian/Gaussian09RevA.02_gcc-4.9.2/g09/l508.exe)
 QCSCF skips out because SCF is already converged.
 Leave Link  508 at Mon Oct  4 01:06:13 2021, MaxMem= 1610612736 cpu:       0.0
 (Enter /sw/target/amd/app/gaussian/Gaussian09RevA.02_gcc-4.9.2/g09/l601.exe)
 Copying SCF densities to generalized density rwf, IOpCl= 0 IROHF=0.

 **********************************************************************

            Population analysis using the SCF density.

 **********************************************************************

 Orbital symmetries:
       Occupied  (A) (A) (A) (A) (A) (A) (A) (A) (A) (A) (A) (A)
                 (A) (A) (A) (A) (A) (A) (A) (A) (A) (A) (A) (A)
                 (A) (A) (A) (A) (A) (A) (A) (A) (A) (A) (A) (A)
                 (A) (A) (A) (A) (A) (A) (A) (A) (A) (A) (A) (A)
                 (A) (A) (A) (A) (A) (A) (A) (A) (A) (A) (A) (A)
                 (A) (A) (A) (A) (A) (A) (A) (A) (A) (A) (A) (A)
                 (A) (A) (A) (A) (A) (A) (A) (A) (A) (A) (A) (A)
                 (A) (A) (A) (A) (A) (A) (A) (A) (A)
       Virtual   (A) (A) (A) (A) (A) (A) (A) (A) (A) (A) (A) (A)
                 (A) (A) (A) (A) (A) (A) (A) (A) (A) (A) (A) (A)
                 (A) (A) (A) (A) (A) (A) (A) (A) (A) (A) (A) (A)
                 (A) (A) (A) (A) (A) (A) (A) (A) (A) (A) (A) (A)
                 (A) (A) (A) (A) (A) (A) (A) (A) (A) (A) (A) (A)
                 (A) (A) (A) (A) (A) (A) (A) (A) (A) (A) (A) (A)
                 (A) (A) (A) (A) (A) (A) (A) (A) (A) (A) (A) (A)
                 (A) (A) (A) (A) (A) (A) (A) (A) (A) (A) (A) (A)
                 (A) (A) (A) (A) (A) (A) (A) (A) (A) (A) (A) (A)
                 (A) (A) (A) (A) (A) (A) (A) (A) (A) (A) (A) (A)
                 (A) (A) (A) (A) (A) (A) (A) (A) (A) (A) (A) (A)
                 (A) (A) (A) (A) (A) (A) (A) (A) (A) (A) (A) (A)
                 (A) (A) (A) (A) (A) (A) (A) (A) (A) (A) (A) (A)
                 (A) (A) (A) (A) (A) (A) (A) (A) (A) (A) (A) (A)
                 (A) (A) (A) (A) (A) (A) (A) (A) (A) (A) (A) (A)
                 (A) (A) (A) (A) (A) (A) (A) (A) (A) (A) (A) (A)
                 (A) (A) (A) (A) (A) (A) (A) (A) (A) (A) (A) (A)
                 (A) (A) (A) (A) (A) (A) (A) (A) (A) (A) (A) (A)
                 (A) (A) (A) (A) (A) (A) (A) (A) (A) (A) (A) (A)
                 (A) (A) (A) (A) (A) (A) (A) (A) (A) (A) (A) (A)
                 (A) (A) (A) (A) (A) (A) (A) (A) (A) (A) (A) (A)
                 (A) (A) (A) (A) (A) (A) (A) (A) (A) (A) (A) (A)
                 (A) (A) (A) (A) (A) (A) (A) (A) (A) (A) (A) (A)
                 (A) (A) (A) (A) (A) (A) (A) (A) (A) (A) (A) (A)
                 (A) (A) (A) (A) (A) (A) (A) (A) (A) (A) (A) (A)
                 (A) (A) (A) (A) (A) (A) (A) (A) (A) (A) (A) (A)
                 (A) (A) (A) (A) (A) (A) (A) (A) (A) (A) (A) (A)
                 (A) (A) (A) (A) (A) (A) (A) (A) (A) (A) (A) (A)
 The electronic state is 1-A.
 Alpha  occ. eigenvalues --  -24.71302 -24.71302 -24.71301 -19.17560 -19.17556
 Alpha  occ. eigenvalues --  -19.17555 -10.28454 -10.28454 -10.28454 -10.20683
 Alpha  occ. eigenvalues --  -10.20683 -10.20682 -10.20682 -10.20681 -10.20681
 Alpha  occ. eigenvalues --  -10.20266 -10.20266 -10.20265 -10.20265 -10.20265
 Alpha  occ. eigenvalues --  -10.20264 -10.18421 -10.18419 -10.18417  -6.81880
 Alpha  occ. eigenvalues --   -6.81878  -6.81872  -1.22087  -1.22087  -1.22086
 Alpha  occ. eigenvalues --   -1.05810  -1.00599  -1.00595  -0.86288  -0.86288
 Alpha  occ. eigenvalues --   -0.86253  -0.76010  -0.75999  -0.75998  -0.75200
 Alpha  occ. eigenvalues --   -0.75200  -0.74967  -0.62855  -0.62853  -0.62746
 Alpha  occ. eigenvalues --   -0.62081  -0.62081  -0.61392  -0.57038  -0.57035
 Alpha  occ. eigenvalues --   -0.54844  -0.54484  -0.54483  -0.52909  -0.50044
 Alpha  occ. eigenvalues --   -0.48815  -0.48815  -0.47814  -0.47285  -0.47285
 Alpha  occ. eigenvalues --   -0.47000  -0.46284  -0.46273  -0.46272  -0.44806
 Alpha  occ. eigenvalues --   -0.44804  -0.44180  -0.43919  -0.43454  -0.43453
 Alpha  occ. eigenvalues --   -0.43338  -0.39950  -0.39950  -0.39738  -0.37630
 Alpha  occ. eigenvalues --   -0.37628  -0.36306  -0.36304  -0.36085  -0.35927
 Alpha  occ. eigenvalues --   -0.35441  -0.35441  -0.35009  -0.35008  -0.34879
 Alpha  occ. eigenvalues --   -0.32400  -0.32398  -0.26412  -0.26412  -0.26411
 Alpha  occ. eigenvalues --   -0.25512  -0.25511  -0.25038
 Alpha virt. eigenvalues --   -0.04920  -0.04920  -0.02251  -0.01454  -0.01441
 Alpha virt. eigenvalues --   -0.01441   0.05852   0.05854   0.06783   0.08711
 Alpha virt. eigenvalues --    0.08715   0.09177   0.11993   0.12081   0.12091
 Alpha virt. eigenvalues --    0.14636   0.14687   0.14692   0.14768   0.16460
 Alpha virt. eigenvalues --    0.16769   0.16770   0.17040   0.17041   0.17058
 Alpha virt. eigenvalues --    0.18941   0.18946   0.20626   0.20645   0.22335
 Alpha virt. eigenvalues --    0.24932   0.24939   0.25342   0.27136   0.27143
 Alpha virt. eigenvalues --    0.28927   0.31050   0.31184   0.31186   0.31655
 Alpha virt. eigenvalues --    0.32867   0.32872   0.35267   0.36769   0.36773
 Alpha virt. eigenvalues --    0.38088   0.39006   0.39012   0.39998   0.42555
 Alpha virt. eigenvalues --    0.42561   0.44497   0.45442   0.45448   0.46159
 Alpha virt. eigenvalues --    0.46162   0.51245   0.51430   0.51579   0.52067
 Alpha virt. eigenvalues --    0.52070   0.52359   0.52360   0.54395   0.54397
 Alpha virt. eigenvalues --    0.54467   0.56740   0.56742   0.58022   0.58095
 Alpha virt. eigenvalues --    0.58095   0.58239   0.58524   0.58525   0.58597
 Alpha virt. eigenvalues --    0.58878   0.58879   0.59463   0.59952   0.59958
 Alpha virt. eigenvalues --    0.60074   0.60903   0.61091   0.63298   0.63302
 Alpha virt. eigenvalues --    0.63552   0.63553   0.64734   0.64736   0.64934
 Alpha virt. eigenvalues --    0.68238   0.70020   0.71473   0.71476   0.73814
 Alpha virt. eigenvalues --    0.73818   0.76421   0.77981   0.78550   0.78699
 Alpha virt. eigenvalues --    0.78702   0.78710   0.78711   0.79618   0.79623
 Alpha virt. eigenvalues --    0.82760   0.82770   0.84222   0.84777   0.84779
 Alpha virt. eigenvalues --    0.86359   0.88850   0.88852   0.89249   0.91186
 Alpha virt. eigenvalues --    0.91307   0.91320   0.95084   0.95214   0.95352
 Alpha virt. eigenvalues --    0.95387   0.95867   0.95869   0.98258   0.98258
 Alpha virt. eigenvalues --    0.99629   0.99655   1.00288   1.05054   1.05061
 Alpha virt. eigenvalues --    1.06035   1.06338   1.07833   1.09614   1.13554
 Alpha virt. eigenvalues --    1.13561   1.14034   1.14456   1.15033   1.15037
 Alpha virt. eigenvalues --    1.15856   1.15861   1.16176   1.16187   1.17119
 Alpha virt. eigenvalues --    1.17973   1.18894   1.18900   1.20062   1.22501
 Alpha virt. eigenvalues --    1.22689   1.22689   1.23317   1.23318   1.23651
 Alpha virt. eigenvalues --    1.23888   1.23899   1.32358   1.32854   1.32869
 Alpha virt. eigenvalues --    1.34308   1.36516   1.36530   1.37948   1.37956
 Alpha virt. eigenvalues --    1.39071   1.40860   1.40975   1.40978   1.41097
 Alpha virt. eigenvalues --    1.41097   1.41572   1.41856   1.42269   1.42279
 Alpha virt. eigenvalues --    1.44944   1.45007   1.45007   1.45388   1.46132
 Alpha virt. eigenvalues --    1.46133   1.48325   1.49651   1.49720   1.49720
 Alpha virt. eigenvalues --    1.51183   1.51184   1.53504   1.56593   1.56599
 Alpha virt. eigenvalues --    1.65815   1.66370   1.70574   1.70576   1.70709
 Alpha virt. eigenvalues --    1.70721   1.74085   1.74856   1.74859   1.77968
 Alpha virt. eigenvalues --    1.77974   1.78534   1.79438   1.79623   1.79628
 Alpha virt. eigenvalues --    1.80754   1.80758   1.82294   1.82295   1.82297
 Alpha virt. eigenvalues --    1.86827   1.86928   1.86929   1.89164   1.89183
 Alpha virt. eigenvalues --    1.89185   1.93729   1.93738   1.93836   1.96873
 Alpha virt. eigenvalues --    1.96873   1.97283   1.97836   1.97843   1.98138
 Alpha virt. eigenvalues --    1.99032   1.99163   1.99168   2.00401   2.00407
 Alpha virt. eigenvalues --    2.01022   2.04743   2.04746   2.10576   2.10578
 Alpha virt. eigenvalues --    2.11372   2.12180   2.12181   2.12832   2.13194
 Alpha virt. eigenvalues --    2.15113   2.15123   2.15383   2.16488   2.16516
 Alpha virt. eigenvalues --    2.16525   2.18683   2.18683   2.18949   2.20033
 Alpha virt. eigenvalues --    2.20034   2.28042   2.28606   2.28606   2.28925
 Alpha virt. eigenvalues --    2.28948   2.28954   2.28955   2.31347   2.31355
 Alpha virt. eigenvalues --    2.32389   2.32401   2.40104   2.40117   2.41223
 Alpha virt. eigenvalues --    2.45663   2.50651   2.50657   2.51261   2.52357
 Alpha virt. eigenvalues --    2.52358   2.52528   2.55134   2.58296   2.58298
 Alpha virt. eigenvalues --    2.61579   2.64229   2.64231   2.65903   2.65957
 Alpha virt. eigenvalues --    2.66224   2.66235   2.69230   2.70311   2.70323
 Alpha virt. eigenvalues --    2.72643   2.72644   2.73405   2.78393   2.78401
 Alpha virt. eigenvalues --    2.80295   2.82757   2.82771   2.87438   2.87443
 Alpha virt. eigenvalues --    2.88131   2.97301   2.97307   3.03556   3.08866
 Alpha virt. eigenvalues --    3.09710   3.09713   3.15376   3.15382   3.19064
 Alpha virt. eigenvalues --    3.20156   3.38467   3.38471   3.40715   3.68499
 Alpha virt. eigenvalues --    3.68516   3.78238   4.00940   4.07502   4.07513
 Alpha virt. eigenvalues --    4.07515   4.10016   4.10017   4.11021   4.18790
 Alpha virt. eigenvalues --    4.18879   4.18881   4.29495   4.29496   4.32740
 Alpha virt. eigenvalues --    4.35750   4.35752   4.41314   4.47503   4.47517
 Alpha virt. eigenvalues --    4.65960   4.65970   4.66746   5.31533   5.31538
 Alpha virt. eigenvalues --    5.31565
          Condensed to atoms (all electrons):
              1          2          3          4          5          6
     1  F    9.071730   0.304206  -0.043613   0.002849  -0.000058   0.002847
     2  C    0.304206   4.466442   0.477342  -0.002151  -0.035205  -0.002159
     3  C   -0.043613   0.477342   5.150854   0.434857  -0.019433  -0.041170
     4  C    0.002849  -0.002151   0.434857   5.034188   0.487675  -0.034211
     5  C   -0.000058  -0.035205  -0.019433   0.487675   4.835674   0.487582
     6  C    0.002847  -0.002159  -0.041170  -0.034211   0.487582   5.034229
     7  C   -0.043602   0.477429  -0.079221  -0.041164  -0.019406   0.434870
     8  B    0.000000   0.000286   0.006261  -0.036510   0.400719  -0.036482
     9  O   -0.000000  -0.000001   0.000241   0.004228  -0.050306   0.000352
    10  B   -0.000000  -0.000000   0.000009  -0.000459  -0.000795   0.000238
    11  O    0.000000  -0.000000   0.000000   0.000009  -0.000265   0.000009
    12  B   -0.000000  -0.000000  -0.000001   0.000238  -0.000796  -0.000458
    13  O   -0.000000  -0.000001  -0.000029   0.000350  -0.050157   0.004216
    14  C    0.000000   0.000000  -0.000000   0.000001   0.000035  -0.000008
    15  C    0.000000   0.000000   0.000000  -0.000000   0.000001  -0.000000
    16  C    0.000000   0.000000  -0.000000   0.000000  -0.000000  -0.000000
    17  C    0.000000  -0.000000   0.000000   0.000000   0.000000   0.000000
    18  C   -0.000000  -0.000000   0.000000   0.000000  -0.000000   0.000000
    19  C    0.000000   0.000000  -0.000000  -0.000000  -0.000007  -0.000026
    20  F    0.000000   0.000000   0.000000   0.000000   0.000000   0.000000
    21  C    0.000000   0.000000  -0.000000  -0.000008   0.000036   0.000001
    22  C    0.000000   0.000000   0.000000  -0.000026  -0.000008  -0.000000
    23  C   -0.000000  -0.000000   0.000000   0.000000  -0.000000   0.000000
    24  C    0.000000  -0.000000  -0.000000   0.000000   0.000000   0.000000
    25  C    0.000000   0.000000   0.000000  -0.000000  -0.000000   0.000000
    26  C    0.000000   0.000000   0.000000  -0.000000   0.000001  -0.000000
    27  F    0.000000   0.000000  -0.000000   0.000000   0.000000   0.000000
    28  H   -0.001170  -0.036600   0.349125  -0.039903   0.003925   0.000264
    29  H   -0.000019   0.003240  -0.046272   0.361978  -0.042581   0.006560
    30  H   -0.000019   0.003239  -0.000023   0.006557  -0.042638   0.362011
    31  H   -0.001168  -0.036598   0.006654   0.000263   0.003925  -0.039896
    32  H   -0.000000   0.000000   0.000000  -0.000000   0.000000  -0.000000
    33  H    0.000000   0.000000   0.000000  -0.000000   0.000000  -0.000000
    34  H    0.000000  -0.000000   0.000000  -0.000000   0.000000   0.000000
    35  H   -0.000000   0.000000   0.000000  -0.000000  -0.000047  -0.000022
    36  H   -0.000000   0.000000   0.000001  -0.000023  -0.000048  -0.000000
    37  H    0.000000  -0.000000  -0.000000   0.000000   0.000000  -0.000000
    38  H    0.000000   0.000000   0.000000  -0.000000   0.000000  -0.000000
    39  H   -0.000000   0.000000  -0.000000  -0.000000   0.000000  -0.000000
              7          8          9         10         11         12
     1  F   -0.043602   0.000000  -0.000000  -0.000000   0.000000  -0.000000
     2  C    0.477429   0.000286  -0.000001  -0.000000  -0.000000  -0.000000
     3  C   -0.079221   0.006261   0.000241   0.000009   0.000000  -0.000001
     4  C   -0.041164  -0.036510   0.004228  -0.000459   0.000009   0.000238
     5  C   -0.019406   0.400719  -0.050306  -0.000795  -0.000265  -0.000796
     6  C    0.434870  -0.036482   0.000352   0.000238   0.000009  -0.000458
     7  C    5.150793   0.006259  -0.000029  -0.000001   0.000000   0.000009
     8  B    0.006259   3.483993   0.388960  -0.005802  -0.019336  -0.005711
     9  O   -0.000029   0.388960   7.800032   0.389030  -0.025987  -0.019353
    10  B   -0.000001  -0.005802   0.389030   3.484318   0.389025  -0.005761
    11  O    0.000000  -0.019336  -0.025987   0.389025   7.799966   0.388924
    12  B    0.000009  -0.005711  -0.019353  -0.005761   0.388924   3.484553
    13  O    0.000238   0.388915  -0.025967  -0.019349  -0.025992   0.388943
    14  C   -0.000000  -0.000802  -0.000265  -0.000796  -0.050285   0.400709
    15  C    0.000000   0.000238   0.000009  -0.000459   0.004221  -0.036460
    16  C    0.000000  -0.000001   0.000000   0.000009   0.000240   0.006264
    17  C   -0.000000  -0.000000  -0.000000  -0.000000  -0.000001   0.000285
    18  C    0.000000   0.000009   0.000000  -0.000001  -0.000029   0.006264
    19  C    0.000000  -0.000458   0.000009   0.000238   0.000353  -0.036471
    20  F   -0.000000  -0.000000   0.000000  -0.000000  -0.000000   0.000000
    21  C   -0.000000  -0.000801  -0.050273   0.400715  -0.050241  -0.000792
    22  C   -0.000000  -0.000458   0.004221  -0.036501   0.000351   0.000238
    23  C    0.000000   0.000009   0.000240   0.006262  -0.000029  -0.000001
    24  C    0.000000  -0.000000  -0.000001   0.000285  -0.000001  -0.000000
    25  C   -0.000000  -0.000001  -0.000029   0.006265   0.000239   0.000009
    26  C    0.000000   0.000238   0.000352  -0.036480   0.004227  -0.000459
    27  F    0.000000  -0.000000  -0.000000   0.000000  -0.000000  -0.000000
    28  H    0.006651  -0.000179  -0.000000  -0.000000   0.000000   0.000000
    29  H   -0.000024  -0.009752   0.007658   0.000279   0.000003   0.000019
    30  H   -0.046263  -0.009714   0.000074   0.000019   0.000003   0.000277
    31  H    0.349117  -0.000179   0.000000   0.000000   0.000000  -0.000000
    32  H   -0.000000   0.000019   0.000003   0.000279   0.007649  -0.009744
    33  H    0.000000   0.000000   0.000000  -0.000000  -0.000000  -0.000179
    34  H   -0.000000  -0.000000   0.000000   0.000000   0.000000  -0.000179
    35  H    0.000001   0.000278   0.000003   0.000019   0.000074  -0.009721
    36  H    0.000000   0.000278   0.007647  -0.009749   0.000074   0.000019
    37  H    0.000000  -0.000000  -0.000000  -0.000179   0.000000   0.000000
    38  H    0.000000   0.000000   0.000000  -0.000179  -0.000000  -0.000000
    39  H    0.000000   0.000019   0.000074  -0.009728   0.007622   0.000277
             13         14         15         16         17         18
     1  F   -0.000000   0.000000   0.000000   0.000000   0.000000  -0.000000
     2  C   -0.000001   0.000000   0.000000   0.000000  -0.000000  -0.000000
     3  C   -0.000029  -0.000000   0.000000  -0.000000   0.000000   0.000000
     4  C    0.000350   0.000001  -0.000000   0.000000   0.000000   0.000000
     5  C   -0.050157   0.000035   0.000001  -0.000000   0.000000  -0.000000
     6  C    0.004216  -0.000008  -0.000000  -0.000000   0.000000   0.000000
     7  C    0.000238  -0.000000   0.000000   0.000000  -0.000000   0.000000
     8  B    0.388915  -0.000802   0.000238  -0.000001  -0.000000   0.000009
     9  O   -0.025967  -0.000265   0.000009   0.000000  -0.000000   0.000000
    10  B   -0.019349  -0.000796  -0.000459   0.000009  -0.000000  -0.000001
    11  O   -0.025992  -0.050285   0.004221   0.000240  -0.000001  -0.000029
    12  B    0.388943   0.400709  -0.036460   0.006264   0.000285   0.006264
    13  O    7.800272  -0.050166   0.000352  -0.000029  -0.000001   0.000238
    14  C   -0.050166   4.835617   0.487669  -0.019427  -0.035214  -0.019389
    15  C    0.000352   0.487669   5.034119   0.434845  -0.002137  -0.041176
    16  C   -0.000029  -0.019427   0.434845   5.150803   0.477334  -0.079220
    17  C   -0.000001  -0.035214  -0.002137   0.477334   4.466553   0.477385
    18  C    0.000238  -0.019389  -0.041176  -0.079220   0.477385   5.150852
    19  C    0.004206   0.487620  -0.034190  -0.041173  -0.002152   0.434857
    20  F   -0.000000  -0.000058   0.002848  -0.043612   0.304226  -0.043604
    21  C   -0.000265   0.000036  -0.000008  -0.000000   0.000000  -0.000000
    22  C    0.000009   0.000001  -0.000000   0.000000   0.000000   0.000000
    23  C    0.000000  -0.000000  -0.000000   0.000000   0.000000  -0.000000
    24  C   -0.000000   0.000000   0.000000  -0.000000  -0.000000   0.000000
    25  C    0.000000  -0.000000   0.000000   0.000000  -0.000000   0.000000
    26  C    0.000009  -0.000008  -0.000026   0.000000   0.000000  -0.000000
    27  F    0.000000   0.000000   0.000000  -0.000000   0.000000   0.000000
    28  H    0.000000   0.000000  -0.000000   0.000000   0.000000   0.000000
    29  H    0.000074   0.000000  -0.000000   0.000000   0.000000  -0.000000
[...]
   198    C   14  S      Ryd( 3S)     0.00233
   199    C   14  S      Ryd( 4S)     0.00003
   200    C   14  px     Val( 2p)     1.30627
   201    C   14  px     Ryd( 3p)     0.00671
   202    C   14  py     Val( 2p)     1.08485
   203    C   14  py     Ryd( 3p)     0.00441
   204    C   14  pz     Val( 2p)     0.98935
   205    C   14  pz     Ryd( 3p)     0.00076
   206    C   14  dxy    Ryd( 3d)     0.00065
   207    C   14  dxz    Ryd( 3d)     0.00043
   208    C   14  dyz    Ryd( 3d)     0.00047
   209    C   14  dx2y2  Ryd( 3d)     0.00047
   210    C   14  dz2    Ryd( 3d)     0.00031

   211    C   15  S      Cor( 1S)     1.99912
   212    C   15  S      Val( 2S)     0.95824
   213    C   15  S      Ryd( 3S)     0.00062
   214    C   15  S      Ryd( 4S)     0.00006
   215    C   15  px     Val( 2p)     1.07354
   216    C   15  px     Ryd( 3p)     0.00391
   217    C   15  py     Val( 2p)     1.17935
   218    C   15  py     Ryd( 3p)     0.00540
   219    C   15  pz     Val( 2p)     0.94053
   220    C   15  pz     Ryd( 3p)     0.00089
   221    C   15  dxy    Ryd( 3d)     0.00080
   222    C   15  dxz    Ryd( 3d)     0.00062
   223    C   15  dyz    Ryd( 3d)     0.00033
   224    C   15  dx2y2  Ryd( 3d)     0.00082
   225    C   15  dz2    Ryd( 3d)     0.00043

   226    C   16  S      Cor( 1S)     1.99900
   227    C   16  S      Val( 2S)     0.97827
   228    C   16  S      Ryd( 3S)     0.00070
   229    C   16  S      Ryd( 4S)     0.00006
   230    C   16  px     Val( 2p)     1.12278
   231    C   16  px     Ryd( 3p)     0.00584
   232    C   16  py     Val( 2p)     1.15650
   233    C   16  py     Ryd( 3p)     0.00434
   234    C   16  pz     Val( 2p)     1.03674
   235    C   16  pz     Ryd( 3p)     0.00111
   236    C   16  dxy    Ryd( 3d)     0.00086
   237    C   16  dxz    Ryd( 3d)     0.00050
   238    C   16  dyz    Ryd( 3d)     0.00052
   239    C   16  dx2y2  Ryd( 3d)     0.00055
   240    C   16  dz2    Ryd( 3d)     0.00046

   241    C   17  S      Cor( 1S)     1.99847
   242    C   17  S      Val( 2S)     0.85047
   243    C   17  S      Ryd( 3S)     0.00135
   244    C   17  S      Ryd( 4S)     0.00014
   245    C   17  px     Val( 2p)     0.63638
   246    C   17  px     Ryd( 3p)     0.01101
   247    C   17  py     Val( 2p)     1.07067
   248    C   17  py     Ryd( 3p)     0.00591
   249    C   17  pz     Val( 2p)     0.98614
   250    C   17  pz     Ryd( 3p)     0.00184
   251    C   17  dxy    Ryd( 3d)     0.00161
   252    C   17  dxz    Ryd( 3d)     0.00200
   253    C   17  dyz    Ryd( 3d)     0.00075
   254    C   17  dx2y2  Ryd( 3d)     0.00207
   255    C   17  dz2    Ryd( 3d)     0.00052

   256    C   18  S      Cor( 1S)     1.99900
   257    C   18  S      Val( 2S)     0.97870
   258    C   18  S      Ryd( 3S)     0.00071
   259    C   18  S      Ryd( 4S)     0.00006
   260    C   18  px     Val( 2p)     1.10642
   261    C   18  px     Ryd( 3p)     0.00581
   262    C   18  py     Val( 2p)     1.17167
   263    C   18  py     Ryd( 3p)     0.00427
   264    C   18  pz     Val( 2p)     1.01612
   265    C   18  pz     Ryd( 3p)     0.00093
   266    C   18  dxy    Ryd( 3d)     0.00090
   267    C   18  dxz    Ryd( 3d)     0.00056
   268    C   18  dyz    Ryd( 3d)     0.00049
   269    C   18  dx2y2  Ryd( 3d)     0.00052
   270    C   18  dz2    Ryd( 3d)     0.00046

   271    C   19  S      Cor( 1S)     1.99912
   272    C   19  S      Val( 2S)     0.95363
   273    C   19  S      Ryd( 3S)     0.00060
   274    C   19  S      Ryd( 4S)     0.00006
   275    C   19  px     Val( 2p)     1.08857
   276    C   19  px     Ryd( 3p)     0.00410
   277    C   19  py     Val( 2p)     1.16063
   278    C   19  py     Ryd( 3p)     0.00510
   279    C   19  pz     Val( 2p)     0.98610
   280    C   19  pz     Ryd( 3p)     0.00154
   281    C   19  dxy    Ryd( 3d)     0.00087
   282    C   19  dxz    Ryd( 3d)     0.00054
   283    C   19  dyz    Ryd( 3d)     0.00034
   284    C   19  dx2y2  Ryd( 3d)     0.00072
   285    C   19  dz2    Ryd( 3d)     0.00043

   286    F   20  S      Cor( 1S)     1.99994
   287    F   20  S      Val( 2S)     1.82666
   288    F   20  S      Ryd( 3S)     0.00015
   289    F   20  S      Ryd( 4S)     0.00002
   290    F   20  px     Val( 2p)     1.62564
   291    F   20  px     Ryd( 3p)     0.00008
   292    F   20  py     Val( 2p)     1.96665
   293    F   20  py     Ryd( 3p)     0.00073
   294    F   20  pz     Val( 2p)     1.89784
   295    F   20  pz     Ryd( 3p)     0.00076
   296    F   20  dxy    Ryd( 3d)     0.00106
   297    F   20  dxz    Ryd( 3d)     0.00149
   298    F   20  dyz    Ryd( 3d)     0.00002
   299    F   20  dx2y2  Ryd( 3d)     0.00100
   300    F   20  dz2    Ryd( 3d)     0.00026

   301    C   21  S      Cor( 1S)     1.99897
   302    C   21  S      Val( 2S)     0.98361
   303    C   21  S      Ryd( 3S)     0.00233
   304    C   21  S      Ryd( 4S)     0.00003
   305    C   21  px     Val( 2p)     1.12977
   306    C   21  px     Ryd( 3p)     0.00495
   307    C   21  py     Val( 2p)     1.26130
   308    C   21  py     Ryd( 3p)     0.00633
   309    C   21  pz     Val( 2p)     1.02937
   310    C   21  pz     Ryd( 3p)     0.00089
   311    C   21  dxy    Ryd( 3d)     0.00052
   312    C   21  dxz    Ryd( 3d)     0.00047
   313    C   21  dyz    Ryd( 3d)     0.00046
   314    C   21  dx2y2  Ryd( 3d)     0.00057
   315    C   21  dz2    Ryd( 3d)     0.00031

   316    C   22  S      Cor( 1S)     1.99911
   317    C   22  S      Val( 2S)     0.94872
   318    C   22  S      Ryd( 3S)     0.00059
   319    C   22  S      Ryd( 4S)     0.00006
   320    C   22  px     Val( 2p)     1.10231
   321    C   22  px     Ryd( 3p)     0.00431
   322    C   22  py     Val( 2p)     1.14356
   323    C   22  py     Ryd( 3p)     0.00473
   324    C   22  pz     Val( 2p)     0.99918
   325    C   22  pz     Ryd( 3p)     0.00152
   326    C   22  dxy    Ryd( 3d)     0.00097
   327    C   22  dxz    Ryd( 3d)     0.00046
   328    C   22  dyz    Ryd( 3d)     0.00044
   329    C   22  dx2y2  Ryd( 3d)     0.00062
   330    C   22  dz2    Ryd( 3d)     0.00043

   331    C   23  S      Cor( 1S)     1.99900
   332    C   23  S      Val( 2S)     0.97490
   333    C   23  S      Ryd( 3S)     0.00070
   334    C   23  S      Ryd( 4S)     0.00007
   335    C   23  px     Val( 2p)     1.20276
   336    C   23  px     Ryd( 3p)     0.00444
   337    C   23  py     Val( 2p)     1.07448
   338    C   23  py     Ryd( 3p)     0.00557
   339    C   23  pz     Val( 2p)     1.03271
   340    C   23  pz     Ryd( 3p)     0.00091
   341    C   23  dxy    Ryd( 3d)     0.00070
   342    C   23  dxz    Ryd( 3d)     0.00041
   343    C   23  dyz    Ryd( 3d)     0.00067
   344    C   23  dx2y2  Ryd( 3d)     0.00071
   345    C   23  dz2    Ryd( 3d)     0.00046

   346    C   24  S      Cor( 1S)     1.99846
   347    C   24  S      Val( 2S)     0.84602
   348    C   24  S      Ryd( 3S)     0.00134
   349    C   24  S      Ryd( 4S)     0.00013
   350    C   24  px     Val( 2p)     0.98546
   351    C   24  px     Ryd( 3p)     0.00697
   352    C   24  py     Val( 2p)     0.71952
   353    C   24  py     Ryd( 3p)     0.01003
   354    C   24  pz     Val( 2p)     1.01541
   355    C   24  pz     Ryd( 3p)     0.00203
   356    C   24  dxy    Ryd( 3d)     0.00188
   357    C   24  dxz    Ryd( 3d)     0.00097
   358    C   24  dyz    Ryd( 3d)     0.00171
   359    C   24  dx2y2  Ryd( 3d)     0.00174
   360    C   24  dz2    Ryd( 3d)     0.00051

   361    C   25  S      Cor( 1S)     1.99900
   362    C   25  S      Val( 2S)     0.97464
   363    C   25  S      Ryd( 3S)     0.00069
   364    C   25  S      Ryd( 4S)     0.00006
   365    C   25  px     Val( 2p)     1.10329
   366    C   25  px     Ryd( 3p)     0.00468
   367    C   25  py     Val( 2p)     1.17472
   368    C   25  py     Ryd( 3p)     0.00539
   369    C   25  pz     Val( 2p)     1.04620
   370    C   25  pz     Ryd( 3p)     0.00102
   371    C   25  dxy    Ryd( 3d)     0.00060
   372    C   25  dxz    Ryd( 3d)     0.00061
   373    C   25  dyz    Ryd( 3d)     0.00045
   374    C   25  dx2y2  Ryd( 3d)     0.00079
   375    C   25  dz2    Ryd( 3d)     0.00046

   376    C   26  S      Cor( 1S)     1.99911
   377    C   26  S      Val( 2S)     0.95181
   378    C   26  S      Ryd( 3S)     0.00059
   379    C   26  S      Ryd( 4S)     0.00006
   380    C   26  px     Val( 2p)     1.19790
   381    C   26  px     Ryd( 3p)     0.00556
   382    C   26  py     Val( 2p)     1.05036
   383    C   26  py     Ryd( 3p)     0.00355
   384    C   26  pz     Val( 2p)     0.96915
   385    C   26  pz     Ryd( 3p)     0.00111
   386    C   26  dxy    Ryd( 3d)     0.00061
   387    C   26  dxz    Ryd( 3d)     0.00030
   388    C   26  dyz    Ryd( 3d)     0.00065
   389    C   26  dx2y2  Ryd( 3d)     0.00100
   390    C   26  dz2    Ryd( 3d)     0.00043

   391    F   27  S      Cor( 1S)     1.99994
   392    F   27  S      Val( 2S)     1.82538
   393    F   27  S      Ryd( 3S)     0.00015
   394    F   27  S      Ryd( 4S)     0.00002
   395    F   27  px     Val( 2p)     1.90052
   396    F   27  px     Ryd( 3p)     0.00059
   397    F   27  py     Val( 2p)     1.69458
   398    F   27  py     Ryd( 3p)     0.00020
   399    F   27  pz     Val( 2p)     1.90776
   400    F   27  pz     Ryd( 3p)     0.00078
   401    F   27  dxy    Ryd( 3d)     0.00100
   402    F   27  dxz    Ryd( 3d)     0.00030
   403    F   27  dyz    Ryd( 3d)     0.00116
   404    F   27  dx2y2  Ryd( 3d)     0.00101
   405    F   27  dz2    Ryd( 3d)     0.00026

   406    H   28  S      Val( 1S)     0.73552
   407    H   28  S      Ryd( 2S)     0.00102

   408    H   29  S      Val( 1S)     0.73384
   409    H   29  S      Ryd( 2S)     0.00127

   410    H   30  S      Val( 1S)     0.73717
   411    H   30  S      Ryd( 2S)     0.00131

   412    H   31  S      Val( 1S)     0.73643
   413    H   31  S      Ryd( 2S)     0.00104

   414    H   32  S      Val( 1S)     0.74964
   415    H   32  S      Ryd( 2S)     0.00138

   416    H   33  S      Val( 1S)     0.74809
   417    H   33  S      Ryd( 2S)     0.00117

   418    H   34  S      Val( 1S)     0.75080
   419    H   34  S      Ryd( 2S)     0.00122

   420    H   35  S      Val( 1S)     0.75988
   421    H   35  S      Ryd( 2S)     0.00139

   422    H   36  S      Val( 1S)     0.76782
   423    H   36  S      Ryd( 2S)     0.00135

   424    H   37  S      Val( 1S)     0.75706
   425    H   37  S      Ryd( 2S)     0.00125

   426    H   38  S      Val( 1S)     0.75525
   427    H   38  S      Ryd( 2S)     0.00122

   428    H   39  S      Val( 1S)     0.76096
   429    H   39  S      Ryd( 2S)     0.00138

 WARNING:  1 low occupancy (<1.9990e) core orbital  found on  C    2
           1 low occupancy (<1.9990e) core orbital  found on  C    5
           1 low occupancy (<1.9990e) core orbital  found on  B    8
           1 low occupancy (<1.9990e) core orbital  found on  B   10
           1 low occupancy (<1.9990e) core orbital  found on  B   12
           1 low occupancy (<1.9990e) core orbital  found on  C   14
           1 low occupancy (<1.9990e) core orbital  found on  C   17
           1 low occupancy (<1.9990e) core orbital  found on  C   18
           1 low occupancy (<1.9990e) core orbital  found on  C   21
           1 low occupancy (<1.9990e) core orbital  found on  C   23
           1 low occupancy (<1.9990e) core orbital  found on  C   24
           1 low occupancy (<1.9990e) core orbital  found on  C   25


 Summary of Natural Population Analysis:                  
                                                          
                                       Natural Population 
                Natural  -----------------------------------------------
    Atom  No    Charge         Core      Valence    Rydberg      Total
 -----------------------------------------------------------------------
      F    1   -0.29938      1.99994     7.29373    0.00571     9.29938
      C    2    0.47684      1.99848     3.49782    0.02687     5.52316
      C    3   -0.28461      1.99901     4.27050    0.01510     6.28461
      C    4   -0.15503      1.99914     4.14173    0.01416     6.15503
      C    5   -0.32033      1.99897     4.30537    0.01599     6.32033
      C    6   -0.16767      1.99914     4.15421    0.01432     6.16767
      C    7   -0.27735      1.99900     4.26333    0.01502     6.27735
      B    8    1.15476      1.99890     1.81968    0.02667     3.84524
      O    9   -0.89055      1.99974     6.88434    0.00646     8.89055
      B   10    1.04615      1.99884     1.92975    0.02526     3.95385
      O   11   -0.87107      1.99975     6.86495    0.00637     8.87107
      B   12    1.08203      1.99886     1.89329    0.02581     3.91797
      O   13   -0.89997      1.99974     6.89373    0.00650     8.89997
      C   14   -0.38689      1.99897     4.37134    0.01658     6.38689
      C   15   -0.16465      1.99912     4.15165    0.01388     6.16465
      C   16   -0.30822      1.99900     4.29428    0.01494     6.30822
      C   17    0.43067      1.99847     3.54366    0.02720     5.56933
      C   18   -0.28662      1.99900     4.27290    0.01471     6.28662
      C   19   -0.20237      1.99912     4.18894    0.01430     6.20237
      F   20   -0.32230      1.99994     7.31679    0.00557     9.32230
      C   21   -0.41988      1.99897     4.40406    0.01686     6.41988
      C   22   -0.20700      1.99911     4.19377    0.01412     6.20700
      C   23   -0.29846      1.99900     4.28484    0.01462     6.29846
      C   24    0.40780      1.99846     3.56642    0.02732     5.59220
      C   25   -0.31261      1.99900     4.29885    0.01477     6.31261
      C   26   -0.18219      1.99911     4.16922    0.01386     6.18219
      F   27   -0.33366      1.99994     7.32824    0.00547     9.33366
      H   28    0.26346      0.00000     0.73552    0.00102     0.73654
      H   29    0.26490      0.00000     0.73384    0.00127     0.73510
      H   30    0.26152      0.00000     0.73717    0.00131     0.73848
      H   31    0.26253      0.00000     0.73643    0.00104     0.73747
      H   32    0.24899      0.00000     0.74964    0.00138     0.75101
      H   33    0.25073      0.00000     0.74809    0.00117     0.74927
      H   34    0.24798      0.00000     0.75080    0.00122     0.75202
      H   35    0.23873      0.00000     0.75988    0.00139     0.76127
      H   36    0.23083      0.00000     0.76782    0.00135     0.76917
      H   37    0.24169      0.00000     0.75706    0.00125     0.75831
      H   38    0.24352      0.00000     0.75525    0.00122     0.75648
      H   39    0.23766      0.00000     0.76096    0.00138     0.76234
 =======================================================================
   * Total *    0.00000     53.97671   131.58982    0.43346   186.00000

                                 Natural Population      
 --------------------------------------------------------
   Core                      53.97671 ( 99.9569% of  54)
   Valence                  131.58982 ( 99.6893% of 132)
   Natural Minimal Basis    185.56654 ( 99.7670% of 186)
   Natural Rydberg Basis      0.43346 (  0.2330% of 186)
 --------------------------------------------------------

    Atom  No          Natural Electron Configuration
 ----------------------------------------------------------------------------
      F    1      [core]2S( 1.83)2p( 5.46)
      C    2      [core]2S( 0.86)2p( 2.64)3p( 0.02)3d( 0.01)
      C    3      [core]2S( 0.99)2p( 3.28)3p( 0.01)
      C    4      [core]2S( 0.97)2p( 3.17)3p( 0.01)
      C    5      [core]2S( 1.01)2p( 3.30)3p( 0.01)
      C    6      [core]2S( 0.97)2p( 3.19)3p( 0.01)
      C    7      [core]2S( 0.99)2p( 3.28)3p( 0.01)
      B    8      [core]2S( 0.49)2p( 1.33)3p( 0.02)3d( 0.01)
      O    9      [core]2S( 1.63)2p( 5.25)
      B   10      [core]2S( 0.49)2p( 1.44)3p( 0.01)3d( 0.01)
      O   11      [core]2S( 1.63)2p( 5.23)
      B   12      [core]2S( 0.49)2p( 1.41)3p( 0.02)3d( 0.01)
      O   13      [core]2S( 1.63)2p( 5.26)
      C   14      [core]2S( 0.99)2p( 3.38)3p( 0.01)
      C   15      [core]2S( 0.96)2p( 3.19)3p( 0.01)
      C   16      [core]2S( 0.98)2p( 3.32)3p( 0.01)
      C   17      [core]2S( 0.85)2p( 2.69)3p( 0.02)3d( 0.01)
      C   18      [core]2S( 0.98)2p( 3.29)3p( 0.01)
      C   19      [core]2S( 0.95)2p( 3.24)3p( 0.01)
      F   20      [core]2S( 1.83)2p( 5.49)
      C   21      [core]2S( 0.98)2p( 3.42)3p( 0.01)
      C   22      [core]2S( 0.95)2p( 3.25)3p( 0.01)
      C   23      [core]2S( 0.97)2p( 3.31)3p( 0.01)
      C   24      [core]2S( 0.85)2p( 2.72)3p( 0.02)3d( 0.01)
      C   25      [core]2S( 0.97)2p( 3.32)3p( 0.01)
      C   26      [core]2S( 0.95)2p( 3.22)3p( 0.01)
      F   27      [core]2S( 1.83)2p( 5.50)
      H   28            1S( 0.74)
      H   29            1S( 0.73)
      H   30            1S( 0.74)
      H   31            1S( 0.74)
      H   32            1S( 0.75)
      H   33            1S( 0.75)
      H   34            1S( 0.75)
      H   35            1S( 0.76)
      H   36            1S( 0.77)
      H   37            1S( 0.76)
      H   38            1S( 0.76)
      H   39            1S( 0.76)


 NBO analysis skipped by request.
 Leave Link  607 at Mon Oct  4 19:53:52 2021, MaxMem= 1610612736 cpu:      94.3
 (Enter /sw/target/amd/app/gaussian/Gaussian09RevA.02_gcc-4.9.2/g09/l9999.exe)
 1\1\GINC-HERMITE\SP\RTD-B3LYP-FC\6-31G(d)\C18H12B3F3O3\JSCHLEINITZ\04-
 Oct-2021\0\\#p TD(NStates=10, Root=1) b3lyp/6-31G* volume pop=NPA dens
 ity=current Geom=AllCheck Guess=Read\\Fc1ccc(cc1)b1ob(ob(o1)c1ccc(cc1)
 F)c1ccc(cc1)F_conf_0\\0,1\F,0,2.1851245452,-0.0865899255,-0.1609656056
 \C,0,0.8381586706,-0.0680326253,-0.1248425373\C,0,0.147742944,0.566613
 545,-1.1530074056\C,0,-1.2437240147,0.5793004957,-1.1048558391\C,0,-1.
 9496670995,-0.0297772701,-0.0498579976\C,0,-1.2050462336,-0.6587886283
 ,0.9661728034\C,0,0.1868003872,-0.6842343719,0.9393697837\B,0,-3.49912
 38807,-0.0084831464,-0.0082653018\O,0,-4.2226913289,0.6117989765,-1.01
 13646387\B,0,-5.6059343338,0.6383024005,-0.9870981978\O,0,-6.265000884
 4,0.0289714419,0.065886084\B,0,-5.5670957842,-0.5986564493,1.082534601
 6\O,0,-4.1843817594,-0.6097573438,1.0325000218\C,0,-6.3203286518,-1.27
 69691293,2.2553625514\C,0,-7.727037022,-1.2705399263,2.3143015985\C,0,
 -8.4147724474,-1.8763185761,3.3624412334\C,0,-7.6761781384,-2.49722963
 09,4.3652241415\C,0,-6.2850276782,-2.530805463,4.3524969758\C,0,-5.619
 0183502,-1.9183425626,3.294243355\F,0,-8.3311454947,-3.0868519134,5.38
 46869598\C,0,-6.4022739315,1.3372068695,-2.1187175063\C,0,-5.739811093
 8,1.9595004213,-3.1939832608\C,0,-6.4438549303,2.5903726482,-4.2162252
 295\C,0,-7.8340935921,2.5948812167,-4.1552128595\C,0,-8.5352224971,1.9
 94087878,-3.1140546799\C,0,-7.8098335074,1.3692874378,-2.1030466311\F,
 0,-8.5258715228,3.202532166,-5.1391474714\H,0,0.7013289344,1.032986208
 5,-1.9614731714\H,0,-1.7984814452,1.0702771337,-1.8992378241\H,0,-1.72
 93262654,-1.1350278479,1.7896951868\H,0,0.7702022622,-1.1661563291,1.7
 171680319\H,0,-8.2879241099,-0.7813138015,1.5231460391\H,0,-9.49854893
 95,-1.8770290486,3.4173393042\H,0,-5.7542884467,-3.0277508931,5.158069
 2982\H,0,-4.5332354232,-1.9352238132,3.2686903607\H,0,-4.6541462358,1.
 9466423799,-3.2259885833\H,0,-5.9430306403,3.0728498852,-5.0492672424\
 H,0,-9.6199658103,2.0245080522,-3.1115149205\H,0,-8.3414888038,0.89541
 04217,-1.2828944539\\Version=AM64L-G09RevA.02\State=1-A\HF=-1293.24213
 33\RMSD=1.279e-09\Dipole=2.8779625,-0.5440259,0.7688261\Quadrupole=14.
 9278339,-5.9567955,-8.9710384,2.0969949,-4.454751,3.0564097\PG=C01 [X(
 C18H12B3F3O3)]\\@


 DEMOCRATS BUY MOST OF THE BOOKS THAT HAVE BEEN
 BANNED; REPUBLICANS FORM CENSORSHIP COMMITTEES AND
 READ THEM AS A GROUP.
 Job cpu time:  0 days  7 hours 44 minutes 10.9 seconds.
 File lengths (MBytes):  RWF=    592 Int=      0 D2E=      0 Chk=     81 Scr=      1
 Normal termination of Gaussian 09 at Mon Oct  4 21:17:23 2021.
