 Entering Gaussian System, Link 0=g09
 Input=C18H16O2_a129_conf_0.com
 Output=C18H16O2_a129_conf_0.log
 Initial command:
 /sw/target/amd/app/gaussian/Gaussian09RevA.02_gcc-4.9.2/g09/l1.exe /home/jschleinitz/gaussian/Gau-3671626.inp -scrdir=/home/jschleinitz/gaussian/
 Entering Link 1 = /sw/target/amd/app/gaussian/Gaussian09RevA.02_gcc-4.9.2/g09/l1.exe PID=   3671628.
  
 Copyright (c) 1988,1990,1992,1993,1995,1998,2003,2009, Gaussian, Inc.
                  All Rights Reserved.
  
 This is part of the Gaussian(R) 09 program.  It is based on
 the Gaussian(R) 03 system (copyright 2003, Gaussian, Inc.),
 the Gaussian(R) 98 system (copyright 1998, Gaussian, Inc.),
 the Gaussian(R) 94 system (copyright 1995, Gaussian, Inc.),
 the Gaussian 92(TM) system (copyright 1992, Gaussian, Inc.),
 the Gaussian 90(TM) system (copyright 1990, Gaussian, Inc.),
 the Gaussian 88(TM) system (copyright 1988, Gaussian, Inc.),
 the Gaussian 86(TM) system (copyright 1986, Carnegie Mellon
 University), and the Gaussian 82(TM) system (copyright 1983,
 Carnegie Mellon University). Gaussian is a federally registered
 trademark of Gaussian, Inc.
  
 This software contains proprietary and confidential information,
 including trade secrets, belonging to Gaussian, Inc.
  
 This software is provided under written license and may be
 used, copied, transmitted, or stored only in accord with that
 written license.
  
 The following legend is applicable only to US Government
 contracts under FAR:
  
                    RESTRICTED RIGHTS LEGEND
  
 Use, reproduction and disclosure by the US Government is
 subject to restrictions as set forth in subparagraphs (a)
 and (c) of the Commercial Computer Software - Restricted
 Rights clause in FAR 52.227-19.
  
 Gaussian, Inc.
 340 Quinnipiac St., Bldg. 40, Wallingford CT 06492
  
  
 ---------------------------------------------------------------
 Warning -- This program may not be used in any manner that
 competes with the business of Gaussian, Inc. or will provide
 assistance to any competitor of Gaussian, Inc.  The licensee
 of this program is prohibited from giving any competitor of
 Gaussian, Inc. access to this program.  By using this program,
 the user acknowledges that Gaussian, Inc. is engaged in the
 business of creating and licensing software in the field of
 computational chemistry and represents and warrants to the
 licensee that it is not a competitor of Gaussian, Inc. and that
 it will not use this program in any manner prohibited above.
 ---------------------------------------------------------------
  

 Cite this work as:
 Gaussian 09, Revision A.02,
 M. J. Frisch, G. W. Trucks, H. B. Schlegel, G. E. Scuseria, 
 M. A. Robb, J. R. Cheeseman, G. Scalmani, V. Barone, B. Mennucci, 
 G. A. Petersson, H. Nakatsuji, M. Caricato, X. Li, H. P. Hratchian, 
 A. F. Izmaylov, J. Bloino, G. Zheng, J. L. Sonnenberg, M. Hada, 
 M. Ehara, K. Toyota, R. Fukuda, J. Hasegawa, M. Ishida, T. Nakajima, 
 Y. Honda, O. Kitao, H. Nakai, T. Vreven, J. A. Montgomery, Jr., 
 J. E. Peralta, F. Ogliaro, M. Bearpark, J. J. Heyd, E. Brothers, 
 K. N. Kudin, V. N. Staroverov, R. Kobayashi, J. Normand, 
 K. Raghavachari, A. Rendell, J. C. Burant, S. S. Iyengar, J. Tomasi, 
 M. Cossi, N. Rega, J. M. Millam, M. Klene, J. E. Knox, J. B. Cross, 
 V. Bakken, C. Adamo, J. Jaramillo, R. Gomperts, R. E. Stratmann, 
 O. Yazyev, A. J. Austin, R. Cammi, C. Pomelli, J. W. Ochterski, 
 R. L. Martin, K. Morokuma, V. G. Zakrzewski, G. A. Voth, 
 P. Salvador, J. J. Dannenberg, S. Dapprich, A. D. Daniels, 
 O. Farkas, J. B. Foresman, J. V. Ortiz, J. Cioslowski, 
 and D. J. Fox, Gaussian, Inc., Wallingford CT, 2009.
 
 ******************************************
 Gaussian 09:  AM64L-G09RevA.02 11-Jun-2009
                29-Sep-2021 
 ******************************************
 %nproc=6
 Will use up to    6 processors via shared memory.
 %mem=12gb
 %chk=C18H16O2_a129_conf_0.chk
 -----------------------------------
 #p opt b3lyp/6-31G* scf=(xqc,tight)
 -----------------------------------
 1/14=-1,18=20,19=15,26=3,38=1/1,3;
 2/9=110,12=2,17=6,18=5,40=1/2;
 3/5=1,6=6,7=1,11=2,16=1,25=1,30=1,71=1,74=-5/1,2,3;
 4//1;
 5/5=2,8=3,13=1,32=2,38=5/2,8;
 6/7=2,8=2,9=2,10=2,28=1/1;
 7//1,2,3,16;
 1/14=-1,18=20,19=15/3(2);
 2/9=110/2;
 99//99;
 2/9=110/2;
 3/5=1,6=6,7=1,11=2,16=1,25=1,30=1,71=1,74=-5/1,2,3;
 4/5=5,16=3/1;
 5/5=2,8=3,13=1,32=2,38=5/2,8;
 7//1,2,3,16;
 1/14=-1,18=20,19=15/3(-5);
 2/9=110/2;
 6/7=2,8=2,9=2,10=2,19=2,28=1/1;
 99/9=1/99;
 Leave Link    1 at Wed Sep 29 15:35:46 2021, MaxMem= 1610612736 cpu:       0.1
 (Enter /sw/target/amd/app/gaussian/Gaussian09RevA.02_gcc-4.9.2/g09/l101.exe)
 --------------------------------------
 O=C(C(C)C)Oc1c2ccccc2cc2c1cccc2_conf_0
 --------------------------------------
 Symbolic Z-matrix:
 Charge =  0 Multiplicity = 1
 O                     3.26046   0.77601  -2.26952 
 C                     3.8235    0.61123  -3.34277 
 C                     3.12551   0.55928  -4.69657 
 C                     1.63733   0.25299  -4.54091 
 C                     3.31469   1.87775  -5.44245 
 O                     5.20273   0.48214  -3.54244 
 C                     6.04857   0.6935   -2.42042 
 C                     6.85714  -0.3952   -1.9889 
 C                     6.84231  -1.68383  -2.57068 
 C                     7.6941   -2.69975  -2.12352 
 C                     8.57446  -2.45713  -1.07589 
 C                     8.5978   -1.20051  -0.47408 
 C                     7.75271  -0.16791  -0.92038 
 C                     7.81195   1.09537  -0.31629 
 C                     7.0392    2.17448  -0.77452 
 C                     6.15774   1.99621  -1.86188 
 C                     5.4605    3.13532  -2.33134 
 C                     5.59333   4.38307  -1.72147 
 C                     6.43709   4.52948  -0.63126 
 C                     7.16      3.43651  -0.16474 
 H                     3.57755  -0.25937  -5.26922 
 H                     1.10699   1.07714  -4.04976 
 H                     1.47994  -0.6479   -3.9391 
 H                     1.1726    0.09275  -5.52018 
 H                     2.84451   2.70987  -4.90516 
 H                     2.86945   1.82811  -6.44189 
 H                     4.37575   2.12165  -5.55927 
 H                     6.16855  -1.90315  -3.39684 
 H                     7.67557  -3.67822  -2.59716 
 H                     9.24719  -3.23729  -0.72994 
 H                     9.29544  -1.02611   0.34184 
 H                     8.4972    1.25293   0.51571 
 H                     4.79653   3.06489  -3.18632 
 H                     5.03206   5.23349  -2.1002 
 H                     6.54142   5.49866  -0.14761 
 H                     7.82902   3.57394   0.68149 
 
 NAtoms=     36 NQM=     36 NQMF=      0 NMic=      0 NMicF=      0 NTot=     36.
                    Isotopes and Nuclear Properties:
 (Nuclear quadrupole moments (NQMom) in fm**2, nuclear magnetic moments (NMagM)
  in nuclear magnetons)

  Atom         1           2           3           4           5           6           7           8           9          10
 IAtWgt=          16          12          12          12          12          16          12          12          12          12
 AtmWgt=  15.9949146  12.0000000  12.0000000  12.0000000  12.0000000  15.9949146  12.0000000  12.0000000  12.0000000  12.0000000
 NucSpn=           0           0           0           0           0           0           0           0           0           0
 AtZEff=   0.0000000   0.0000000   0.0000000   0.0000000   0.0000000   0.0000000   0.0000000   0.0000000   0.0000000   0.0000000
 NQMom=    0.0000000   0.0000000   0.0000000   0.0000000   0.0000000   0.0000000   0.0000000   0.0000000   0.0000000   0.0000000
 NMagM=    0.0000000   0.0000000   0.0000000   0.0000000   0.0000000   0.0000000   0.0000000   0.0000000   0.0000000   0.0000000

  Atom        11          12          13          14          15          16          17          18          19          20
 IAtWgt=          12          12          12          12          12          12          12          12          12          12
 AtmWgt=  12.0000000  12.0000000  12.0000000  12.0000000  12.0000000  12.0000000  12.0000000  12.0000000  12.0000000  12.0000000
 NucSpn=           0           0           0           0           0           0           0           0           0           0
 AtZEff=   0.0000000   0.0000000   0.0000000   0.0000000   0.0000000   0.0000000   0.0000000   0.0000000   0.0000000   0.0000000
 NQMom=    0.0000000   0.0000000   0.0000000   0.0000000   0.0000000   0.0000000   0.0000000   0.0000000   0.0000000   0.0000000
 NMagM=    0.0000000   0.0000000   0.0000000   0.0000000   0.0000000   0.0000000   0.0000000   0.0000000   0.0000000   0.0000000

  Atom        21          22          23          24          25          26          27          28          29          30
 IAtWgt=           1           1           1           1           1           1           1           1           1           1
 AtmWgt=   1.0078250   1.0078250   1.0078250   1.0078250   1.0078250   1.0078250   1.0078250   1.0078250   1.0078250   1.0078250
 NucSpn=           1           1           1           1           1           1           1           1           1           1
 AtZEff=   0.0000000   0.0000000   0.0000000   0.0000000   0.0000000   0.0000000   0.0000000   0.0000000   0.0000000   0.0000000
 NQMom=    0.0000000   0.0000000   0.0000000   0.0000000   0.0000000   0.0000000   0.0000000   0.0000000   0.0000000   0.0000000
 NMagM=    2.7928460   2.7928460   2.7928460   2.7928460   2.7928460   2.7928460   2.7928460   2.7928460   2.7928460   2.7928460

  Atom        31          32          33          34          35          36
 IAtWgt=           1           1           1           1           1           1
 AtmWgt=   1.0078250   1.0078250   1.0078250   1.0078250   1.0078250   1.0078250
 NucSpn=           1           1           1           1           1           1
 AtZEff=   0.0000000   0.0000000   0.0000000   0.0000000   0.0000000   0.0000000
 NQMom=    0.0000000   0.0000000   0.0000000   0.0000000   0.0000000   0.0000000
 NMagM=    2.7928460   2.7928460   2.7928460   2.7928460   2.7928460   2.7928460
 Leave Link  101 at Wed Sep 29 15:35:47 2021, MaxMem= 1610612736 cpu:       0.2
 (Enter /sw/target/amd/app/gaussian/Gaussian09RevA.02_gcc-4.9.2/g09/l103.exe)

 GradGradGradGradGradGradGradGradGradGradGradGradGradGradGradGradGradGrad
 Berny optimization.
 Initialization pass.
                           ----------------------------
                           !    Initial Parameters    !
                           ! (Angstroms and Degrees)  !
 --------------------------                            --------------------------
 ! Name  Definition              Value          Derivative Info.                !
 --------------------------------------------------------------------------------
 ! R1    R(1,2)                  1.2231         estimate D2E/DX2                !
 ! R2    R(2,3)                  1.524          estimate D2E/DX2                !
 ! R3    R(2,6)                  1.3996         estimate D2E/DX2                !
 ! R4    R(3,4)                  1.5273         estimate D2E/DX2                !
 ! R5    R(3,5)                  1.5266         estimate D2E/DX2                !
 ! R6    R(3,21)                 1.0966         estimate D2E/DX2                !
 ! R7    R(4,22)                 1.0962         estimate D2E/DX2                !
 ! R8    R(4,23)                 1.0948         estimate D2E/DX2                !
 ! R9    R(4,24)                 1.0957         estimate D2E/DX2                !
 ! R10   R(5,25)                 1.0964         estimate D2E/DX2                !
 ! R11   R(5,26)                 1.0953         estimate D2E/DX2                !
 ! R12   R(5,27)                 1.095          estimate D2E/DX2                !
 ! R13   R(6,7)                  1.4209         estimate D2E/DX2                !
 ! R14   R(7,8)                  1.4231         estimate D2E/DX2                !
 ! R15   R(7,16)                 1.4216         estimate D2E/DX2                !
 ! R16   R(8,9)                  1.414          estimate D2E/DX2                !
 ! R17   R(8,13)                 1.4126         estimate D2E/DX2                !
 ! R18   R(9,10)                 1.3991         estimate D2E/DX2                !
 ! R19   R(9,28)                 1.0884         estimate D2E/DX2                !
 ! R20   R(10,11)                1.3898         estimate D2E/DX2                !
 ! R21   R(10,29)                1.0872         estimate D2E/DX2                !
 ! R22   R(11,12)                1.3935         estimate D2E/DX2                !
 ! R23   R(11,30)                1.0867         estimate D2E/DX2                !
 ! R24   R(12,13)                1.407          estimate D2E/DX2                !
 ! R25   R(12,31)                1.0876         estimate D2E/DX2                !
 ! R26   R(13,14)                1.4015         estimate D2E/DX2                !
 ! R27   R(14,15)                1.4041         estimate D2E/DX2                !
 ! R28   R(14,32)                1.0893         estimate D2E/DX2                !
 ! R29   R(15,16)                1.4111         estimate D2E/DX2                !
 ! R30   R(15,20)                1.4068         estimate D2E/DX2                !
 ! R31   R(16,17)                1.4157         estimate D2E/DX2                !
 ! R32   R(17,18)                1.3951         estimate D2E/DX2                !
 ! R33   R(17,33)                1.0848         estimate D2E/DX2                !
 ! R34   R(18,19)                1.3863         estimate D2E/DX2                !
 ! R35   R(18,34)                1.0871         estimate D2E/DX2                !
 ! R36   R(19,20)                1.391          estimate D2E/DX2                !
 ! R37   R(19,35)                1.0882         estimate D2E/DX2                !
 ! R38   R(20,36)                1.0875         estimate D2E/DX2                !
 ! A1    A(1,2,3)              124.9758         estimate D2E/DX2                !
 ! A2    A(1,2,6)              126.2451         estimate D2E/DX2                !
 ! A3    A(3,2,6)              108.7512         estimate D2E/DX2                !
 ! A4    A(2,3,4)              111.257          estimate D2E/DX2                !
 ! A5    A(2,3,5)              110.3539         estimate D2E/DX2                !
 ! A6    A(2,3,21)             107.4901         estimate D2E/DX2                !
 ! A7    A(4,3,5)              110.1052         estimate D2E/DX2                !
 ! A8    A(4,3,21)             107.7688         estimate D2E/DX2                !
 ! A9    A(5,3,21)             109.7881         estimate D2E/DX2                !
 ! A10   A(3,4,22)             111.4864         estimate D2E/DX2                !
 ! A11   A(3,4,23)             111.1698         estimate D2E/DX2                !
 ! A12   A(3,4,24)             110.5793         estimate D2E/DX2                !
 ! A13   A(22,4,23)            107.6269         estimate D2E/DX2                !
 ! A14   A(22,4,24)            107.7681         estimate D2E/DX2                !
 ! A15   A(23,4,24)            108.0573         estimate D2E/DX2                !
 ! A16   A(3,5,25)             111.2781         estimate D2E/DX2                !
 ! A17   A(3,5,26)             110.8744         estimate D2E/DX2                !
 ! A18   A(3,5,27)             111.3819         estimate D2E/DX2                !
 ! A19   A(25,5,26)            107.8929         estimate D2E/DX2                !
 ! A20   A(25,5,27)            107.3843         estimate D2E/DX2                !
 ! A21   A(26,5,27)            107.8588         estimate D2E/DX2                !
 ! A22   A(2,6,7)              117.4028         estimate D2E/DX2                !
 ! A23   A(6,7,8)              117.6362         estimate D2E/DX2                !
 ! A24   A(6,7,16)             119.4898         estimate D2E/DX2                !
 ! A25   A(8,7,16)             122.5656         estimate D2E/DX2                !
 ! A26   A(7,8,9)              124.5053         estimate D2E/DX2                !
 ! A27   A(7,8,13)             117.8064         estimate D2E/DX2                !
 ! A28   A(9,8,13)             117.6795         estimate D2E/DX2                !
 ! A29   A(8,9,10)             121.5916         estimate D2E/DX2                !
 ! A30   A(8,9,28)             120.163          estimate D2E/DX2                !
 ! A31   A(10,9,28)            118.2392         estimate D2E/DX2                !
 ! A32   A(9,10,11)            119.9875         estimate D2E/DX2                !
 ! A33   A(9,10,29)            120.2557         estimate D2E/DX2                !
 ! A34   A(11,10,29)           119.7555         estimate D2E/DX2                !
 ! A35   A(10,11,12)           119.577          estimate D2E/DX2                !
 ! A36   A(10,11,30)           120.4515         estimate D2E/DX2                !
 ! A37   A(12,11,30)           119.97           estimate D2E/DX2                !
 ! A38   A(11,12,13)           120.9821         estimate D2E/DX2                !
 ! A39   A(11,12,31)           118.6423         estimate D2E/DX2                !
 ! A40   A(13,12,31)           120.3693         estimate D2E/DX2                !
 ! A41   A(8,13,12)            120.1753         estimate D2E/DX2                !
 ! A42   A(8,13,14)            119.8584         estimate D2E/DX2                !
 ! A43   A(12,13,14)           119.9603         estimate D2E/DX2                !
 ! A44   A(13,14,15)           121.9236         estimate D2E/DX2                !
 ! A45   A(13,14,32)           119.089          estimate D2E/DX2                !
 ! A46   A(15,14,32)           118.9659         estimate D2E/DX2                !
 ! A47   A(14,15,16)           119.8787         estimate D2E/DX2                !
 ! A48   A(14,15,20)           120.0476         estimate D2E/DX2                !
 ! A49   A(16,15,20)           120.0654         estimate D2E/DX2                !
 ! A50   A(7,16,15)            117.808          estimate D2E/DX2                !
 ! A51   A(7,16,17)            124.6975         estimate D2E/DX2                !
 ! A52   A(15,16,17)           117.4868         estimate D2E/DX2                !
 ! A53   A(16,17,18)           121.8557         estimate D2E/DX2                !
 ! A54   A(16,17,33)           120.7016         estimate D2E/DX2                !
 ! A55   A(18,17,33)           117.4427         estimate D2E/DX2                !
 ! A56   A(17,18,19)           119.7463         estimate D2E/DX2                !
 ! A57   A(17,18,34)           119.8815         estimate D2E/DX2                !
 ! A58   A(19,18,34)           120.3716         estimate D2E/DX2                !
 ! A59   A(18,19,20)           119.8068         estimate D2E/DX2                !
 ! A60   A(18,19,35)           120.1289         estimate D2E/DX2                !
 ! A61   A(20,19,35)           120.0615         estimate D2E/DX2                !
 ! A62   A(15,20,19)           120.9896         estimate D2E/DX2                !
 ! A63   A(15,20,36)           120.2311         estimate D2E/DX2                !
 ! A64   A(19,20,36)           118.7786         estimate D2E/DX2                !
 ! D1    D(1,2,3,4)            -19.741          estimate D2E/DX2                !
 ! D2    D(1,2,3,5)            102.7876         estimate D2E/DX2                !
 ! D3    D(1,2,3,21)          -137.5102         estimate D2E/DX2                !
 ! D4    D(6,2,3,4)            162.0837         estimate D2E/DX2                !
 ! D5    D(6,2,3,5)            -75.3877         estimate D2E/DX2                !
 ! D6    D(6,2,3,21)            44.3145         estimate D2E/DX2                !
 ! D7    D(1,2,6,7)             -6.7609         estimate D2E/DX2                !
 ! D8    D(3,2,6,7)            171.3852         estimate D2E/DX2                !
 ! D9    D(2,3,4,22)            67.2862         estimate D2E/DX2                !
 ! D10   D(2,3,4,23)           -52.8083         estimate D2E/DX2                !
 ! D11   D(2,3,4,24)          -172.8389         estimate D2E/DX2                !
 ! D12   D(5,3,4,22)           -55.3857         estimate D2E/DX2                !
 ! D13   D(5,3,4,23)          -175.4802         estimate D2E/DX2                !
 ! D14   D(5,3,4,24)            64.4891         estimate D2E/DX2                !
 ! D15   D(21,3,4,22)         -175.1133         estimate D2E/DX2                !
 ! D16   D(21,3,4,23)           64.7921         estimate D2E/DX2                !
 ! D17   D(21,3,4,24)          -55.2385         estimate D2E/DX2                !
 ! D18   D(2,3,5,25)           -63.4139         estimate D2E/DX2                !
 ! D19   D(2,3,5,26)           176.494          estimate D2E/DX2                !
 ! D20   D(2,3,5,27)            56.3757         estimate D2E/DX2                !
 ! D21   D(4,3,5,25)            59.7877         estimate D2E/DX2                !
 ! D22   D(4,3,5,26)           -60.3044         estimate D2E/DX2                !
 ! D23   D(4,3,5,27)           179.5774         estimate D2E/DX2                !
 ! D24   D(21,3,5,25)          178.2822         estimate D2E/DX2                !
 ! D25   D(21,3,5,26)           58.1902         estimate D2E/DX2                !
 ! D26   D(21,3,5,27)          -61.9281         estimate D2E/DX2                !
 ! D27   D(2,6,7,8)            118.3707         estimate D2E/DX2                !
 ! D28   D(2,6,7,16)           -67.8418         estimate D2E/DX2                !
 ! D29   D(6,7,8,9)             -2.2803         estimate D2E/DX2                !
 ! D30   D(6,7,8,13)           176.6105         estimate D2E/DX2                !
 ! D31   D(16,7,8,9)          -175.863          estimate D2E/DX2                !
 ! D32   D(16,7,8,13)            3.0277         estimate D2E/DX2                !
 ! D33   D(6,7,16,15)         -178.0756         estimate D2E/DX2                !
 ! D34   D(6,7,16,17)            0.8881         estimate D2E/DX2                !
 ! D35   D(8,7,16,15)           -4.6074         estimate D2E/DX2                !
 ! D36   D(8,7,16,17)          174.3562         estimate D2E/DX2                !
 ! D37   D(7,8,9,10)           178.0096         estimate D2E/DX2                !
 ! D38   D(7,8,9,28)            -1.0651         estimate D2E/DX2                !
 ! D39   D(13,8,9,10)           -0.8825         estimate D2E/DX2                !
 ! D40   D(13,8,9,28)         -179.9571         estimate D2E/DX2                !
 ! D41   D(7,8,13,12)         -178.524          estimate D2E/DX2                !
 ! D42   D(7,8,13,14)            0.5847         estimate D2E/DX2                !
 ! D43   D(9,8,13,12)            0.4438         estimate D2E/DX2                !
 ! D44   D(9,8,13,14)          179.5525         estimate D2E/DX2                !
 ! D45   D(8,9,10,11)            0.5507         estimate D2E/DX2                !
 ! D46   D(8,9,10,29)         -179.0232         estimate D2E/DX2                !
 ! D47   D(28,9,10,11)         179.6426         estimate D2E/DX2                !
 ! D48   D(28,9,10,29)           0.0687         estimate D2E/DX2                !
 ! D49   D(9,10,11,12)           0.24           estimate D2E/DX2                !
 ! D50   D(9,10,11,30)        -179.3098         estimate D2E/DX2                !
 ! D51   D(29,10,11,12)        179.816          estimate D2E/DX2                !
 ! D52   D(29,10,11,30)          0.2663         estimate D2E/DX2                !
 ! D53   D(10,11,12,13)         -0.674          estimate D2E/DX2                !
 ! D54   D(10,11,12,31)       -179.7612         estimate D2E/DX2                !
 ! D55   D(30,11,12,13)        178.8779         estimate D2E/DX2                !
 ! D56   D(30,11,12,31)         -0.2093         estimate D2E/DX2                !
 ! D57   D(11,12,13,8)           0.323          estimate D2E/DX2                !
 ! D58   D(11,12,13,14)       -178.7848         estimate D2E/DX2                !
 ! D59   D(31,12,13,8)         179.3945         estimate D2E/DX2                !
 ! D60   D(31,12,13,14)          0.2867         estimate D2E/DX2                !
 ! D61   D(8,13,14,15)          -2.5425         estimate D2E/DX2                !
 ! D62   D(8,13,14,32)         179.1608         estimate D2E/DX2                !
 ! D63   D(12,13,14,15)        176.5682         estimate D2E/DX2                !
 ! D64   D(12,13,14,32)         -1.7285         estimate D2E/DX2                !
 ! D65   D(13,14,15,16)          0.9048         estimate D2E/DX2                !
 ! D66   D(13,14,15,20)       -178.0479         estimate D2E/DX2                !
 ! D67   D(32,14,15,16)        179.2035         estimate D2E/DX2                !
 ! D68   D(32,14,15,20)          0.2509         estimate D2E/DX2                !
 ! D69   D(14,15,16,7)           2.5788         estimate D2E/DX2                !
 ! D70   D(14,15,16,17)       -176.4607         estimate D2E/DX2                !
 ! D71   D(20,15,16,7)        -178.4688         estimate D2E/DX2                !
 ! D72   D(20,15,16,17)          2.4917         estimate D2E/DX2                !
 ! D73   D(14,15,20,19)        177.8486         estimate D2E/DX2                !
 ! D74   D(14,15,20,36)         -1.8297         estimate D2E/DX2                !
 ! D75   D(16,15,20,19)         -1.1021         estimate D2E/DX2                !
 ! D76   D(16,15,20,36)        179.2197         estimate D2E/DX2                !
 ! D77   D(7,16,17,18)         178.7707         estimate D2E/DX2                !
 ! D78   D(7,16,17,33)          -1.1341         estimate D2E/DX2                !
 ! D79   D(15,16,17,18)         -2.2627         estimate D2E/DX2                !
 ! D80   D(15,16,17,33)        177.8326         estimate D2E/DX2                !
 ! D81   D(16,17,18,19)          0.5716         estimate D2E/DX2                !
 ! D82   D(16,17,18,34)       -179.1546         estimate D2E/DX2                !
 ! D83   D(33,17,18,19)       -179.5208         estimate D2E/DX2                !
 ! D84   D(33,17,18,34)          0.753          estimate D2E/DX2                !
 ! D85   D(17,18,19,20)          0.9216         estimate D2E/DX2                !
 ! D86   D(17,18,19,35)       -179.6813         estimate D2E/DX2                !
 ! D87   D(34,18,19,20)       -179.3536         estimate D2E/DX2                !
 ! D88   D(34,18,19,35)          0.0435         estimate D2E/DX2                !
 ! D89   D(18,19,20,15)         -0.6578         estimate D2E/DX2                !
 ! D90   D(18,19,20,36)        179.025          estimate D2E/DX2                !
 ! D91   D(35,19,20,15)        179.9447         estimate D2E/DX2                !
 ! D92   D(35,19,20,36)         -0.3725         estimate D2E/DX2                !
 --------------------------------------------------------------------------------
 Trust Radius=3.00D-01 FncErr=1.00D-07 GrdErr=1.00D-06
 Number of steps in this run= 204 maximum allowed number of steps= 216.
 GradGradGradGradGradGradGradGradGradGradGradGradGradGradGradGradGradGrad

 Leave Link  103 at Wed Sep 29 15:35:47 2021, MaxMem= 1610612736 cpu:       0.0
 (Enter /sw/target/amd/app/gaussian/Gaussian09RevA.02_gcc-4.9.2/g09/l202.exe)
                          Input orientation:                          
 ---------------------------------------------------------------------
 Center     Atomic      Atomic             Coordinates (Angstroms)
 Number     Number       Type             X           Y           Z
 ---------------------------------------------------------------------
      1          8           0        3.260463    0.776006   -2.269516
      2          6           0        3.823496    0.611234   -3.342775
      3          6           0        3.125510    0.559279   -4.696572
      4          6           0        1.637332    0.252987   -4.540908
      5          6           0        3.314690    1.877754   -5.442451
      6          8           0        5.202734    0.482141   -3.542444
      7          6           0        6.048572    0.693503   -2.420419
      8          6           0        6.857144   -0.395196   -1.988897
      9          6           0        6.842311   -1.683830   -2.570678
     10          6           0        7.694105   -2.699745   -2.123522
     11          6           0        8.574457   -2.457133   -1.075893
     12          6           0        8.597796   -1.200509   -0.474079
     13          6           0        7.752713   -0.167908   -0.920384
     14          6           0        7.811953    1.095369   -0.316294
     15          6           0        7.039204    2.174482   -0.774525
     16          6           0        6.157738    1.996205   -1.861878
     17          6           0        5.460505    3.135324   -2.331341
     18          6           0        5.593329    4.383066   -1.721473
     19          6           0        6.437085    4.529481   -0.631262
     20          6           0        7.159999    3.436515   -0.164739
     21          1           0        3.577554   -0.259374   -5.269223
     22          1           0        1.106993    1.077140   -4.049759
     23          1           0        1.479937   -0.647905   -3.939099
     24          1           0        1.172596    0.092755   -5.520178
     25          1           0        2.844507    2.709868   -4.905161
     26          1           0        2.869445    1.828109   -6.441895
     27          1           0        4.375755    2.121653   -5.559269
     28          1           0        6.168550   -1.903145   -3.396845
     29          1           0        7.675565   -3.678222   -2.597155
     30          1           0        9.247191   -3.237286   -0.729942
     31          1           0        9.295442   -1.026114    0.341835
     32          1           0        8.497202    1.252930    0.515712
     33          1           0        4.796527    3.064890   -3.186322
     34          1           0        5.032055    5.233488   -2.100202
     35          1           0        6.541421    5.498657   -0.147611
     36          1           0        7.829021    3.573944    0.681490
 ---------------------------------------------------------------------
                    Distance matrix (angstroms):
                    1          2          3          4          5
     1  O    0.000000
     2  C    1.223127   0.000000
     3  C    2.440447   1.524025   0.000000
     4  C    2.840303   2.518567   1.527324   0.000000
     5  C    3.359212   2.504316   1.526598   2.503233   0.000000
     6  O    2.340752   1.399582   2.377566   3.709654   3.020343
     7  C    2.793409   2.410077   3.707180   4.914221   4.243730
     8  C    3.792964   3.471154   4.708251   5.846310   5.444477
     9  C    4.355586   3.869974   4.833796   5.892781   5.777203
    10  C    5.635543   5.237439   6.173645   7.158692   7.151788
    11  C    6.333756   6.093050   7.204102   8.214304   8.094642
    12  C    5.968026   5.857113   7.132477   8.191447   7.878556
    13  C    4.784500   4.681216   6.016594   7.119216   6.658069
    14  C    4.963178   5.030086   6.437156   7.528806   6.864036
    15  C    4.297629   4.402320   5.771337   6.859883   5.979096
    16  C    3.170056   3.091907   4.392568   5.536252   4.573561
    17  C    3.226513   3.173929   4.205060   5.273206   3.983091
    18  C    4.330531   4.470754   5.437158   6.376259   5.031348
    19  C    5.182989   5.434686   6.576912   7.524052   6.318904
    20  C    5.168633   5.405032   6.715139   7.732112   6.713448
    21  H    3.189168   2.128296   1.096570   2.134810   2.160190
    22  H    2.810227   2.845397   2.181962   1.096228   2.730293
    23  H    2.825828   2.726408   2.176917   1.094785   3.464872
    24  H    3.923369   3.469464   2.170218   1.095730   2.789414
    25  H    3.295370   2.793516   2.178876   2.761560   1.096433
    26  H    4.320712   3.463458   2.172935   2.759141   1.095260
    27  H    3.725199   2.738467   2.179075   3.468130   1.094985
    28  H    4.111653   3.438649   4.124672   5.146817   5.159867
    29  H    6.280177   5.813245   6.562543   7.462763   7.614580
    30  H    7.370055   7.145240   8.223323   9.198664   9.141441
    31  H    6.818194   6.797018   8.122013   9.171910   8.812481
    32  H    5.950495   6.094524   7.516923   8.580624   7.921398
    33  H    2.904998   2.644181   3.369160   4.440970   2.948771
    34  H    4.799620   4.936581   5.676643   6.502813   5.037948
    35  H    6.129486   6.440737   7.533853   8.418325   7.180394
    36  H    6.116259   6.404420   7.754662   8.754382   7.794800
                    6          7          8          9         10
     6  O    0.000000
     7  C    1.420935   0.000000
     8  C    2.433167   1.423118   0.000000
     9  C    2.885130   2.510839   1.413954   0.000000
    10  C    4.283068   3.782864   2.455519   1.399137   0.000000
    11  C    5.108006   4.256096   2.834488   2.415100   1.389751
    12  C    4.875718   3.724790   2.443987   2.776878   2.405209
    13  C    3.714856   2.428215   1.412595   2.418743   2.803778
    14  C    4.194296   2.774590   2.435374   3.707613   4.205098
    15  C    3.728004   2.425617   2.847998   4.260458   5.099684
    16  C    2.455347   1.421590   2.494816   3.809685   4.947811
    17  C    2.927900   2.513215   3.812145   5.019056   6.251415
    18  C    4.322697   3.782677   4.949801   6.252066   7.398724
    19  C    5.136104   4.250500   5.125629   6.521562   7.487900
    20  C    4.895723   3.721219   4.254560   5.666339   6.463419
    21  H    2.484516   3.889677   4.640549   4.468765   5.726852
    22  H    4.169710   5.217387   6.283245   6.534869   7.833600
    23  H    3.910698   4.997819   5.725514   5.630344   6.791336
    24  H    4.506115   5.809006   6.709853   6.633361   7.865457
    25  H    3.518664   4.528322   5.852117   6.382541   7.779462
    26  H    3.957611   5.250376   6.377619   6.565341   7.901085
    27  H    2.727540   3.832794   5.023881   5.431140   6.786876
    28  H    2.577517   2.776758   2.174945   1.088396   2.140850
    29  H    4.931236   4.668011   3.437739   2.161623   1.087240
    30  H    6.172676   5.342282   3.921066   3.403671   2.154783
    31  H    5.840610   4.596661   3.431569   3.864347   3.382796
    32  H    5.283585   3.863886   3.417481   4.570452   4.820183
    33  H    2.638640   2.788853   4.201448   5.207167   6.538847
    34  H    4.968349   4.663401   5.918228   7.165728   8.367989
    35  H    6.203419   5.338357   6.182841   7.586165   8.511563
    36  H    5.856471   4.592252   4.881556   6.260542   6.873534
                   11         12         13         14         15
    11  C    0.000000
    12  C    1.393495   0.000000
    13  C    2.437211   1.406989   0.000000
    14  C    3.711963   2.431769   1.401536   0.000000
    15  C    4.888730   3.729617   2.452991   1.404138   0.000000
    16  C    5.127429   4.254274   2.848463   2.436547   1.411063
    17  C    6.522916   5.664933   4.261028   3.708253   2.416440
    18  C    7.489474   6.462130   5.100593   4.207823   2.804479
    19  C    7.319756   6.125860   4.886710   3.712492   2.434972
    20  C    6.129109   4.864663   3.730171   2.434949   1.406825
    21  H    6.883546   7.005853   6.029321   6.655597   6.173247
    22  H    8.780546   8.607282   7.450418   7.674346   6.864579
    23  H    7.861518   7.935720   6.977876   7.500543   6.991841
    24  H    9.002286   9.070240   8.032683   8.495099   7.827637
    25  H    8.613566   8.247780   6.946260   6.952685   5.911368
    26  H    8.927734   8.809164   7.636588   7.904953   7.044568
    27  H    7.661269   7.397402   6.177798   6.352126   5.476360
    28  H    3.388526   3.864905   3.413719   4.602353   4.925611
    29  H    2.147861   3.390727   3.890992   5.292268   6.162880
    30  H    1.086688   2.153053   3.419183   4.582893   5.845034
    31  H    2.139530   1.087584   2.170191   2.671060   4.071939
    32  H    4.037789   2.647483   2.153002   1.089324   2.154003
    33  H    7.015654   6.324519   4.931987   4.605309   3.411626
    34  H    8.528978   7.533598   6.161902   5.294733   3.891476
    35  H    8.263748   7.015275   5.845885   4.586028   3.419203
    36  H    6.325975   4.972098   4.071030   2.671928   2.168475
                   16         17         18         19         20
    16  C    0.000000
    17  C    1.415670   0.000000
    18  C    2.456700   1.395149   0.000000
    19  C    2.830183   2.405753   1.386334   0.000000
    20  C    2.441167   2.770047   2.402880   1.390979   0.000000
    21  H    4.832700   4.868329   6.180786   7.254014   7.249086
    22  H    5.580460   5.112939   6.039642   7.212119   7.569604
    23  H    5.760902   5.722117   6.866478   7.894329   7.949300
    24  H    6.469770   6.149152   7.237390   8.443985   8.701175
    25  H    4.555040   3.694456   4.526752   5.872292   6.451595
    26  H    5.640717   5.031805   6.019114   7.334093   7.771648
    27  H    4.106325   3.552989   4.617916   5.859349   6.211427
    28  H    4.190606   5.198346   6.531018   7.007085   6.319925
    29  H    5.919760   7.169489   8.371792   8.530238   7.536706
    30  H    6.181863   7.583774   8.509030   8.260091   7.015372
    31  H    4.882208   6.258609   6.871834   6.323113   4.973107
    32  H    3.417380   4.568441   4.820293   4.036758   2.649371
    33  H    2.179251   1.084813   2.125621   3.371170   3.854097
    34  H    3.435689   2.153900   1.087052   2.151167   3.391648
    35  H    3.918302   3.394466   2.149526   1.088167   2.152989
    36  H    3.427998   3.857384   3.380418   2.138657   1.087466
                   21         22         23         24         25
    21  H    0.000000
    22  H    3.062194   0.000000
    23  H    2.513997   1.768364   0.000000
    24  H    2.443521   1.770720   1.772807   0.000000
    25  H    3.079983   2.533075   3.750995   3.165883   0.000000
    26  H    2.496830   3.064719   3.784886   2.596211   1.771912
    27  H    2.527952   3.748924   4.322171   3.791858   1.765948
    28  H    3.594586   5.909971   4.883929   5.783746   5.882531
    29  H    5.968431   8.238305   7.026339   8.065540   8.335089
    30  H    7.849701   9.792766   8.793964   9.961657   9.684805
    31  H    8.047739   9.526829   8.919168  10.079469   9.116090
    32  H    7.743092   8.688476   8.526460   9.561791   7.966272
    33  H    4.107931   4.278941   5.035006   5.235776   2.625039
    34  H    6.506135   6.040043   7.112655   7.281401   4.361401
    35  H    8.256533   8.019325   8.818970   9.322690   6.639187
    36  H    8.257135   8.590949   8.915420   9.741015   7.536755
                   26         27         28         29         30
    26  H    0.000000
    27  H    1.770358   0.000000
    28  H    5.837695   4.908075   0.000000
    29  H    8.258359   7.300782   2.462010   0.000000
    30  H    9.947878   8.704683   4.286062   2.480104   0.000000
    31  H    9.770313   8.302698   4.952208   4.277307   2.457706
    32  H    8.967206   7.392320   5.539994   5.889083   4.719764
    33  H    3.980204   2.587976   5.158308   7.355647   8.096890
    34  H    5.926532   4.698871   7.341964   9.308796   9.560282
    35  H    8.159310   6.736491   8.092171   9.565650   9.163896
    36  H    8.853697   7.278823   7.027694   7.960338   7.099028
                   31         32         33         34         35
    31  H    0.000000
    32  H    2.421045   0.000000
    33  H    7.030252   5.539246   0.000000
    34  H    7.957552   5.890254   2.436790   0.000000
    35  H    7.099072   4.721363   4.266338   2.482159   0.000000
    36  H    4.840071   2.420961   4.941167   4.279593   2.459643
                   36
    36  H    0.000000
 Stoichiometry    C18H16O2
 Framework group  C1[X(C18H16O2)]
 Deg. of freedom   102
 Full point group                 C1      NOp   1
 Largest Abelian subgroup         C1      NOp   1
 Largest concise Abelian subgroup C1      NOp   1
                         Standard orientation:                         
 ---------------------------------------------------------------------
 Center     Atomic      Atomic             Coordinates (Angstroms)
 Number     Number       Type             X           Y           Z
 ---------------------------------------------------------------------
      1          8           0       -1.979975   -0.330974    1.532708
      2          6           0       -2.066328   -0.799792    0.406301
      3          6           0       -3.337565   -1.377299   -0.204512
      4          6           0       -4.351195   -1.749710    0.875572
      5          6           0       -3.955668   -0.382388   -1.183594
      6          8           0       -1.042266   -0.859679   -0.545822
      7          6           0        0.177109   -0.198664   -0.237211
      8          6           0        1.354646   -0.992967   -0.149149
      9          6           0        1.386170   -2.398271   -0.302087
     10          6           0        2.586308   -3.115130   -0.244051
     11          6           0        3.784273   -2.447142   -0.020267
     12          6           0        3.779204   -1.064105    0.150065
     13          6           0        2.580230   -0.330729    0.084962
     14          6           0        2.603075    1.062669    0.234040
     15          6           0        1.442243    1.842219    0.106081
     16          6           0        0.204100    1.220670   -0.161834
     17          6           0       -0.919429    2.059544   -0.357015
     18          6           0       -0.830679    3.447287   -0.244186
     19          6           0        0.387878    4.036497    0.055601
     20          6           0        1.517426    3.242168    0.222895
     21          1           0       -3.060451   -2.296384   -0.734565
     22          1           0       -4.736060   -0.860724    1.388697
     23          1           0       -3.901449   -2.400593    1.632298
     24          1           0       -5.204816   -2.278353    0.436833
     25          1           0       -4.270023    0.535474   -0.672833
     26          1           0       -4.835366   -0.812729   -1.674037
     27          1           0       -3.243179   -0.095005   -1.963825
     28          1           0        0.465495   -2.949299   -0.484653
     29          1           0        2.587249   -4.193794   -0.380328
     30          1           0        4.722075   -2.995017    0.015109
     31          1           0        4.725785   -0.556346    0.320375
     32          1           0        3.553162    1.559039    0.427887
     33          1           0       -1.889184    1.638750   -0.600589
     34          1           0       -1.717094    4.060070   -0.387182
     35          1           0        0.463107    5.117932    0.150185
     36          1           0        2.467881    3.723069    0.441871
 ---------------------------------------------------------------------
 Rotational constants (GHZ):      0.4349662      0.3008771      0.1901369
 Leave Link  202 at Wed Sep 29 15:35:48 2021, MaxMem= 1610612736 cpu:       0.1
 (Enter /sw/target/amd/app/gaussian/Gaussian09RevA.02_gcc-4.9.2/g09/l301.exe)
 Standard basis: 6-31G(d) (6D, 7F)
 Ernie: Thresh=  0.10000D-02 Tol=  0.10000D-05 Strict=F.
 There are   332 symmetry adapted basis functions of A   symmetry.
 Integral buffers will be    131072 words long.
 Raffenetti 2 integral format.
 Two-electron integral symmetry is turned on.
   332 basis functions,   624 primitive gaussians,   332 cartesian basis functions
    70 alpha electrons       70 beta electrons
       nuclear repulsion energy      1465.6070729600 Hartrees.
 IExCor=  402 DFT=T Ex+Corr=B3LYP ExCW=0 ScaHFX=  0.200000
 ScaDFX=  0.800000  0.720000  1.000000  0.810000 ScalE2=  1.000000  1.000000
 IRadAn=      0 IRanWt=     -1 IRanGd=            0 ICorTp=0
 NAtoms=   36 NActive=   36 NUniq=   36 SFac= 7.50D-01 NAtFMM=   80 NAOKFM=F Big=F
 Leave Link  301 at Wed Sep 29 15:35:48 2021, MaxMem= 1610612736 cpu:       0.1
 (Enter /sw/target/amd/app/gaussian/Gaussian09RevA.02_gcc-4.9.2/g09/l302.exe)
 NPDir=0 NMtPBC=     1 NCelOv=     1 NCel=       1 NClECP=     1 NCelD=      1
         NCelK=      1 NCelE2=     1 NClLst=     1 CellRange=     0.0.
 One-electron integrals computed using PRISM.
 NBasis=   332 RedAO= T  NBF=   332
 NBsUse=   332 1.00D-06 NBFU=   332
 Precomputing XC quadrature grid using
 IXCGrd= 2 IRadAn=           0 IRanWt=          -1 IRanGd=           0 AccXCQ= 1.00D-10.
 NRdTot=    2282 NPtTot=      291024 NUsed=      307479 NTot=      307511
 NSgBfM=   330   330   330   330   330 NAtAll=    36    36.
 Leave Link  302 at Wed Sep 29 15:35:53 2021, MaxMem= 1610612736 cpu:       3.8
 (Enter /sw/target/amd/app/gaussian/Gaussian09RevA.02_gcc-4.9.2/g09/l303.exe)
 DipDrv:  MaxL=1.
 Leave Link  303 at Wed Sep 29 15:35:54 2021, MaxMem= 1610612736 cpu:       0.3
 (Enter /sw/target/amd/app/gaussian/Gaussian09RevA.02_gcc-4.9.2/g09/l401.exe)
 Harris functional with IExCor=  402 diagonalized for initial guess.
 ExpMin= 1.61D-01 ExpMax= 5.48D+03 ExpMxC= 8.25D+02 IAcc=1 IRadAn=         1 AccDes= 0.00D+00
 HarFok:  IExCor=  402 AccDes= 0.00D+00 IRadAn=         1 IDoV= 1
 ScaDFX=  1.000000  1.000000  1.000000  1.000000
 FoFCou: FMM=F IPFlag=           0 FMFlag=      100000 FMFlg1=           0
         NFxFlg=           0 DoJE=T BraDBF=F KetDBF=T FulRan=T
         Omega=  0.000000  0.000000  1.000000  0.000000  0.000000 ICntrl=     500 IOpCl=  0
         NMat0=    1 NMatS0=    1 NMatT0=    0 NMatD0=    1 NMtDS0=    0 NMtDT0=    0
         I1Cent=           4 NGrid=           0.
 Petite list used in FoFCou.
 Harris En= -846.142196826961    
 Initial guess orbital symmetries:
       Occupied  (A) (A) (A) (A) (A) (A) (A) (A) (A) (A) (A) (A)
                 (A) (A) (A) (A) (A) (A) (A) (A) (A) (A) (A) (A)
                 (A) (A) (A) (A) (A) (A) (A) (A) (A) (A) (A) (A)
                 (A) (A) (A) (A) (A) (A) (A) (A) (A) (A) (A) (A)
                 (A) (A) (A) (A) (A) (A) (A) (A) (A) (A) (A) (A)
                 (A) (A) (A) (A) (A) (A) (A) (A) (A) (A)
       Virtual   (A) (A) (A) (A) (A) (A) (A) (A) (A) (A) (A) (A)
                 (A) (A) (A) (A) (A) (A) (A) (A) (A) (A) (A) (A)
                 (A) (A) (A) (A) (A) (A) (A) (A) (A) (A) (A) (A)
                 (A) (A) (A) (A) (A) (A) (A) (A) (A) (A) (A) (A)
                 (A) (A) (A) (A) (A) (A) (A) (A) (A) (A) (A) (A)
                 (A) (A) (A) (A) (A) (A) (A) (A) (A) (A) (A) (A)
                 (A) (A) (A) (A) (A) (A) (A) (A) (A) (A) (A) (A)
                 (A) (A) (A) (A) (A) (A) (A) (A) (A) (A) (A) (A)
                 (A) (A) (A) (A) (A) (A) (A) (A) (A) (A) (A) (A)
                 (A) (A) (A) (A) (A) (A) (A) (A) (A) (A) (A) (A)
                 (A) (A) (A) (A) (A) (A) (A) (A) (A) (A) (A) (A)
                 (A) (A) (A) (A) (A) (A) (A) (A) (A) (A) (A) (A)
                 (A) (A) (A) (A) (A) (A) (A) (A) (A) (A) (A) (A)
                 (A) (A) (A) (A) (A) (A) (A) (A) (A) (A) (A) (A)
                 (A) (A) (A) (A) (A) (A) (A) (A) (A) (A) (A) (A)
                 (A) (A) (A) (A) (A) (A) (A) (A) (A) (A) (A) (A)
                 (A) (A) (A) (A) (A) (A) (A) (A) (A) (A) (A) (A)
                 (A) (A) (A) (A) (A) (A) (A) (A) (A) (A) (A) (A)
                 (A) (A) (A) (A) (A) (A) (A) (A) (A) (A) (A) (A)
                 (A) (A) (A) (A) (A) (A) (A) (A) (A) (A) (A) (A)
                 (A) (A) (A) (A) (A) (A) (A) (A) (A) (A) (A) (A)
                 (A) (A) (A) (A) (A) (A) (A) (A) (A) (A)
 The electronic state of the initial guess is 1-A.
 Leave Link  401 at Wed Sep 29 15:36:09 2021, MaxMem= 1610612736 cpu:      16.0
 (Enter /sw/target/amd/app/gaussian/Gaussian09RevA.02_gcc-4.9.2/g09/l502.exe)
 Closed shell SCF:
 Requested convergence on RMS density matrix=1.00D-08 within  64 cycles.
 Requested convergence on MAX density matrix=1.00D-06.
 Requested convergence on             energy=1.00D-06.
 No special actions if energy rises.
 Using DIIS extrapolation, IDIIS=  1040.
 Integral symmetry usage will be decided dynamically.
       307142 words used for storage of precomputed grid.
 Keep R1 ints in memory in canonical form, NReq=1546966999.
 IEnd=      647852 IEndB=      647852 NGot=  1610612736 MDV=    82223356
 LenX=    82223356 LenY=    82112691
 Symmetry not used in FoFDir.
 MinBra= 0 MaxBra= 2 Meth= 1.
 IRaf=       0 NMat=   1 IRICut=       1 DoRegI=T DoRafI=F ISym2E= 0 JSym2E=0.
 Integral accuracy reduced to 1.0D-05 until final iterations.

 Cycle   1  Pass 0  IDiag  1:
 E= -845.482280741609    
 DIIS: error= 3.84D-02 at cycle   1 NSaved=   1.
 NSaved= 1 IEnMin= 1 EnMin= -845.482280741609     IErMin= 1 ErrMin= 3.84D-02
 ErrMax= 3.84D-02 EMaxC= 1.00D-01 BMatC= 5.22D-01 BMatP= 5.22D-01
 IDIUse=3 WtCom= 6.16D-01 WtEn= 3.84D-01
 Coeff-Com:  0.100D+01
 Coeff-En:   0.100D+01
 Coeff:      0.100D+01
 Gap=     0.113 Goal=   None    Shift=    0.000
 GapD=    0.113 DampG=1.000 DampE=0.500 DampFc=0.5000 IDamp=-1.
 Damping current iteration by 5.00D-01
 RMSDP=5.67D-03 MaxDP=2.09D-01              OVMax= 3.56D-01

 Cycle   2  Pass 0  IDiag  1:
 E= -845.636686542199     Delta-E=       -0.154405800589 Rises=F Damp=T
 DIIS: error= 1.36D-02 at cycle   2 NSaved=   2.
 NSaved= 2 IEnMin= 2 EnMin= -845.636686542199     IErMin= 2 ErrMin= 1.36D-02
 ErrMax= 1.36D-02 EMaxC= 1.00D-01 BMatC= 9.42D-02 BMatP= 5.22D-01
 IDIUse=3 WtCom= 8.64D-01 WtEn= 1.36D-01
 Coeff-Com:  0.215D+00 0.785D+00
 Coeff-En:   0.325D+00 0.675D+00
 Coeff:      0.230D+00 0.770D+00
 Gap=     0.110 Goal=   None    Shift=    0.000
 RMSDP=2.41D-03 MaxDP=1.16D-01 DE=-1.54D-01 OVMax= 4.45D-01

 Cycle   3  Pass 0  IDiag  1:
 E= -845.894260036793     Delta-E=       -0.257573494594 Rises=F Damp=F
 DIIS: error= 2.00D-02 at cycle   3 NSaved=   3.
 NSaved= 3 IEnMin= 3 EnMin= -845.894260036793     IErMin= 2 ErrMin= 1.36D-02
 ErrMax= 2.00D-02 EMaxC= 1.00D-01 BMatC= 1.31D-01 BMatP= 9.42D-02
 IDIUse=2 WtCom= 0.00D+00 WtEn= 1.00D+00
 Coeff-En:   0.000D+00 0.256D-02 0.997D+00
 Coeff:      0.000D+00 0.256D-02 0.997D+00
 Gap=     0.110 Goal=   None    Shift=    0.000
 RMSDP=3.96D-03 MaxDP=2.00D-01 DE=-2.58D-01 OVMax= 3.86D-01

 Cycle   4  Pass 0  IDiag  1:
 E= -845.157509249898     Delta-E=        0.736750786895 Rises=F Damp=F
 DIIS: error= 4.66D-02 at cycle   4 NSaved=   4.
 NSaved= 4 IEnMin= 3 EnMin= -845.894260036793     IErMin= 2 ErrMin= 1.36D-02
 ErrMax= 4.66D-02 EMaxC= 1.00D-01 BMatC= 9.57D-01 BMatP= 9.42D-02
 IDIUse=2 WtCom= 0.00D+00 WtEn= 1.00D+00
 Coeff-En:   0.000D+00 0.000D+00 0.813D+00 0.187D+00
 Coeff:      0.000D+00 0.000D+00 0.813D+00 0.187D+00
 Gap=     0.128 Goal=   None    Shift=    0.000
 RMSDP=2.12D-03 MaxDP=1.09D-01 DE= 7.37D-01 OVMax= 2.52D-01

 Cycle   5  Pass 0  IDiag  1:
 E= -845.947692519041     Delta-E=       -0.790183269143 Rises=F Damp=F
 DIIS: error= 1.28D-02 at cycle   5 NSaved=   5.
 NSaved= 5 IEnMin= 5 EnMin= -845.947692519041     IErMin= 5 ErrMin= 1.28D-02
 ErrMax= 1.28D-02 EMaxC= 1.00D-01 BMatC= 7.76D-02 BMatP= 9.42D-02
 IDIUse=3 WtCom= 8.72D-01 WtEn= 1.28D-01
 Coeff-Com: -0.805D-03 0.715D-01 0.343D+00-0.858D-01 0.672D+00
 Coeff-En:   0.000D+00 0.000D+00 0.402D+00 0.000D+00 0.598D+00
 Coeff:     -0.702D-03 0.623D-01 0.351D+00-0.748D-01 0.663D+00
 Gap=     0.114 Goal=   None    Shift=    0.000
 RMSDP=9.19D-04 MaxDP=5.12D-02 DE=-7.90D-01 OVMax= 1.35D-01

 Cycle   6  Pass 0  IDiag  1:
 E= -846.019364694514     Delta-E=       -0.071672175473 Rises=F Damp=F
 DIIS: error= 1.35D-03 at cycle   6 NSaved=   6.
 NSaved= 6 IEnMin= 6 EnMin= -846.019364694514     IErMin= 6 ErrMin= 1.35D-03
 ErrMax= 1.35D-03 EMaxC= 1.00D-01 BMatC= 1.24D-03 BMatP= 7.76D-02
 IDIUse=3 WtCom= 9.86D-01 WtEn= 1.35D-02
 Coeff-Com: -0.520D-02 0.304D-01 0.186D+00-0.672D-01 0.443D+00 0.413D+00
 Coeff-En:   0.000D+00 0.000D+00 0.000D+00 0.000D+00 0.000D+00 0.100D+01
 Coeff:     -0.513D-02 0.300D-01 0.184D+00-0.663D-01 0.437D+00 0.421D+00
 Gap=     0.115 Goal=   None    Shift=    0.000
 RMSDP=1.35D-04 MaxDP=8.82D-03 DE=-7.17D-02 OVMax= 2.38D-02

 Cycle   7  Pass 0  IDiag  1:
 E= -846.020389992412     Delta-E=       -0.001025297897 Rises=F Damp=F
 DIIS: error= 7.24D-04 at cycle   7 NSaved=   7.
 NSaved= 7 IEnMin= 7 EnMin= -846.020389992412     IErMin= 7 ErrMin= 7.24D-04
 ErrMax= 7.24D-04 EMaxC= 1.00D-01 BMatC= 1.24D-04 BMatP= 1.24D-03
 IDIUse=3 WtCom= 9.93D-01 WtEn= 7.24D-03
 Coeff-Com: -0.102D-02 0.498D-02 0.609D-01-0.236D-01 0.142D+00 0.235D+00
 Coeff-Com:  0.582D+00
 Coeff-En:   0.000D+00 0.000D+00 0.000D+00 0.000D+00 0.000D+00 0.105D+00
 Coeff-En:   0.895D+00
 Coeff:     -0.102D-02 0.494D-02 0.604D-01-0.234D-01 0.141D+00 0.234D+00
 Coeff:      0.584D+00
 Gap=     0.115 Goal=   None    Shift=    0.000
 RMSDP=5.04D-05 MaxDP=2.60D-03 DE=-1.03D-03 OVMax= 9.67D-03

 Cycle   8  Pass 0  IDiag  1:
 E= -846.020513232595     Delta-E=       -0.000123240184 Rises=F Damp=F
 DIIS: error= 2.06D-04 at cycle   8 NSaved=   8.
 NSaved= 8 IEnMin= 8 EnMin= -846.020513232595     IErMin= 8 ErrMin= 2.06D-04
 ErrMax= 2.06D-04 EMaxC= 1.00D-01 BMatC= 2.66D-05 BMatP= 1.24D-04
 IDIUse=3 WtCom= 9.98D-01 WtEn= 2.06D-03
 Coeff-Com:  0.597D-03-0.287D-02 0.117D-01-0.372D-02 0.186D-01 0.942D-01
 Coeff-Com:  0.416D+00 0.465D+00
 Coeff-En:   0.000D+00 0.000D+00 0.000D+00 0.000D+00 0.000D+00 0.000D+00
 Coeff-En:   0.102D+00 0.898D+00
 Coeff:      0.596D-03-0.286D-02 0.117D-01-0.371D-02 0.185D-01 0.940D-01
 Coeff:      0.416D+00 0.466D+00
 Gap=     0.116 Goal=   None    Shift=    0.000
 RMSDP=1.84D-05 MaxDP=6.98D-04 DE=-1.23D-04 OVMax= 2.39D-03

 Cycle   9  Pass 0  IDiag  1:
 E= -846.020537790211     Delta-E=       -0.000024557616 Rises=F Damp=F
 DIIS: error= 4.01D-05 at cycle   9 NSaved=   9.
 NSaved= 9 IEnMin= 9 EnMin= -846.020537790211     IErMin= 9 ErrMin= 4.01D-05
 ErrMax= 4.01D-05 EMaxC= 1.00D-01 BMatC= 6.43D-07 BMatP= 2.66D-05
 IDIUse=1 WtCom= 1.00D+00 WtEn= 0.00D+00
 Coeff-Com:  0.418D-03-0.140D-02 0.133D-02-0.315D-03-0.147D-02 0.305D-01
 Coeff-Com:  0.161D+00 0.221D+00 0.589D+00
 Coeff:      0.418D-03-0.140D-02 0.133D-02-0.315D-03-0.147D-02 0.305D-01
 Coeff:      0.161D+00 0.221D+00 0.589D+00
 Gap=     0.116 Goal=   None    Shift=    0.000
 RMSDP=3.47D-06 MaxDP=1.23D-04 DE=-2.46D-05 OVMax= 4.30D-04

 Initial convergence to 1.0D-05 achieved.  Increase integral accuracy.
 Cycle  10  Pass 1  IDiag  1:
 E= -846.020428409492     Delta-E=        0.000109380720 Rises=F Damp=F
 DIIS: error= 2.63D-05 at cycle   1 NSaved=   1.
 NSaved= 1 IEnMin= 1 EnMin= -846.020428409492     IErMin= 1 ErrMin= 2.63D-05
 ErrMax= 2.63D-05 EMaxC= 1.00D-01 BMatC= 3.47D-07 BMatP= 3.47D-07
 IDIUse=1 WtCom= 1.00D+00 WtEn= 0.00D+00
 Coeff-Com:  0.100D+01
 Coeff:      0.100D+01
 Gap=     0.116 Goal=   None    Shift=    0.000
 RMSDP=3.47D-06 MaxDP=1.23D-04 DE= 1.09D-04 OVMax= 3.72D-04

 Cycle  11  Pass 1  IDiag  1:
 E= -846.020428293756     Delta-E=        0.000000115736 Rises=F Damp=F
 DIIS: error= 4.39D-05 at cycle   2 NSaved=   2.
 NSaved= 2 IEnMin= 1 EnMin= -846.020428409492     IErMin= 1 ErrMin= 2.63D-05
 ErrMax= 4.39D-05 EMaxC= 1.00D-01 BMatC= 4.97D-07 BMatP= 3.47D-07
 IDIUse=1 WtCom= 1.00D+00 WtEn= 0.00D+00
 Coeff-Com:  0.558D+00 0.442D+00
 Coeff:      0.558D+00 0.442D+00
 Gap=     0.116 Goal=   None    Shift=    0.000
 RMSDP=3.42D-06 MaxDP=1.25D-04 DE= 1.16D-07 OVMax= 3.17D-04

 Cycle  12  Pass 1  IDiag  1:
 E= -846.020428781167     Delta-E=       -0.000000487411 Rises=F Damp=F
 DIIS: error= 1.78D-05 at cycle   3 NSaved=   3.
 NSaved= 3 IEnMin= 3 EnMin= -846.020428781167     IErMin= 3 ErrMin= 1.78D-05
 ErrMax= 1.78D-05 EMaxC= 1.00D-01 BMatC= 7.40D-08 BMatP= 3.47D-07
 IDIUse=1 WtCom= 1.00D+00 WtEn= 0.00D+00
 Coeff-Com:  0.174D-01 0.275D+00 0.708D+00
 Coeff:      0.174D-01 0.275D+00 0.708D+00
 Gap=     0.116 Goal=   None    Shift=    0.000
 RMSDP=1.04D-06 MaxDP=3.77D-05 DE=-4.87D-07 OVMax= 9.51D-05

 Cycle  13  Pass 1  IDiag  1:
 E= -846.020428859889     Delta-E=       -0.000000078722 Rises=F Damp=F
 DIIS: error= 2.66D-06 at cycle   4 NSaved=   4.
 NSaved= 4 IEnMin= 4 EnMin= -846.020428859889     IErMin= 4 ErrMin= 2.66D-06
 ErrMax= 2.66D-06 EMaxC= 1.00D-01 BMatC= 6.18D-09 BMatP= 7.40D-08
 IDIUse=1 WtCom= 1.00D+00 WtEn= 0.00D+00
 Coeff-Com: -0.161D-01 0.141D+00 0.408D+00 0.467D+00
 Coeff:     -0.161D-01 0.141D+00 0.408D+00 0.467D+00
 Gap=     0.116 Goal=   None    Shift=    0.000
 RMSDP=2.62D-07 MaxDP=1.36D-05 DE=-7.87D-08 OVMax= 2.07D-05

 Cycle  14  Pass 1  IDiag  1:
 E= -846.020428865626     Delta-E=       -0.000000005737 Rises=F Damp=F
 DIIS: error= 4.01D-07 at cycle   5 NSaved=   5.
 NSaved= 5 IEnMin= 5 EnMin= -846.020428865626     IErMin= 5 ErrMin= 4.01D-07
 ErrMax= 4.01D-07 EMaxC= 1.00D-01 BMatC= 1.36D-10 BMatP= 6.18D-09
 IDIUse=1 WtCom= 1.00D+00 WtEn= 0.00D+00
 Coeff-Com: -0.729D-02 0.516D-01 0.149D+00 0.213D+00 0.594D+00
 Coeff:     -0.729D-02 0.516D-01 0.149D+00 0.213D+00 0.594D+00
 Gap=     0.116 Goal=   None    Shift=    0.000
 RMSDP=6.43D-08 MaxDP=3.12D-06 DE=-5.74D-09 OVMax= 8.03D-06

 Cycle  15  Pass 1  IDiag  1:
 E= -846.020428865718     Delta-E=       -0.000000000092 Rises=F Damp=F
 DIIS: error= 2.96D-07 at cycle   6 NSaved=   6.
 NSaved= 6 IEnMin= 6 EnMin= -846.020428865718     IErMin= 6 ErrMin= 2.96D-07
 ErrMax= 2.96D-07 EMaxC= 1.00D-01 BMatC= 3.72D-11 BMatP= 1.36D-10
 IDIUse=1 WtCom= 1.00D+00 WtEn= 0.00D+00
 Coeff-Com: -0.326D-02 0.201D-01 0.570D-01 0.929D-01 0.378D+00 0.455D+00
 Coeff:     -0.326D-02 0.201D-01 0.570D-01 0.929D-01 0.378D+00 0.455D+00
 Gap=     0.116 Goal=   None    Shift=    0.000
 RMSDP=2.99D-08 MaxDP=1.58D-06 DE=-9.19D-11 OVMax= 5.22D-06

 Cycle  16  Pass 1  IDiag  1:
 E= -846.020428865791     Delta-E=       -0.000000000073 Rises=F Damp=F
 DIIS: error= 1.59D-07 at cycle   7 NSaved=   7.
 NSaved= 7 IEnMin= 7 EnMin= -846.020428865791     IErMin= 7 ErrMin= 1.59D-07
 ErrMax= 1.59D-07 EMaxC= 1.00D-01 BMatC= 6.04D-12 BMatP= 3.72D-11
 IDIUse=1 WtCom= 1.00D+00 WtEn= 0.00D+00
 Coeff-Com: -0.108D-02 0.572D-02 0.160D-01 0.312D-01 0.168D+00 0.311D+00
 Coeff-Com:  0.469D+00
 Coeff:     -0.108D-02 0.572D-02 0.160D-01 0.312D-01 0.168D+00 0.311D+00
 Coeff:      0.469D+00
 Gap=     0.116 Goal=   None    Shift=    0.000
 RMSDP=1.10D-08 MaxDP=6.52D-07 DE=-7.28D-11 OVMax= 2.02D-06

 Cycle  17  Pass 1  IDiag  1:
 E= -846.020428865811     Delta-E=       -0.000000000020 Rises=F Damp=F
 DIIS: error= 4.41D-08 at cycle   8 NSaved=   8.
 NSaved= 8 IEnMin= 8 EnMin= -846.020428865811     IErMin= 8 ErrMin= 4.41D-08
 ErrMax= 4.41D-08 EMaxC= 1.00D-01 BMatC= 7.12D-13 BMatP= 6.04D-12
 IDIUse=1 WtCom= 1.00D+00 WtEn= 0.00D+00
 Coeff-Com: -0.118D-03 0.103D-04-0.316D-04 0.295D-02 0.357D-01 0.112D+00
 Coeff-Com:  0.296D+00 0.554D+00
 Coeff:     -0.118D-03 0.103D-04-0.316D-04 0.295D-02 0.357D-01 0.112D+00
 Coeff:      0.296D+00 0.554D+00
 Gap=     0.116 Goal=   None    Shift=    0.000
 RMSDP=3.70D-09 MaxDP=1.49D-07 DE=-2.00D-11 OVMax= 5.29D-07

 SCF Done:  E(RB3LYP) =  -846.020428866     A.U. after   17 cycles
             Convg  =    0.3701D-08             -V/T =  2.0096
 KE= 8.380042576530D+02 PE=-4.895723452748D+03 EE= 1.746091693269D+03
 Leave Link  502 at Wed Sep 29 15:55:49 2021, MaxMem= 1610612736 cpu:     599.6
 (Enter /sw/target/amd/app/gaussian/Gaussian09RevA.02_gcc-4.9.2/g09/l508.exe)
 QCSCF skips out because SCF is already converged.
 Leave Link  508 at Wed Sep 29 15:55:52 2021, MaxMem= 1610612736 cpu:       0.0
 (Enter /sw/target/amd/app/gaussian/Gaussian09RevA.02_gcc-4.9.2/g09/l601.exe)
 Copying SCF densities to generalized density rwf, IOpCl= 0 IROHF=0.

 **********************************************************************

            Population analysis using the SCF density.

 **********************************************************************

 Orbital symmetries:
       Occupied  (A) (A) (A) (A) (A) (A) (A) (A) (A) (A) (A) (A)
                 (A) (A) (A) (A) (A) (A) (A) (A) (A) (A) (A) (A)
                 (A) (A) (A) (A) (A) (A) (A) (A) (A) (A) (A) (A)
                 (A) (A) (A) (A) (A) (A) (A) (A) (A) (A) (A) (A)
                 (A) (A) (A) (A) (A) (A) (A) (A) (A) (A) (A) (A)
                 (A) (A) (A) (A) (A) (A) (A) (A) (A) (A)
       Virtual   (A) (A) (A) (A) (A) (A) (A) (A) (A) (A) (A) (A)
                 (A) (A) (A) (A) (A) (A) (A) (A) (A) (A) (A) (A)
                 (A) (A) (A) (A) (A) (A) (A) (A) (A) (A) (A) (A)
                 (A) (A) (A) (A) (A) (A) (A) (A) (A) (A) (A) (A)
                 (A) (A) (A) (A) (A) (A) (A) (A) (A) (A) (A) (A)
                 (A) (A) (A) (A) (A) (A) (A) (A) (A) (A) (A) (A)
                 (A) (A) (A) (A) (A) (A) (A) (A) (A) (A) (A) (A)
                 (A) (A) (A) (A) (A) (A) (A) (A) (A) (A) (A) (A)
                 (A) (A) (A) (A) (A) (A) (A) (A) (A) (A) (A) (A)
                 (A) (A) (A) (A) (A) (A) (A) (A) (A) (A) (A) (A)
                 (A) (A) (A) (A) (A) (A) (A) (A) (A) (A) (A) (A)
                 (A) (A) (A) (A) (A) (A) (A) (A) (A) (A) (A) (A)
                 (A) (A) (A) (A) (A) (A) (A) (A) (A) (A) (A) (A)
                 (A) (A) (A) (A) (A) (A) (A) (A) (A) (A) (A) (A)
                 (A) (A) (A) (A) (A) (A) (A) (A) (A) (A) (A) (A)
                 (A) (A) (A) (A) (A) (A) (A) (A) (A) (A) (A) (A)
                 (A) (A) (A) (A) (A) (A) (A) (A) (A) (A) (A) (A)
                 (A) (A) (A) (A) (A) (A) (A) (A) (A) (A) (A) (A)
                 (A) (A) (A) (A) (A) (A) (A) (A) (A) (A) (A) (A)
                 (A) (A) (A) (A) (A) (A) (A) (A) (A) (A) (A) (A)
                 (A) (A) (A) (A) (A) (A) (A) (A) (A) (A) (A) (A)
                 (A) (A) (A) (A) (A) (A) (A) (A) (A) (A)
 The electronic state is 1-A.
 Alpha  occ. eigenvalues --  -19.20316 -19.14487 -10.32127 -10.25550 -10.20840
 Alpha  occ. eigenvalues --  -10.20365 -10.20313 -10.19827 -10.19813 -10.19380
 Alpha  occ. eigenvalues --  -10.19334 -10.19322 -10.19281 -10.19234 -10.19207
 Alpha  occ. eigenvalues --  -10.19172 -10.19149 -10.19065 -10.18845 -10.17791
 Alpha  occ. eigenvalues --   -1.09383  -1.01834  -0.88582  -0.85524  -0.81453
 Alpha  occ. eigenvalues --   -0.80200  -0.77863  -0.75077  -0.74825  -0.70441
 Alpha  occ. eigenvalues --   -0.69092  -0.66549  -0.64620  -0.61776  -0.59719
 Alpha  occ. eigenvalues --   -0.59606  -0.55837  -0.53607  -0.52939  -0.50632
 Alpha  occ. eigenvalues --   -0.49413  -0.47197  -0.46896  -0.46431  -0.46153
 Alpha  occ. eigenvalues --   -0.45145  -0.43940  -0.43088  -0.42144  -0.41627
 Alpha  occ. eigenvalues --   -0.41325  -0.39895  -0.39423  -0.39136  -0.38628
 Alpha  occ. eigenvalues --   -0.37617  -0.36588  -0.36454  -0.35335  -0.34797
 Alpha  occ. eigenvalues --   -0.34668  -0.33969  -0.33590  -0.31629  -0.30316
 Alpha  occ. eigenvalues --   -0.28547  -0.27433  -0.25217  -0.24836  -0.18680
 Alpha virt. eigenvalues --   -0.07125  -0.00868  -0.00192   0.00277   0.04309
 Alpha virt. eigenvalues --    0.06473   0.08077   0.09852   0.10111   0.11881
 Alpha virt. eigenvalues --    0.12468   0.12568   0.14901   0.15142   0.15642
 Alpha virt. eigenvalues --    0.15703   0.16237   0.17151   0.17461   0.18066
 Alpha virt. eigenvalues --    0.18882   0.19611   0.19711   0.19987   0.21787
 Alpha virt. eigenvalues --    0.22734   0.23963   0.24697   0.25301   0.26775
 Alpha virt. eigenvalues --    0.28213   0.29440   0.30162   0.31541   0.32175
 Alpha virt. eigenvalues --    0.33622   0.35065   0.35790   0.37083   0.38927
 Alpha virt. eigenvalues --    0.46691   0.46974   0.48704   0.50100   0.50222
 Alpha virt. eigenvalues --    0.50605   0.51216   0.51895   0.52789   0.53907
 Alpha virt. eigenvalues --    0.54793   0.55231   0.55653   0.56027   0.56203
 Alpha virt. eigenvalues --    0.56625   0.57763   0.58075   0.58976   0.59710
 Alpha virt. eigenvalues --    0.59797   0.60858   0.60926   0.61281   0.61890
 Alpha virt. eigenvalues --    0.61988   0.62111   0.62862   0.63482   0.63781
 Alpha virt. eigenvalues --    0.64220   0.65649   0.66598   0.67652   0.69565
 Alpha virt. eigenvalues --    0.70210   0.70971   0.73132   0.73670   0.75162
 Alpha virt. eigenvalues --    0.77165   0.78603   0.79969   0.81006   0.81839
 Alpha virt. eigenvalues --    0.82690   0.83592   0.83790   0.84873   0.85517
 Alpha virt. eigenvalues --    0.86030   0.87019   0.87330   0.88168   0.89219
 Alpha virt. eigenvalues --    0.89460   0.89926   0.91102   0.91822   0.92671
 Alpha virt. eigenvalues --    0.93182   0.93662   0.95034   0.96327   0.97142
 Alpha virt. eigenvalues --    0.97813   0.98520   0.99451   1.01707   1.02777
 Alpha virt. eigenvalues --    1.03105   1.04799   1.06168   1.07054   1.09380
 Alpha virt. eigenvalues --    1.10395   1.11611   1.12739   1.14391   1.15159
 Alpha virt. eigenvalues --    1.16317   1.18840   1.20312   1.22327   1.23303
 Alpha virt. eigenvalues --    1.24806   1.25382   1.26514   1.29021   1.32856
 Alpha virt. eigenvalues --    1.35443   1.35627   1.38237   1.39841   1.40512
 Alpha virt. eigenvalues --    1.42477   1.43535   1.44138   1.45549   1.46538
 Alpha virt. eigenvalues --    1.48149   1.48666   1.49192   1.49881   1.50050
 Alpha virt. eigenvalues --    1.51374   1.54146   1.54301   1.56994   1.57317
 Alpha virt. eigenvalues --    1.59341   1.67459   1.68546   1.70906   1.72041
 Alpha virt. eigenvalues --    1.74916   1.75841   1.76515   1.79000   1.80564
 Alpha virt. eigenvalues --    1.81169   1.82710   1.83041   1.84770   1.85817
 Alpha virt. eigenvalues --    1.87115   1.88487   1.90635   1.91007   1.91587
 Alpha virt. eigenvalues --    1.92385   1.92806   1.93746   1.94858   1.95622
 Alpha virt. eigenvalues --    1.96853   1.99396   2.00593   2.01197   2.02513
 Alpha virt. eigenvalues --    2.04010   2.05299   2.06453   2.07080   2.08555
 Alpha virt. eigenvalues --    2.10356   2.11014   2.12587   2.15616   2.16304
 Alpha virt. eigenvalues --    2.19201   2.20495   2.23593   2.23892   2.24818
 Alpha virt. eigenvalues --    2.25675   2.27529   2.28126   2.28732   2.29807
 Alpha virt. eigenvalues --    2.30671   2.32118   2.35223   2.35619   2.36134
 Alpha virt. eigenvalues --    2.37612   2.40286   2.40627   2.41702   2.44125
 Alpha virt. eigenvalues --    2.47796   2.52316   2.55639   2.58109   2.58997
 Alpha virt. eigenvalues --    2.62311   2.63807   2.65035   2.66415   2.67713
 Alpha virt. eigenvalues --    2.67933   2.68470   2.71060   2.73771   2.73853
 Alpha virt. eigenvalues --    2.74761   2.79600   2.82027   2.83043   2.84007
 Alpha virt. eigenvalues --    2.86482   2.89631   2.93917   2.95007   2.97145
 Alpha virt. eigenvalues --    3.06384   3.09369   3.15349   3.20472   3.31471
 Alpha virt. eigenvalues --    3.46955   3.52146   4.06401   4.08795   4.09573
 Alpha virt. eigenvalues --    4.10552   4.11221   4.12680   4.13956   4.15250
 Alpha virt. eigenvalues --    4.18154   4.24723   4.31308   4.33503   4.34153
 Alpha virt. eigenvalues --    4.36385   4.44122   4.44851   4.53439   4.65668
 Alpha virt. eigenvalues --    4.66579   4.90682
          Condensed to atoms (all electrons):
              1          2          3          4          5          6
     1  O    8.034984   0.540913  -0.080009   0.004208  -0.001620  -0.065577
     2  C    0.540913   4.416125   0.349357  -0.038108  -0.033204   0.201178
     3  C   -0.080009   0.349357   5.086469   0.354316   0.364270  -0.090704
     4  C    0.004208  -0.038108   0.354316   5.100659  -0.053055   0.003333
     5  C   -0.001620  -0.033204   0.364270  -0.053055   5.104107  -0.001407
     6  O   -0.065577   0.201178  -0.090704   0.003333  -0.001407   8.420837
     7  C    0.009348  -0.002020   0.002811  -0.000041  -0.000175   0.196842
     8  C   -0.000813  -0.004328  -0.000312   0.000007  -0.000019  -0.069713
     9  C    0.000064   0.000322  -0.000125   0.000001   0.000004  -0.002830
    10  C   -0.000000   0.000018  -0.000000   0.000000   0.000000   0.000476
    11  C   -0.000000  -0.000000  -0.000000   0.000000  -0.000000  -0.000002
    12  C    0.000000  -0.000001  -0.000000   0.000000   0.000000  -0.000058
    13  C   -0.000045   0.000065   0.000006  -0.000000  -0.000000   0.003724
    14  C    0.000011  -0.000009  -0.000000  -0.000000   0.000000  -0.000017
    15  C   -0.000408   0.000007   0.000005  -0.000000   0.000002   0.004039
    16  C    0.000980  -0.008409   0.000588  -0.000009   0.000154  -0.066374
    17  C    0.000484   0.004173  -0.000888   0.000018  -0.001528  -0.003165
    18  C   -0.000166  -0.000034  -0.000017   0.000001   0.000002   0.000555
    19  C    0.000003  -0.000002   0.000000  -0.000000   0.000000  -0.000010
    20  C   -0.000000  -0.000009  -0.000000   0.000000  -0.000000  -0.000050
    21  H    0.002559  -0.035446   0.362631  -0.044282  -0.036027   0.003762
    22  H    0.003865  -0.005995  -0.030477   0.375939  -0.005733   0.000041
    23  H    0.001814  -0.003035  -0.030930   0.374343   0.005081   0.000058
    24  H    0.000389   0.004921  -0.028611   0.364216  -0.003621  -0.000040
    25  H    0.001401  -0.004801  -0.034770  -0.006106   0.374253   0.000011
    26  H   -0.000060   0.004026  -0.030157  -0.003175   0.373648  -0.000035
    27  H    0.000027  -0.005627  -0.030751   0.005474   0.368446   0.006028
    28  H   -0.000040   0.000267   0.000052  -0.000005  -0.000002   0.008746
    29  H   -0.000000  -0.000000  -0.000000   0.000000   0.000000  -0.000002
    30  H   -0.000000  -0.000000   0.000000   0.000000  -0.000000   0.000000
    31  H    0.000000   0.000000   0.000000  -0.000000   0.000000   0.000000
    32  H    0.000000   0.000000   0.000000  -0.000000   0.000000   0.000002
    33  H   -0.001125   0.002672  -0.001496   0.000016   0.003547   0.001920
    34  H   -0.000003   0.000001  -0.000000   0.000000  -0.000002   0.000002
    35  H    0.000000  -0.000000   0.000000  -0.000000   0.000000   0.000000
    36  H    0.000000   0.000000   0.000000  -0.000000  -0.000000   0.000000
              7          8          9         10         11         12
     1  O    0.009348  -0.000813   0.000064  -0.000000  -0.000000   0.000000
     2  C   -0.002020  -0.004328   0.000322   0.000018  -0.000000  -0.000001
     3  C    0.002811  -0.000312  -0.000125  -0.000000  -0.000000  -0.000000
     4  C   -0.000041   0.000007   0.000001   0.000000   0.000000   0.000000
     5  C   -0.000175  -0.000019   0.000004   0.000000  -0.000000   0.000000
     6  O    0.196842  -0.069713  -0.002830   0.000476  -0.000002  -0.000058
     7  C    5.275636   0.310670  -0.108622   0.007360  -0.000916   0.015843
     8  C    0.310670   4.919055   0.417737  -0.002134  -0.038492  -0.028019
     9  C   -0.108622   0.417737   5.174619   0.512235  -0.018141  -0.074712
    10  C    0.007360  -0.002134   0.512235   4.900295   0.490692  -0.022595
    11  C   -0.000916  -0.038492  -0.018141   0.490692   4.904840   0.520727
    12  C    0.015843  -0.028019  -0.074712  -0.022595   0.520727   5.107610
    13  C    0.036163   0.428917  -0.050478  -0.035410  -0.002891   0.437296
    14  C   -0.126750  -0.015469   0.018695  -0.000645   0.007792  -0.085551
    15  C    0.036413  -0.056599  -0.001851   0.000089  -0.000339   0.008119
    16  C    0.290601   0.003196   0.013974  -0.000332   0.000036  -0.000109
    17  C   -0.099958   0.013441  -0.000039  -0.000001   0.000000  -0.000006
    18  C    0.007154  -0.000290  -0.000001   0.000000  -0.000000   0.000000
    19  C   -0.000901   0.000028   0.000000  -0.000000  -0.000000   0.000002
    20  C    0.015418   0.000245  -0.000002   0.000000   0.000003  -0.000356
    21  H   -0.000186   0.000070  -0.000049  -0.000000   0.000000  -0.000000
    22  H   -0.000001   0.000000  -0.000000  -0.000000   0.000000  -0.000000
    23  H   -0.000010  -0.000001   0.000000   0.000000  -0.000000   0.000000
    24  H    0.000000  -0.000000   0.000000  -0.000000  -0.000000   0.000000
    25  H   -0.000027   0.000001  -0.000000  -0.000000   0.000000  -0.000000
    26  H    0.000003   0.000000  -0.000000  -0.000000  -0.000000   0.000000
    27  H   -0.000003   0.000003   0.000002   0.000000   0.000000   0.000000
    28  H   -0.011307  -0.037163   0.355335  -0.044916   0.004717   0.000563
    29  H   -0.000149   0.002565  -0.035967   0.359862  -0.042802   0.004425
    30  H    0.000016   0.001100   0.004121  -0.041870   0.356440  -0.035091
    31  H   -0.000163   0.004450   0.000514   0.004771  -0.045590   0.357139
    32  H    0.000652   0.004229  -0.000212   0.000018   0.000202  -0.007510
    33  H   -0.010768   0.000039   0.000003  -0.000000  -0.000000   0.000000
    34  H   -0.000146   0.000002  -0.000000  -0.000000   0.000000   0.000000
    35  H    0.000017  -0.000001  -0.000000   0.000000  -0.000000  -0.000000
    36  H   -0.000158   0.000008  -0.000000   0.000000   0.000000  -0.000001
             13         14         15         16         17         18
     1  O   -0.000045   0.000011  -0.000408   0.000980   0.000484  -0.000166
     2  C    0.000065  -0.000009   0.000007  -0.008409   0.004173  -0.000034
     3  C    0.000006  -0.000000   0.000005   0.000588  -0.000888  -0.000017
     4  C   -0.000000  -0.000000  -0.000000  -0.000009   0.000018   0.000001
     5  C   -0.000000   0.000000   0.000002   0.000154  -0.001528   0.000002
     6  O    0.003724  -0.000017   0.004039  -0.066374  -0.003165   0.000555
     7  C    0.036163  -0.126750   0.036413   0.290601  -0.099958   0.007154
     8  C    0.428917  -0.015469  -0.056599   0.003196   0.013441  -0.000290
     9  C   -0.050478   0.018695  -0.001851   0.013974  -0.000039  -0.000001
    10  C   -0.035410  -0.000645   0.000089  -0.000332  -0.000001   0.000000
    11  C   -0.002891   0.007792  -0.000339   0.000036   0.000000  -0.000000
    12  C    0.437296  -0.085551   0.008119  -0.000109  -0.000006   0.000000
    13  C    4.760121   0.375882   0.036022  -0.055652  -0.001780   0.000083
    14  C    0.375882   5.473877   0.374319  -0.016014   0.018407  -0.000571
    15  C    0.036022   0.374319   4.765945   0.429859  -0.051289  -0.034666
    16  C   -0.055652  -0.016014   0.429859   4.892212   0.421661  -0.002481
    17  C   -0.001780   0.018407  -0.051289   0.421661   5.160055   0.523899
    18  C    0.000083  -0.000571  -0.034666  -0.002481   0.523899   4.885600
    19  C   -0.000342   0.007780  -0.002691  -0.038895  -0.019286   0.492966
    20  C    0.007686  -0.083649   0.436256  -0.027954  -0.072985  -0.023892
    21  H    0.000000   0.000000  -0.000000  -0.000027  -0.000009   0.000000
    22  H    0.000000  -0.000000  -0.000000  -0.000002  -0.000001   0.000000
    23  H    0.000000  -0.000000   0.000000   0.000001   0.000000   0.000000
    24  H    0.000000  -0.000000   0.000000   0.000000  -0.000000  -0.000000
    25  H    0.000000  -0.000000   0.000000   0.000028  -0.000612   0.000005
    26  H    0.000000  -0.000000   0.000000  -0.000002   0.000038  -0.000000
    27  H   -0.000000   0.000000  -0.000002  -0.000163  -0.000196   0.000042
    28  H    0.004854  -0.000195   0.000004   0.000208  -0.000000  -0.000000
    29  H    0.000949   0.000009  -0.000001   0.000002  -0.000000  -0.000000
    30  H    0.002557  -0.000212   0.000004  -0.000001  -0.000000   0.000000
    31  H   -0.041958  -0.008756   0.000324   0.000016  -0.000000  -0.000000
    32  H   -0.041556   0.350892  -0.041624   0.004240  -0.000206   0.000016
    33  H    0.000009  -0.000193   0.004588  -0.036909   0.347944  -0.042964
    34  H   -0.000000   0.000009   0.000961   0.002596  -0.036148   0.359901
    35  H    0.000004  -0.000213   0.002517   0.001168   0.004374  -0.041917
    36  H    0.000363  -0.008805  -0.042081   0.004453   0.000493   0.004819
             19         20         21         22         23         24
     1  O    0.000003  -0.000000   0.002559   0.003865   0.001814   0.000389
     2  C   -0.000002  -0.000009  -0.035446  -0.005995  -0.003035   0.004921
     3  C    0.000000  -0.000000   0.362631  -0.030477  -0.030930  -0.028611
     4  C   -0.000000   0.000000  -0.044282   0.375939   0.374343   0.364216
     5  C    0.000000  -0.000000  -0.036027  -0.005733   0.005081  -0.003621
     6  O   -0.000010  -0.000050   0.003762   0.000041   0.000058  -0.000040
     7  C   -0.000901   0.015418  -0.000186  -0.000001  -0.000010   0.000000
     8  C    0.000028   0.000245   0.000070   0.000000  -0.000001  -0.000000
     9  C    0.000000  -0.000002  -0.000049  -0.000000   0.000000   0.000000
    10  C   -0.000000   0.000000  -0.000000  -0.000000   0.000000  -0.000000
    11  C   -0.000000   0.000003   0.000000   0.000000  -0.000000  -0.000000
    12  C    0.000002  -0.000356  -0.000000  -0.000000   0.000000   0.000000
    13  C   -0.000342   0.007686   0.000000   0.000000   0.000000   0.000000
    14  C    0.007780  -0.083649   0.000000  -0.000000  -0.000000  -0.000000
    15  C   -0.002691   0.436256  -0.000000  -0.000000   0.000000   0.000000
    16  C   -0.038895  -0.027954  -0.000027  -0.000002   0.000001   0.000000
    17  C   -0.019286  -0.072985  -0.000009  -0.000001   0.000000  -0.000000
    18  C    0.492966  -0.023892   0.000000   0.000000   0.000000  -0.000000
    19  C    4.903479   0.522620   0.000000  -0.000000  -0.000000  -0.000000
    20  C    0.522620   5.102482   0.000000   0.000000  -0.000000  -0.000000
    21  H    0.000000   0.000000   0.592158   0.005262  -0.001819  -0.004221
    22  H   -0.000000   0.000000   0.005262   0.549125  -0.026942  -0.031063
    23  H   -0.000000  -0.000000  -0.001819  -0.026942   0.554584  -0.029340
    24  H   -0.000000  -0.000000  -0.004221  -0.031063  -0.029340   0.583220
    25  H    0.000000  -0.000000   0.005473   0.005778   0.000012  -0.000183
    26  H   -0.000000   0.000000  -0.005403  -0.000420  -0.000012   0.003156
    27  H    0.000000  -0.000000  -0.002574   0.000019  -0.000191  -0.000069
    28  H    0.000000   0.000000   0.000368   0.000000  -0.000000  -0.000000
    29  H    0.000000   0.000000  -0.000000  -0.000000   0.000000   0.000000
    30  H   -0.000000  -0.000000  -0.000000   0.000000  -0.000000  -0.000000
    31  H    0.000000  -0.000003  -0.000000  -0.000000  -0.000000   0.000000
    32  H    0.000206  -0.007579   0.000000  -0.000000  -0.000000   0.000000
    33  H    0.004809   0.000709   0.000047   0.000003  -0.000000   0.000000
    34  H   -0.042380   0.004370  -0.000000   0.000000  -0.000000   0.000000
    35  H    0.355586  -0.035344  -0.000000  -0.000000  -0.000000  -0.000000
    36  H   -0.045656   0.357353  -0.000000   0.000000  -0.000000   0.000000
             25         26         27         28         29         30
     1  O    0.001401  -0.000060   0.000027  -0.000040  -0.000000  -0.000000
     2  C   -0.004801   0.004026  -0.005627   0.000267  -0.000000  -0.000000
     3  C   -0.034770  -0.030157  -0.030751   0.000052  -0.000000   0.000000
     4  C   -0.006106  -0.003175   0.005474  -0.000005   0.000000   0.000000
     5  C    0.374253   0.373648   0.368446  -0.000002   0.000000  -0.000000
     6  O    0.000011  -0.000035   0.006028   0.008746  -0.000002   0.000000
     7  C   -0.000027   0.000003  -0.000003  -0.011307  -0.000149   0.000016
     8  C    0.000001   0.000000   0.000003  -0.037163   0.002565   0.001100
     9  C   -0.000000  -0.000000   0.000002   0.355335  -0.035967   0.004121
    10  C   -0.000000  -0.000000   0.000000  -0.044916   0.359862  -0.041870
    11  C    0.000000  -0.000000   0.000000   0.004717  -0.042802   0.356440
    12  C   -0.000000   0.000000   0.000000   0.000563   0.004425  -0.035091
    13  C    0.000000   0.000000  -0.000000   0.004854   0.000949   0.002557
    14  C   -0.000000  -0.000000   0.000000  -0.000195   0.000009  -0.000212
    15  C    0.000000   0.000000  -0.000002   0.000004  -0.000001   0.000004
    16  C    0.000028  -0.000002  -0.000163   0.000208   0.000002  -0.000001
    17  C   -0.000612   0.000038  -0.000196  -0.000000  -0.000000  -0.000000
    18  C    0.000005  -0.000000   0.000042  -0.000000  -0.000000   0.000000
    19  C    0.000000  -0.000000   0.000000   0.000000   0.000000  -0.000000
    20  C   -0.000000   0.000000  -0.000000   0.000000   0.000000  -0.000000
    21  H    0.005473  -0.005403  -0.002574   0.000368  -0.000000  -0.000000
    22  H    0.005778  -0.000420   0.000019   0.000000  -0.000000   0.000000
    23  H    0.000012  -0.000012  -0.000191  -0.000000   0.000000  -0.000000
    24  H   -0.000183   0.003156  -0.000069  -0.000000   0.000000  -0.000000
[...]
    75    C    5  dz2    Ryd( 3d)     0.00025

    76    O    6  S      Cor( 1S)     1.99971
    77    O    6  S      Val( 2S)     1.60324
    78    O    6  S      Ryd( 3S)     0.00124
    79    O    6  S      Ryd( 4S)     0.00012
    80    O    6  px     Val( 2p)     1.43154
    81    O    6  px     Ryd( 3p)     0.00093
    82    O    6  py     Val( 2p)     1.80698
    83    O    6  py     Ryd( 3p)     0.00200
    84    O    6  pz     Val( 2p)     1.70118
    85    O    6  pz     Ryd( 3p)     0.00133
    86    O    6  dxy    Ryd( 3d)     0.00025
    87    O    6  dxz    Ryd( 3d)     0.00146
    88    O    6  dyz    Ryd( 3d)     0.00160
    89    O    6  dx2y2  Ryd( 3d)     0.00058
    90    O    6  dz2    Ryd( 3d)     0.00145

    91    C    7  S      Cor( 1S)     1.99861
    92    C    7  S      Val( 2S)     0.81571
    93    C    7  S      Ryd( 3S)     0.00150
    94    C    7  S      Ryd( 4S)     0.00016
    95    C    7  px     Val( 2p)     0.75372
    96    C    7  px     Ryd( 3p)     0.00757
    97    C    7  py     Val( 2p)     1.05780
    98    C    7  py     Ryd( 3p)     0.00351
    99    C    7  pz     Val( 2p)     0.99511
   100    C    7  pz     Ryd( 3p)     0.00577
   101    C    7  dxy    Ryd( 3d)     0.00146
   102    C    7  dxz    Ryd( 3d)     0.00116
   103    C    7  dyz    Ryd( 3d)     0.00079
   104    C    7  dx2y2  Ryd( 3d)     0.00161
   105    C    7  dz2    Ryd( 3d)     0.00052

   106    C    8  S      Cor( 1S)     1.99894
   107    C    8  S      Val( 2S)     0.87091
   108    C    8  S      Ryd( 3S)     0.00066
   109    C    8  S      Ryd( 4S)     0.00007
   110    C    8  px     Val( 2p)     1.08007
   111    C    8  px     Ryd( 3p)     0.00548
   112    C    8  py     Val( 2p)     1.10113
   113    C    8  py     Ryd( 3p)     0.00446
   114    C    8  pz     Val( 2p)     1.01335
   115    C    8  pz     Ryd( 3p)     0.00094
   116    C    8  dxy    Ryd( 3d)     0.00074
   117    C    8  dxz    Ryd( 3d)     0.00049
   118    C    8  dyz    Ryd( 3d)     0.00096
   119    C    8  dx2y2  Ryd( 3d)     0.00061
   120    C    8  dz2    Ryd( 3d)     0.00037

   121    C    9  S      Cor( 1S)     1.99906
   122    C    9  S      Val( 2S)     0.94862
   123    C    9  S      Ryd( 3S)     0.00071
   124    C    9  S      Ryd( 4S)     0.00005
   125    C    9  px     Val( 2p)     1.18908
   126    C    9  px     Ryd( 3p)     0.00457
   127    C    9  py     Val( 2p)     1.04777
   128    C    9  py     Ryd( 3p)     0.00433
   129    C    9  pz     Val( 2p)     1.01287
   130    C    9  pz     Ryd( 3p)     0.00262
   131    C    9  dxy    Ryd( 3d)     0.00062
   132    C    9  dxz    Ryd( 3d)     0.00041
   133    C    9  dyz    Ryd( 3d)     0.00058
   134    C    9  dx2y2  Ryd( 3d)     0.00083
   135    C    9  dz2    Ryd( 3d)     0.00039

   136    C   10  S      Cor( 1S)     1.99910
   137    C   10  S      Val( 2S)     0.96297
   138    C   10  S      Ryd( 3S)     0.00063
   139    C   10  S      Ryd( 4S)     0.00003
   140    C   10  px     Val( 2p)     1.06851
   141    C   10  px     Ryd( 3p)     0.00451
   142    C   10  py     Val( 2p)     1.18050
   143    C   10  py     Ryd( 3p)     0.00507
   144    C   10  pz     Val( 2p)     1.00148
   145    C   10  pz     Ryd( 3p)     0.00170
   146    C   10  dxy    Ryd( 3d)     0.00074
   147    C   10  dxz    Ryd( 3d)     0.00057
   148    C   10  dyz    Ryd( 3d)     0.00046
   149    C   10  dx2y2  Ryd( 3d)     0.00074
   150    C   10  dz2    Ryd( 3d)     0.00044

   151    C   11  S      Cor( 1S)     1.99910
   152    C   11  S      Val( 2S)     0.96353
   153    C   11  S      Ryd( 3S)     0.00060
   154    C   11  S      Ryd( 4S)     0.00003
   155    C   11  px     Val( 2p)     1.10410
   156    C   11  px     Ryd( 3p)     0.00466
   157    C   11  py     Val( 2p)     1.14852
   158    C   11  py     Ryd( 3p)     0.00491
   159    C   11  pz     Val( 2p)     0.99810
   160    C   11  pz     Ryd( 3p)     0.00158
   161    C   11  dxy    Ryd( 3d)     0.00087
   162    C   11  dxz    Ryd( 3d)     0.00045
   163    C   11  dyz    Ryd( 3d)     0.00055
   164    C   11  dx2y2  Ryd( 3d)     0.00061
   165    C   11  dz2    Ryd( 3d)     0.00046

   166    C   12  S      Cor( 1S)     1.99906
   167    C   12  S      Val( 2S)     0.95053
   168    C   12  S      Ryd( 3S)     0.00069
   169    C   12  S      Ryd( 4S)     0.00004
   170    C   12  px     Val( 2p)     1.17548
   171    C   12  px     Ryd( 3p)     0.00461
   172    C   12  py     Val( 2p)     1.05919
   173    C   12  py     Ryd( 3p)     0.00411
   174    C   12  pz     Val( 2p)     1.01232
   175    C   12  pz     Ryd( 3p)     0.00229
   176    C   12  dxy    Ryd( 3d)     0.00067
   177    C   12  dxz    Ryd( 3d)     0.00034
   178    C   12  dyz    Ryd( 3d)     0.00062
   179    C   12  dx2y2  Ryd( 3d)     0.00080
   180    C   12  dz2    Ryd( 3d)     0.00040

   181    C   13  S      Cor( 1S)     1.99903
   182    C   13  S      Val( 2S)     0.86829
   183    C   13  S      Ryd( 3S)     0.00053
   184    C   13  S      Ryd( 4S)     0.00007
   185    C   13  px     Val( 2p)     1.06957
   186    C   13  px     Ryd( 3p)     0.00531
   187    C   13  py     Val( 2p)     1.09779
   188    C   13  py     Ryd( 3p)     0.00506
   189    C   13  pz     Val( 2p)     1.00119
   190    C   13  pz     Ryd( 3p)     0.00078
   191    C   13  dxy    Ryd( 3d)     0.00067
   192    C   13  dxz    Ryd( 3d)     0.00048
   193    C   13  dyz    Ryd( 3d)     0.00095
   194    C   13  dx2y2  Ryd( 3d)     0.00074
   195    C   13  dz2    Ryd( 3d)     0.00036

   196    C   14  S      Cor( 1S)     1.99901
   197    C   14  S      Val( 2S)     0.93639
   198    C   14  S      Ryd( 3S)     0.00059
   199    C   14  S      Ryd( 4S)     0.00005
   200    C   14  px     Val( 2p)     1.17994
   201    C   14  px     Ryd( 3p)     0.00446
   202    C   14  py     Val( 2p)     1.04776
   203    C   14  py     Ryd( 3p)     0.00325
   204    C   14  pz     Val( 2p)     0.99459
   205    C   14  pz     Ryd( 3p)     0.00239
   206    C   14  dxy    Ryd( 3d)     0.00066
   207    C   14  dxz    Ryd( 3d)     0.00037
   208    C   14  dyz    Ryd( 3d)     0.00062
   209    C   14  dx2y2  Ryd( 3d)     0.00082
   210    C   14  dz2    Ryd( 3d)     0.00040

   211    C   15  S      Cor( 1S)     1.99903
   212    C   15  S      Val( 2S)     0.86837
   213    C   15  S      Ryd( 3S)     0.00053
   214    C   15  S      Ryd( 4S)     0.00007
   215    C   15  px     Val( 2p)     1.06947
   216    C   15  px     Ryd( 3p)     0.00545
   217    C   15  py     Val( 2p)     1.09772
   218    C   15  py     Ryd( 3p)     0.00492
   219    C   15  pz     Val( 2p)     1.00131
   220    C   15  pz     Ryd( 3p)     0.00077
   221    C   15  dxy    Ryd( 3d)     0.00069
   222    C   15  dxz    Ryd( 3d)     0.00050
   223    C   15  dyz    Ryd( 3d)     0.00093
   224    C   15  dx2y2  Ryd( 3d)     0.00071
   225    C   15  dz2    Ryd( 3d)     0.00036

   226    C   16  S      Cor( 1S)     1.99894
   227    C   16  S      Val( 2S)     0.87084
   228    C   16  S      Ryd( 3S)     0.00066
   229    C   16  S      Ryd( 4S)     0.00007
   230    C   16  px     Val( 2p)     1.08288
   231    C   16  px     Ryd( 3p)     0.00522
   232    C   16  py     Val( 2p)     1.09877
   233    C   16  py     Ryd( 3p)     0.00471
   234    C   16  pz     Val( 2p)     1.01305
   235    C   16  pz     Ryd( 3p)     0.00096
   236    C   16  dxy    Ryd( 3d)     0.00061
   237    C   16  dxz    Ryd( 3d)     0.00047
   238    C   16  dyz    Ryd( 3d)     0.00097
   239    C   16  dx2y2  Ryd( 3d)     0.00075
   240    C   16  dz2    Ryd( 3d)     0.00037

   241    C   17  S      Cor( 1S)     1.99906
   242    C   17  S      Val( 2S)     0.94829
   243    C   17  S      Ryd( 3S)     0.00073
   244    C   17  S      Ryd( 4S)     0.00005
   245    C   17  px     Val( 2p)     1.18041
   246    C   17  px     Ryd( 3p)     0.00466
   247    C   17  py     Val( 2p)     1.05646
   248    C   17  py     Ryd( 3p)     0.00429
   249    C   17  pz     Val( 2p)     1.01144
   250    C   17  pz     Ryd( 3p)     0.00269
   251    C   17  dxy    Ryd( 3d)     0.00067
   252    C   17  dxz    Ryd( 3d)     0.00036
   253    C   17  dyz    Ryd( 3d)     0.00062
   254    C   17  dx2y2  Ryd( 3d)     0.00078
   255    C   17  dz2    Ryd( 3d)     0.00039

   256    C   18  S      Cor( 1S)     1.99910
   257    C   18  S      Val( 2S)     0.96301
   258    C   18  S      Ryd( 3S)     0.00062
   259    C   18  S      Ryd( 4S)     0.00003
   260    C   18  px     Val( 2p)     1.10157
   261    C   18  px     Ryd( 3p)     0.00464
   262    C   18  py     Val( 2p)     1.14868
   263    C   18  py     Ryd( 3p)     0.00495
   264    C   18  pz     Val( 2p)     0.99996
   265    C   18  pz     Ryd( 3p)     0.00169
   266    C   18  dxy    Ryd( 3d)     0.00087
   267    C   18  dxz    Ryd( 3d)     0.00045
   268    C   18  dyz    Ryd( 3d)     0.00055
   269    C   18  dx2y2  Ryd( 3d)     0.00062
   270    C   18  dz2    Ryd( 3d)     0.00046

   271    C   19  S      Cor( 1S)     1.99910
   272    C   19  S      Val( 2S)     0.96353
   273    C   19  S      Ryd( 3S)     0.00060
   274    C   19  S      Ryd( 4S)     0.00003
   275    C   19  px     Val( 2p)     1.07030
   276    C   19  px     Ryd( 3p)     0.00452
   277    C   19  py     Val( 2p)     1.18148
   278    C   19  py     Ryd( 3p)     0.00505
   279    C   19  pz     Val( 2p)     0.99883
   280    C   19  pz     Ryd( 3p)     0.00158
   281    C   19  dxy    Ryd( 3d)     0.00075
   282    C   19  dxz    Ryd( 3d)     0.00056
   283    C   19  dyz    Ryd( 3d)     0.00046
   284    C   19  dx2y2  Ryd( 3d)     0.00073
   285    C   19  dz2    Ryd( 3d)     0.00045

   286    C   20  S      Cor( 1S)     1.99906
   287    C   20  S      Val( 2S)     0.95061
   288    C   20  S      Ryd( 3S)     0.00069
   289    C   20  S      Ryd( 4S)     0.00004
   290    C   20  px     Val( 2p)     1.18575
   291    C   20  px     Ryd( 3p)     0.00461
   292    C   20  py     Val( 2p)     1.04940
   293    C   20  py     Ryd( 3p)     0.00411
   294    C   20  pz     Val( 2p)     1.01102
   295    C   20  pz     Ryd( 3p)     0.00228
   296    C   20  dxy    Ryd( 3d)     0.00063
   297    C   20  dxz    Ryd( 3d)     0.00039
   298    C   20  dyz    Ryd( 3d)     0.00058
   299    C   20  dx2y2  Ryd( 3d)     0.00084
   300    C   20  dz2    Ryd( 3d)     0.00040

   301    H   21  S      Val( 1S)     0.73606
   302    H   21  S      Ryd( 2S)     0.00209

   303    H   22  S      Val( 1S)     0.75779
   304    H   22  S      Ryd( 2S)     0.00130

   305    H   23  S      Val( 1S)     0.75644
   306    H   23  S      Ryd( 2S)     0.00088

   307    H   24  S      Val( 1S)     0.76699
   308    H   24  S      Ryd( 2S)     0.00087

   309    H   25  S      Val( 1S)     0.76677
   310    H   25  S      Ryd( 2S)     0.00118

   311    H   26  S      Val( 1S)     0.76009
   312    H   26  S      Ryd( 2S)     0.00091

   313    H   27  S      Val( 1S)     0.75527
   314    H   27  S      Ryd( 2S)     0.00114

   315    H   28  S      Val( 1S)     0.76109
   316    H   28  S      Ryd( 2S)     0.00128

   317    H   29  S      Val( 1S)     0.76247
   318    H   29  S      Ryd( 2S)     0.00081

   319    H   30  S      Val( 1S)     0.76205
   320    H   30  S      Ryd( 2S)     0.00081

   321    H   31  S      Val( 1S)     0.76543
   322    H   31  S      Ryd( 2S)     0.00110

   323    H   32  S      Val( 1S)     0.76529
   324    H   32  S      Ryd( 2S)     0.00133

   325    H   33  S      Val( 1S)     0.76151
   326    H   33  S      Ryd( 2S)     0.00122

   327    H   34  S      Val( 1S)     0.76250
   328    H   34  S      Ryd( 2S)     0.00081

   329    H   35  S      Val( 1S)     0.76201
   330    H   35  S      Ryd( 2S)     0.00081

   331    H   36  S      Val( 1S)     0.76539
   332    H   36  S      Ryd( 2S)     0.00110

 WARNING:  1 low occupancy (<1.9990e) core orbital  found on  C    7
           1 low occupancy (<1.9990e) core orbital  found on  C    8
           1 low occupancy (<1.9990e) core orbital  found on  C   16


 Summary of Natural Population Analysis:                  
                                                          
                                       Natural Population 
                Natural  -----------------------------------------------
    Atom  No    Charge         Core      Valence    Rydberg      Total
 -----------------------------------------------------------------------
      O    1   -0.56447      1.99977     6.54454    0.02016     8.56447
      C    2    0.83304      1.99935     3.11982    0.04779     5.16696
      C    3   -0.35027      1.99913     4.33951    0.01163     6.35027
      C    4   -0.67483      1.99944     4.66547    0.00991     6.67483
      C    5   -0.67304      1.99942     4.66515    0.00846     6.67304
      O    6   -0.55361      1.99971     6.54294    0.01097     8.55361
      C    7    0.35499      1.99861     3.62233    0.02406     5.64501
      C    8   -0.07917      1.99894     4.06546    0.01478     6.07917
      C    9   -0.21251      1.99906     4.19835    0.01510     6.21251
      C   10   -0.22744      1.99910     4.21345    0.01488     6.22744
      C   11   -0.22807      1.99910     4.21424    0.01473     6.22807
      C   12   -0.21116      1.99906     4.19752    0.01458     6.21116
      C   13   -0.05081      1.99903     4.03684    0.01495     6.05081
      C   14   -0.17130      1.99901     4.15869    0.01361     6.17130
      C   15   -0.05084      1.99903     4.03687    0.01494     6.05084
      C   16   -0.07926      1.99894     4.06553    0.01479     6.07926
      C   17   -0.21089      1.99906     4.19660    0.01523     6.21089
      C   18   -0.22720      1.99910     4.21322    0.01487     6.22720
      C   19   -0.22798      1.99910     4.21415    0.01473     6.22798
      C   20   -0.21040      1.99906     4.19677    0.01457     6.21040
      H   21    0.26185      0.00000     0.73606    0.00209     0.73815
      H   22    0.24091      0.00000     0.75779    0.00130     0.75909
      H   23    0.24268      0.00000     0.75644    0.00088     0.75732
      H   24    0.23215      0.00000     0.76699    0.00087     0.76785
      H   25    0.23205      0.00000     0.76677    0.00118     0.76795
      H   26    0.23900      0.00000     0.76009    0.00091     0.76100
      H   27    0.24359      0.00000     0.75527    0.00114     0.75641
      H   28    0.23763      0.00000     0.76109    0.00128     0.76237
      H   29    0.23673      0.00000     0.76247    0.00081     0.76327
      H   30    0.23714      0.00000     0.76205    0.00081     0.76286
      H   31    0.23347      0.00000     0.76543    0.00110     0.76653
      H   32    0.23338      0.00000     0.76529    0.00133     0.76662
      H   33    0.23727      0.00000     0.76151    0.00122     0.76273
      H   34    0.23669      0.00000     0.76250    0.00081     0.76331
      H   35    0.23717      0.00000     0.76201    0.00081     0.76283
      H   36    0.23351      0.00000     0.76539    0.00110     0.76649
 =======================================================================
   * Total *   -0.00000     39.98301    99.67459    0.34240   140.00000

                                 Natural Population      
 --------------------------------------------------------
   Core                      39.98301 ( 99.9575% of  40)
   Valence                   99.67459 ( 99.6746% of 100)
   Natural Minimal Basis    139.65760 ( 99.7554% of 140)
   Natural Rydberg Basis      0.34240 (  0.2446% of 140)
 --------------------------------------------------------

    Atom  No          Natural Electron Configuration
 ----------------------------------------------------------------------------
      O    1      [core]2S( 1.70)2p( 4.85)3d( 0.02)
      C    2      [core]2S( 0.79)2p( 2.33)3S( 0.01)3p( 0.03)3d( 0.01)
      C    3      [core]2S( 1.00)2p( 3.34)3p( 0.01)
      C    4      [core]2S( 1.10)2p( 3.57)3p( 0.01)
      C    5      [core]2S( 1.10)2p( 3.56)
      O    6      [core]2S( 1.60)2p( 4.94)3d( 0.01)
      C    7      [core]2S( 0.82)2p( 2.81)3p( 0.02)3d( 0.01)
      C    8      [core]2S( 0.87)2p( 3.19)3p( 0.01)
      C    9      [core]2S( 0.95)2p( 3.25)3p( 0.01)
      C   10      [core]2S( 0.96)2p( 3.25)3p( 0.01)
      C   11      [core]2S( 0.96)2p( 3.25)3p( 0.01)
      C   12      [core]2S( 0.95)2p( 3.25)3p( 0.01)
      C   13      [core]2S( 0.87)2p( 3.17)3p( 0.01)
      C   14      [core]2S( 0.94)2p( 3.22)3p( 0.01)
      C   15      [core]2S( 0.87)2p( 3.17)3p( 0.01)
      C   16      [core]2S( 0.87)2p( 3.19)3p( 0.01)
      C   17      [core]2S( 0.95)2p( 3.25)3p( 0.01)
      C   18      [core]2S( 0.96)2p( 3.25)3p( 0.01)
      C   19      [core]2S( 0.96)2p( 3.25)3p( 0.01)
      C   20      [core]2S( 0.95)2p( 3.25)3p( 0.01)
      H   21            1S( 0.74)
      H   22            1S( 0.76)
      H   23            1S( 0.76)
      H   24            1S( 0.77)
      H   25            1S( 0.77)
      H   26            1S( 0.76)
      H   27            1S( 0.76)
      H   28            1S( 0.76)
      H   29            1S( 0.76)
      H   30            1S( 0.76)
      H   31            1S( 0.77)
      H   32            1S( 0.77)
      H   33            1S( 0.76)
      H   34            1S( 0.76)
      H   35            1S( 0.76)
      H   36            1S( 0.77)


 NBO analysis skipped by request.
 Leave Link  607 at Thu Sep 30 05:35:03 2021, MaxMem= 1610612736 cpu:      25.7
 (Enter /sw/target/amd/app/gaussian/Gaussian09RevA.02_gcc-4.9.2/g09/l9999.exe)
 1\1\GINC-HERMITE\SP\RTD-B3LYP-FC\6-31G(d)\C18H16O2\JSCHLEINITZ\30-Sep-
 2021\0\\#p TD(NStates=10, Root=1) b3lyp/6-31G* volume pop=NPA density=
 current Geom=AllCheck Guess=Read\\O=C(C(C)C)Oc1c2ccccc2cc2c1cccc2_conf
 _0\\0,1\O,0,3.4478122484,0.3744309215,-2.3051022213\C,0,3.941925528,0.
 5243442755,-3.3932051726\C,0,3.2255815643,0.4343417764,-4.7333188589\C
 ,0,1.8348564854,-0.1817004423,-4.5580722173\C,0,3.1661301334,1.8238662
 657,-5.4011050475\O,0,5.2758060522,0.8184224882,-3.5879014835\C,0,6.10
 12802704,0.9227170434,-2.4621982863\C,0,6.7938086024,-0.2213329522,-2.
 0401940785\C,0,6.659148616,-1.4919478188,-2.6800969331\C,0,7.355425946
 1,-2.5810192856,-2.226182743\C,0,8.2298686056,-2.4698031147,-1.1063765
 37\C,0,8.3904367934,-1.2665170572,-0.472921891\C,0,7.6877002862,-0.101
 3441647,-0.9121027602\C,0,7.8417987943,1.1391458731,-0.2835650586\C,0,
 7.157097531,2.2765583137,-0.7253581709\C,0,6.2578325044,2.1751907384,-
 1.8515027295\C,0,5.5770922124,3.3501714993,-2.2964596449\C,0,5.7650257
 755,4.5500956187,-1.6625623031\C,0,6.6437937702,4.6526719177,-0.545421
 1799\C,0,7.3179116328,3.549552237,-0.0944294197\H,0,3.8397212188,-0.21
 41846636,-5.3726687427\H,0,1.2119448252,0.4423245163,-3.9096345681\H,0
 ,1.8927280099,-1.1748313602,-4.1024028332\H,0,1.3394114856,-0.27528242
 52,-5.5304579531\H,0,2.5907236076,2.5266767677,-4.7868087207\H,0,2.671
 2815665,1.7484603927,-6.3753136351\H,0,4.1675590908,2.2353028827,-5.55
 65599834\H,0,6.0039000487,-1.578491375,-3.5399811357\H,0,7.2442832391,
 -3.5407759326,-2.7233306743\H,0,8.7709472503,-3.3463300151,-0.76075325
 23\H,0,9.0593693058,-1.1737917072,0.3792478113\H,0,8.5143487476,1.2226
 859877,0.5672697777\H,0,4.9137128526,3.2804835602,-3.1513202589\H,0,5.
 2413713238,5.4354317621,-2.0127523925\H,0,6.7767697116,5.6132669632,-0
 .0554147089\H,0,7.9924946399,3.6216248084,0.7552869444\\Version=AM64L-
 G09RevA.02\State=1-A\HF=-846.0325581\RMSD=5.173e-09\Dipole=0.22604,0.1
 079756,-0.5463494\Quadrupole=-3.9302922,3.0877709,0.8425212,-2.5674201
 ,10.1121769,2.3818102\PG=C01 [X(C18H16O2)]\\@


 THERE IS NO CURE FOR BIRTH AND DEATH SAVE TO ENJOY THE INTERVAL.

                               -- GEORGE SANTAYANA
 Job cpu time:  0 days  6 hours 38 minutes 43.4 seconds.
 File lengths (MBytes):  RWF=    353 Int=      0 D2E=      0 Chk=     49 Scr=      1
 Normal termination of Gaussian 09 at Thu Sep 30 05:35:09 2021.
