 Entering Gaussian System, Link 0=g09
 Input=C18H15B3O3_1945_conf_0.com
 Output=C18H15B3O3_1945_conf_0.log
 Initial command:
 /sw/target/amd/app/gaussian/Gaussian09RevA.02_gcc-4.9.2/g09/l1.exe /home/jschleinitz/gaussian/Gau-2813711.inp -scrdir=/home/jschleinitz/gaussian/
 Entering Link 1 = /sw/target/amd/app/gaussian/Gaussian09RevA.02_gcc-4.9.2/g09/l1.exe PID=   2813749.
  
 Copyright (c) 1988,1990,1992,1993,1995,1998,2003,2009, Gaussian, Inc.
                  All Rights Reserved.
  
 This is part of the Gaussian(R) 09 program.  It is based on
 the Gaussian(R) 03 system (copyright 2003, Gaussian, Inc.),
 the Gaussian(R) 98 system (copyright 1998, Gaussian, Inc.),
 the Gaussian(R) 94 system (copyright 1995, Gaussian, Inc.),
 the Gaussian 92(TM) system (copyright 1992, Gaussian, Inc.),
 the Gaussian 90(TM) system (copyright 1990, Gaussian, Inc.),
 the Gaussian 88(TM) system (copyright 1988, Gaussian, Inc.),
 the Gaussian 86(TM) system (copyright 1986, Carnegie Mellon
 University), and the Gaussian 82(TM) system (copyright 1983,
 Carnegie Mellon University). Gaussian is a federally registered
 trademark of Gaussian, Inc.
  
 This software contains proprietary and confidential information,
 including trade secrets, belonging to Gaussian, Inc.
  
 This software is provided under written license and may be
 used, copied, transmitted, or stored only in accord with that
 written license.
  
 The following legend is applicable only to US Government
 contracts under FAR:
  
                    RESTRICTED RIGHTS LEGEND
  
 Use, reproduction and disclosure by the US Government is
 subject to restrictions as set forth in subparagraphs (a)
 and (c) of the Commercial Computer Software - Restricted
 Rights clause in FAR 52.227-19.
  
 Gaussian, Inc.
 340 Quinnipiac St., Bldg. 40, Wallingford CT 06492
  
  
 ---------------------------------------------------------------
 Warning -- This program may not be used in any manner that
 competes with the business of Gaussian, Inc. or will provide
 assistance to any competitor of Gaussian, Inc.  The licensee
 of this program is prohibited from giving any competitor of
 Gaussian, Inc. access to this program.  By using this program,
 the user acknowledges that Gaussian, Inc. is engaged in the
 business of creating and licensing software in the field of
 computational chemistry and represents and warrants to the
 licensee that it is not a competitor of Gaussian, Inc. and that
 it will not use this program in any manner prohibited above.
 ---------------------------------------------------------------
  

 Cite this work as:
 Gaussian 09, Revision A.02,
 M. J. Frisch, G. W. Trucks, H. B. Schlegel, G. E. Scuseria, 
 M. A. Robb, J. R. Cheeseman, G. Scalmani, V. Barone, B. Mennucci, 
 G. A. Petersson, H. Nakatsuji, M. Caricato, X. Li, H. P. Hratchian, 
 A. F. Izmaylov, J. Bloino, G. Zheng, J. L. Sonnenberg, M. Hada, 
 M. Ehara, K. Toyota, R. Fukuda, J. Hasegawa, M. Ishida, T. Nakajima, 
 Y. Honda, O. Kitao, H. Nakai, T. Vreven, J. A. Montgomery, Jr., 
 J. E. Peralta, F. Ogliaro, M. Bearpark, J. J. Heyd, E. Brothers, 
 K. N. Kudin, V. N. Staroverov, R. Kobayashi, J. Normand, 
 K. Raghavachari, A. Rendell, J. C. Burant, S. S. Iyengar, J. Tomasi, 
 M. Cossi, N. Rega, J. M. Millam, M. Klene, J. E. Knox, J. B. Cross, 
 V. Bakken, C. Adamo, J. Jaramillo, R. Gomperts, R. E. Stratmann, 
 O. Yazyev, A. J. Austin, R. Cammi, C. Pomelli, J. W. Ochterski, 
 R. L. Martin, K. Morokuma, V. G. Zakrzewski, G. A. Voth, 
 P. Salvador, J. J. Dannenberg, S. Dapprich, A. D. Daniels, 
 O. Farkas, J. B. Foresman, J. V. Ortiz, J. Cioslowski, 
 and D. J. Fox, Gaussian, Inc., Wallingford CT, 2009.
 
 ******************************************
 Gaussian 09:  AM64L-G09RevA.02 11-Jun-2009
                 3-Oct-2021 
 ******************************************
 %nproc=6
 Will use up to    6 processors via shared memory.
 %mem=12gb
 %chk=C18H15B3O3_1945_conf_0.chk
 -----------------------------------
 #p opt b3lyp/6-31G* scf=(xqc,tight)
 -----------------------------------
 1/14=-1,18=20,19=15,26=3,38=1/1,3;
 2/9=110,12=2,17=6,18=5,40=1/2;
 3/5=1,6=6,7=1,11=2,16=1,25=1,30=1,71=1,74=-5/1,2,3;
 4//1;
 5/5=2,8=3,13=1,32=2,38=5/2,8;
 6/7=2,8=2,9=2,10=2,28=1/1;
 7//1,2,3,16;
 1/14=-1,18=20,19=15/3(2);
 2/9=110/2;
 99//99;
 2/9=110/2;
 3/5=1,6=6,7=1,11=2,16=1,25=1,30=1,71=1,74=-5/1,2,3;
 4/5=5,16=3/1;
 5/5=2,8=3,13=1,32=2,38=5/2,8;
 7//1,2,3,16;
 1/14=-1,18=20,19=15/3(-5);
 2/9=110/2;
 6/7=2,8=2,9=2,10=2,19=2,28=1/1;
 99/9=1/99;
 Leave Link    1 at Sun Oct  3 22:55:23 2021, MaxMem= 1610612736 cpu:       0.1
 (Enter /sw/target/amd/app/gaussian/Gaussian09RevA.02_gcc-4.9.2/g09/l101.exe)
 ---------------------------------------------
 c1ccc(cc1)b1ob(ob(o1)c1ccccc1)c1ccccc1_conf_0
 ---------------------------------------------
 Symbolic Z-matrix:
 Charge =  0 Multiplicity = 1
 C                     1.34977  -0.26092   0.35026 
 C                     0.42058  -0.69715   1.29829 
 C                    -0.94357  -0.45543   1.10683 
 C                    -1.38664   0.22685  -0.03905 
 C                    -0.44636   0.66256  -0.9881 
 C                     0.91667   0.41814  -0.79159 
 B                    -2.92176   0.50033  -0.25721 
 O                    -3.86433   0.06095   0.69892 
 B                    -5.24266   0.3039    0.50753 
 O                    -5.67643   0.9906   -0.6481 
 B                    -4.74121   1.43375  -1.60946 
 O                    -3.3647    1.18646  -1.40999 
 C                    -5.23094   2.19848  -2.89558 
 C                    -6.59993   2.44474  -3.09578 
 C                    -7.03281   3.12388  -4.23914 
 C                    -6.1052    3.56099  -5.18829 
 C                    -4.74231   3.31991  -4.99596 
 C                    -4.30388   2.64118  -3.85437 
 C                    -6.28957  -0.18677   1.5761 
 C                    -5.8617   -0.86907   2.72765 
 C                    -6.79416  -1.30306   3.67543 
 C                    -8.1564   -1.05995   3.48121 
 C                    -8.58926  -0.38231   2.33847 
 C                    -7.66116   0.0539    1.38755 
 H                     2.40502  -0.44902   0.5004 
 H                     0.75738  -1.22303   2.18235 
 H                    -1.64749  -0.80202   1.85393 
 H                    -0.7612    1.19072  -1.88011 
 H                     1.63748   0.7555   -1.52515 
 H                    -7.33546   2.11423  -2.37219 
 H                    -8.08824   3.31124  -4.38926 
 H                    -6.44239   4.08632  -6.07247 
 H                    -4.02485   3.65908  -5.73198 
 H                    -3.24294   2.46437  -3.72428 
 H                    -4.8102   -1.0675    2.89725 
 H                    -6.46021  -1.82808   4.56107 
 H                    -8.87634  -1.39653   4.21597 
 H                    -9.64473  -0.19464   2.18918 
 H                    -8.0176    0.57758   0.5086 
 
 NAtoms=     39 NQM=     39 NQMF=      0 NMic=      0 NMicF=      0 NTot=     39.
                    Isotopes and Nuclear Properties:
 (Nuclear quadrupole moments (NQMom) in fm**2, nuclear magnetic moments (NMagM)
  in nuclear magnetons)

  Atom         1           2           3           4           5           6           7           8           9          10
 IAtWgt=          12          12          12          12          12          12          11          16          11          16
 AtmWgt=  12.0000000  12.0000000  12.0000000  12.0000000  12.0000000  12.0000000  11.0093053  15.9949146  11.0093053  15.9949146
 NucSpn=           0           0           0           0           0           0           3           0           3           0
 AtZEff=   0.0000000   0.0000000   0.0000000   0.0000000   0.0000000   0.0000000   0.0000000   0.0000000   0.0000000   0.0000000
 NQMom=    0.0000000   0.0000000   0.0000000   0.0000000   0.0000000   0.0000000   4.0590000   0.0000000   4.0590000   0.0000000
 NMagM=    0.0000000   0.0000000   0.0000000   0.0000000   0.0000000   0.0000000   2.6886370   0.0000000   2.6886370   0.0000000

  Atom        11          12          13          14          15          16          17          18          19          20
 IAtWgt=          11          16          12          12          12          12          12          12          12          12
 AtmWgt=  11.0093053  15.9949146  12.0000000  12.0000000  12.0000000  12.0000000  12.0000000  12.0000000  12.0000000  12.0000000
 NucSpn=           3           0           0           0           0           0           0           0           0           0
 AtZEff=   0.0000000   0.0000000   0.0000000   0.0000000   0.0000000   0.0000000   0.0000000   0.0000000   0.0000000   0.0000000
 NQMom=    4.0590000   0.0000000   0.0000000   0.0000000   0.0000000   0.0000000   0.0000000   0.0000000   0.0000000   0.0000000
 NMagM=    2.6886370   0.0000000   0.0000000   0.0000000   0.0000000   0.0000000   0.0000000   0.0000000   0.0000000   0.0000000

  Atom        21          22          23          24          25          26          27          28          29          30
 IAtWgt=          12          12          12          12           1           1           1           1           1           1
 AtmWgt=  12.0000000  12.0000000  12.0000000  12.0000000   1.0078250   1.0078250   1.0078250   1.0078250   1.0078250   1.0078250
 NucSpn=           0           0           0           0           1           1           1           1           1           1
 AtZEff=   0.0000000   0.0000000   0.0000000   0.0000000   0.0000000   0.0000000   0.0000000   0.0000000   0.0000000   0.0000000
 NQMom=    0.0000000   0.0000000   0.0000000   0.0000000   0.0000000   0.0000000   0.0000000   0.0000000   0.0000000   0.0000000
 NMagM=    0.0000000   0.0000000   0.0000000   0.0000000   2.7928460   2.7928460   2.7928460   2.7928460   2.7928460   2.7928460

  Atom        31          32          33          34          35          36          37          38          39
 IAtWgt=           1           1           1           1           1           1           1           1           1
 AtmWgt=   1.0078250   1.0078250   1.0078250   1.0078250   1.0078250   1.0078250   1.0078250   1.0078250   1.0078250
 NucSpn=           1           1           1           1           1           1           1           1           1
 AtZEff=   0.0000000   0.0000000   0.0000000   0.0000000   0.0000000   0.0000000   0.0000000   0.0000000   0.0000000
 NQMom=    0.0000000   0.0000000   0.0000000   0.0000000   0.0000000   0.0000000   0.0000000   0.0000000   0.0000000
 NMagM=    2.7928460   2.7928460   2.7928460   2.7928460   2.7928460   2.7928460   2.7928460   2.7928460   2.7928460
 Leave Link  101 at Sun Oct  3 22:55:27 2021, MaxMem= 1610612736 cpu:       0.2
 (Enter /sw/target/amd/app/gaussian/Gaussian09RevA.02_gcc-4.9.2/g09/l103.exe)

 GradGradGradGradGradGradGradGradGradGradGradGradGradGradGradGradGradGrad
 Berny optimization.
 Initialization pass.
                           ----------------------------
                           !    Initial Parameters    !
                           ! (Angstroms and Degrees)  !
 --------------------------                            --------------------------
 ! Name  Definition              Value          Derivative Info.                !
 --------------------------------------------------------------------------------
 ! R1    R(1,2)                  1.3973         estimate D2E/DX2                !
 ! R2    R(1,6)                  1.3973         estimate D2E/DX2                !
 ! R3    R(1,25)                 1.0823         estimate D2E/DX2                !
 ! R4    R(2,3)                  1.3986         estimate D2E/DX2                !
 ! R5    R(2,26)                 1.0824         estimate D2E/DX2                !
 ! R6    R(3,4)                  1.4053         estimate D2E/DX2                !
 ! R7    R(3,27)                 1.0834         estimate D2E/DX2                !
 ! R8    R(4,5)                  1.4052         estimate D2E/DX2                !
 ! R9    R(4,7)                  1.5745         estimate D2E/DX2                !
 ! R10   R(5,6)                  1.3986         estimate D2E/DX2                !
 ! R11   R(5,28)                 1.0834         estimate D2E/DX2                !
 ! R12   R(6,29)                 1.0823         estimate D2E/DX2                !
 ! R13   R(7,8)                  1.4127         estimate D2E/DX2                !
 ! R14   R(7,12)                 1.4128         estimate D2E/DX2                !
 ! R15   R(8,9)                  1.4126         estimate D2E/DX2                !
 ! R16   R(9,10)                 1.4125         estimate D2E/DX2                !
 ! R17   R(9,19)                 1.5744         estimate D2E/DX2                !
 ! R18   R(10,11)                1.4125         estimate D2E/DX2                !
 ! R19   R(11,12)                1.4127         estimate D2E/DX2                !
 ! R20   R(11,13)                1.5744         estimate D2E/DX2                !
 ! R21   R(13,14)                1.4053         estimate D2E/DX2                !
 ! R22   R(13,18)                1.4052         estimate D2E/DX2                !
 ! R23   R(14,15)                1.3985         estimate D2E/DX2                !
 ! R24   R(14,30)                1.0834         estimate D2E/DX2                !
 ! R25   R(15,16)                1.3973         estimate D2E/DX2                !
 ! R26   R(15,31)                1.0824         estimate D2E/DX2                !
 ! R27   R(16,17)                1.3973         estimate D2E/DX2                !
 ! R28   R(16,32)                1.0823         estimate D2E/DX2                !
 ! R29   R(17,18)                1.3986         estimate D2E/DX2                !
 ! R30   R(17,33)                1.0824         estimate D2E/DX2                !
 ! R31   R(18,34)                1.0834         estimate D2E/DX2                !
 ! R32   R(19,20)                1.4052         estimate D2E/DX2                !
 ! R33   R(19,24)                1.4053         estimate D2E/DX2                !
 ! R34   R(20,21)                1.3986         estimate D2E/DX2                !
 ! R35   R(20,35)                1.0834         estimate D2E/DX2                !
 ! R36   R(21,22)                1.3973         estimate D2E/DX2                !
 ! R37   R(21,36)                1.0824         estimate D2E/DX2                !
 ! R38   R(22,23)                1.3973         estimate D2E/DX2                !
 ! R39   R(22,37)                1.0823         estimate D2E/DX2                !
 ! R40   R(23,24)                1.3985         estimate D2E/DX2                !
 ! R41   R(23,38)                1.0824         estimate D2E/DX2                !
 ! R42   R(24,39)                1.0834         estimate D2E/DX2                !
 ! A1    A(2,1,6)              120.0022         estimate D2E/DX2                !
 ! A2    A(2,1,25)             119.9972         estimate D2E/DX2                !
 ! A3    A(6,1,25)             120.0006         estimate D2E/DX2                !
 ! A4    A(1,2,3)              120.1177         estimate D2E/DX2                !
 ! A5    A(1,2,26)             119.9288         estimate D2E/DX2                !
 ! A6    A(3,2,26)             119.9536         estimate D2E/DX2                !
 ! A7    A(2,3,4)              120.2031         estimate D2E/DX2                !
 ! A8    A(2,3,27)             118.9492         estimate D2E/DX2                !
 ! A9    A(4,3,27)             120.8476         estimate D2E/DX2                !
 ! A10   A(3,4,5)              119.3584         estimate D2E/DX2                !
 ! A11   A(3,4,7)              120.3125         estimate D2E/DX2                !
 ! A12   A(5,4,7)              120.3292         estimate D2E/DX2                !
 ! A13   A(4,5,6)              120.1999         estimate D2E/DX2                !
 ! A14   A(4,5,28)             120.8481         estimate D2E/DX2                !
 ! A15   A(6,5,28)             118.9519         estimate D2E/DX2                !
 ! A16   A(1,6,5)              120.1187         estimate D2E/DX2                !
 ! A17   A(1,6,29)             119.9267         estimate D2E/DX2                !
 ! A18   A(5,6,29)             119.9546         estimate D2E/DX2                !
 ! A19   A(4,7,8)              120.1809         estimate D2E/DX2                !
 ! A20   A(4,7,12)             120.2061         estimate D2E/DX2                !
 ! A21   A(8,7,12)             119.613          estimate D2E/DX2                !
 ! A22   A(7,8,9)              120.3865         estimate D2E/DX2                !
 ! A23   A(8,9,10)             119.6108         estimate D2E/DX2                !
 ! A24   A(8,9,19)             120.217          estimate D2E/DX2                !
 ! A25   A(10,9,19)            120.1722         estimate D2E/DX2                !
 ! A26   A(9,10,11)            120.3989         estimate D2E/DX2                !
 ! A27   A(10,11,12)           119.6112         estimate D2E/DX2                !
 ! A28   A(10,11,13)           120.1596         estimate D2E/DX2                !
 ! A29   A(12,11,13)           120.2292         estimate D2E/DX2                !
 ! A30   A(7,12,11)            120.3796         estimate D2E/DX2                !
 ! A31   A(11,13,14)           120.2992         estimate D2E/DX2                !
 ! A32   A(11,13,18)           120.3426         estimate D2E/DX2                !
 ! A33   A(14,13,18)           119.3583         estimate D2E/DX2                !
 ! A34   A(13,14,15)           120.2049         estimate D2E/DX2                !
 ! A35   A(13,14,30)           120.8472         estimate D2E/DX2                !
 ! A36   A(15,14,30)           118.9479         estimate D2E/DX2                !
 ! A37   A(14,15,16)           120.1171         estimate D2E/DX2                !
 ! A38   A(14,15,31)           119.951          estimate D2E/DX2                !
 ! A39   A(16,15,31)           119.9319         estimate D2E/DX2                !
 ! A40   A(15,16,17)           120.0018         estimate D2E/DX2                !
 ! A41   A(15,16,32)           119.9954         estimate D2E/DX2                !
 ! A42   A(17,16,32)           120.0028         estimate D2E/DX2                !
 ! A43   A(16,17,18)           120.1203         estimate D2E/DX2                !
 ! A44   A(16,17,33)           119.9245         estimate D2E/DX2                !
 ! A45   A(18,17,33)           119.9552         estimate D2E/DX2                !
 ! A46   A(13,18,17)           120.1976         estimate D2E/DX2                !
 ! A47   A(13,18,34)           120.8438         estimate D2E/DX2                !
 ! A48   A(17,18,34)           118.9586         estimate D2E/DX2                !
 ! A49   A(9,19,20)            120.3351         estimate D2E/DX2                !
 ! A50   A(9,19,24)            120.305          estimate D2E/DX2                !
 ! A51   A(20,19,24)           119.3599         estimate D2E/DX2                !
 ! A52   A(19,20,21)           120.1982         estimate D2E/DX2                !
 ! A53   A(19,20,35)           120.8456         estimate D2E/DX2                !
 ! A54   A(21,20,35)           118.9561         estimate D2E/DX2                !
 ! A55   A(20,21,22)           120.1183         estimate D2E/DX2                !
 ! A56   A(20,21,36)           119.9543         estimate D2E/DX2                !
 ! A57   A(22,21,36)           119.9274         estimate D2E/DX2                !
 ! A58   A(21,22,23)           120.0033         estimate D2E/DX2                !
 ! A59   A(21,22,37)           120.0007         estimate D2E/DX2                !
 ! A60   A(23,22,37)           119.996          estimate D2E/DX2                !
 ! A61   A(22,23,24)           120.1166         estimate D2E/DX2                !
 ! A62   A(22,23,38)           119.9322         estimate D2E/DX2                !
 ! A63   A(24,23,38)           119.9512         estimate D2E/DX2                !
 ! A64   A(19,24,23)           120.2037         estimate D2E/DX2                !
 ! A65   A(19,24,39)           120.8463         estimate D2E/DX2                !
 ! A66   A(23,24,39)           118.9499         estimate D2E/DX2                !
 ! D1    D(6,1,2,3)             -0.0009         estimate D2E/DX2                !
 ! D2    D(6,1,2,26)          -179.9997         estimate D2E/DX2                !
 ! D3    D(25,1,2,3)           179.9992         estimate D2E/DX2                !
 ! D4    D(25,1,2,26)            0.0005         estimate D2E/DX2                !
 ! D5    D(2,1,6,5)              0.0014         estimate D2E/DX2                !
 ! D6    D(2,1,6,29)           179.9996         estimate D2E/DX2                !
 ! D7    D(25,1,6,5)          -179.9987         estimate D2E/DX2                !
 ! D8    D(25,1,6,29)           -0.0005         estimate D2E/DX2                !
 ! D9    D(1,2,3,4)              0.0011         estimate D2E/DX2                !
 ! D10   D(1,2,3,27)           179.9995         estimate D2E/DX2                !
 ! D11   D(26,2,3,4)           179.9999         estimate D2E/DX2                !
 ! D12   D(26,2,3,27)           -0.0017         estimate D2E/DX2                !
 ! D13   D(2,3,4,5)             -0.0017         estimate D2E/DX2                !
 ! D14   D(2,3,4,7)            179.9989         estimate D2E/DX2                !
 ! D15   D(27,3,4,5)           179.9999         estimate D2E/DX2                !
 ! D16   D(27,3,4,7)             0.0005         estimate D2E/DX2                !
 ! D17   D(3,4,5,6)              0.0022         estimate D2E/DX2                !
 ! D18   D(3,4,5,28)          -179.9994         estimate D2E/DX2                !
 ! D19   D(7,4,5,6)           -179.9984         estimate D2E/DX2                !
 ! D20   D(7,4,5,28)            -0.0001         estimate D2E/DX2                !
 ! D21   D(3,4,7,8)              0.0013         estimate D2E/DX2                !
 ! D22   D(3,4,7,12)           179.9992         estimate D2E/DX2                !
 ! D23   D(5,4,7,8)           -179.998          estimate D2E/DX2                !
 ! D24   D(5,4,7,12)            -0.0001         estimate D2E/DX2                !
 ! D25   D(4,5,6,1)             -0.0021         estimate D2E/DX2                !
 ! D26   D(4,5,6,29)           179.9997         estimate D2E/DX2                !
 ! D27   D(28,5,6,1)           179.9995         estimate D2E/DX2                !
 ! D28   D(28,5,6,29)            0.0013         estimate D2E/DX2                !
 ! D29   D(4,7,8,9)           -179.9959         estimate D2E/DX2                !
 ! D30   D(12,7,8,9)             0.0062         estimate D2E/DX2                !
 ! D31   D(4,7,12,11)          179.9964         estimate D2E/DX2                !
 ! D32   D(8,7,12,11)           -0.0057         estimate D2E/DX2                !
 ! D33   D(7,8,9,10)            -0.0015         estimate D2E/DX2                !
 ! D34   D(7,8,9,19)          -179.9623         estimate D2E/DX2                !
 ! D35   D(8,9,10,11)           -0.0038         estimate D2E/DX2                !
 ! D36   D(19,9,10,11)         179.9571         estimate D2E/DX2                !
 ! D37   D(8,9,19,20)            0.0236         estimate D2E/DX2                !
 ! D38   D(8,9,19,24)         -179.9982         estimate D2E/DX2                !
 ! D39   D(10,9,19,20)        -179.937          estimate D2E/DX2                !
 ! D40   D(10,9,19,24)           0.0412         estimate D2E/DX2                !
 ! D41   D(9,10,11,12)           0.0043         estimate D2E/DX2                !
 ! D42   D(9,10,11,13)         179.9928         estimate D2E/DX2                !
 ! D43   D(10,11,12,7)           0.0005         estimate D2E/DX2                !
 ! D44   D(13,11,12,7)        -179.9881         estimate D2E/DX2                !
 ! D45   D(10,11,13,14)         -0.0168         estimate D2E/DX2                !
 ! D46   D(10,11,13,18)        179.9931         estimate D2E/DX2                !
 ! D47   D(12,11,13,14)        179.9716         estimate D2E/DX2                !
 ! D48   D(12,11,13,18)         -0.0185         estimate D2E/DX2                !
 ! D49   D(11,13,14,15)       -179.9813         estimate D2E/DX2                !
 ! D50   D(11,13,14,30)          0.013          estimate D2E/DX2                !
 ! D51   D(18,13,14,15)          0.0089         estimate D2E/DX2                !
 ! D52   D(18,13,14,30)       -179.9968         estimate D2E/DX2                !
 ! D53   D(11,13,18,17)        179.9823         estimate D2E/DX2                !
 ! D54   D(11,13,18,34)         -0.0144         estimate D2E/DX2                !
 ! D55   D(14,13,18,17)         -0.0079         estimate D2E/DX2                !
 ! D56   D(14,13,18,34)        179.9954         estimate D2E/DX2                !
 ! D57   D(13,14,15,16)         -0.002          estimate D2E/DX2                !
 ! D58   D(13,14,15,31)        179.9924         estimate D2E/DX2                !
 ! D59   D(30,14,15,16)       -179.9964         estimate D2E/DX2                !
 ! D60   D(30,14,15,31)         -0.002          estimate D2E/DX2                !
 ! D61   D(14,15,16,17)         -0.0058         estimate D2E/DX2                !
 ! D62   D(14,15,16,32)        179.9944         estimate D2E/DX2                !
 ! D63   D(31,15,16,17)        179.9998         estimate D2E/DX2                !
 ! D64   D(31,15,16,32)          0.0            estimate D2E/DX2                !
 ! D65   D(15,16,17,18)          0.0068         estimate D2E/DX2                !
 ! D66   D(15,16,17,33)       -179.9978         estimate D2E/DX2                !
 ! D67   D(32,16,17,18)       -179.9935         estimate D2E/DX2                !
 ! D68   D(32,16,17,33)          0.002          estimate D2E/DX2                !
 ! D69   D(16,17,18,13)          0.0002         estimate D2E/DX2                !
 ! D70   D(16,17,18,34)        179.9969         estimate D2E/DX2                !
 ! D71   D(33,17,18,13)       -179.9953         estimate D2E/DX2                !
 ! D72   D(33,17,18,34)          0.0014         estimate D2E/DX2                !
 ! D73   D(9,19,20,21)         179.9657         estimate D2E/DX2                !
 ! D74   D(9,19,20,35)          -0.0221         estimate D2E/DX2                !
 ! D75   D(24,19,20,21)         -0.0127         estimate D2E/DX2                !
 ! D76   D(24,19,20,35)        179.9995         estimate D2E/DX2                !
 ! D77   D(9,19,24,23)        -179.9673         estimate D2E/DX2                !
 ! D78   D(9,19,24,39)           0.0248         estimate D2E/DX2                !
 ! D79   D(20,19,24,23)          0.0111         estimate D2E/DX2                !
 ! D80   D(20,19,24,39)       -179.9968         estimate D2E/DX2                !
 ! D81   D(19,20,21,22)          0.0034         estimate D2E/DX2                !
 ! D82   D(19,20,21,36)       -179.9885         estimate D2E/DX2                !
 ! D83   D(35,20,21,22)        179.9913         estimate D2E/DX2                !
 ! D84   D(35,20,21,36)         -0.0005         estimate D2E/DX2                !
 ! D85   D(20,21,22,23)          0.0078         estimate D2E/DX2                !
 ! D86   D(20,21,22,37)       -179.9916         estimate D2E/DX2                !
 ! D87   D(36,21,22,23)        179.9996         estimate D2E/DX2                !
 ! D88   D(36,21,22,37)          0.0002         estimate D2E/DX2                !
 ! D89   D(21,22,23,24)         -0.0094         estimate D2E/DX2                !
 ! D90   D(21,22,23,38)        179.998          estimate D2E/DX2                !
 ! D91   D(37,22,23,24)        179.99           estimate D2E/DX2                !
 ! D92   D(37,22,23,38)         -0.0026         estimate D2E/DX2                !
 ! D93   D(22,23,24,19)         -0.0001         estimate D2E/DX2                !
 ! D94   D(22,23,24,39)       -179.9923         estimate D2E/DX2                !
 ! D95   D(38,23,24,19)        179.9925         estimate D2E/DX2                !
 ! D96   D(38,23,24,39)          0.0002         estimate D2E/DX2                !
 --------------------------------------------------------------------------------
 Trust Radius=3.00D-01 FncErr=1.00D-07 GrdErr=1.00D-06
 Number of steps in this run= 214 maximum allowed number of steps= 234.
 GradGradGradGradGradGradGradGradGradGradGradGradGradGradGradGradGradGrad

 Leave Link  103 at Sun Oct  3 22:55:27 2021, MaxMem= 1610612736 cpu:       0.0
 (Enter /sw/target/amd/app/gaussian/Gaussian09RevA.02_gcc-4.9.2/g09/l202.exe)
                          Input orientation:                          
 ---------------------------------------------------------------------
 Center     Atomic      Atomic             Coordinates (Angstroms)
 Number     Number       Type             X           Y           Z
 ---------------------------------------------------------------------
      1          6           0        1.349775   -0.260915    0.350255
      2          6           0        0.420584   -0.697149    1.298295
      3          6           0       -0.943574   -0.455429    1.106826
      4          6           0       -1.386639    0.226849   -0.039050
      5          6           0       -0.446360    0.662562   -0.988096
      6          6           0        0.916673    0.418136   -0.791594
      7          5           0       -2.921762    0.500334   -0.257209
      8          8           0       -3.864329    0.060948    0.698924
      9          5           0       -5.242657    0.303902    0.507532
     10          8           0       -5.676433    0.990598   -0.648099
     11          5           0       -4.741208    1.433753   -1.609463
     12          8           0       -3.364699    1.186465   -1.409991
     13          6           0       -5.230942    2.198483   -2.895585
     14          6           0       -6.599927    2.444741   -3.095783
     15          6           0       -7.032808    3.123884   -4.239138
     16          6           0       -6.105198    3.560991   -5.188290
     17          6           0       -4.742315    3.319906   -4.995962
     18          6           0       -4.303882    2.641177   -3.854371
     19          6           0       -6.289566   -0.186766    1.576096
     20          6           0       -5.861702   -0.869069    2.727646
     21          6           0       -6.794155   -1.303061    3.675425
     22          6           0       -8.156400   -1.059949    3.481213
     23          6           0       -8.589257   -0.382312    2.338468
     24          6           0       -7.661163    0.053897    1.387545
     25          1           0        2.405022   -0.449018    0.500402
     26          1           0        0.757381   -1.223031    2.182349
     27          1           0       -1.647493   -0.802019    1.853934
     28          1           0       -0.761203    1.190717   -1.880107
     29          1           0        1.637476    0.755502   -1.525149
     30          1           0       -7.335459    2.114235   -2.372194
     31          1           0       -8.088237    3.311242   -4.389255
     32          1           0       -6.442395    4.086324   -6.072473
     33          1           0       -4.024851    3.659085   -5.731980
     34          1           0       -3.242938    2.464373   -3.724280
     35          1           0       -4.810196   -1.067504    2.897255
     36          1           0       -6.460209   -1.828083    4.561074
     37          1           0       -8.876344   -1.396530    4.215970
     38          1           0       -9.644732   -0.194643    2.189175
     39          1           0       -8.017603    0.577580    0.508597
 ---------------------------------------------------------------------
                    Distance matrix (angstroms):
                    1          2          3          4          5
     1  C    0.000000
     2  C    1.397309   0.000000
     3  C    2.422742   1.398576   0.000000
     4  C    2.806676   2.430704   1.405290   0.000000
     5  C    2.422828   2.797854   2.426071   1.405225   0.000000
     6  C    1.397321   2.420247   2.797790   2.430670   1.398648
     7  B    4.381157   3.876188   2.585982   1.574481   2.586141
     8  O    5.235651   4.392543   2.993967   2.590574   3.858819
     9  B    6.618453   5.805146   4.406570   3.895326   5.036865
    10  O    7.206288   6.618954   5.250782   4.399612   5.251368
    11  B    6.619098   6.296023   5.036791   3.895632   4.407556
    12  O    5.236376   5.021074   3.859019   2.590958   2.994857
    13  C    7.738860   7.610063   6.437707   5.179363   5.374923
    14  C    9.077087   8.858159   7.620186   6.437471   6.744249
    15  C   10.138397  10.040743   8.858306   7.610045   7.746527
    16  C   10.042861  10.138707   9.077581   7.739249   7.620037
    17  C    8.861031   9.077991   8.119582   6.737844   6.448232
    18  C    7.620030   7.746933   6.744933   5.375497   5.197204
    19  C    7.737423   6.735264   5.373270   5.178655   6.437352
    20  C    7.617561   6.445132   5.194819   5.374183   6.743780
    21  C    8.858127   7.620390   6.445579   6.736408   8.118288
    22  C   10.040354   8.857845   7.617612   7.738072   9.076699
    23  C   10.136670   9.075149   7.744596   7.609296   8.858022
    24  C    9.075906   8.117061   6.742717   6.436982   7.620205
    25  H    1.082346   2.153182   3.403069   3.889022   3.403177
    26  H    2.152479   1.082375   2.153883   3.410805   3.880229
    27  H    3.396683   2.143986   1.083420   2.170254   3.415384
    28  H    3.396760   3.881095   3.415380   2.170185   1.083401
    29  H    2.152444   3.400420   3.880137   3.410753   2.153935
    30  H    9.406718   9.029539   7.717704   6.662901   7.175149
    31  H   11.148961  10.991609   9.769387   8.564413   8.773920
    32  H   10.993990  11.149453  10.119628   8.766892   8.574699
    33  H    9.013688   9.389538   8.555276   7.151912   6.655011
    34  H    6.717294   6.974444   6.095236   4.693962   4.307444
    35  H    6.714390   5.482235   4.304770   4.692332   6.093615
    36  H    9.010153   7.698705   6.652013   7.150175   8.553536
    37  H   10.991219   9.769076   8.572124   8.765629  10.118636
    38  H   11.147429  10.117152   8.772094   8.563804   9.769334
    39  H    9.406163   8.570389   7.174042   6.662778   7.718227
                    6          7          8          9         10
     6  C    0.000000
     7  B    3.876326   0.000000
     8  O    5.020677   1.412686   0.000000
     9  B    6.295882   2.451524   1.412603   0.000000
    10  O    6.619467   2.825131   2.441811   1.412513   0.000000
    11  B    5.806204   2.451580   2.825272   2.451465   1.412535
    12  O    4.393505   1.412755   2.442118   2.825339   2.441917
    13  C    6.737179   3.895773   4.399680   3.894968   2.590104
    14  C    8.118848   5.036578   5.250312   4.405593   2.993081
    15  C    9.077493   6.295989   6.618557   5.804120   4.391609
    16  C    8.860878   6.619475   7.206323   6.617778   5.234892
    17  C    7.623721   5.806908   6.619924   6.295639   5.020176
    18  C    6.448001   4.408292   5.251980   5.036899   3.858561
    19  C    7.609319   3.895538   2.590863   1.574358   2.590205
    20  C    7.745212   4.407706   2.995020   2.586114   3.858541
    21  C    9.075993   5.806313   4.393628   3.876213   5.020262
    22  C   10.137172   6.619042   5.236355   4.380954   5.235092
    23  C   10.039956   6.295801   5.020910   3.875945   4.391925
    24  C    8.857798   5.036511   3.858783   2.585749   2.993394
    25  H    2.153228   5.463503   6.293189   7.684656   8.288634
    26  H    3.400461   4.738937   5.020891   6.413813   7.369230
    27  H    3.881049   2.788693   2.644451   3.995131   5.070108
    28  H    2.144064   2.788986   4.190127   5.154677   5.071230
    29  H    1.082348   4.739139   5.974844   7.188322   7.370058
    30  H    8.571624   5.153500   5.069172   3.993738   2.643375
    31  H   10.119369   7.188009   7.368540   6.412483   5.019805
    32  H    9.772367   7.685797   8.288660   7.683914   6.292380
    33  H    7.702585   6.416200   7.370813   7.188310   5.974478
    34  H    5.485444   3.997648   5.072210   5.155070   4.190084
    35  H    6.972213   3.996866   2.645889   2.789006   4.189950
    36  H    9.386956   6.415449   5.022274   4.739093   5.974509
    37  H   11.147730   7.685342   6.293978   5.463302   6.292613
    38  H   10.991076   7.187914   5.974884   4.738642   5.020190
    39  H    9.029795   5.153641   4.189609   2.788409   2.643786
                   11         12         13         14         15
    11  B    0.000000
    12  O    1.412699   0.000000
    13  C    1.574408   2.591145   0.000000
    14  C    2.585746   3.858997   1.405291   0.000000
    15  C    3.875973   5.021224   2.430684   1.398528   0.000000
    16  C    4.381051   5.236817   2.806644   2.422675   1.397287
    17  C    3.876332   4.394153   2.430624   2.797735   2.420241
    18  C    2.586259   2.995538   1.405237   2.426080   2.797872
    19  C    3.895034   4.399697   5.177454   5.370997   6.732738
    20  C    5.036766   5.251694   6.436494   6.740819   8.114878
    21  C    6.295617   6.619696   7.608062   7.741641   9.071665
    22  C    6.617935   7.206292   7.735582   7.613300   8.852724
    23  C    5.804458   6.618763   6.733059   6.440555   7.614515
    24  C    4.405928   5.250574   5.371259   5.190625   6.440436
    25  H    7.685373   6.293972   8.766409  10.119066  11.149058
    26  H    7.188242   5.975125   8.564589   9.769402  10.991734
    27  H    5.154112   4.189997   6.663486   7.718015   9.029942
    28  H    3.996593   2.645604   4.693118   6.094354   6.973894
    29  H    6.415196   5.022026   7.150906   8.554252   9.388759
    30  H    2.788360   4.189693   2.170260   1.083431   2.143938
    31  H    4.738651   5.975157   3.410779   2.153824   1.082390
    32  H    5.463389   6.294452   3.888982   3.402983   2.153136
    33  H    4.739241   5.022871   3.410741   3.880101   3.400415
    34  H    2.789165   2.646471   2.170161   3.415373   3.881128
    35  H    5.154760   5.071707   6.663384   7.173249   8.569471
    36  H    7.188190   7.370435   8.563066   8.769493  10.114029
    37  H    7.684109   8.288639   8.762836   8.567332   9.763279
    38  H    6.412946   7.368872   7.145864   6.645898   7.691422
    39  H    3.994243   5.069639   4.688417   4.299726   5.476720
                   16         17         18         19         20
    16  C    0.000000
    17  C    1.397342   0.000000
    18  C    2.422836   1.398616   0.000000
    19  C    7.735412   7.608068   6.436628   0.000000
    20  C    9.074512   8.857464   7.620471   1.405230   0.000000
    21  C   10.134057  10.038667   8.857556   2.430618   1.398607
    22  C   10.035975  10.134180   9.074746   2.806596   2.422795
    23  C    8.852811   9.071893   8.115244   2.430644   2.797847
    24  C    7.613300   7.741812   6.741145   1.405258   2.426066
    25  H   10.993872   9.772370   8.574540   8.764802   8.571802
    26  H   11.149358  10.119935   8.774422   7.148486   6.650933
    27  H    9.407439   8.572588   7.176124   4.690903   4.304350
    28  H    6.717184   5.485549   4.307218   6.663753   7.175598
    29  H    9.013233   7.702236   6.654381   8.564087   8.772866
    30  H    3.396622   3.881005   3.415403   4.688016   6.089370
    31  H    2.152504   3.400495   3.880261   7.145397   8.548844
    32  H    1.082338   2.153263   3.403184   8.762606  10.116087
    33  H    2.152456   1.082367   2.153928   8.563147   9.769517
    34  H    3.396827   2.144118   1.083415   6.663669   7.719917
    35  H    9.406170   9.030883   7.719788   2.170183   1.083424
    36  H   11.145324  10.990446   9.769532   3.410738   2.153921
    37  H   10.986190  11.144266  10.116368   3.888944   3.403144
    38  H    9.003337   9.381468   8.549327   3.410728   3.880221
    39  H    6.709139   6.967642   6.089798   2.170229   3.415389
                   21         22         23         24         25
    21  C    0.000000
    22  C    1.397330   0.000000
    23  C    2.420253   1.397291   0.000000
    24  C    2.797755   2.422675   1.398532   0.000000
    25  H    9.769085  10.991000  11.147067  10.117708   0.000000
    26  H    7.698142   9.009391   9.385672   8.551851   2.478459
    27  H    5.482427   6.714196   6.971300   6.092154   4.287136
    28  H    8.572011   9.407347   9.030461   7.718767   4.287252
    29  H   10.118106  11.148073  10.991280   9.769377   2.478478
    30  H    6.967397   6.709080   5.476777   4.299618  10.473731
    31  H    9.381125   9.003123   7.691269   6.645608  12.171967
    32  H   11.144089  10.986120   9.763280   8.567247  11.918422
    33  H   10.990505  11.145487  10.114288   8.769708   9.852022
    34  H    9.031077   9.406492   8.569928   7.173693   7.631201
    35  H    2.144092   3.396784   3.881112   3.415373   7.628027
    36  H    1.082378   2.152486   3.400453   3.880133   9.848005
    37  H    2.153239   1.082347   2.153154   3.402998  11.915219
    38  H    3.400487   2.152498   1.082374   2.153817  12.170177
    39  H    3.881036   3.396647   2.143971   1.083441  10.473064
                   26         27         28         29         30
    26  H    0.000000
    27  H    2.463438   0.000000
    28  H    4.963449   4.324299   0.000000
    29  H    4.293565   4.963375   2.463548   0.000000
    30  H    9.867891   7.662744   6.657017   9.114670   0.000000
    31  H   11.915979   9.868105   8.029812  10.455831   2.463338
    32  H   12.172432  10.474488   7.631278   9.851743   4.287046
    33  H   10.456643   9.115885   5.619712   7.628248   4.963351
    34  H    8.030428   6.658170   3.343977   5.619151   4.324288
    35  H    5.615443   3.340912   6.657109   8.028293   6.653383
    36  H    7.623518   5.616374   9.114858  10.454163   8.023599
    37  H    9.847557   7.628168  10.474327  12.170954   7.622579
    38  H   10.452826   8.027273   9.868909  11.915838   5.609790
    39  H    9.112848   6.655188   7.664019   9.868552   3.335503
                   31         32         33         34         35
    31  H    0.000000
    32  H    2.478461   0.000000
    33  H    4.293601   2.478505   0.000000
    34  H    4.963497   4.287337   2.463652   0.000000
    35  H    9.111103  10.472918   9.870212   7.666497   0.000000
    36  H   10.448518  12.167697  11.915827   9.870315   2.463599
    37  H    9.840434  11.909570  12.167906  10.473272   4.287287
    38  H    7.615093   9.840552  10.448874   9.111657   4.963466
    39  H    5.609532   7.622535   8.023872   6.653921   4.324286
                   36         37         38         39
    36  H    0.000000
    37  H    2.478517   0.000000
    38  H    4.293625   2.478478   0.000000
    39  H    4.963393   4.287093   2.463376   0.000000
 Stoichiometry    C18H15B3O3
 Framework group  C1[X(C18H15B3O3)]
 Deg. of freedom   111
 Full point group                 C1      NOp   1
 Largest Abelian subgroup         C1      NOp   1
 Largest concise Abelian subgroup C1      NOp   1
                         Standard orientation:                         
 ---------------------------------------------------------------------
 Center     Atomic      Atomic             Coordinates (Angstroms)
 Number     Number       Type             X           Y           Z
 ---------------------------------------------------------------------
      1          6           0       -5.697271   -1.073657    0.000034
      2          6           0       -5.234561    0.244816   -0.000525
      3          6           0       -3.860663    0.506390   -0.000604
      4          6           0       -2.939032   -0.554476   -0.000146
      5          6           0       -3.411782   -1.877792    0.000429
      6          6           0       -4.786827   -2.133656    0.000495
      7          5           0       -1.391775   -0.262956   -0.000260
      8          8           0       -0.919958    1.068612   -0.000796
      9          5           0        0.467273    1.335140   -0.000987
     10          8           0        1.384374    0.260840   -0.000607
     11          5           0        0.921827   -1.073815    0.000041
     12          8           0       -0.467231   -1.331176    0.000218
     13          6           0        1.949033   -2.266965    0.000292
     14          6           0        3.331119   -2.012641   -0.000484
     15          6           0        4.241829   -3.074003   -0.000654
     16          6           0        3.781125   -4.393156   -0.000010
     17          6           0        2.408309   -4.653804    0.000929
     18          6           0        1.493118   -3.596187    0.001083
     19          6           0        0.988693    2.820645   -0.000691
     20          6           0        0.079365    3.891996    0.000266
     21          6           0        0.545729    5.210558    0.001251
     22          6           0        1.919034    5.468558    0.001219
     23          6           0        2.829157    4.408323    0.000036
     24          6           0        2.368302    3.087905   -0.000919
     25          1           0       -6.760942   -1.273852    0.000108
     26          1           0       -5.940848    1.064995   -0.000877
     27          1           0       -3.522816    1.535786   -0.001049
     28          1           0       -2.722760   -2.713857    0.000799
     29          1           0       -5.146585   -3.154465    0.000934
     30          1           0        3.709137   -0.997297   -0.001052
     31          1           0        5.305467   -2.873401   -0.001377
     32          1           0        4.487678   -5.213057   -0.000234
     33          1           0        2.052816   -5.676126    0.001464
     34          1           0        0.433035   -3.819816    0.001765
     35          1           0       -0.989270    3.713592    0.000453
     36          1           0       -0.158188    6.032777    0.002174
     37          1           0        2.277847    6.489699    0.002120
     38          1           0        3.892672    4.609490   -0.000021
     39          1           0        3.090591    2.280352   -0.001702
 ---------------------------------------------------------------------
 Rotational constants (GHZ):      0.1939965      0.1937685      0.0969412
 Leave Link  202 at Sun Oct  3 22:55:28 2021, MaxMem= 1610612736 cpu:       0.1
 (Enter /sw/target/amd/app/gaussian/Gaussian09RevA.02_gcc-4.9.2/g09/l301.exe)
 Standard basis: 6-31G(d) (6D, 7F)
 Ernie: Thresh=  0.10000D-02 Tol=  0.10000D-05 Strict=F.
 There are   390 symmetry adapted basis functions of A   symmetry.
 Integral buffers will be    131072 words long.
 Raffenetti 2 integral format.
 Two-electron integral symmetry is turned on.
   390 basis functions,   732 primitive gaussians,   390 cartesian basis functions
    81 alpha electrons       81 beta electrons
       nuclear repulsion energy      1703.4206642403 Hartrees.
 IExCor=  402 DFT=T Ex+Corr=B3LYP ExCW=0 ScaHFX=  0.200000
 ScaDFX=  0.800000  0.720000  1.000000  0.810000 ScalE2=  1.000000  1.000000
 IRadAn=      0 IRanWt=     -1 IRanGd=            0 ICorTp=0
 NAtoms=   39 NActive=   39 NUniq=   39 SFac= 7.50D-01 NAtFMM=   80 NAOKFM=F Big=F
 Leave Link  301 at Sun Oct  3 22:55:28 2021, MaxMem= 1610612736 cpu:       0.1
 (Enter /sw/target/amd/app/gaussian/Gaussian09RevA.02_gcc-4.9.2/g09/l302.exe)
 NPDir=0 NMtPBC=     1 NCelOv=     1 NCel=       1 NClECP=     1 NCelD=      1
         NCelK=      1 NCelE2=     1 NClLst=     1 CellRange=     0.0.
 One-electron integrals computed using PRISM.
 NBasis=   390 RedAO= T  NBF=   390
 NBsUse=   390 1.00D-06 NBFU=   390
 Precomputing XC quadrature grid using
 IXCGrd= 2 IRadAn=           0 IRanWt=          -1 IRanGd=           0 AccXCQ= 1.00D-10.
 NRdTot=    2487 NPtTot=      317814 NUsed=      335743 NTot=      335775
 NSgBfM=   381   381   381   381   381 NAtAll=    39    39.
 Leave Link  302 at Sun Oct  3 22:55:34 2021, MaxMem= 1610612736 cpu:       4.2
 (Enter /sw/target/amd/app/gaussian/Gaussian09RevA.02_gcc-4.9.2/g09/l303.exe)
 DipDrv:  MaxL=1.
 Leave Link  303 at Sun Oct  3 22:55:37 2021, MaxMem= 1610612736 cpu:       0.3
 (Enter /sw/target/amd/app/gaussian/Gaussian09RevA.02_gcc-4.9.2/g09/l401.exe)
 Harris functional with IExCor=  402 diagonalized for initial guess.
 ExpMin= 1.27D-01 ExpMax= 5.48D+03 ExpMxC= 8.25D+02 IAcc=1 IRadAn=         1 AccDes= 0.00D+00
 HarFok:  IExCor=  402 AccDes= 0.00D+00 IRadAn=         1 IDoV= 1
 ScaDFX=  1.000000  1.000000  1.000000  1.000000
 FoFCou: FMM=F IPFlag=           0 FMFlag=      100000 FMFlg1=           0
         NFxFlg=           0 DoJE=T BraDBF=F KetDBF=T FulRan=T
         Omega=  0.000000  0.000000  1.000000  0.000000  0.000000 ICntrl=     500 IOpCl=  0
         NMat0=    1 NMatS0=    1 NMatT0=    0 NMatD0=    1 NMtDS0=    0 NMtDT0=    0
         I1Cent=           4 NGrid=           0.
 Petite list used in FoFCou.
 Harris En= -995.693867662351    
 Initial guess orbital symmetries:
       Occupied  (A) (A) (A) (A) (A) (A) (A) (A) (A) (A) (A) (A)
                 (A) (A) (A) (A) (A) (A) (A) (A) (A) (A) (A) (A)
                 (A) (A) (A) (A) (A) (A) (A) (A) (A) (A) (A) (A)
                 (A) (A) (A) (A) (A) (A) (A) (A) (A) (A) (A) (A)
                 (A) (A) (A) (A) (A) (A) (A) (A) (A) (A) (A) (A)
                 (A) (A) (A) (A) (A) (A) (A) (A) (A) (A) (A) (A)
                 (A) (A) (A) (A) (A) (A) (A) (A) (A)
       Virtual   (A) (A) (A) (A) (A) (A) (A) (A) (A) (A) (A) (A)
                 (A) (A) (A) (A) (A) (A) (A) (A) (A) (A) (A) (A)
                 (A) (A) (A) (A) (A) (A) (A) (A) (A) (A) (A) (A)
                 (A) (A) (A) (A) (A) (A) (A) (A) (A) (A) (A) (A)
                 (A) (A) (A) (A) (A) (A) (A) (A) (A) (A) (A) (A)
                 (A) (A) (A) (A) (A) (A) (A) (A) (A) (A) (A) (A)
                 (A) (A) (A) (A) (A) (A) (A) (A) (A) (A) (A) (A)
                 (A) (A) (A) (A) (A) (A) (A) (A) (A) (A) (A) (A)
                 (A) (A) (A) (A) (A) (A) (A) (A) (A) (A) (A) (A)
                 (A) (A) (A) (A) (A) (A) (A) (A) (A) (A) (A) (A)
                 (A) (A) (A) (A) (A) (A) (A) (A) (A) (A) (A) (A)
                 (A) (A) (A) (A) (A) (A) (A) (A) (A) (A) (A) (A)
                 (A) (A) (A) (A) (A) (A) (A) (A) (A) (A) (A) (A)
                 (A) (A) (A) (A) (A) (A) (A) (A) (A) (A) (A) (A)
                 (A) (A) (A) (A) (A) (A) (A) (A) (A) (A) (A) (A)
                 (A) (A) (A) (A) (A) (A) (A) (A) (A) (A) (A) (A)
                 (A) (A) (A) (A) (A) (A) (A) (A) (A) (A) (A) (A)
                 (A) (A) (A) (A) (A) (A) (A) (A) (A) (A) (A) (A)
                 (A) (A) (A) (A) (A) (A) (A) (A) (A) (A) (A) (A)
                 (A) (A) (A) (A) (A) (A) (A) (A) (A) (A) (A) (A)
                 (A) (A) (A) (A) (A) (A) (A) (A) (A) (A) (A) (A)
                 (A) (A) (A) (A) (A) (A) (A) (A) (A) (A) (A) (A)
                 (A) (A) (A) (A) (A) (A) (A) (A) (A) (A) (A) (A)
                 (A) (A) (A) (A) (A) (A) (A) (A) (A) (A) (A) (A)
                 (A) (A) (A) (A) (A) (A) (A) (A) (A) (A) (A) (A)
                 (A) (A) (A) (A) (A) (A) (A) (A) (A)
 The electronic state of the initial guess is 1-A.
 Leave Link  401 at Sun Oct  3 22:55:54 2021, MaxMem= 1610612736 cpu:      17.4
 (Enter /sw/target/amd/app/gaussian/Gaussian09RevA.02_gcc-4.9.2/g09/l502.exe)
 Closed shell SCF:
 Requested convergence on RMS density matrix=1.00D-08 within  64 cycles.
 Requested convergence on MAX density matrix=1.00D-06.
 Requested convergence on             energy=1.00D-06.
 No special actions if energy rises.
 Using DIIS extrapolation, IDIIS=  1040.
 Integral symmetry usage will be decided dynamically.
       335379 words used for storage of precomputed grid.
 IEnd=      802491 IEndB=      802491 NGot=  1610612736 MDV=  1609966960
 LenX=  1609966960 LenY=  1609814419
 Fock matrices will be formed incrementally for  20 cycles.
 Integral accuracy reduced to 1.0D-05 until final iterations.

 Cycle   1  Pass 0  IDiag  1:
 FoFCou: FMM=F IPFlag=           0 FMFlag=      100000 FMFlg1=           0
         NFxFlg=           0 DoJE=F BraDBF=F KetDBF=F FulRan=T
         Omega=  0.000000  0.000000  1.000000  0.000000  0.000000 ICntrl=       0 IOpCl=  0
         NMat0=    1 NMatS0=    1 NMatT0=    0 NMatD0=    1 NMtDS0=    0 NMtDT0=    0
         I1Cent=           0 NGrid=           0.
 Symmetry not used in FoFCou.
 E= -994.941875954018    
 DIIS: error= 4.83D-02 at cycle   1 NSaved=   1.
 NSaved= 1 IEnMin= 1 EnMin= -994.941875954018     IErMin= 1 ErrMin= 4.83D-02
 ErrMax= 4.83D-02 EMaxC= 1.00D-01 BMatC= 5.90D-01 BMatP= 5.90D-01
 IDIUse=3 WtCom= 5.17D-01 WtEn= 4.83D-01
 Coeff-Com:  0.100D+01
 Coeff-En:   0.100D+01
 Coeff:      0.100D+01
 Gap=     0.190 Goal=   None    Shift=    0.000
 GapD=    0.190 DampG=1.000 DampE=0.500 DampFc=0.5000 IDamp=-1.
 Damping current iteration by 5.00D-01
 RMSDP=4.26D-03 MaxDP=1.51D-01              OVMax= 1.92D-01

 Cycle   2  Pass 0  IDiag  1:
 RMSU=  1.47D-03    CP:  9.74D-01
 E= -995.201777536642     Delta-E=       -0.259901582624 Rises=F Damp=T
 DIIS: error= 6.90D-03 at cycle   2 NSaved=   2.
 NSaved= 2 IEnMin= 2 EnMin= -995.201777536642     IErMin= 2 ErrMin= 6.90D-03
 ErrMax= 6.90D-03 EMaxC= 1.00D-01 BMatC= 3.35D-02 BMatP= 5.90D-01
 IDIUse=3 WtCom= 9.31D-01 WtEn= 6.90D-02
 Coeff-Com:  0.818D-01 0.918D+00
 Coeff-En:   0.113D+00 0.887D+00
 Coeff:      0.839D-01 0.916D+00
 Gap=     0.214 Goal=   None    Shift=    0.000
 RMSDP=8.80D-04 MaxDP=2.48D-02 DE=-2.60D-01 OVMax= 1.28D-01

 Cycle   3  Pass 0  IDiag  1:
 RMSU=  6.09D-04    CP:  9.68D-01  9.30D-01
 E= -995.523340621034     Delta-E=       -0.321563084392 Rises=F Damp=F
 DIIS: error= 7.08D-03 at cycle   3 NSaved=   3.
 NSaved= 3 IEnMin= 3 EnMin= -995.523340621034     IErMin= 2 ErrMin= 6.90D-03
 ErrMax= 7.08D-03 EMaxC= 1.00D-01 BMatC= 1.20D-02 BMatP= 3.35D-02
 IDIUse=3 WtCom= 9.29D-01 WtEn= 7.08D-02
 Coeff-Com: -0.121D-01 0.348D+00 0.664D+00
 Coeff-En:   0.000D+00 0.000D+00 0.100D+01
 Coeff:     -0.112D-01 0.323D+00 0.688D+00
 Gap=     0.208 Goal=   None    Shift=    0.000
 RMSDP=3.35D-04 MaxDP=1.76D-02 DE=-3.22D-01 OVMax= 2.61D-02

 Cycle   4  Pass 0  IDiag  1:
 RMSU=  2.07D-04    CP:  9.69D-01  9.11D-01  8.18D-01
 E= -995.530302097046     Delta-E=       -0.006961476013 Rises=F Damp=F
 DIIS: error= 4.00D-03 at cycle   4 NSaved=   4.
 NSaved= 4 IEnMin= 4 EnMin= -995.530302097046     IErMin= 4 ErrMin= 4.00D-03
 ErrMax= 4.00D-03 EMaxC= 1.00D-01 BMatC= 3.19D-03 BMatP= 1.20D-02
 IDIUse=3 WtCom= 9.60D-01 WtEn= 4.00D-02
 Coeff-Com: -0.103D-01 0.909D-01 0.371D+00 0.548D+00
 Coeff-En:   0.000D+00 0.000D+00 0.193D+00 0.807D+00
 Coeff:     -0.984D-02 0.872D-01 0.364D+00 0.559D+00
 Gap=     0.205 Goal=   None    Shift=    0.000
 RMSDP=1.63D-04 MaxDP=7.17D-03 DE=-6.96D-03 OVMax= 9.33D-03

 Cycle   5  Pass 0  IDiag  1:
 RMSU=  6.92D-05    CP:  9.68D-01  9.33D-01  8.35D-01  5.89D-01
 E= -995.532821117500     Delta-E=       -0.002519020453 Rises=F Damp=F
 DIIS: error= 8.76D-04 at cycle   5 NSaved=   5.
 NSaved= 5 IEnMin= 5 EnMin= -995.532821117500     IErMin= 5 ErrMin= 8.76D-04
 ErrMax= 8.76D-04 EMaxC= 1.00D-01 BMatC= 1.97D-04 BMatP= 3.19D-03
 IDIUse=3 WtCom= 9.91D-01 WtEn= 8.76D-03
 Coeff-Com: -0.381D-02 0.116D-01 0.105D+00 0.265D+00 0.622D+00
 Coeff-En:   0.000D+00 0.000D+00 0.000D+00 0.000D+00 0.100D+01
 Coeff:     -0.377D-02 0.114D-01 0.104D+00 0.262D+00 0.626D+00
 Gap=     0.206 Goal=   None    Shift=    0.000
 RMSDP=4.13D-05 MaxDP=1.78D-03 DE=-2.52D-03 OVMax= 2.99D-03

 Cycle   6  Pass 0  IDiag  1:
 RMSU=  1.45D-05    CP:  9.68D-01  9.32D-01  8.43D-01  6.49D-01  6.90D-01
 E= -995.532983569377     Delta-E=       -0.000162451877 Rises=F Damp=F
 DIIS: error= 2.85D-04 at cycle   6 NSaved=   6.
 NSaved= 6 IEnMin= 6 EnMin= -995.532983569377     IErMin= 6 ErrMin= 2.85D-04
 ErrMax= 2.85D-04 EMaxC= 1.00D-01 BMatC= 1.71D-05 BMatP= 1.97D-04
 IDIUse=3 WtCom= 9.97D-01 WtEn= 2.85D-03
 Coeff-Com: -0.187D-02 0.360D-02 0.479D-01 0.135D+00 0.364D+00 0.451D+00
 Coeff-En:   0.000D+00 0.000D+00 0.000D+00 0.000D+00 0.000D+00 0.100D+01
 Coeff:     -0.186D-02 0.359D-02 0.478D-01 0.134D+00 0.363D+00 0.453D+00
 Gap=     0.206 Goal=   None    Shift=    0.000
 RMSDP=1.33D-05 MaxDP=4.23D-04 DE=-1.62D-04 OVMax= 1.43D-03

 Cycle   7  Pass 0  IDiag  1:
 RMSU=  6.03D-06    CP:  9.68D-01  9.32D-01  8.45D-01  6.42D-01  7.05D-01
                    CP:  5.22D-01
 E= -995.533000579207     Delta-E=       -0.000017009830 Rises=F Damp=F
 DIIS: error= 1.03D-04 at cycle   7 NSaved=   7.
 NSaved= 7 IEnMin= 7 EnMin= -995.533000579207     IErMin= 7 ErrMin= 1.03D-04
 ErrMax= 1.03D-04 EMaxC= 1.00D-01 BMatC= 1.38D-06 BMatP= 1.71D-05
 IDIUse=3 WtCom= 9.99D-01 WtEn= 1.03D-03
 Coeff-Com: -0.610D-03 0.656D-03 0.144D-01 0.448D-01 0.131D+00 0.267D+00
 Coeff-Com:  0.542D+00
 Coeff-En:   0.000D+00 0.000D+00 0.000D+00 0.000D+00 0.000D+00 0.649D-01
 Coeff-En:   0.935D+00
 Coeff:     -0.609D-03 0.656D-03 0.144D-01 0.448D-01 0.131D+00 0.267D+00
 Coeff:      0.542D+00
 Gap=     0.206 Goal=   None    Shift=    0.000
 RMSDP=4.71D-06 MaxDP=1.33D-04 DE=-1.70D-05 OVMax= 4.62D-04

 Initial convergence to 1.0D-05 achieved.  Increase integral accuracy.
 Cycle   8  Pass 1  IDiag  1:
 E= -995.532854606891     Delta-E=        0.000145972316 Rises=F Damp=F
 DIIS: error= 3.56D-05 at cycle   1 NSaved=   1.
 NSaved= 1 IEnMin= 1 EnMin= -995.532854606891     IErMin= 1 ErrMin= 3.56D-05
 ErrMax= 3.56D-05 EMaxC= 1.00D-01 BMatC= 2.72D-07 BMatP= 2.72D-07
 IDIUse=1 WtCom= 1.00D+00 WtEn= 0.00D+00
 Coeff-Com:  0.100D+01
 Coeff:      0.100D+01
 Gap=     0.206 Goal=   None    Shift=    0.000
 RMSDP=4.71D-06 MaxDP=1.33D-04 DE= 1.46D-04 OVMax= 2.23D-04

 Cycle   9  Pass 1  IDiag  1:
 RMSU=  1.09D-05    CP:  1.00D+00
 E= -995.532854855567     Delta-E=       -0.000000248676 Rises=F Damp=F
 DIIS: error= 2.43D-05 at cycle   2 NSaved=   2.
 NSaved= 2 IEnMin= 2 EnMin= -995.532854855567     IErMin= 2 ErrMin= 2.43D-05
 ErrMax= 2.43D-05 EMaxC= 1.00D-01 BMatC= 7.32D-08 BMatP= 2.72D-07
 IDIUse=1 WtCom= 1.00D+00 WtEn= 0.00D+00
 Coeff-Com:  0.261D+00 0.739D+00
 Coeff:      0.261D+00 0.739D+00
 Gap=     0.206 Goal=   None    Shift=    0.000
 RMSDP=1.72D-06 MaxDP=7.47D-05 DE=-2.49D-07 OVMax= 2.16D-04

 Cycle  10  Pass 1  IDiag  1:
 RMSU=  1.21D-06    CP:  1.00D+00  9.98D-01
 E= -995.532854837296     Delta-E=        0.000000018270 Rises=F Damp=F
 DIIS: error= 2.61D-05 at cycle   3 NSaved=   3.
 NSaved= 3 IEnMin= 2 EnMin= -995.532854855567     IErMin= 2 ErrMin= 2.43D-05
 ErrMax= 2.61D-05 EMaxC= 1.00D-01 BMatC= 9.06D-08 BMatP= 7.32D-08
 IDIUse=1 WtCom= 1.00D+00 WtEn= 0.00D+00
 Coeff-Com:  0.395D-02 0.526D+00 0.470D+00
 Coeff:      0.395D-02 0.526D+00 0.470D+00
 Gap=     0.206 Goal=   None    Shift=    0.000
 RMSDP=9.08D-07 MaxDP=3.85D-05 DE= 1.83D-08 OVMax= 1.08D-04

 Cycle  11  Pass 1  IDiag  1:
 RMSU=  1.82D-07    CP:  1.00D+00  1.01D+00  5.00D-01
 E= -995.532854941629     Delta-E=       -0.000000104332 Rises=F Damp=F
 DIIS: error= 2.79D-06 at cycle   4 NSaved=   4.
 NSaved= 4 IEnMin= 4 EnMin= -995.532854941629     IErMin= 4 ErrMin= 2.79D-06
 ErrMax= 2.79D-06 EMaxC= 1.00D-01 BMatC= 2.51D-09 BMatP= 7.32D-08
 IDIUse=1 WtCom= 1.00D+00 WtEn= 0.00D+00
 Coeff-Com: -0.790D-02 0.274D+00 0.262D+00 0.472D+00
 Coeff:     -0.790D-02 0.274D+00 0.262D+00 0.472D+00
 Gap=     0.206 Goal=   None    Shift=    0.000
 RMSDP=1.41D-07 MaxDP=5.56D-06 DE=-1.04D-07 OVMax= 1.53D-05

 Cycle  12  Pass 1  IDiag  1:
 RMSU=  5.80D-08    CP:  1.00D+00  1.01D+00  5.15D-01  5.65D-01
 E= -995.532854944157     Delta-E=       -0.000000002528 Rises=F Damp=F
 DIIS: error= 6.44D-07 at cycle   5 NSaved=   5.
 NSaved= 5 IEnMin= 5 EnMin= -995.532854944157     IErMin= 5 ErrMin= 6.44D-07
 ErrMax= 6.44D-07 EMaxC= 1.00D-01 BMatC= 1.20D-10 BMatP= 2.51D-09
 IDIUse=1 WtCom= 1.00D+00 WtEn= 0.00D+00
 Coeff-Com: -0.394D-02 0.104D+00 0.100D+00 0.245D+00 0.555D+00
 Coeff:     -0.394D-02 0.104D+00 0.100D+00 0.245D+00 0.555D+00
 Gap=     0.206 Goal=   None    Shift=    0.000
 RMSDP=3.20D-08 MaxDP=1.10D-06 DE=-2.53D-09 OVMax= 3.37D-06

 Cycle  13  Pass 1  IDiag  1:
 RMSU=  1.49D-08    CP:  1.00D+00  1.01D+00  5.06D-01  6.03D-01  8.09D-01
 E= -995.532854944298     Delta-E=       -0.000000000141 Rises=F Damp=F
 DIIS: error= 1.33D-07 at cycle   6 NSaved=   6.
 NSaved= 6 IEnMin= 6 EnMin= -995.532854944298     IErMin= 6 ErrMin= 1.33D-07
 ErrMax= 1.33D-07 EMaxC= 1.00D-01 BMatC= 4.95D-12 BMatP= 1.20D-10
 IDIUse=1 WtCom= 1.00D+00 WtEn= 0.00D+00
 Coeff-Com: -0.994D-03 0.189D-01 0.186D-01 0.591D-01 0.220D+00 0.684D+00
 Coeff:     -0.994D-03 0.189D-01 0.186D-01 0.591D-01 0.220D+00 0.684D+00
 Gap=     0.206 Goal=   None    Shift=    0.000
 RMSDP=6.93D-09 MaxDP=5.04D-07 DE=-1.41D-10 OVMax= 4.87D-07

 SCF Done:  E(RB3LYP) =  -995.532854944     A.U. after   13 cycles
             Convg  =    0.6931D-08             -V/T =  2.0100
 KE= 9.857215647776D+02 PE=-5.721101882451D+03 EE= 2.036426798489D+03
 Leave Link  502 at Sun Oct  3 23:07:17 2021, MaxMem= 1610612736 cpu:     649.8
 (Enter /sw/target/amd/app/gaussian/Gaussian09RevA.02_gcc-4.9.2/g09/l508.exe)
 QCSCF skips out because SCF is already converged.
 Leave Link  508 at Sun Oct  3 23:07:17 2021, MaxMem= 1610612736 cpu:       0.0
 (Enter /sw/target/amd/app/gaussian/Gaussian09RevA.02_gcc-4.9.2/g09/l601.exe)
 Copying SCF densities to generalized density rwf, IOpCl= 0 IROHF=0.

 **********************************************************************

            Population analysis using the SCF density.

 **********************************************************************

 Orbital symmetries:
       Occupied  (A) (A) (A) (A) (A) (A) (A) (A) (A) (A) (A) (A)
                 (A) (A) (A) (A) (A) (A) (A) (A) (A) (A) (A) (A)
                 (A) (A) (A) (A) (A) (A) (A) (A) (A) (A) (A) (A)
                 (A) (A) (A) (A) (A) (A) (A) (A) (A) (A) (A) (A)
                 (A) (A) (A) (A) (A) (A) (A) (A) (A) (A) (A) (A)
                 (A) (A) (A) (A) (A) (A) (A) (A) (A) (A) (A) (A)
                 (A) (A) (A) (A) (A) (A) (A) (A) (A)
       Virtual   (A) (A) (A) (A) (A) (A) (A) (A) (A) (A) (A) (A)
                 (A) (A) (A) (A) (A) (A) (A) (A) (A) (A) (A) (A)
                 (A) (A) (A) (A) (A) (A) (A) (A) (A) (A) (A) (A)
                 (A) (A) (A) (A) (A) (A) (A) (A) (A) (A) (A) (A)
                 (A) (A) (A) (A) (A) (A) (A) (A) (A) (A) (A) (A)
                 (A) (A) (A) (A) (A) (A) (A) (A) (A) (A) (A) (A)
                 (A) (A) (A) (A) (A) (A) (A) (A) (A) (A) (A) (A)
                 (A) (A) (A) (A) (A) (A) (A) (A) (A) (A) (A) (A)
                 (A) (A) (A) (A) (A) (A) (A) (A) (A) (A) (A) (A)
                 (A) (A) (A) (A) (A) (A) (A) (A) (A) (A) (A) (A)
                 (A) (A) (A) (A) (A) (A) (A) (A) (A) (A) (A) (A)
                 (A) (A) (A) (A) (A) (A) (A) (A) (A) (A) (A) (A)
                 (A) (A) (A) (A) (A) (A) (A) (A) (A) (A) (A) (A)
                 (A) (A) (A) (A) (A) (A) (A) (A) (A) (A) (A) (A)
                 (A) (A) (A) (A) (A) (A) (A) (A) (A) (A) (A) (A)
                 (A) (A) (A) (A) (A) (A) (A) (A) (A) (A) (A) (A)
                 (A) (A) (A) (A) (A) (A) (A) (A) (A) (A) (A) (A)
                 (A) (A) (A) (A) (A) (A) (A) (A) (A) (A) (A) (A)
                 (A) (A) (A) (A) (A) (A) (A) (A) (A) (A) (A) (A)
                 (A) (A) (A) (A) (A) (A) (A) (A) (A) (A) (A) (A)
                 (A) (A) (A) (A) (A) (A) (A) (A) (A) (A) (A) (A)
                 (A) (A) (A) (A) (A) (A) (A) (A) (A) (A) (A) (A)
                 (A) (A) (A) (A) (A) (A) (A) (A) (A) (A) (A) (A)
                 (A) (A) (A) (A) (A) (A) (A) (A) (A) (A) (A) (A)
                 (A) (A) (A) (A) (A) (A) (A) (A) (A) (A) (A) (A)
                 (A) (A) (A) (A) (A) (A) (A) (A) (A)
 The electronic state is 1-A.
 Alpha  occ. eigenvalues --  -19.16667 -19.16666 -19.16665 -10.19398 -10.19398
 Alpha  occ. eigenvalues --  -10.19398 -10.19097 -10.19097 -10.19096 -10.19096
 Alpha  occ. eigenvalues --  -10.19095 -10.19094 -10.18920 -10.18919 -10.18919
 Alpha  occ. eigenvalues --  -10.18917 -10.18916 -10.18916 -10.17459 -10.17457
 Alpha  occ. eigenvalues --  -10.17455  -6.80969  -6.80965  -6.80962  -1.04918
 Alpha  occ. eigenvalues --   -0.99703  -0.99700  -0.84783  -0.84782  -0.84745
 Alpha  occ. eigenvalues --   -0.74323  -0.74323  -0.74251  -0.74196  -0.74196
 Alpha  occ. eigenvalues --   -0.74056  -0.61218  -0.61215  -0.60301  -0.59925
 Alpha  occ. eigenvalues --   -0.59924  -0.59840  -0.55766  -0.55764  -0.52202
 Alpha  occ. eigenvalues --   -0.51499  -0.50668  -0.50666  -0.46335  -0.45714
 Alpha  occ. eigenvalues --   -0.45302  -0.45301  -0.43986  -0.43985  -0.43388
 Alpha  occ. eigenvalues --   -0.43318  -0.42006  -0.42005  -0.41762  -0.40235
 Alpha  occ. eigenvalues --   -0.40078  -0.40076  -0.37056  -0.37055  -0.35943
 Alpha  occ. eigenvalues --   -0.34969  -0.34968  -0.34733  -0.34733  -0.34102
 Alpha  occ. eigenvalues --   -0.33974  -0.33972  -0.33347  -0.31005  -0.31004
 Alpha  occ. eigenvalues --   -0.25408  -0.25407  -0.24914  -0.24901  -0.24886
 Alpha  occ. eigenvalues --   -0.24885
 Alpha virt. eigenvalues --   -0.04273  -0.04273  -0.01690   0.00047   0.00055
 Alpha virt. eigenvalues --    0.00055   0.06488   0.06490   0.08182   0.09910
 Alpha virt. eigenvalues --    0.09968   0.09973   0.12669   0.12913   0.12922
 Alpha virt. eigenvalues --    0.15058   0.15265   0.15267   0.15397   0.17366
 Alpha virt. eigenvalues --    0.17703   0.17704   0.17753   0.17754   0.18364
 Alpha virt. eigenvalues --    0.19955   0.19957   0.21589   0.21608   0.22644
 Alpha virt. eigenvalues --    0.27277   0.27285   0.28293   0.28853   0.28855
 Alpha virt. eigenvalues --    0.29924   0.30749   0.30750   0.30798   0.31465
 Alpha virt. eigenvalues --    0.31486   0.31489   0.34913   0.34916   0.35793
 Alpha virt. eigenvalues --    0.37752   0.38981   0.39983   0.39989   0.44121
 Alpha virt. eigenvalues --    0.44122   0.46429   0.46430   0.46700   0.48432
 Alpha virt. eigenvalues --    0.48436   0.52961   0.53095   0.54013   0.54014
 Alpha virt. eigenvalues --    0.54042   0.54531   0.54535   0.55956   0.55962
 Alpha virt. eigenvalues --    0.56867   0.57203   0.57492   0.57495   0.59184
 Alpha virt. eigenvalues --    0.59649   0.59651   0.59829   0.59830   0.59907
 Alpha virt. eigenvalues --    0.60336   0.60494   0.60498   0.61131   0.61132
 Alpha virt. eigenvalues --    0.61841   0.62006   0.62184   0.62233   0.62233
 Alpha virt. eigenvalues --    0.64219   0.64219   0.66047   0.66049   0.66292
 Alpha virt. eigenvalues --    0.68896   0.69945   0.72177   0.72179   0.74496
 Alpha virt. eigenvalues --    0.74498   0.76686   0.79054   0.79142   0.79144
 Alpha virt. eigenvalues --    0.80178   0.80186   0.81353   0.81362   0.82116
 Alpha virt. eigenvalues --    0.84486   0.84487   0.84854   0.85146   0.85524
 Alpha virt. eigenvalues --    0.85526   0.89391   0.89403   0.91760   0.92093
 Alpha virt. eigenvalues --    0.93469   0.93477   0.94295   0.94296   0.95083
 Alpha virt. eigenvalues --    0.96951   0.96992   0.97026   0.99181   0.99186
 Alpha virt. eigenvalues --    0.99214   1.00425   1.00438   1.06023   1.06029
 Alpha virt. eigenvalues --    1.06546   1.07359   1.08753   1.10649   1.10651
 Alpha virt. eigenvalues --    1.10820   1.13256   1.13262   1.13661   1.15611
 Alpha virt. eigenvalues --    1.16484   1.17192   1.17196   1.18027   1.18038
 Alpha virt. eigenvalues --    1.18873   1.18918   1.19572   1.19574   1.24751
 Alpha virt. eigenvalues --    1.24765   1.25757   1.25758   1.26156   1.33341
 Alpha virt. eigenvalues --    1.34718   1.34728   1.36284   1.38329   1.38342
 Alpha virt. eigenvalues --    1.39043   1.39050   1.40577   1.42586   1.43096
 Alpha virt. eigenvalues --    1.43097   1.45722   1.46137   1.46140   1.48061
 Alpha virt. eigenvalues --    1.48063   1.48390   1.48951   1.48952   1.49183
 Alpha virt. eigenvalues --    1.49183   1.49184   1.49654   1.50451   1.51233
 Alpha virt. eigenvalues --    1.51265   1.51265   1.57569   1.57571   1.67870
 Alpha virt. eigenvalues --    1.68297   1.72109   1.72110   1.74153   1.74163
 Alpha virt. eigenvalues --    1.78162   1.78164   1.80270   1.80478   1.80481
 Alpha virt. eigenvalues --    1.83391   1.84351   1.84352   1.88159   1.88687
 Alpha virt. eigenvalues --    1.88688   1.90409   1.91602   1.91607   1.95538
 Alpha virt. eigenvalues --    1.95549   1.95625   1.98967   1.98973   1.99183
 Alpha virt. eigenvalues --    2.02352   2.02533   2.02534   2.03120   2.03122
 Alpha virt. eigenvalues --    2.11052   2.11436   2.11440   2.12629   2.13497
 Alpha virt. eigenvalues --    2.13497   2.13825   2.13976   2.13976   2.14338
 Alpha virt. eigenvalues --    2.16233   2.17408   2.17416   2.17915   2.17919
 Alpha virt. eigenvalues --    2.18040   2.20547   2.20549   2.20724   2.20725
 Alpha virt. eigenvalues --    2.25806   2.28498   2.30538   2.30541   2.30546
 Alpha virt. eigenvalues --    2.32054   2.32056   2.36663   2.36670   2.41363
 Alpha virt. eigenvalues --    2.41374   2.43709   2.48460   2.52118   2.56273
 Alpha virt. eigenvalues --    2.56277   2.57287   2.57288   2.59393   2.59399
 Alpha virt. eigenvalues --    2.65284   2.65287   2.67009   2.67920   2.67932
 Alpha virt. eigenvalues --    2.69463   2.70841   2.71231   2.71240   2.74401
 Alpha virt. eigenvalues --    2.74420   2.74430   2.76870   2.77826   2.77830
 Alpha virt. eigenvalues --    2.79764   2.79780   2.83452   2.85873   2.85885
 Alpha virt. eigenvalues --    2.91411   2.91421   2.94449   3.10005   3.10016
 Alpha virt. eigenvalues --    3.17996   3.20155   3.40124   3.40129   3.42101
 Alpha virt. eigenvalues --    3.69432   3.69444   3.79189   4.01873   4.09241
 Alpha virt. eigenvalues --    4.09262   4.09264   4.11513   4.11513   4.12556
 Alpha virt. eigenvalues --    4.20298   4.20299   4.20624   4.31080   4.31081
 Alpha virt. eigenvalues --    4.34253   4.37697   4.37698   4.43563   4.49097
 Alpha virt. eigenvalues --    4.49114   4.71111   4.71118   4.72050
          Condensed to atoms (all electrons):
              1          2          3          4          5          6
     1  C    4.846775   0.544385  -0.028247  -0.035184  -0.028240   0.544426
     2  C    0.544385   4.900085   0.500238  -0.020181  -0.047854  -0.026943
     3  C   -0.028247   0.500238   5.005861   0.491257  -0.034035  -0.047851
     4  C   -0.035184  -0.020181   0.491257   4.831381   0.491206  -0.020179
     5  C   -0.028240  -0.047854  -0.034035   0.491206   5.005837   0.500162
     6  C    0.544426  -0.026943  -0.047851  -0.020179   0.500162   4.900208
     7  B    0.000300   0.006277  -0.037287   0.398989  -0.037329   0.006277
     8  O   -0.000001   0.000212   0.003876  -0.049615   0.000423  -0.000029
     9  B    0.000000   0.000006  -0.000491  -0.000748   0.000253  -0.000001
    10  O   -0.000000   0.000000   0.000008  -0.000262   0.000008   0.000000
    11  B    0.000000  -0.000001   0.000253  -0.000750  -0.000490   0.000006
    12  O   -0.000001  -0.000029   0.000423  -0.049565   0.003876   0.000211
    13  C    0.000000  -0.000000   0.000001   0.000034  -0.000006  -0.000000
    14  C    0.000000   0.000000  -0.000000   0.000001  -0.000000   0.000000
    15  C    0.000000  -0.000000   0.000000  -0.000000  -0.000000   0.000000
    16  C    0.000000   0.000000   0.000000   0.000000  -0.000000  -0.000000
    17  C   -0.000000   0.000000   0.000000  -0.000000   0.000000   0.000000
    18  C   -0.000000  -0.000000  -0.000000  -0.000006  -0.000025   0.000000
    19  C    0.000000  -0.000000  -0.000006   0.000034   0.000001  -0.000000
    20  C   -0.000000   0.000000  -0.000026  -0.000006  -0.000000  -0.000000
    21  C   -0.000000   0.000000   0.000000  -0.000000   0.000000   0.000000
    22  C    0.000000  -0.000000  -0.000000   0.000000   0.000000   0.000000
    23  C    0.000000   0.000000  -0.000000  -0.000000   0.000000  -0.000000
    24  C    0.000000   0.000000  -0.000000   0.000001  -0.000000   0.000000
    25  H    0.359380  -0.043817   0.004780   0.000521   0.004779  -0.043816
    26  H   -0.044373   0.358753  -0.041133   0.003804   0.000762   0.004713
    27  H    0.004638  -0.050783   0.360682  -0.045900   0.006419   0.000230
    28  H    0.004636   0.000230   0.006416  -0.045896   0.360700  -0.050793
    29  H   -0.044367   0.004713   0.000762   0.003802  -0.041124   0.358763
    30  H    0.000000   0.000000  -0.000000   0.000000  -0.000000  -0.000000
    31  H    0.000000   0.000000  -0.000000   0.000000  -0.000000   0.000000
    32  H   -0.000000   0.000000   0.000000   0.000000   0.000000  -0.000000
    33  H   -0.000000   0.000000  -0.000000   0.000000   0.000000   0.000000
    34  H    0.000000   0.000000  -0.000000  -0.000045  -0.000029   0.000001
    35  H    0.000000   0.000001  -0.000029  -0.000045  -0.000000   0.000000
    36  H   -0.000000   0.000000   0.000000   0.000000  -0.000000   0.000000
    37  H   -0.000000  -0.000000   0.000000   0.000000   0.000000   0.000000
    38  H    0.000000   0.000000  -0.000000   0.000000  -0.000000   0.000000
    39  H    0.000000  -0.000000   0.000000   0.000000  -0.000000   0.000000
              7          8          9         10         11         12
     1  C    0.000300  -0.000001   0.000000  -0.000000   0.000000  -0.000001
     2  C    0.006277   0.000212   0.000006   0.000000  -0.000001  -0.000029
     3  C   -0.037287   0.003876  -0.000491   0.000008   0.000253   0.000423
     4  C    0.398989  -0.049615  -0.000748  -0.000262  -0.000750  -0.049565
     5  C   -0.037329   0.000423   0.000253   0.000008  -0.000490   0.003876
     6  C    0.006277  -0.000029  -0.000001   0.000000   0.000006   0.000211
     7  B    3.491204   0.388365  -0.005760  -0.019464  -0.005727   0.388323
     8  O    0.388365   7.799554   0.388425  -0.026039  -0.019479  -0.026001
     9  B   -0.005760   0.388425   3.491732   0.388481  -0.005769  -0.019483
    10  O   -0.019464  -0.026039   0.388481   7.799284   0.388438  -0.026032
    11  B   -0.005727  -0.019479  -0.005769   0.388438   3.491668   0.388367
    12  O    0.388323  -0.026001  -0.019483  -0.026032   0.388367   7.799754
    13  C   -0.000753  -0.000262  -0.000747  -0.049684   0.398962  -0.049534
    14  C    0.000253   0.000008  -0.000491   0.003877  -0.037266   0.000423
    15  C   -0.000001   0.000000   0.000007   0.000213   0.006281  -0.000029
    16  C    0.000000  -0.000000   0.000000  -0.000001   0.000300  -0.000001
    17  C    0.000006   0.000000  -0.000001  -0.000029   0.006282   0.000210
    18  C   -0.000490   0.000008   0.000253   0.000424  -0.037380   0.003874
    19  C   -0.000755  -0.049577   0.398966  -0.049665  -0.000748  -0.000263
    20  C   -0.000490   0.003877  -0.037329   0.000423   0.000253   0.000008
    21  C    0.000006   0.000211   0.006281  -0.000029  -0.000001   0.000000
    22  C    0.000000  -0.000001   0.000300  -0.000001   0.000000  -0.000000
    23  C   -0.000001  -0.000029   0.006282   0.000212   0.000007   0.000000
    24  C    0.000253   0.000423  -0.037310   0.003879  -0.000491   0.000008
    25  H    0.000008   0.000000  -0.000000   0.000000  -0.000000   0.000000
    26  H   -0.000213  -0.000000  -0.000000   0.000000  -0.000000   0.000000
    27  H   -0.009589   0.007415   0.000262   0.000003   0.000023   0.000077
    28  H   -0.009583   0.000077   0.000023   0.000003   0.000261   0.007392
    29  H   -0.000213   0.000000  -0.000000   0.000000  -0.000000  -0.000000
    30  H    0.000023   0.000003   0.000263   0.007422  -0.009596   0.000077
    31  H   -0.000000   0.000000  -0.000000  -0.000000  -0.000213   0.000000
    32  H   -0.000000   0.000000  -0.000000   0.000000   0.000008   0.000000
    33  H   -0.000000   0.000000  -0.000000   0.000000  -0.000213  -0.000000
    34  H    0.000260   0.000003   0.000023   0.000077  -0.009581   0.007372
    35  H    0.000261   0.007377  -0.009588   0.000077   0.000023   0.000003
    36  H   -0.000000  -0.000000  -0.000213   0.000000  -0.000000   0.000000
    37  H   -0.000000   0.000000   0.000008   0.000000  -0.000000   0.000000
    38  H   -0.000000   0.000000  -0.000213  -0.000000  -0.000000   0.000000
    39  H    0.000023   0.000077  -0.009593   0.007408   0.000262   0.000003
             13         14         15         16         17         18
     1  C    0.000000   0.000000   0.000000   0.000000  -0.000000  -0.000000
     2  C   -0.000000   0.000000  -0.000000   0.000000   0.000000  -0.000000
     3  C    0.000001  -0.000000   0.000000   0.000000   0.000000  -0.000000
     4  C    0.000034   0.000001  -0.000000   0.000000  -0.000000  -0.000006
     5  C   -0.000006  -0.000000  -0.000000  -0.000000   0.000000  -0.000025
     6  C   -0.000000   0.000000   0.000000  -0.000000   0.000000   0.000000
     7  B   -0.000753   0.000253  -0.000001   0.000000   0.000006  -0.000490
     8  O   -0.000262   0.000008   0.000000  -0.000000   0.000000   0.000008
     9  B   -0.000747  -0.000491   0.000007   0.000000  -0.000001   0.000253
    10  O   -0.049684   0.003877   0.000213  -0.000001  -0.000029   0.000424
    11  B    0.398962  -0.037266   0.006281   0.000300   0.006282  -0.037380
    12  O   -0.049534   0.000423  -0.000029  -0.000001   0.000210   0.003874
    13  C    4.831161   0.491276  -0.020193  -0.035174  -0.020170   0.491153
    14  C    0.491276   5.005916   0.500231  -0.028255  -0.047855  -0.034037
    15  C   -0.020193   0.500231   4.900122   0.544401  -0.026937  -0.047859
    16  C   -0.035174  -0.028255   0.544401   4.846700   0.544436  -0.028239
    17  C   -0.020170  -0.047855  -0.026937   0.544436   4.900202   0.500144
    18  C    0.491153  -0.034037  -0.047859  -0.028239   0.500144   5.006063
    19  C    0.000035  -0.000006  -0.000000   0.000000  -0.000000   0.000001
    20  C    0.000001  -0.000000   0.000000   0.000000   0.000000  -0.000000
    21  C   -0.000000  -0.000000   0.000000   0.000000  -0.000000   0.000000
    22  C    0.000000  -0.000000  -0.000000   0.000000   0.000000   0.000000
    23  C   -0.000000   0.000000   0.000000  -0.000000   0.000000   0.000000
    24  C   -0.000006  -0.000026   0.000000  -0.000000  -0.000000  -0.000000
    25  H    0.000000   0.000000   0.000000  -0.000000  -0.000000   0.000000
    26  H    0.000000  -0.000000   0.000000   0.000000   0.000000  -0.000000
    27  H    0.000000  -0.000000   0.000000   0.000000  -0.000000  -0.000000
    28  H   -0.000045  -0.000000   0.000000   0.000000   0.000001  -0.000028
    29  H    0.000000  -0.000000   0.000000  -0.000000   0.000000   0.000000
    30  H   -0.045875   0.360666  -0.050789   0.004638   0.000229   0.006420
    31  H    0.003803  -0.041132   0.358758  -0.044368   0.004712   0.000762
    32  H    0.000521   0.004782  -0.043825   0.359377  -0.043820   0.004780
    33  H    0.003801   0.000762   0.004713  -0.044361   0.358759  -0.041124
    34  H   -0.045882   0.006415   0.000230   0.004633  -0.050784   0.360724
    35  H    0.000000   0.000000  -0.000000   0.000000   0.000000  -0.000000
    36  H    0.000000  -0.000000   0.000000   0.000000   0.000000  -0.000000
    37  H    0.000000   0.000000  -0.000000  -0.000000   0.000000   0.000000
    38  H    0.000000   0.000000   0.000000  -0.000000   0.000000  -0.000000
    39  H   -0.000046  -0.000029   0.000001   0.000000   0.000000  -0.000000
             19         20         21         22         23         24
     1  C    0.000000  -0.000000  -0.000000   0.000000   0.000000   0.000000
     2  C   -0.000000   0.000000   0.000000  -0.000000   0.000000   0.000000
     3  C   -0.000006  -0.000026   0.000000  -0.000000  -0.000000  -0.000000
     4  C    0.000034  -0.000006  -0.000000   0.000000  -0.000000   0.000001
     5  C    0.000001  -0.000000   0.000000   0.000000   0.000000  -0.000000
     6  C   -0.000000  -0.000000   0.000000   0.000000  -0.000000   0.000000
     7  B   -0.000755  -0.000490   0.000006   0.000000  -0.000001   0.000253
     8  O   -0.049577   0.003877   0.000211  -0.000001  -0.000029   0.000423
     9  B    0.398966  -0.037329   0.006281   0.000300   0.006282  -0.037310
    10  O   -0.049665   0.000423  -0.000029  -0.000001   0.000212   0.003879
    11  B   -0.000748   0.000253  -0.000001   0.000000   0.000007  -0.000491
    12  O   -0.000263   0.000008   0.000000  -0.000000   0.000000   0.000008
[...]
   150    O   10  dz2    Ryd( 3d)     0.00048

   151    B   11  S      Cor( 1S)     1.99887
   152    B   11  S      Val( 2S)     0.49049
   153    B   11  S      Ryd( 3S)     0.00097
   154    B   11  S      Ryd( 4S)     0.00053
   155    B   11  px     Val( 2p)     0.53656
   156    B   11  px     Ryd( 3p)     0.00360
   157    B   11  py     Val( 2p)     0.39673
   158    B   11  py     Ryd( 3p)     0.01092
   159    B   11  pz     Val( 2p)     0.43475
   160    B   11  pz     Ryd( 3p)     0.00076
   161    B   11  dxy    Ryd( 3d)     0.00289
   162    B   11  dxz    Ryd( 3d)     0.00133
   163    B   11  dyz    Ryd( 3d)     0.00176
   164    B   11  dx2y2  Ryd( 3d)     0.00285
   165    B   11  dz2    Ryd( 3d)     0.00057

   166    O   12  S      Cor( 1S)     1.99974
   167    O   12  S      Val( 2S)     1.63268
   168    O   12  S      Ryd( 3S)     0.00016
   169    O   12  S      Ryd( 4S)     0.00009
   170    O   12  px     Val( 2p)     1.67856
   171    O   12  px     Ryd( 3p)     0.00029
   172    O   12  py     Val( 2p)     1.85526
   173    O   12  py     Ryd( 3p)     0.00124
   174    O   12  pz     Val( 2p)     1.72054
   175    O   12  pz     Ryd( 3p)     0.00046
   176    O   12  dxy    Ryd( 3d)     0.00092
   177    O   12  dxz    Ryd( 3d)     0.00017
   178    O   12  dyz    Ryd( 3d)     0.00142
   179    O   12  dx2y2  Ryd( 3d)     0.00114
   180    O   12  dz2    Ryd( 3d)     0.00048

   181    C   13  S      Cor( 1S)     1.99897
   182    C   13  S      Val( 2S)     0.99128
   183    C   13  S      Ryd( 3S)     0.00236
   184    C   13  S      Ryd( 4S)     0.00003
   185    C   13  px     Val( 2p)     1.28128
   186    C   13  px     Ryd( 3p)     0.00683
   187    C   13  py     Val( 2p)     1.11577
   188    C   13  py     Ryd( 3p)     0.00476
   189    C   13  pz     Val( 2p)     1.01549
   190    C   13  pz     Ryd( 3p)     0.00065
   191    C   13  dxy    Ryd( 3d)     0.00056
   192    C   13  dxz    Ryd( 3d)     0.00041
   193    C   13  dyz    Ryd( 3d)     0.00045
   194    C   13  dx2y2  Ryd( 3d)     0.00054
   195    C   13  dz2    Ryd( 3d)     0.00030

   196    C   14  S      Cor( 1S)     1.99911
   197    C   14  S      Val( 2S)     0.96021
   198    C   14  S      Ryd( 3S)     0.00062
   199    C   14  S      Ryd( 4S)     0.00005
   200    C   14  px     Val( 2p)     1.05640
   201    C   14  px     Ryd( 3p)     0.00357
   202    C   14  py     Val( 2p)     1.19821
   203    C   14  py     Ryd( 3p)     0.00564
   204    C   14  pz     Val( 2p)     0.93378
   205    C   14  pz     Ryd( 3p)     0.00131
   206    C   14  dxy    Ryd( 3d)     0.00064
   207    C   14  dxz    Ryd( 3d)     0.00057
   208    C   14  dyz    Ryd( 3d)     0.00030
   209    C   14  dx2y2  Ryd( 3d)     0.00102
   210    C   14  dz2    Ryd( 3d)     0.00042

   211    C   15  S      Cor( 1S)     1.99911
   212    C   15  S      Val( 2S)     0.96976
   213    C   15  S      Ryd( 3S)     0.00061
   214    C   15  S      Ryd( 4S)     0.00004
   215    C   15  px     Val( 2p)     1.14430
   216    C   15  px     Ryd( 3p)     0.00489
   217    C   15  py     Val( 2p)     1.11596
   218    C   15  py     Ryd( 3p)     0.00483
   219    C   15  pz     Val( 2p)     0.96387
   220    C   15  pz     Ryd( 3p)     0.00117
   221    C   15  dxy    Ryd( 3d)     0.00090
   222    C   15  dxz    Ryd( 3d)     0.00043
   223    C   15  dyz    Ryd( 3d)     0.00049
   224    C   15  dx2y2  Ryd( 3d)     0.00066
   225    C   15  dz2    Ryd( 3d)     0.00042

   226    C   16  S      Cor( 1S)     1.99912
   227    C   16  S      Val( 2S)     0.96723
   228    C   16  S      Ryd( 3S)     0.00058
   229    C   16  S      Ryd( 4S)     0.00003
   230    C   16  px     Val( 2p)     1.17929
   231    C   16  px     Ryd( 3p)     0.00513
   232    C   16  py     Val( 2p)     1.07766
   233    C   16  py     Ryd( 3p)     0.00465
   234    C   16  pz     Val( 2p)     1.01326
   235    C   16  pz     Ryd( 3p)     0.00162
   236    C   16  dxy    Ryd( 3d)     0.00074
   237    C   16  dxz    Ryd( 3d)     0.00036
   238    C   16  dyz    Ryd( 3d)     0.00048
   239    C   16  dx2y2  Ryd( 3d)     0.00077
   240    C   16  dz2    Ryd( 3d)     0.00043

   241    C   17  S      Cor( 1S)     1.99911
   242    C   17  S      Val( 2S)     0.96977
   243    C   17  S      Ryd( 3S)     0.00061
   244    C   17  S      Ryd( 4S)     0.00004
   245    C   17  px     Val( 2p)     1.06785
   246    C   17  px     Ryd( 3p)     0.00457
   247    C   17  py     Val( 2p)     1.19241
   248    C   17  py     Ryd( 3p)     0.00515
   249    C   17  pz     Val( 2p)     0.96385
   250    C   17  pz     Ryd( 3p)     0.00117
   251    C   17  dxy    Ryd( 3d)     0.00067
   252    C   17  dxz    Ryd( 3d)     0.00059
   253    C   17  dyz    Ryd( 3d)     0.00033
   254    C   17  dx2y2  Ryd( 3d)     0.00089
   255    C   17  dz2    Ryd( 3d)     0.00042

   256    C   18  S      Cor( 1S)     1.99911
   257    C   18  S      Val( 2S)     0.96018
   258    C   18  S      Ryd( 3S)     0.00062
   259    C   18  S      Ryd( 4S)     0.00005
   260    C   18  px     Val( 2p)     1.13800
   261    C   18  px     Ryd( 3p)     0.00468
   262    C   18  py     Val( 2p)     1.11662
   263    C   18  py     Ryd( 3p)     0.00454
   264    C   18  pz     Val( 2p)     0.93381
   265    C   18  pz     Ryd( 3p)     0.00131
   266    C   18  dxy    Ryd( 3d)     0.00103
   267    C   18  dxz    Ryd( 3d)     0.00045
   268    C   18  dyz    Ryd( 3d)     0.00041
   269    C   18  dx2y2  Ryd( 3d)     0.00063
   270    C   18  dz2    Ryd( 3d)     0.00042

   271    C   19  S      Cor( 1S)     1.99897
   272    C   19  S      Val( 2S)     0.99101
   273    C   19  S      Ryd( 3S)     0.00236
   274    C   19  S      Ryd( 4S)     0.00003
   275    C   19  px     Val( 2p)     1.09436
   276    C   19  px     Ryd( 3p)     0.00448
   277    C   19  py     Val( 2p)     1.30288
   278    C   19  py     Ryd( 3p)     0.00710
   279    C   19  pz     Val( 2p)     1.01598
   280    C   19  pz     Ryd( 3p)     0.00064
   281    C   19  dxy    Ryd( 3d)     0.00061
   282    C   19  dxz    Ryd( 3d)     0.00046
   283    C   19  dyz    Ryd( 3d)     0.00040
   284    C   19  dx2y2  Ryd( 3d)     0.00049
   285    C   19  dz2    Ryd( 3d)     0.00030

   286    C   20  S      Cor( 1S)     1.99911
   287    C   20  S      Val( 2S)     0.95984
   288    C   20  S      Ryd( 3S)     0.00062
   289    C   20  S      Ryd( 4S)     0.00005
   290    C   20  px     Val( 2p)     1.14550
   291    C   20  px     Ryd( 3p)     0.00495
   292    C   20  py     Val( 2p)     1.10923
   293    C   20  py     Ryd( 3p)     0.00427
   294    C   20  pz     Val( 2p)     0.93512
   295    C   20  pz     Ryd( 3p)     0.00128
   296    C   20  dxy    Ryd( 3d)     0.00098
   297    C   20  dxz    Ryd( 3d)     0.00036
   298    C   20  dyz    Ryd( 3d)     0.00050
   299    C   20  dx2y2  Ryd( 3d)     0.00068
   300    C   20  dz2    Ryd( 3d)     0.00042

   301    C   21  S      Cor( 1S)     1.99910
   302    C   21  S      Val( 2S)     0.96942
   303    C   21  S      Ryd( 3S)     0.00061
   304    C   21  S      Ryd( 4S)     0.00004
   305    C   21  px     Val( 2p)     1.17894
   306    C   21  px     Ryd( 3p)     0.00510
   307    C   21  py     Val( 2p)     1.08144
   308    C   21  py     Ryd( 3p)     0.00462
   309    C   21  pz     Val( 2p)     0.96560
   310    C   21  pz     Ryd( 3p)     0.00114
   311    C   21  dxy    Ryd( 3d)     0.00076
   312    C   21  dxz    Ryd( 3d)     0.00036
   313    C   21  dyz    Ryd( 3d)     0.00056
   314    C   21  dx2y2  Ryd( 3d)     0.00080
   315    C   21  dz2    Ryd( 3d)     0.00042

   316    C   22  S      Cor( 1S)     1.99912
   317    C   22  S      Val( 2S)     0.96710
   318    C   22  S      Ryd( 3S)     0.00058
   319    C   22  S      Ryd( 4S)     0.00003
   320    C   22  px     Val( 2p)     1.06446
   321    C   22  px     Ryd( 3p)     0.00457
   322    C   22  py     Val( 2p)     1.19253
   323    C   22  py     Ryd( 3p)     0.00520
   324    C   22  pz     Val( 2p)     1.01231
   325    C   22  pz     Ryd( 3p)     0.00159
   326    C   22  dxy    Ryd( 3d)     0.00065
   327    C   22  dxz    Ryd( 3d)     0.00049
   328    C   22  dyz    Ryd( 3d)     0.00034
   329    C   22  dx2y2  Ryd( 3d)     0.00086
   330    C   22  dz2    Ryd( 3d)     0.00043

   331    C   23  S      Cor( 1S)     1.99910
   332    C   23  S      Val( 2S)     0.96941
   333    C   23  S      Ryd( 3S)     0.00061
   334    C   23  S      Ryd( 4S)     0.00004
   335    C   23  px     Val( 2p)     1.14200
   336    C   23  px     Ryd( 3p)     0.00495
   337    C   23  py     Val( 2p)     1.11835
   338    C   23  py     Ryd( 3p)     0.00477
   339    C   23  pz     Val( 2p)     0.96574
   340    C   23  pz     Ryd( 3p)     0.00114
   341    C   23  dxy    Ryd( 3d)     0.00090
   342    C   23  dxz    Ryd( 3d)     0.00043
   343    C   23  dyz    Ryd( 3d)     0.00048
   344    C   23  dx2y2  Ryd( 3d)     0.00066
   345    C   23  dz2    Ryd( 3d)     0.00042

   346    C   24  S      Cor( 1S)     1.99911
   347    C   24  S      Val( 2S)     0.95984
   348    C   24  S      Ryd( 3S)     0.00062
   349    C   24  S      Ryd( 4S)     0.00005
   350    C   24  px     Val( 2p)     1.18489
   351    C   24  px     Ryd( 3p)     0.00548
   352    C   24  py     Val( 2p)     1.06985
   353    C   24  py     Ryd( 3p)     0.00373
   354    C   24  pz     Val( 2p)     0.93504
   355    C   24  pz     Ryd( 3p)     0.00128
   356    C   24  dxy    Ryd( 3d)     0.00074
   357    C   24  dxz    Ryd( 3d)     0.00031
   358    C   24  dyz    Ryd( 3d)     0.00056
   359    C   24  dx2y2  Ryd( 3d)     0.00092
   360    C   24  dz2    Ryd( 3d)     0.00042

   361    H   25  S      Val( 1S)     0.76384
   362    H   25  S      Ryd( 2S)     0.00084

   363    H   26  S      Val( 1S)     0.76377
   364    H   26  S      Ryd( 2S)     0.00090

   365    H   27  S      Val( 1S)     0.75761
   366    H   27  S      Ryd( 2S)     0.00148

   367    H   28  S      Val( 1S)     0.75769
   368    H   28  S      Ryd( 2S)     0.00148

   369    H   29  S      Val( 1S)     0.76379
   370    H   29  S      Ryd( 2S)     0.00090

   371    H   30  S      Val( 1S)     0.75746
   372    H   30  S      Ryd( 2S)     0.00148

   373    H   31  S      Val( 1S)     0.76366
   374    H   31  S      Ryd( 2S)     0.00090

   375    H   32  S      Val( 1S)     0.76368
   376    H   32  S      Ryd( 2S)     0.00084

   377    H   33  S      Val( 1S)     0.76366
   378    H   33  S      Ryd( 2S)     0.00090

   379    H   34  S      Val( 1S)     0.75748
   380    H   34  S      Ryd( 2S)     0.00148

   381    H   35  S      Val( 1S)     0.75764
   382    H   35  S      Ryd( 2S)     0.00148

   383    H   36  S      Val( 1S)     0.76378
   384    H   36  S      Ryd( 2S)     0.00090

   385    H   37  S      Val( 1S)     0.76384
   386    H   37  S      Ryd( 2S)     0.00084

   387    H   38  S      Val( 1S)     0.76380
   388    H   38  S      Ryd( 2S)     0.00090

   389    H   39  S      Val( 1S)     0.75772
   390    H   39  S      Ryd( 2S)     0.00148

 WARNING:  1 low occupancy (<1.9990e) core orbital  found on  C    4
           1 low occupancy (<1.9990e) core orbital  found on  B    7
           1 low occupancy (<1.9990e) core orbital  found on  B    9
           1 low occupancy (<1.9990e) core orbital  found on  B   11
           1 low occupancy (<1.9990e) core orbital  found on  C   13
           1 low occupancy (<1.9990e) core orbital  found on  C   19


 Summary of Natural Population Analysis:                  
                                                          
                                       Natural Population 
                Natural  -----------------------------------------------
    Atom  No    Charge         Core      Valence    Rydberg      Total
 -----------------------------------------------------------------------
      C    1   -0.25022      1.99912     4.23636    0.01474     6.25022
      C    2   -0.20890      1.99910     4.19539    0.01441     6.20890
      C    3   -0.16289      1.99911     4.14967    0.01411     6.16289
      C    4   -0.42000      1.99897     4.40416    0.01687     6.42000
      C    5   -0.16282      1.99911     4.14960    0.01411     6.16282
      C    6   -0.20899      1.99910     4.19548    0.01441     6.20899
      B    7    1.11842      1.99887     1.85653    0.02618     3.88158
      O    8   -0.89335      1.99974     6.88722    0.00639     8.89335
      B    9    1.11840      1.99887     1.85656    0.02617     3.88160
      O   10   -0.89314      1.99974     6.88701    0.00638     8.89314
      B   11    1.11643      1.99887     1.85852    0.02618     3.88357
      O   12   -0.89316      1.99974     6.88704    0.00638     8.89316
      C   13   -0.41969      1.99897     4.40382    0.01690     6.41969
      C   14   -0.16184      1.99911     4.14859    0.01414     6.16184
      C   15   -0.20743      1.99911     4.19390    0.01443     6.20743
      C   16   -0.25134      1.99912     4.23744    0.01478     6.25134
      C   17   -0.20742      1.99911     4.19388    0.01443     6.20742
      C   18   -0.16186      1.99911     4.14861    0.01414     6.16186
      C   19   -0.42007      1.99897     4.40423    0.01687     6.42007
      C   20   -0.16292      1.99911     4.14970    0.01411     6.16292
      C   21   -0.20891      1.99910     4.19540    0.01440     6.20891
      C   22   -0.25025      1.99912     4.23639    0.01474     6.25025
      C   23   -0.20901      1.99910     4.19550    0.01441     6.20901
      C   24   -0.16283      1.99911     4.14962    0.01410     6.16283
      H   25    0.23532      0.00000     0.76384    0.00084     0.76468
      H   26    0.23533      0.00000     0.76377    0.00090     0.76467
      H   27    0.24091      0.00000     0.75761    0.00148     0.75909
      H   28    0.24083      0.00000     0.75769    0.00148     0.75917
      H   29    0.23531      0.00000     0.76379    0.00090     0.76469
      H   30    0.24106      0.00000     0.75746    0.00148     0.75894
      H   31    0.23544      0.00000     0.76366    0.00090     0.76456
      H   32    0.23548      0.00000     0.76368    0.00084     0.76452
      H   33    0.23544      0.00000     0.76366    0.00090     0.76456
      H   34    0.24104      0.00000     0.75748    0.00148     0.75896
      H   35    0.24088      0.00000     0.75764    0.00148     0.75912
      H   36    0.23532      0.00000     0.76378    0.00090     0.76468
      H   37    0.23532      0.00000     0.76384    0.00084     0.76468
      H   38    0.23529      0.00000     0.76380    0.00090     0.76471
      H   39    0.24080      0.00000     0.75772    0.00148     0.75920
 =======================================================================
   * Total *   -0.00000     47.97938   113.64003    0.38059   162.00000

                                 Natural Population      
 --------------------------------------------------------
   Core                      47.97938 ( 99.9570% of  48)
   Valence                  113.64003 ( 99.6842% of 114)
   Natural Minimal Basis    161.61941 ( 99.7651% of 162)
   Natural Rydberg Basis      0.38059 (  0.2349% of 162)
 --------------------------------------------------------

    Atom  No          Natural Electron Configuration
 ----------------------------------------------------------------------------
      C    1      [core]2S( 0.97)2p( 3.27)3p( 0.01)
      C    2      [core]2S( 0.97)2p( 3.23)3p( 0.01)
      C    3      [core]2S( 0.96)2p( 3.19)3p( 0.01)
      C    4      [core]2S( 0.99)2p( 3.41)3p( 0.01)
      C    5      [core]2S( 0.96)2p( 3.19)3p( 0.01)
      C    6      [core]2S( 0.97)2p( 3.23)3p( 0.01)
      B    7      [core]2S( 0.49)2p( 1.37)3p( 0.02)3d( 0.01)
      O    8      [core]2S( 1.63)2p( 5.25)
      B    9      [core]2S( 0.49)2p( 1.37)3p( 0.02)3d( 0.01)
      O   10      [core]2S( 1.63)2p( 5.25)
      B   11      [core]2S( 0.49)2p( 1.37)3p( 0.02)3d( 0.01)
      O   12      [core]2S( 1.63)2p( 5.25)
      C   13      [core]2S( 0.99)2p( 3.41)3p( 0.01)
      C   14      [core]2S( 0.96)2p( 3.19)3p( 0.01)
      C   15      [core]2S( 0.97)2p( 3.22)3p( 0.01)
      C   16      [core]2S( 0.97)2p( 3.27)3p( 0.01)
      C   17      [core]2S( 0.97)2p( 3.22)3p( 0.01)
      C   18      [core]2S( 0.96)2p( 3.19)3p( 0.01)
      C   19      [core]2S( 0.99)2p( 3.41)3p( 0.01)
      C   20      [core]2S( 0.96)2p( 3.19)3p( 0.01)
      C   21      [core]2S( 0.97)2p( 3.23)3p( 0.01)
      C   22      [core]2S( 0.97)2p( 3.27)3p( 0.01)
      C   23      [core]2S( 0.97)2p( 3.23)3p( 0.01)
      C   24      [core]2S( 0.96)2p( 3.19)3p( 0.01)
      H   25            1S( 0.76)
      H   26            1S( 0.76)
      H   27            1S( 0.76)
      H   28            1S( 0.76)
      H   29            1S( 0.76)
      H   30            1S( 0.76)
      H   31            1S( 0.76)
      H   32            1S( 0.76)
      H   33            1S( 0.76)
      H   34            1S( 0.76)
      H   35            1S( 0.76)
      H   36            1S( 0.76)
      H   37            1S( 0.76)
      H   38            1S( 0.76)
      H   39            1S( 0.76)


 NBO analysis skipped by request.
 Leave Link  607 at Mon Oct  4 17:14:47 2021, MaxMem= 1610612736 cpu:      21.6
 (Enter /sw/target/amd/app/gaussian/Gaussian09RevA.02_gcc-4.9.2/g09/l9999.exe)
 1\1\GINC-HERMITE\SP\RTD-B3LYP-FC\6-31G(d)\C18H15B3O3\JSCHLEINITZ\04-Oc
 t-2021\0\\#p TD(NStates=10, Root=1) b3lyp/6-31G* volume pop=NPA densit
 y=current Geom=AllCheck Guess=Read\\c1ccc(cc1)b1ob(ob(o1)c1ccccc1)c1cc
 ccc1_conf_0\\0,1\C,0,1.3135574512,-0.2540155098,0.3445511915\C,0,0.385
 2044492,-0.6902232792,1.2933812846\C,0,-0.9730499723,-0.4465105832,1.0
 974459968\C,0,-1.4315391115,0.2350367665,-0.0451597412\C,0,-0.47906328
 44,0.6652061433,-0.9874427903\C,0,0.8806231571,0.4247208055,-0.7975510
 431\B,0,-2.9454391718,0.5047284403,-0.2600420496\O,0,-3.8763585163,0.0
 789413254,0.6704495445\B,0,-5.2283847274,0.3119717296,0.4924097823\O,0
 ,-5.6430684705,0.9850983693,-0.642881794\B,0,-4.7350795567,1.422716102
 8,-1.5904882805\O,0,-3.3893604169,1.1753846831,-1.3857420739\C,0,-5.21
 7243914,2.176648615,-2.8592981145\C,0,-6.5844619229,2.4314905791,-3.07
 38950033\C,0,-7.0205027981,3.1080096299,-4.2118221471\C,0,-6.091455415
 7,3.543814718,-5.1601617598\C,0,-4.7288635477,3.3016300327,-4.96748221
 24\C,0,-4.2994450912,2.6245530841,-3.8273753006\C,0,-6.2602696119,-0.1
 723933355,1.546600929\C,0,-5.8454596696,-0.8575698654,2.7036149845\C,0
 ,-6.7692164907,-1.2936910453,3.6518041488\C,0,-8.1315224901,-1.0506633
 991,3.4580494038\C,0,-8.5658399089,-0.372087935,2.3163784708\C,0,-7.63
 68892562,0.0613671229,1.3720503797\H,0,2.373651072,-0.4428455451,0.494
 9950892\H,0,0.722417598,-1.2181662071,2.1816634193\H,0,-1.6947170602,-
 0.7859085866,1.8355908447\H,0,-0.8155549078,1.1930536523,-1.8756841593
 \H,0,1.6031447436,0.7638767515,-1.5354026005\H,0,-7.3074365907,2.09279
 71794,-2.336710402\H,0,-8.0804069196,3.2965571883,-4.3619883832\H,0,-6
 .4290535123,4.0717461282,-6.0486373541\H,0,-4.0063826226,3.6407685885,
 -5.7053796196\H,0,-3.239649584,2.4364608028,-3.6780083359\H,0,-4.78607
 00915,-1.0466929708,2.8545146719\H,0,-6.4317307487,-1.8215797198,4.540
 0156601\H,0,-8.8541609596,-1.389820318,4.1961856984\H,0,-9.6256700954,
 -0.1832538211,2.1660602018\H,0,-7.9749793899,0.5890484832,0.4843027849
 \\Version=AM64L-G09RevA.02\State=1-A\HF=-995.5384859\RMSD=3.439e-09\Di
 pole=-0.0092008,0.0162011,-0.0274726\Quadrupole=6.7565835,-8.9109797,2
 .1543962,-1.6179864,-0.7981685,-8.9387759\PG=C01 [X(C18H15B3O3)]\\@


 NOT WHAT WE DID SHALL BE THE TEST
 WHEN ACT AND WILL ARE DONE,
 BUT WHAT OUR LORD INFERS WE WOULD-
 HAD WE DIVINER BEEN.
           EMILY DICKINSON  POEMS NO. CLXXV
 Job cpu time:  0 days  7 hours 47 minutes 26.2 seconds.
 File lengths (MBytes):  RWF=    475 Int=      0 D2E=      0 Chk=     67 Scr=      1
 Normal termination of Gaussian 09 at Mon Oct  4 17:28:20 2021.
