 Entering Gaussian System, Link 0=g09
 Input=C19H15NO_bad5_conf_0.com
 Output=C19H15NO_bad5_conf_0.log
 Initial command:
 /sw/target/amd/app/gaussian/Gaussian09RevA.02_gcc-4.9.2/g09/l1.exe /home/jschleinitz/gaussian/Gau-276515.inp -scrdir=/home/jschleinitz/gaussian/
 Entering Link 1 = /sw/target/amd/app/gaussian/Gaussian09RevA.02_gcc-4.9.2/g09/l1.exe PID=    276517.
  
 Copyright (c) 1988,1990,1992,1993,1995,1998,2003,2009, Gaussian, Inc.
                  All Rights Reserved.
  
 This is part of the Gaussian(R) 09 program.  It is based on
 the Gaussian(R) 03 system (copyright 2003, Gaussian, Inc.),
 the Gaussian(R) 98 system (copyright 1998, Gaussian, Inc.),
 the Gaussian(R) 94 system (copyright 1995, Gaussian, Inc.),
 the Gaussian 92(TM) system (copyright 1992, Gaussian, Inc.),
 the Gaussian 90(TM) system (copyright 1990, Gaussian, Inc.),
 the Gaussian 88(TM) system (copyright 1988, Gaussian, Inc.),
 the Gaussian 86(TM) system (copyright 1986, Carnegie Mellon
 University), and the Gaussian 82(TM) system (copyright 1983,
 Carnegie Mellon University). Gaussian is a federally registered
 trademark of Gaussian, Inc.
  
 This software contains proprietary and confidential information,
 including trade secrets, belonging to Gaussian, Inc.
  
 This software is provided under written license and may be
 used, copied, transmitted, or stored only in accord with that
 written license.
  
 The following legend is applicable only to US Government
 contracts under FAR:
  
                    RESTRICTED RIGHTS LEGEND
  
 Use, reproduction and disclosure by the US Government is
 subject to restrictions as set forth in subparagraphs (a)
 and (c) of the Commercial Computer Software - Restricted
 Rights clause in FAR 52.227-19.
  
 Gaussian, Inc.
 340 Quinnipiac St., Bldg. 40, Wallingford CT 06492
  
  
 ---------------------------------------------------------------
 Warning -- This program may not be used in any manner that
 competes with the business of Gaussian, Inc. or will provide
 assistance to any competitor of Gaussian, Inc.  The licensee
 of this program is prohibited from giving any competitor of
 Gaussian, Inc. access to this program.  By using this program,
 the user acknowledges that Gaussian, Inc. is engaged in the
 business of creating and licensing software in the field of
 computational chemistry and represents and warrants to the
 licensee that it is not a competitor of Gaussian, Inc. and that
 it will not use this program in any manner prohibited above.
 ---------------------------------------------------------------
  

 Cite this work as:
 Gaussian 09, Revision A.02,
 M. J. Frisch, G. W. Trucks, H. B. Schlegel, G. E. Scuseria, 
 M. A. Robb, J. R. Cheeseman, G. Scalmani, V. Barone, B. Mennucci, 
 G. A. Petersson, H. Nakatsuji, M. Caricato, X. Li, H. P. Hratchian, 
 A. F. Izmaylov, J. Bloino, G. Zheng, J. L. Sonnenberg, M. Hada, 
 M. Ehara, K. Toyota, R. Fukuda, J. Hasegawa, M. Ishida, T. Nakajima, 
 Y. Honda, O. Kitao, H. Nakai, T. Vreven, J. A. Montgomery, Jr., 
 J. E. Peralta, F. Ogliaro, M. Bearpark, J. J. Heyd, E. Brothers, 
 K. N. Kudin, V. N. Staroverov, R. Kobayashi, J. Normand, 
 K. Raghavachari, A. Rendell, J. C. Burant, S. S. Iyengar, J. Tomasi, 
 M. Cossi, N. Rega, J. M. Millam, M. Klene, J. E. Knox, J. B. Cross, 
 V. Bakken, C. Adamo, J. Jaramillo, R. Gomperts, R. E. Stratmann, 
 O. Yazyev, A. J. Austin, R. Cammi, C. Pomelli, J. W. Ochterski, 
 R. L. Martin, K. Morokuma, V. G. Zakrzewski, G. A. Voth, 
 P. Salvador, J. J. Dannenberg, S. Dapprich, A. D. Daniels, 
 O. Farkas, J. B. Foresman, J. V. Ortiz, J. Cioslowski, 
 and D. J. Fox, Gaussian, Inc., Wallingford CT, 2009.
 
 ******************************************
 Gaussian 09:  AM64L-G09RevA.02 11-Jun-2009
                28-Sep-2021 
 ******************************************
 %nproc=6
 Will use up to    6 processors via shared memory.
 %mem=12gb
 %chk=C19H15NO_bad5_conf_0.chk
 -----------------------------------
 #p opt b3lyp/6-31G* scf=(xqc,tight)
 -----------------------------------
 1/14=-1,18=20,19=15,26=3,38=1/1,3;
 2/9=110,12=2,17=6,18=5,40=1/2;
 3/5=1,6=6,7=1,11=2,16=1,25=1,30=1,71=1,74=-5/1,2,3;
 4//1;
 5/5=2,8=3,13=1,32=2,38=5/2,8;
 6/7=2,8=2,9=2,10=2,28=1/1;
 7//1,2,3,16;
 1/14=-1,18=20,19=15/3(2);
 2/9=110/2;
 99//99;
 2/9=110/2;
 3/5=1,6=6,7=1,11=2,16=1,25=1,30=1,71=1,74=-5/1,2,3;
 4/5=5,16=3/1;
 5/5=2,8=3,13=1,32=2,38=5/2,8;
 7//1,2,3,16;
 1/14=-1,18=20,19=15/3(-5);
 2/9=110/2;
 6/7=2,8=2,9=2,10=2,19=2,28=1/1;
 99/9=1/99;
 Leave Link    1 at Tue Sep 28 21:35:29 2021, MaxMem= 1610612736 cpu:       0.1
 (Enter /sw/target/amd/app/gaussian/Gaussian09RevA.02_gcc-4.9.2/g09/l101.exe)
 --------------------------------------
 COc1ccc(cc1)n1c2ccccc2c2c1cccc2_conf_0
 --------------------------------------
 Symbolic Z-matrix:
 Charge =  0 Multiplicity = 1
 C                     5.10387  -2.92453   2.93622 
 O                     3.98632  -3.04134   2.0617 
 C                     4.27164  -2.95212   0.72723 
 C                     3.39579  -3.62739  -0.12053 
 C                     3.57753  -3.59551  -1.50752 
 C                     4.64645  -2.87827  -2.06264 
 C                     5.51608  -2.19151  -1.20904 
 C                     5.3224   -2.21799   0.17847 
 N                     4.83455  -2.84648  -3.48437 
 C                     5.24901  -1.73391  -4.23163 
 C                     5.55856  -0.40471  -3.86818 
 C                     5.93292   0.50771  -4.86056 
 C                     5.96192   0.13387  -6.19612 
 C                     5.61128  -1.16485  -6.56513 
 C                     5.2493   -2.11057  -5.57972 
 C                     4.85027  -3.47459  -5.65339 
 C                     4.62688  -3.92668  -4.35188 
 C                     4.31774  -5.28386  -4.11147 
 C                     4.16278  -6.15033  -5.19891 
 C                     4.33309  -5.6971   -6.49859 
 C                     4.68503  -4.36741  -6.73657 
 H                     4.75699  -3.13821   3.95187 
 H                     5.51007  -1.9086    2.93635 
 H                     5.87746  -3.65845   2.68408 
 H                     2.56154  -4.18496   0.30079 
 H                     2.84572  -4.10115  -2.13112 
 H                     6.38213  -1.65782  -1.59094 
 H                     6.0025   -1.64818   0.80182 
 H                     5.49975  -0.06195  -2.84054 
 H                     6.19144   1.5263   -4.58147 
 H                     6.24344   0.85492  -6.9586 
 H                     5.61524  -1.44717  -7.6146 
 H                     4.21524  -5.67712  -3.10487 
 H                     3.91472  -7.19427  -5.0206 
 H                     4.21296  -6.38112  -7.33492 
 H                     4.8456   -4.02531  -7.75495 
 
 NAtoms=     36 NQM=     36 NQMF=      0 NMic=      0 NMicF=      0 NTot=     36.
                    Isotopes and Nuclear Properties:
 (Nuclear quadrupole moments (NQMom) in fm**2, nuclear magnetic moments (NMagM)
  in nuclear magnetons)

  Atom         1           2           3           4           5           6           7           8           9          10
 IAtWgt=          12          16          12          12          12          12          12          12          14          12
 AtmWgt=  12.0000000  15.9949146  12.0000000  12.0000000  12.0000000  12.0000000  12.0000000  12.0000000  14.0030740  12.0000000
 NucSpn=           0           0           0           0           0           0           0           0           2           0
 AtZEff=   0.0000000   0.0000000   0.0000000   0.0000000   0.0000000   0.0000000   0.0000000   0.0000000   0.0000000   0.0000000
 NQMom=    0.0000000   0.0000000   0.0000000   0.0000000   0.0000000   0.0000000   0.0000000   0.0000000   2.0440000   0.0000000
 NMagM=    0.0000000   0.0000000   0.0000000   0.0000000   0.0000000   0.0000000   0.0000000   0.0000000   0.4037610   0.0000000

  Atom        11          12          13          14          15          16          17          18          19          20
 IAtWgt=          12          12          12          12          12          12          12          12          12          12
 AtmWgt=  12.0000000  12.0000000  12.0000000  12.0000000  12.0000000  12.0000000  12.0000000  12.0000000  12.0000000  12.0000000
 NucSpn=           0           0           0           0           0           0           0           0           0           0
 AtZEff=   0.0000000   0.0000000   0.0000000   0.0000000   0.0000000   0.0000000   0.0000000   0.0000000   0.0000000   0.0000000
 NQMom=    0.0000000   0.0000000   0.0000000   0.0000000   0.0000000   0.0000000   0.0000000   0.0000000   0.0000000   0.0000000
 NMagM=    0.0000000   0.0000000   0.0000000   0.0000000   0.0000000   0.0000000   0.0000000   0.0000000   0.0000000   0.0000000

  Atom        21          22          23          24          25          26          27          28          29          30
 IAtWgt=          12           1           1           1           1           1           1           1           1           1
 AtmWgt=  12.0000000   1.0078250   1.0078250   1.0078250   1.0078250   1.0078250   1.0078250   1.0078250   1.0078250   1.0078250
 NucSpn=           0           1           1           1           1           1           1           1           1           1
 AtZEff=   0.0000000   0.0000000   0.0000000   0.0000000   0.0000000   0.0000000   0.0000000   0.0000000   0.0000000   0.0000000
 NQMom=    0.0000000   0.0000000   0.0000000   0.0000000   0.0000000   0.0000000   0.0000000   0.0000000   0.0000000   0.0000000
 NMagM=    0.0000000   2.7928460   2.7928460   2.7928460   2.7928460   2.7928460   2.7928460   2.7928460   2.7928460   2.7928460

  Atom        31          32          33          34          35          36
 IAtWgt=           1           1           1           1           1           1
 AtmWgt=   1.0078250   1.0078250   1.0078250   1.0078250   1.0078250   1.0078250
 NucSpn=           1           1           1           1           1           1
 AtZEff=   0.0000000   0.0000000   0.0000000   0.0000000   0.0000000   0.0000000
 NQMom=    0.0000000   0.0000000   0.0000000   0.0000000   0.0000000   0.0000000
 NMagM=    2.7928460   2.7928460   2.7928460   2.7928460   2.7928460   2.7928460
 Leave Link  101 at Tue Sep 28 21:35:30 2021, MaxMem= 1610612736 cpu:       0.2
 (Enter /sw/target/amd/app/gaussian/Gaussian09RevA.02_gcc-4.9.2/g09/l103.exe)

 GradGradGradGradGradGradGradGradGradGradGradGradGradGradGradGradGradGrad
 Berny optimization.
 Initialization pass.
                           ----------------------------
                           !    Initial Parameters    !
                           ! (Angstroms and Degrees)  !
 --------------------------                            --------------------------
 ! Name  Definition              Value          Derivative Info.                !
 --------------------------------------------------------------------------------
 ! R1    R(1,2)                  1.4239         estimate D2E/DX2                !
 ! R2    R(1,22)                 1.0943         estimate D2E/DX2                !
 ! R3    R(1,23)                 1.0941         estimate D2E/DX2                !
 ! R4    R(1,24)                 1.0957         estimate D2E/DX2                !
 ! R5    R(2,3)                  1.3675         estimate D2E/DX2                !
 ! R6    R(3,4)                  1.3935         estimate D2E/DX2                !
 ! R7    R(3,8)                  1.3943         estimate D2E/DX2                !
 ! R8    R(4,5)                  1.3992         estimate D2E/DX2                !
 ! R9    R(4,25)                 1.0883         estimate D2E/DX2                !
 ! R10   R(5,6)                  1.4019         estimate D2E/DX2                !
 ! R11   R(5,26)                 1.0863         estimate D2E/DX2                !
 ! R12   R(6,7)                  1.3988         estimate D2E/DX2                !
 ! R13   R(6,9)                  1.4345         estimate D2E/DX2                !
 ! R14   R(7,8)                  1.4012         estimate D2E/DX2                !
 ! R15   R(7,27)                 1.0866         estimate D2E/DX2                !
 ! R16   R(8,28)                 1.0843         estimate D2E/DX2                !
 ! R17   R(9,10)                 1.4028         estimate D2E/DX2                !
 ! R18   R(9,17)                 1.4009         estimate D2E/DX2                !
 ! R19   R(10,11)                1.4123         estimate D2E/DX2                !
 ! R20   R(10,15)                1.3997         estimate D2E/DX2                !
 ! R21   R(11,12)                1.3991         estimate D2E/DX2                !
 ! R22   R(11,29)                1.0849         estimate D2E/DX2                !
 ! R23   R(12,13)                1.3872         estimate D2E/DX2                !
 ! R24   R(12,30)                1.0873         estimate D2E/DX2                !
 ! R25   R(13,14)                1.3949         estimate D2E/DX2                !
 ! R26   R(13,31)                1.0865         estimate D2E/DX2                !
 ! R27   R(14,15)                1.413          estimate D2E/DX2                !
 ! R28   R(14,32)                1.0868         estimate D2E/DX2                !
 ! R29   R(15,16)                1.4231         estimate D2E/DX2                !
 ! R30   R(16,17)                1.3958         estimate D2E/DX2                !
 ! R31   R(16,21)                1.4134         estimate D2E/DX2                !
 ! R32   R(17,18)                1.4125         estimate D2E/DX2                !
 ! R33   R(18,19)                1.399          estimate D2E/DX2                !
 ! R34   R(18,33)                1.0855         estimate D2E/DX2                !
 ! R35   R(19,20)                1.3869         estimate D2E/DX2                !
 ! R36   R(19,34)                1.0877         estimate D2E/DX2                !
 ! R37   R(20,21)                1.3959         estimate D2E/DX2                !
 ! R38   R(20,35)                1.0871         estimate D2E/DX2                !
 ! R39   R(21,36)                1.0862         estimate D2E/DX2                !
 ! A1    A(2,1,22)             107.7719         estimate D2E/DX2                !
 ! A2    A(2,1,23)             111.5698         estimate D2E/DX2                !
 ! A3    A(2,1,24)             110.9674         estimate D2E/DX2                !
 ! A4    A(22,1,23)            107.3905         estimate D2E/DX2                !
 ! A5    A(22,1,24)            107.8529         estimate D2E/DX2                !
 ! A6    A(23,1,24)            111.0909         estimate D2E/DX2                !
 ! A7    A(1,2,3)              115.4824         estimate D2E/DX2                !
 ! A8    A(2,3,4)              115.5255         estimate D2E/DX2                !
 ! A9    A(2,3,8)              125.1428         estimate D2E/DX2                !
 ! A10   A(4,3,8)              119.2988         estimate D2E/DX2                !
 ! A11   A(3,4,5)              120.6891         estimate D2E/DX2                !
 ! A12   A(3,4,25)             119.6405         estimate D2E/DX2                !
 ! A13   A(5,4,25)             119.6704         estimate D2E/DX2                !
 ! A14   A(4,5,6)              120.214          estimate D2E/DX2                !
 ! A15   A(4,5,26)             118.0943         estimate D2E/DX2                !
 ! A16   A(6,5,26)             121.6348         estimate D2E/DX2                !
 ! A17   A(5,6,7)              118.9214         estimate D2E/DX2                !
 ! A18   A(5,6,9)              120.2514         estimate D2E/DX2                !
 ! A19   A(7,6,9)              120.8261         estimate D2E/DX2                !
 ! A20   A(6,7,8)              120.6022         estimate D2E/DX2                !
 ! A21   A(6,7,27)             121.4791         estimate D2E/DX2                !
 ! A22   A(8,7,27)             117.8702         estimate D2E/DX2                !
 ! A23   A(3,8,7)              120.2535         estimate D2E/DX2                !
 ! A24   A(3,8,28)             121.5397         estimate D2E/DX2                !
 ! A25   A(7,8,28)             118.2043         estimate D2E/DX2                !
 ! A26   A(6,9,10)             125.7505         estimate D2E/DX2                !
 ! A27   A(6,9,17)             125.2557         estimate D2E/DX2                !
 ! A28   A(10,9,17)            108.9933         estimate D2E/DX2                !
 ! A29   A(9,10,11)            132.3821         estimate D2E/DX2                !
 ! A30   A(9,10,15)            107.438          estimate D2E/DX2                !
 ! A31   A(11,10,15)           120.0699         estimate D2E/DX2                !
 ! A32   A(10,11,12)           119.3325         estimate D2E/DX2                !
 ! A33   A(10,11,29)           121.9525         estimate D2E/DX2                !
 ! A34   A(12,11,29)           118.7075         estimate D2E/DX2                !
 ! A35   A(11,12,13)           120.8466         estimate D2E/DX2                !
 ! A36   A(11,12,30)           119.504          estimate D2E/DX2                !
 ! A37   A(13,12,30)           119.6444         estimate D2E/DX2                !
 ! A38   A(12,13,14)           120.0229         estimate D2E/DX2                !
 ! A39   A(12,13,31)           120.1467         estimate D2E/DX2                !
 ! A40   A(14,13,31)           119.8244         estimate D2E/DX2                !
 ! A41   A(13,14,15)           120.2031         estimate D2E/DX2                !
 ! A42   A(13,14,32)           119.7618         estimate D2E/DX2                !
 ! A43   A(15,14,32)           120.035          estimate D2E/DX2                !
 ! A44   A(10,15,14)           119.4477         estimate D2E/DX2                !
 ! A45   A(10,15,16)           107.9224         estimate D2E/DX2                !
 ! A46   A(14,15,16)           132.6299         estimate D2E/DX2                !
 ! A47   A(15,16,17)           107.8818         estimate D2E/DX2                !
 ! A48   A(15,16,21)           132.6811         estimate D2E/DX2                !
 ! A49   A(17,16,21)           119.425          estimate D2E/DX2                !
 ! A50   A(9,17,16)            107.6949         estimate D2E/DX2                !
 ! A51   A(9,17,18)            131.905          estimate D2E/DX2                !
 ! A52   A(16,17,18)           120.3266         estimate D2E/DX2                !
 ! A53   A(17,18,19)           119.1441         estimate D2E/DX2                !
 ! A54   A(17,18,33)           121.7727         estimate D2E/DX2                !
 ! A55   A(19,18,33)           119.0732         estimate D2E/DX2                !
 ! A56   A(18,19,20)           120.823          estimate D2E/DX2                !
 ! A57   A(18,19,34)           119.4885         estimate D2E/DX2                !
 ! A58   A(20,19,34)           119.686          estimate D2E/DX2                !
 ! A59   A(19,20,21)           120.1321         estimate D2E/DX2                !
 ! A60   A(19,20,35)           120.1152         estimate D2E/DX2                !
 ! A61   A(21,20,35)           119.7408         estimate D2E/DX2                !
 ! A62   A(16,21,20)           120.0358         estimate D2E/DX2                !
 ! A63   A(16,21,36)           120.1498         estimate D2E/DX2                !
 ! A64   A(20,21,36)           119.8082         estimate D2E/DX2                !
 ! D1    D(22,1,2,3)          -172.9937         estimate D2E/DX2                !
 ! D2    D(23,1,2,3)            69.3476         estimate D2E/DX2                !
 ! D3    D(24,1,2,3)           -55.1155         estimate D2E/DX2                !
 ! D4    D(1,2,3,4)            152.3148         estimate D2E/DX2                !
 ! D5    D(1,2,3,8)            -29.794          estimate D2E/DX2                !
 ! D6    D(2,3,4,5)            179.2717         estimate D2E/DX2                !
 ! D7    D(2,3,4,25)            -0.7029         estimate D2E/DX2                !
 ! D8    D(8,3,4,5)              1.2489         estimate D2E/DX2                !
 ! D9    D(8,3,4,25)          -178.7256         estimate D2E/DX2                !
 ! D10   D(2,3,8,7)           -179.5969         estimate D2E/DX2                !
 ! D11   D(2,3,8,28)            -0.1853         estimate D2E/DX2                !
 ! D12   D(4,3,8,7)             -1.779          estimate D2E/DX2                !
 ! D13   D(4,3,8,28)           177.6326         estimate D2E/DX2                !
 ! D14   D(3,4,5,6)             -0.1245         estimate D2E/DX2                !
 ! D15   D(3,4,5,26)          -177.4266         estimate D2E/DX2                !
 ! D16   D(25,4,5,6)           179.85           estimate D2E/DX2                !
 ! D17   D(25,4,5,26)            2.548          estimate D2E/DX2                !
 ! D18   D(4,5,6,7)             -0.4688         estimate D2E/DX2                !
 ! D19   D(4,5,6,9)            179.9182         estimate D2E/DX2                !
 ! D20   D(26,5,6,7)           176.7356         estimate D2E/DX2                !
 ! D21   D(26,5,6,9)            -2.8773         estimate D2E/DX2                !
 ! D22   D(5,6,7,8)             -0.0654         estimate D2E/DX2                !
 ! D23   D(5,6,7,27)           177.3457         estimate D2E/DX2                !
 ! D24   D(9,6,7,8)            179.5453         estimate D2E/DX2                !
 ! D25   D(9,6,7,27)            -3.0437         estimate D2E/DX2                !
 ! D26   D(5,6,9,10)           141.3667         estimate D2E/DX2                !
 ! D27   D(5,6,9,17)           -38.3572         estimate D2E/DX2                !
 ! D28   D(7,6,9,10)           -38.2388         estimate D2E/DX2                !
 ! D29   D(7,6,9,17)           142.0374         estimate D2E/DX2                !
 ! D30   D(6,7,8,3)              1.2002         estimate D2E/DX2                !
 ! D31   D(6,7,8,28)          -178.2308         estimate D2E/DX2                !
 ! D32   D(27,7,8,3)          -176.3023         estimate D2E/DX2                !
 ! D33   D(27,7,8,28)            4.2668         estimate D2E/DX2                !
 ! D34   D(6,9,10,11)           -1.4404         estimate D2E/DX2                !
 ! D35   D(6,9,10,15)         -177.5061         estimate D2E/DX2                !
 ! D36   D(17,9,10,11)         178.3211         estimate D2E/DX2                !
 ! D37   D(17,9,10,15)           2.2554         estimate D2E/DX2                !
 ! D38   D(6,9,17,16)          177.0083         estimate D2E/DX2                !
 ! D39   D(6,9,17,18)           -6.194          estimate D2E/DX2                !
 ! D40   D(10,9,17,16)          -2.7547         estimate D2E/DX2                !
 ! D41   D(10,9,17,18)         174.043          estimate D2E/DX2                !
 ! D42   D(9,10,11,12)        -179.0303         estimate D2E/DX2                !
 ! D43   D(9,10,11,29)          -0.0387         estimate D2E/DX2                !
 ! D44   D(15,10,11,12)         -3.3683         estimate D2E/DX2                !
 ! D45   D(15,10,11,29)        175.6234         estimate D2E/DX2                !
 ! D46   D(9,10,15,14)         179.0665         estimate D2E/DX2                !
 ! D47   D(9,10,15,16)          -0.8917         estimate D2E/DX2                !
 ! D48   D(11,10,15,14)          2.4239         estimate D2E/DX2                !
 ! D49   D(11,10,15,16)       -177.5343         estimate D2E/DX2                !
 ! D50   D(10,11,12,13)          2.061          estimate D2E/DX2                !
 ! D51   D(10,11,12,30)       -178.7599         estimate D2E/DX2                !
 ! D52   D(29,11,12,13)       -176.9635         estimate D2E/DX2                !
 ! D53   D(29,11,12,30)          2.2156         estimate D2E/DX2                !
 ! D54   D(11,12,13,14)          0.1937         estimate D2E/DX2                !
 ! D55   D(11,12,13,31)        179.2994         estimate D2E/DX2                !
 ! D56   D(30,12,13,14)       -178.9843         estimate D2E/DX2                !
 ! D57   D(30,12,13,31)          0.1215         estimate D2E/DX2                !
 ! D58   D(12,13,14,15)         -1.158          estimate D2E/DX2                !
 ! D59   D(12,13,14,32)        178.7115         estimate D2E/DX2                !
 ! D60   D(31,13,14,15)        179.7334         estimate D2E/DX2                !
 ! D61   D(31,13,14,32)         -0.3971         estimate D2E/DX2                !
 ! D62   D(13,14,15,10)         -0.1595         estimate D2E/DX2                !
 ! D63   D(13,14,15,16)        179.7865         estimate D2E/DX2                !
 ! D64   D(32,14,15,10)        179.9714         estimate D2E/DX2                !
 ! D65   D(32,14,15,16)         -0.0827         estimate D2E/DX2                !
 ! D66   D(10,15,16,17)         -0.7917         estimate D2E/DX2                !
 ! D67   D(10,15,16,21)       -179.4821         estimate D2E/DX2                !
 ! D68   D(14,15,16,17)        179.2578         estimate D2E/DX2                !
 ! D69   D(14,15,16,21)          0.5674         estimate D2E/DX2                !
 ! D70   D(15,16,17,9)           2.1661         estimate D2E/DX2                !
 ! D71   D(15,16,17,18)       -175.0731         estimate D2E/DX2                !
 ! D72   D(21,16,17,9)        -178.9392         estimate D2E/DX2                !
 ! D73   D(21,16,17,18)          3.8216         estimate D2E/DX2                !
 ! D74   D(15,16,21,20)        177.0209         estimate D2E/DX2                !
 ! D75   D(15,16,21,36)         -2.0755         estimate D2E/DX2                !
 ! D76   D(17,16,21,20)         -1.5481         estimate D2E/DX2                !
 ! D77   D(17,16,21,36)        179.3555         estimate D2E/DX2                !
 ! D78   D(9,17,18,19)         179.8823         estimate D2E/DX2                !
 ! D79   D(9,17,18,33)          -1.2749         estimate D2E/DX2                !
 ! D80   D(16,17,18,19)         -3.6525         estimate D2E/DX2                !
 ! D81   D(16,17,18,33)        175.1902         estimate D2E/DX2                !
 ! D82   D(17,18,19,20)          1.1924         estimate D2E/DX2                !
 ! D83   D(17,18,19,34)       -179.3806         estimate D2E/DX2                !
 ! D84   D(33,18,19,20)       -177.682          estimate D2E/DX2                !
 ! D85   D(33,18,19,34)          1.7451         estimate D2E/DX2                !
 ! D86   D(18,19,20,21)          1.0626         estimate D2E/DX2                !
 ! D87   D(18,19,20,35)        179.8073         estimate D2E/DX2                !
 ! D88   D(34,19,20,21)       -178.3634         estimate D2E/DX2                !
 ! D89   D(34,19,20,35)          0.3814         estimate D2E/DX2                !
 ! D90   D(19,20,21,16)         -0.8925         estimate D2E/DX2                !
 ! D91   D(19,20,21,36)        178.207          estimate D2E/DX2                !
 ! D92   D(35,20,21,16)       -179.642          estimate D2E/DX2                !
 ! D93   D(35,20,21,36)         -0.5425         estimate D2E/DX2                !
 --------------------------------------------------------------------------------
 Trust Radius=3.00D-01 FncErr=1.00D-07 GrdErr=1.00D-06
 Number of steps in this run= 206 maximum allowed number of steps= 216.
 GradGradGradGradGradGradGradGradGradGradGradGradGradGradGradGradGradGrad

 Leave Link  103 at Tue Sep 28 21:35:30 2021, MaxMem= 1610612736 cpu:       0.0
 (Enter /sw/target/amd/app/gaussian/Gaussian09RevA.02_gcc-4.9.2/g09/l202.exe)
                          Input orientation:                          
 ---------------------------------------------------------------------
 Center     Atomic      Atomic             Coordinates (Angstroms)
 Number     Number       Type             X           Y           Z
 ---------------------------------------------------------------------
      1          6           0        5.103874   -2.924530    2.936222
      2          8           0        3.986321   -3.041339    2.061701
      3          6           0        4.271641   -2.952124    0.727228
      4          6           0        3.395786   -3.627390   -0.120534
      5          6           0        3.577529   -3.595509   -1.507522
      6          6           0        4.646455   -2.878265   -2.062642
      7          6           0        5.516083   -2.191512   -1.209042
      8          6           0        5.322398   -2.217990    0.178472
      9          7           0        4.834553   -2.846480   -3.484366
     10          6           0        5.249009   -1.733911   -4.231628
     11          6           0        5.558563   -0.404710   -3.868180
     12          6           0        5.932923    0.507712   -4.860563
     13          6           0        5.961917    0.133875   -6.196115
     14          6           0        5.611280   -1.164854   -6.565127
     15          6           0        5.249304   -2.110571   -5.579718
     16          6           0        4.850268   -3.474586   -5.653395
     17          6           0        4.626881   -3.926684   -4.351880
     18          6           0        4.317736   -5.283858   -4.111473
     19          6           0        4.162779   -6.150326   -5.198907
     20          6           0        4.333095   -5.697099   -6.498591
     21          6           0        4.685027   -4.367408   -6.736569
     22          1           0        4.756994   -3.138206    3.951866
     23          1           0        5.510071   -1.908604    2.936346
     24          1           0        5.877461   -3.658454    2.684078
     25          1           0        2.561543   -4.184956    0.300792
     26          1           0        2.845719   -4.101145   -2.131117
     27          1           0        6.382133   -1.657821   -1.590936
     28          1           0        6.002501   -1.648175    0.801821
     29          1           0        5.499753   -0.061954   -2.840542
     30          1           0        6.191439    1.526302   -4.581472
     31          1           0        6.243436    0.854916   -6.958600
     32          1           0        5.615236   -1.447165   -7.614597
     33          1           0        4.215237   -5.677118   -3.104871
     34          1           0        3.914718   -7.194271   -5.020600
     35          1           0        4.212963   -6.381124   -7.334923
     36          1           0        4.845602   -4.025311   -7.754952
 ---------------------------------------------------------------------
                    Distance matrix (angstroms):
                    1          2          3          4          5
     1  C    0.000000
     2  O    1.423852   0.000000
     3  C    2.360726   1.367547   0.000000
     4  C    3.571461   2.335452   1.393487   0.000000
     5  C    4.746241   3.635047   2.426900   1.399208   0.000000
     6  C    5.019962   4.180021   2.815905   2.428404   1.401856
     7  C    4.229709   3.709465   2.424109   2.782490   2.412113
     8  C    2.855195   2.451440   1.394338   2.405752   2.790108
     9  N    6.426708   5.613940   4.250359   3.741020   2.459485
    10  C    7.267510   6.550552   5.198994   4.890888   3.698668
    11  C    7.270221   6.677368   5.409553   5.395194   4.436035
    12  C    8.559057   8.018900   6.778918   6.782625   5.798896
    13  C    9.669005   9.065125   7.766152   7.592419   6.447986
    14  C    9.676236   8.976851   7.626756   7.246052   5.968551
    15  C    8.555987   7.800816   6.437515   5.961456   4.645713
    16  C    8.610946   7.775398   6.428073   5.722885   4.338519
    17  C    7.372128   6.506011   5.183947   4.416952   3.049786
    18  C    7.473583   6.576230   5.371419   4.418312   3.190453
    19  C    8.801804   7.900213   6.734941   5.722181   4.527243
    20  C    9.863921   8.969500   7.729886   6.770662   5.467937
    21  C    9.788781   8.925033   7.608035   6.780980   5.400492
    22  H    1.094311   2.043537   3.266264   4.321647   5.604033
    23  H    1.094122   2.090432   2.739132   4.094990   5.131114
    24  H    1.095746   2.084369   2.628083   3.745067   4.781544
    25  H    3.872675   2.537450   2.150850   1.088282   2.156310
    26  H    5.671121   4.472571   3.394649   2.137631   1.086317
    27  H    4.871720   4.582117   3.391649   3.867758   3.409897
    28  H    2.644292   2.755573   2.168346   3.400440   3.873714
    29  H    6.459262   5.932891   4.752928   4.953529   4.237676
    30  H    8.803887   8.358088   7.205846   7.367237   6.520325
    31  H   10.653183  10.081726   8.800766   8.657905   7.525131
    32  H   10.666015   9.941102   8.582319   8.114205   6.787046
    33  H    6.697852   5.804584   4.702526   3.712028   2.700239
    34  H    9.108008   8.210418   7.152674   6.082975   5.040487
    35  H   10.873738   9.975073   8.761265   7.765194   6.490149
    36  H   10.750796   9.903193   8.569045   7.781044   6.389297
                    6          7          8          9         10
     6  C    0.000000
     7  C    1.398756   0.000000
     8  C    2.432171   1.401216   0.000000
     9  N    1.434465   2.463852   3.748249   0.000000
    10  C    2.525295   3.068673   4.437194   1.402848   0.000000
    11  C    3.195369   3.203979   4.440625   2.575606   1.412337
    12  C    4.576921   4.559953   5.761429   3.788264   2.426556
    13  C    5.281006   5.520607   6.824633   4.184143   2.802869
    14  C    4.913149   5.454424   6.831447   3.594755   2.429050
    15  C    3.650014   4.379558   5.759655   2.259221   1.399721
    16  C    3.645633   4.673528   5.984363   2.258196   2.282622
    17  C    2.517971   3.698505   4.891571   1.400910   2.282489
    18  C    3.176892   4.407125   5.367729   2.569275   3.672033
    19  C    4.558122   5.781234   6.761966   3.782370   4.649757
    20  C    5.265137   6.455071   7.593819   4.178881   4.656703
    21  C    4.905571   5.998228   7.269390   3.593384   3.678058
    22  H    6.021138   5.301643   3.924919   7.442356   8.317674
    23  H    5.164878   4.155034   2.781513   6.523916   7.174853
    24  H    4.965423   4.175990   2.942974   6.308459   7.205956
    25  H    3.411762   3.870752   3.392084   4.613622   5.811447
    26  H    2.177791   3.409951   3.874844   2.713103   3.973883
    27  H    2.173608   1.086606   2.137202   2.719005   2.874545
    28  H    3.399578   2.139015   1.084340   4.601242   5.090256
    29  H    3.043823   2.682737   3.714080   2.934380   2.189391
    30  H    5.303932   5.064734   6.118171   4.708079   3.411679
    31  H    6.360612   6.547304   7.824886   5.268357   3.889381
    32  H    5.814704   6.449421   7.836571   4.430165   3.414795
    33  H    3.017576   4.175622   4.896091   2.922341   4.229320
    34  H    5.283262   6.489988   7.333163   4.702063   5.676120
    35  H    6.344673   7.535078   8.661041   5.263732   5.683346
    36  H    5.810143   6.830908   8.150641   4.430313   4.222211
                   11         12         13         14         15
    11  C    0.000000
    12  C    1.399101   0.000000
    13  C    2.423232   1.387190   0.000000
    14  C    2.802521   2.409662   1.394923   0.000000
    15  C    2.436179   2.799986   2.434194   1.412954   0.000000
    16  C    3.621162   4.202312   3.814616   2.597164   1.423094
    17  C    3.675092   4.650632   4.655283   3.673583   2.278873
    18  C    5.040330   6.059063   6.033315   4.965870   3.618468
    19  C    6.060623   6.897634   6.612299   5.368393   4.200616
    20  C    6.035746   6.613794   6.061750   4.709505   3.814047
    21  C    4.969276   5.370609   4.709999   3.338217   2.598082
    22  H    8.322718   9.609081  10.730325  10.734573   9.599453
    23  H    6.968904   8.173688   9.368977   9.531075   8.522448
    24  H    7.322611   8.618679   9.656435   9.583146   8.430946
    25  H    6.375948   7.747704   8.510267   8.097083   6.790253
    26  H    4.903116   6.182416   6.646074   5.994212   4.651070
    27  H    2.726608   3.947377   4.959277   5.057648   4.171170
    28  H    4.853060   6.059313   7.221389   7.393143   6.442449
    29  H    1.084887   2.143045   3.392907   3.886047   3.429670
    30  H    2.153630   1.087312   2.144436   3.393197   3.887281
    31  H    3.406817   2.149122   1.086524   2.152652   3.418146
    32  H    3.889161   3.392223   2.152200   1.086786   2.171347
    33  H    5.494129   6.654700   6.809870   5.855155   4.462558
    34  H    7.080145   7.963624   7.698999   6.451183   5.285617
    35  H    7.038926   7.519095   6.841121   5.455030   4.732058
    36  H    5.359484   5.487081   4.579843   3.191264   2.925893
                   16         17         18         19         20
    16  C    0.000000
    17  C    1.395792   0.000000
    18  C    2.436099   1.412546   0.000000
    19  C    2.799782   2.424340   1.399032   0.000000
    20  C    2.433391   2.798044   2.422672   1.386939   0.000000
    21  C    1.413401   2.425770   2.804623   2.411626   1.395911
    22  H    9.611602   8.342112   8.355490   9.652078  10.767530
    23  H    8.756214   7.613863   7.904793   9.273066  10.235039
    24  H    8.402523   7.151266   7.159204   8.443401   9.532186
    25  H    6.418351   5.097027   4.874411   6.055851   7.187252
    26  H    4.100882   2.852151   2.736321   3.917285   4.882027
    27  H    4.706465   3.981389   4.874729   6.174592   6.678279
    28  H    6.806851   5.800394   6.340117   7.724162   8.513326
    29  H    4.469903   4.240541   5.502791   6.664657   6.818892
    30  H    5.287404   5.677641   7.078837   7.964125   7.701059
    31  H    4.731708   5.680839   7.035552   7.516585   6.840315
    32  H    2.922657   4.215469   5.354960   5.483147   4.577258
    33  H    3.427738   2.188265   1.085545   2.147479   3.395826
    34  H    3.887382   3.410497   2.153744   1.087727   2.144999
    35  H    3.417844   3.885119   3.406699   2.149035   1.087093
    36  H    2.172524   3.411519   3.890696   3.393419   2.153133
                   21         22         23         24         25
    21  C    0.000000
    22  H   10.759125   0.000000
    23  H   10.014575   1.763612   0.000000
    24  H    9.522243   1.770139   1.805711   0.000000
    25  H    7.353022   4.387030   4.563085   4.117350   0.000000
    26  H    4.966300   6.448481   6.130677   5.707324   2.449891
    27  H    6.058017   5.962825   4.617323   4.746891   4.956002
    28  H    8.121409   3.700577   2.206016   2.756765   4.304240
    29  H    5.863424   7.493452   6.064871   6.602947   5.958205
    30  H    6.453646   9.830215   8.293396   8.931321   8.344526
    31  H    5.454412  11.712933  10.299748  10.652966   9.573683
    32  H    3.188109  11.720890  10.561552  10.536664   8.914815
    33  H    3.889123   7.519116   7.237029   6.352159   4.069372
    34  H    3.395450   9.882624   9.684856   8.701519   6.261332
    35  H    2.153119  11.756024  11.277628  10.514936   8.115078
    36  H    1.086240  11.740715  10.919058  10.496317   8.374809
                   26         27         28         29         30
    26  H    0.000000
    27  H    4.332188   0.000000
    28  H    4.958272   2.422705   0.000000
    29  H    4.884900   2.210634   4.004455   0.000000
    30  H    6.990440   4.372449   6.252427   2.455977   0.000000
    31  H    7.707893   5.928313   8.157673   4.283937   2.470668
    32  H    6.691964   6.075936   8.427720   4.972298   4.286416
    33  H    2.303794   4.810632   5.889731   5.766274   7.614131
    34  H    4.365696   6.964410   8.307744   7.624627   9.023563
    35  H    5.843565   7.746501   9.581746   7.860483   8.603676
    36  H    5.969321   6.779456   8.955867   6.347247   6.534727
                   31         32         33         34         35
    31  H    0.000000
    32  H    2.474782   0.000000
    33  H    7.850623   6.339569   0.000000
    34  H    8.600476   6.530682   2.462130   0.000000
    35  H    7.524939   5.136977   4.288237   2.471083   0.000000
    36  H    5.138554   2.694229   4.974845   4.287835   2.475178
                   36
    36  H    0.000000
 Stoichiometry    C19H15NO
 Framework group  C1[X(C19H15NO)]
 Deg. of freedom   102
 Full point group                 C1      NOp   1
 Largest Abelian subgroup         C1      NOp   1
 Largest concise Abelian subgroup C1      NOp   1
                         Standard orientation:                         
 ---------------------------------------------------------------------
 Center     Atomic      Atomic             Coordinates (Angstroms)
 Number     Number       Type             X           Y           Z
 ---------------------------------------------------------------------
      1          6           0        5.923001    0.258222   -0.686852
      2          8           0        5.138102   -0.242173    0.390596
      3          6           0        3.784536   -0.119236    0.239171
      4          6           0        3.016661   -1.070707    0.907659
      5          6           0        1.619529   -1.037083    0.839290
      6          6           0        0.973405   -0.039443    0.096029
      7          6           0        1.747395    0.921158   -0.563289
      8          6           0        3.145876    0.888874   -0.481942
      9          7           0       -0.458840   -0.005251    0.023958
     10          6           0       -1.252865    1.151164    0.038620
     11          6           0       -0.934950    2.522969    0.147141
     12          6           0       -1.967158    3.467428    0.152095
     13          6           0       -3.295010    3.070165    0.094752
     14          6           0       -3.615819    1.713941    0.035181
     15          6           0       -2.590985    0.741608    0.008335
     16          6           0       -2.612643   -0.680274   -0.046235
     17          6           0       -1.290962   -1.128549   -0.067280
     18          6           0       -1.006443   -2.503044   -0.225708
     19          6           0       -2.065187   -3.415735   -0.283571
     20          6           0       -3.381018   -2.983201   -0.212136
     21          6           0       -3.665943   -1.621034   -0.103103
     22          1           0        6.965347   -0.014694   -0.495673
     23          1           0        5.876244    1.349768   -0.745527
     24          1           0        5.624198   -0.200825   -1.635878
     25          1           0        3.509013   -1.847692    1.489244
     26          1           0        1.061506   -1.773267    1.410894
     27          1           0        1.292307    1.687190   -1.185224
     28          1           0        3.706585    1.669395   -0.984122
     29          1           0        0.088679    2.869233    0.243397
     30          1           0       -1.724585    4.525463    0.215091
     31          1           0       -4.087941    3.812822    0.110737
     32          1           0       -4.657983    1.406629    0.011578
     33          1           0        0.011087   -2.868696   -0.322346
     34          1           0       -1.852147   -4.476529   -0.395290
     35          1           0       -4.194934   -3.702149   -0.261380
     36          1           0       -4.698839   -1.285836   -0.076932
 ---------------------------------------------------------------------
 Rotational constants (GHZ):      0.5236303      0.2013652      0.1495080
 Leave Link  202 at Tue Sep 28 21:35:30 2021, MaxMem= 1610612736 cpu:       0.1
 (Enter /sw/target/amd/app/gaussian/Gaussian09RevA.02_gcc-4.9.2/g09/l301.exe)
 Standard basis: 6-31G(d) (6D, 7F)
 Ernie: Thresh=  0.10000D-02 Tol=  0.10000D-05 Strict=F.
 There are   345 symmetry adapted basis functions of A   symmetry.
 Integral buffers will be    131072 words long.
 Raffenetti 2 integral format.
 Two-electron integral symmetry is turned on.
   345 basis functions,   648 primitive gaussians,   345 cartesian basis functions
    72 alpha electrons       72 beta electrons
       nuclear repulsion energy      1509.6871239138 Hartrees.
 IExCor=  402 DFT=T Ex+Corr=B3LYP ExCW=0 ScaHFX=  0.200000
 ScaDFX=  0.800000  0.720000  1.000000  0.810000 ScalE2=  1.000000  1.000000
 IRadAn=      0 IRanWt=     -1 IRanGd=            0 ICorTp=0
 NAtoms=   36 NActive=   36 NUniq=   36 SFac= 7.50D-01 NAtFMM=   80 NAOKFM=F Big=F
 Leave Link  301 at Tue Sep 28 21:35:31 2021, MaxMem= 1610612736 cpu:       0.1
 (Enter /sw/target/amd/app/gaussian/Gaussian09RevA.02_gcc-4.9.2/g09/l302.exe)
 NPDir=0 NMtPBC=     1 NCelOv=     1 NCel=       1 NClECP=     1 NCelD=      1
         NCelK=      1 NCelE2=     1 NClLst=     1 CellRange=     0.0.
 One-electron integrals computed using PRISM.
 NBasis=   345 RedAO= T  NBF=   345
 NBsUse=   345 1.00D-06 NBFU=   345
 Precomputing XC quadrature grid using
 IXCGrd= 2 IRadAn=           0 IRanWt=          -1 IRanGd=           0 AccXCQ= 1.00D-10.
 NRdTot=    2291 NPtTot=      292216 NUsed=      308734 NTot=      308766
 NSgBfM=   341   341   341   341   341 NAtAll=    36    36.
 Leave Link  302 at Tue Sep 28 21:35:35 2021, MaxMem= 1610612736 cpu:       3.7
 (Enter /sw/target/amd/app/gaussian/Gaussian09RevA.02_gcc-4.9.2/g09/l303.exe)
 DipDrv:  MaxL=1.
 Leave Link  303 at Tue Sep 28 21:35:36 2021, MaxMem= 1610612736 cpu:       0.3
 (Enter /sw/target/amd/app/gaussian/Gaussian09RevA.02_gcc-4.9.2/g09/l401.exe)
 Harris functional with IExCor=  402 diagonalized for initial guess.
 ExpMin= 1.61D-01 ExpMax= 5.48D+03 ExpMxC= 8.25D+02 IAcc=1 IRadAn=         1 AccDes= 0.00D+00
 HarFok:  IExCor=  402 AccDes= 0.00D+00 IRadAn=         1 IDoV= 1
 ScaDFX=  1.000000  1.000000  1.000000  1.000000
 FoFCou: FMM=F IPFlag=           0 FMFlag=      100000 FMFlg1=           0
         NFxFlg=           0 DoJE=T BraDBF=F KetDBF=T FulRan=T
         Omega=  0.000000  0.000000  1.000000  0.000000  0.000000 ICntrl=     500 IOpCl=  0
         NMat0=    1 NMatS0=    1 NMatT0=    0 NMatD0=    1 NMtDS0=    0 NMtDT0=    0
         I1Cent=           4 NGrid=           0.
 Petite list used in FoFCou.
 Harris En= -863.114894802158    
 Initial guess orbital symmetries:
       Occupied  (A) (A) (A) (A) (A) (A) (A) (A) (A) (A) (A) (A)
                 (A) (A) (A) (A) (A) (A) (A) (A) (A) (A) (A) (A)
                 (A) (A) (A) (A) (A) (A) (A) (A) (A) (A) (A) (A)
                 (A) (A) (A) (A) (A) (A) (A) (A) (A) (A) (A) (A)
                 (A) (A) (A) (A) (A) (A) (A) (A) (A) (A) (A) (A)
                 (A) (A) (A) (A) (A) (A) (A) (A) (A) (A) (A) (A)
       Virtual   (A) (A) (A) (A) (A) (A) (A) (A) (A) (A) (A) (A)
                 (A) (A) (A) (A) (A) (A) (A) (A) (A) (A) (A) (A)
                 (A) (A) (A) (A) (A) (A) (A) (A) (A) (A) (A) (A)
                 (A) (A) (A) (A) (A) (A) (A) (A) (A) (A) (A) (A)
                 (A) (A) (A) (A) (A) (A) (A) (A) (A) (A) (A) (A)
                 (A) (A) (A) (A) (A) (A) (A) (A) (A) (A) (A) (A)
                 (A) (A) (A) (A) (A) (A) (A) (A) (A) (A) (A) (A)
                 (A) (A) (A) (A) (A) (A) (A) (A) (A) (A) (A) (A)
                 (A) (A) (A) (A) (A) (A) (A) (A) (A) (A) (A) (A)
                 (A) (A) (A) (A) (A) (A) (A) (A) (A) (A) (A) (A)
                 (A) (A) (A) (A) (A) (A) (A) (A) (A) (A) (A) (A)
                 (A) (A) (A) (A) (A) (A) (A) (A) (A) (A) (A) (A)
                 (A) (A) (A) (A) (A) (A) (A) (A) (A) (A) (A) (A)
                 (A) (A) (A) (A) (A) (A) (A) (A) (A) (A) (A) (A)
                 (A) (A) (A) (A) (A) (A) (A) (A) (A) (A) (A) (A)
                 (A) (A) (A) (A) (A) (A) (A) (A) (A) (A) (A) (A)
                 (A) (A) (A) (A) (A) (A) (A) (A) (A) (A) (A) (A)
                 (A) (A) (A) (A) (A) (A) (A) (A) (A) (A) (A) (A)
                 (A) (A) (A) (A) (A) (A) (A) (A) (A) (A) (A) (A)
                 (A) (A) (A) (A) (A) (A) (A) (A) (A) (A) (A) (A)
                 (A) (A) (A) (A) (A) (A) (A) (A) (A) (A) (A) (A)
                 (A) (A) (A) (A) (A) (A) (A) (A) (A) (A) (A) (A)
                 (A) (A) (A) (A) (A) (A) (A) (A) (A)
 The electronic state of the initial guess is 1-A.
 Leave Link  401 at Tue Sep 28 21:35:50 2021, MaxMem= 1610612736 cpu:      15.2
 (Enter /sw/target/amd/app/gaussian/Gaussian09RevA.02_gcc-4.9.2/g09/l502.exe)
 Closed shell SCF:
 Requested convergence on RMS density matrix=1.00D-08 within  64 cycles.
 Requested convergence on MAX density matrix=1.00D-06.
 Requested convergence on             energy=1.00D-06.
 No special actions if energy rises.
 Using DIIS extrapolation, IDIIS=  1040.
 Integral symmetry usage will be decided dynamically.
       308397 words used for storage of precomputed grid.
 IEnd=      675681 IEndB=      675681 NGot=  1610612736 MDV=  1610060650
 LenX=  1610060650 LenY=  1609941184
 Fock matrices will be formed incrementally for  20 cycles.
 Integral accuracy reduced to 1.0D-05 until final iterations.

 Cycle   1  Pass 0  IDiag  1:
 FoFCou: FMM=F IPFlag=           0 FMFlag=      100000 FMFlg1=           0
         NFxFlg=           0 DoJE=F BraDBF=F KetDBF=F FulRan=T
         Omega=  0.000000  0.000000  1.000000  0.000000  0.000000 ICntrl=       0 IOpCl=  0
         NMat0=    1 NMatS0=    1 NMatT0=    0 NMatD0=    1 NMtDS0=    0 NMtDT0=    0
         I1Cent=           0 NGrid=           0.
 Symmetry not used in FoFCou.
 E= -862.586161474900    
 DIIS: error= 4.08D-02 at cycle   1 NSaved=   1.
 NSaved= 1 IEnMin= 1 EnMin= -862.586161474900     IErMin= 1 ErrMin= 4.08D-02
 ErrMax= 4.08D-02 EMaxC= 1.00D-01 BMatC= 4.10D-01 BMatP= 4.10D-01
 IDIUse=3 WtCom= 5.92D-01 WtEn= 4.08D-01
 Coeff-Com:  0.100D+01
 Coeff-En:   0.100D+01
 Coeff:      0.100D+01
 Gap=     0.213 Goal=   None    Shift=    0.000
 GapD=    0.213 DampG=1.000 DampE=0.500 DampFc=0.5000 IDamp=-1.
 Damping current iteration by 5.00D-01
 RMSDP=4.65D-03 MaxDP=1.27D-01              OVMax= 2.27D-01

 Cycle   2  Pass 0  IDiag  1:
 RMSU=  1.60D-03    CP:  9.70D-01
 E= -862.787547039003     Delta-E=       -0.201385564103 Rises=F Damp=T
 DIIS: error= 7.55D-03 at cycle   2 NSaved=   2.
 NSaved= 2 IEnMin= 2 EnMin= -862.787547039003     IErMin= 2 ErrMin= 7.55D-03
 ErrMax= 7.55D-03 EMaxC= 1.00D-01 BMatC= 3.31D-02 BMatP= 4.10D-01
 IDIUse=3 WtCom= 9.25D-01 WtEn= 7.55D-02
 Coeff-Com:  0.463D-01 0.954D+00
 Coeff-En:   0.645D-01 0.936D+00
 Coeff:      0.476D-01 0.952D+00
 Gap=     0.220 Goal=   None    Shift=    0.000
 RMSDP=1.62D-03 MaxDP=9.39D-02 DE=-2.01D-01 OVMax= 2.17D-01

 Cycle   3  Pass 0  IDiag  1:
 RMSU=  1.11D-03    CP:  9.52D-01  9.01D-01
 E= -862.974747022991     Delta-E=       -0.187199983989 Rises=F Damp=F
 DIIS: error= 1.63D-02 at cycle   3 NSaved=   3.
 NSaved= 3 IEnMin= 3 EnMin= -862.974747022991     IErMin= 2 ErrMin= 7.55D-03
 ErrMax= 1.63D-02 EMaxC= 1.00D-01 BMatC= 5.61D-02 BMatP= 3.31D-02
 IDIUse=2 WtCom= 0.00D+00 WtEn= 1.00D+00
 Coeff-En:   0.000D+00 0.000D+00 0.100D+01
 Coeff:      0.000D+00 0.000D+00 0.100D+01
 Gap=     0.220 Goal=   None    Shift=    0.000
 RMSDP=2.60D-03 MaxDP=1.47D-01 DE=-1.87D-01 OVMax= 2.38D-01

 Cycle   4  Pass 0  IDiag  1:
 RMSU=  1.14D-03    CP:  9.54D-01  1.28D+00 -1.84D-01
 E= -862.701355056343     Delta-E=        0.273391966648 Rises=F Damp=F
 DIIS: error= 3.77D-02 at cycle   4 NSaved=   4.
 NSaved= 4 IEnMin= 3 EnMin= -862.974747022991     IErMin= 2 ErrMin= 7.55D-03
 ErrMax= 3.77D-02 EMaxC= 1.00D-01 BMatC= 3.12D-01 BMatP= 3.31D-02
 IDIUse=2 WtCom= 0.00D+00 WtEn= 1.00D+00
 Coeff-En:   0.000D+00 0.000D+00 0.789D+00 0.211D+00
 Coeff:      0.000D+00 0.000D+00 0.789D+00 0.211D+00
 Gap=     0.196 Goal=   None    Shift=    0.000
 RMSDP=1.34D-03 MaxDP=6.87D-02 DE= 2.73D-01 OVMax= 1.40D-01

 Cycle   5  Pass 0  IDiag  1:
 RMSU=  1.57D-04    CP:  9.54D-01  1.08D+00  3.98D-01  4.82D-01
 E= -863.007943702207     Delta-E=       -0.306588645864 Rises=F Damp=F
 DIIS: error= 1.09D-02 at cycle   5 NSaved=   5.
 NSaved= 5 IEnMin= 5 EnMin= -863.007943702207     IErMin= 2 ErrMin= 7.55D-03
 ErrMax= 1.09D-02 EMaxC= 1.00D-01 BMatC= 2.54D-02 BMatP= 3.31D-02
 IDIUse=3 WtCom= 8.91D-01 WtEn= 1.09D-01
 Coeff-Com:  0.328D-02 0.970D-02 0.336D+00-0.640D-01 0.715D+00
 Coeff-En:   0.000D+00 0.000D+00 0.356D+00 0.000D+00 0.644D+00
 Coeff:      0.292D-02 0.864D-02 0.338D+00-0.570D-01 0.708D+00
 Gap=     0.165 Goal=   None    Shift=    0.000
 RMSDP=5.33D-04 MaxDP=3.41D-02 DE=-3.07D-01 OVMax= 5.82D-02

 Cycle   6  Pass 0  IDiag  1:
 RMSU=  5.76D-05    CP:  9.53D-01  1.00D+00  6.38D-01  2.82D-01  7.41D-01
 E= -863.034287653345     Delta-E=       -0.026343951138 Rises=F Damp=F
 DIIS: error= 7.89D-04 at cycle   6 NSaved=   6.
 NSaved= 6 IEnMin= 6 EnMin= -863.034287653345     IErMin= 6 ErrMin= 7.89D-04
 ErrMax= 7.89D-04 EMaxC= 1.00D-01 BMatC= 1.96D-04 BMatP= 2.54D-02
 IDIUse=3 WtCom= 9.92D-01 WtEn= 7.89D-03
 Coeff-Com: -0.211D-03 0.310D-02 0.127D+00-0.670D-01 0.425D+00 0.512D+00
 Coeff-En:   0.000D+00 0.000D+00 0.000D+00 0.000D+00 0.000D+00 0.100D+01
 Coeff:     -0.209D-03 0.308D-02 0.126D+00-0.665D-01 0.421D+00 0.516D+00
 Gap=     0.164 Goal=   None    Shift=    0.000
 RMSDP=4.41D-05 MaxDP=2.73D-03 DE=-2.63D-02 OVMax= 4.96D-03

 Cycle   7  Pass 0  IDiag  1:
 RMSU=  1.08D-05    CP:  9.53D-01  1.00D+00  6.38D-01  2.82D-01  8.24D-01
                    CP:  5.46D-01
 E= -863.034473888287     Delta-E=       -0.000186234941 Rises=F Damp=F
 DIIS: error= 1.06D-04 at cycle   7 NSaved=   7.
 NSaved= 7 IEnMin= 7 EnMin= -863.034473888287     IErMin= 7 ErrMin= 1.06D-04
 ErrMax= 1.06D-04 EMaxC= 1.00D-01 BMatC= 4.20D-06 BMatP= 1.96D-04
 IDIUse=3 WtCom= 9.99D-01 WtEn= 1.06D-03
 Coeff-Com:  0.255D-04 0.277D-03 0.460D-01-0.252D-01 0.155D+00 0.233D+00
 Coeff-Com:  0.591D+00
 Coeff-En:   0.000D+00 0.000D+00 0.000D+00 0.000D+00 0.000D+00 0.000D+00
 Coeff-En:   0.100D+01
 Coeff:      0.255D-04 0.276D-03 0.459D-01-0.252D-01 0.155D+00 0.233D+00
 Coeff:      0.591D+00
 Gap=     0.164 Goal=   None    Shift=    0.000
 RMSDP=7.68D-06 MaxDP=2.65D-04 DE=-1.86D-04 OVMax= 8.70D-04

 Initial convergence to 1.0D-05 achieved.  Increase integral accuracy.
 Cycle   8  Pass 1  IDiag  1:
 E= -863.034476708401     Delta-E=       -0.000002820114 Rises=F Damp=F
 DIIS: error= 3.83D-05 at cycle   1 NSaved=   1.
 NSaved= 1 IEnMin= 1 EnMin= -863.034476708401     IErMin= 1 ErrMin= 3.83D-05
 ErrMax= 3.83D-05 EMaxC= 1.00D-01 BMatC= 1.21D-06 BMatP= 1.21D-06
 IDIUse=1 WtCom= 1.00D+00 WtEn= 0.00D+00
 Coeff-Com:  0.100D+01
 Coeff:      0.100D+01
 Gap=     0.164 Goal=   None    Shift=    0.000
 RMSDP=7.68D-06 MaxDP=2.65D-04 DE=-2.82D-06 OVMax= 6.07D-04

 Cycle   9  Pass 1  IDiag  1:
 RMSU=  1.86D-05    CP:  1.00D+00
 E= -863.034475427698     Delta-E=        0.000001280703 Rises=F Damp=F
 DIIS: error= 7.21D-05 at cycle   2 NSaved=   2.
 NSaved= 2 IEnMin= 1 EnMin= -863.034476708401     IErMin= 1 ErrMin= 3.83D-05
 ErrMax= 7.21D-05 EMaxC= 1.00D-01 BMatC= 2.60D-06 BMatP= 1.21D-06
 IDIUse=1 WtCom= 1.00D+00 WtEn= 0.00D+00
 Coeff-Com:  0.603D+00 0.397D+00
 Coeff:      0.603D+00 0.397D+00
 Gap=     0.164 Goal=   None    Shift=    0.000
 RMSDP=5.47D-06 MaxDP=2.64D-04 DE= 1.28D-06 OVMax= 4.77D-04

 Cycle  10  Pass 1  IDiag  1:
 RMSU=  3.74D-06    CP:  1.00D+00  9.47D-01
 E= -863.034477735760     Delta-E=       -0.000002308062 Rises=F Damp=F
 DIIS: error= 1.66D-05 at cycle   3 NSaved=   3.
 NSaved= 3 IEnMin= 3 EnMin= -863.034477735760     IErMin= 3 ErrMin= 1.66D-05
 ErrMax= 1.66D-05 EMaxC= 1.00D-01 BMatC= 7.68D-08 BMatP= 1.21D-06
 IDIUse=1 WtCom= 1.00D+00 WtEn= 0.00D+00
 Coeff-Com:  0.147D+00 0.173D+00 0.680D+00
 Coeff:      0.147D+00 0.173D+00 0.680D+00
 Gap=     0.164 Goal=   None    Shift=    0.000
 RMSDP=1.60D-06 MaxDP=6.86D-05 DE=-2.31D-06 OVMax= 1.64D-04

 Cycle  11  Pass 1  IDiag  1:
 RMSU=  9.14D-07    CP:  1.00D+00  9.61D-01  8.33D-01
 E= -863.034477759539     Delta-E=       -0.000000023780 Rises=F Damp=F
 DIIS: error= 1.19D-05 at cycle   4 NSaved=   4.
 NSaved= 4 IEnMin= 4 EnMin= -863.034477759539     IErMin= 4 ErrMin= 1.19D-05
 ErrMax= 1.19D-05 EMaxC= 1.00D-01 BMatC= 5.27D-08 BMatP= 7.68D-08
 IDIUse=1 WtCom= 1.00D+00 WtEn= 0.00D+00
 Coeff-Com: -0.164D-02 0.550D-01 0.504D+00 0.442D+00
 Coeff:     -0.164D-02 0.550D-01 0.504D+00 0.442D+00
 Gap=     0.164 Goal=   None    Shift=    0.000
 RMSDP=8.14D-07 MaxDP=3.28D-05 DE=-2.38D-08 OVMax= 7.94D-05

 Cycle  12  Pass 1  IDiag  1:
 RMSU=  1.64D-07    CP:  1.00D+00  9.62D-01  8.79D-01  4.26D-01
 E= -863.034477815509     Delta-E=       -0.000000055969 Rises=F Damp=F
 DIIS: error= 3.08D-06 at cycle   5 NSaved=   5.
 NSaved= 5 IEnMin= 5 EnMin= -863.034477815509     IErMin= 5 ErrMin= 3.08D-06
 ErrMax= 3.08D-06 EMaxC= 1.00D-01 BMatC= 1.68D-09 BMatP= 5.27D-08
 IDIUse=1 WtCom= 1.00D+00 WtEn= 0.00D+00
 Coeff-Com: -0.571D-02 0.311D-01 0.309D+00 0.287D+00 0.379D+00
 Coeff:     -0.571D-02 0.311D-01 0.309D+00 0.287D+00 0.379D+00
 Gap=     0.164 Goal=   None    Shift=    0.000
 RMSDP=1.44D-07 MaxDP=4.42D-06 DE=-5.60D-08 OVMax= 1.58D-05

 Cycle  13  Pass 1  IDiag  1:
 RMSU=  5.55D-08    CP:  1.00D+00  9.62D-01  8.79D-01  4.62D-01  5.17D-01
 E= -863.034477817337     Delta-E=       -0.000000001829 Rises=F Damp=F
 DIIS: error= 2.88D-07 at cycle   6 NSaved=   6.
 NSaved= 6 IEnMin= 6 EnMin= -863.034477817337     IErMin= 6 ErrMin= 2.88D-07
 ErrMax= 2.88D-07 EMaxC= 1.00D-01 BMatC= 2.63D-11 BMatP= 1.68D-09
 IDIUse=1 WtCom= 1.00D+00 WtEn= 0.00D+00
 Coeff-Com: -0.198D-02 0.850D-02 0.821D-01 0.765D-01 0.152D+00 0.683D+00
 Coeff:     -0.198D-02 0.850D-02 0.821D-01 0.765D-01 0.152D+00 0.683D+00
 Gap=     0.164 Goal=   None    Shift=    0.000
 RMSDP=2.49D-08 MaxDP=7.89D-07 DE=-1.83D-09 OVMax= 2.19D-06

 Cycle  14  Pass 1  IDiag  1:
 RMSU=  1.46D-08    CP:  1.00D+00  9.62D-01  8.79D-01  4.58D-01  5.59D-01
                    CP:  8.98D-01
 E= -863.034477817342     Delta-E=       -0.000000000005 Rises=F Damp=F
 DIIS: error= 1.44D-07 at cycle   7 NSaved=   7.
 NSaved= 7 IEnMin= 7 EnMin= -863.034477817342     IErMin= 7 ErrMin= 1.44D-07
 ErrMax= 1.44D-07 EMaxC= 1.00D-01 BMatC= 8.20D-12 BMatP= 2.63D-11
 IDIUse=1 WtCom= 1.00D+00 WtEn= 0.00D+00
 Coeff-Com: -0.390D-03 0.954D-03 0.651D-02 0.572D-02 0.374D-01 0.404D+00
 Coeff-Com:  0.546D+00
 Coeff:     -0.390D-03 0.954D-03 0.651D-02 0.572D-02 0.374D-01 0.404D+00
 Coeff:      0.546D+00
 Gap=     0.164 Goal=   None    Shift=    0.000
 RMSDP=1.09D-08 MaxDP=4.01D-07 DE=-5.00D-12 OVMax= 1.13D-06

 Cycle  15  Pass 1  IDiag  1:
 RMSU=  5.41D-09    CP:  1.00D+00  9.62D-01  8.79D-01  4.58D-01  5.67D-01
                    CP:  9.43D-01  6.76D-01
 E= -863.034477817373     Delta-E=       -0.000000000030 Rises=F Damp=F
 DIIS: error= 6.66D-08 at cycle   8 NSaved=   8.
 NSaved= 8 IEnMin= 8 EnMin= -863.034477817373     IErMin= 8 ErrMin= 6.66D-08
 ErrMax= 6.66D-08 EMaxC= 1.00D-01 BMatC= 9.18D-13 BMatP= 8.20D-12
 IDIUse=1 WtCom= 1.00D+00 WtEn= 0.00D+00
 Coeff-Com:  0.252D-04-0.454D-03-0.653D-02-0.631D-02 0.864D-03 0.141D+00
 Coeff-Com:  0.307D+00 0.565D+00
 Coeff:      0.252D-04-0.454D-03-0.653D-02-0.631D-02 0.864D-03 0.141D+00
 Coeff:      0.307D+00 0.565D+00
 Gap=     0.164 Goal=   None    Shift=    0.000
 RMSDP=4.55D-09 MaxDP=1.46D-07 DE=-3.05D-11 OVMax= 4.95D-07

 SCF Done:  E(RB3LYP) =  -863.034477817     A.U. after   15 cycles
             Convg  =    0.4545D-08             -V/T =  2.0096
 KE= 8.548255327667D+02 PE=-5.021171368655D+03 EE= 1.793624234157D+03
 Leave Link  502 at Tue Sep 28 21:45:17 2021, MaxMem= 1610612736 cpu:     687.6
 (Enter /sw/target/amd/app/gaussian/Gaussian09RevA.02_gcc-4.9.2/g09/l508.exe)
 QCSCF skips out because SCF is already converged.
 Leave Link  508 at Tue Sep 28 21:45:17 2021, MaxMem= 1610612736 cpu:       0.0
 (Enter /sw/target/amd/app/gaussian/Gaussian09RevA.02_gcc-4.9.2/g09/l601.exe)
 Copying SCF densities to generalized density rwf, IOpCl= 0 IROHF=0.

 **********************************************************************

            Population analysis using the SCF density.

 **********************************************************************

 Orbital symmetries:
       Occupied  (A) (A) (A) (A) (A) (A) (A) (A) (A) (A) (A) (A)
                 (A) (A) (A) (A) (A) (A) (A) (A) (A) (A) (A) (A)
                 (A) (A) (A) (A) (A) (A) (A) (A) (A) (A) (A) (A)
                 (A) (A) (A) (A) (A) (A) (A) (A) (A) (A) (A) (A)
                 (A) (A) (A) (A) (A) (A) (A) (A) (A) (A) (A) (A)
                 (A) (A) (A) (A) (A) (A) (A) (A) (A) (A) (A) (A)
       Virtual   (A) (A) (A) (A) (A) (A) (A) (A) (A) (A) (A) (A)
                 (A) (A) (A) (A) (A) (A) (A) (A) (A) (A) (A) (A)
                 (A) (A) (A) (A) (A) (A) (A) (A) (A) (A) (A) (A)
                 (A) (A) (A) (A) (A) (A) (A) (A) (A) (A) (A) (A)
                 (A) (A) (A) (A) (A) (A) (A) (A) (A) (A) (A) (A)
                 (A) (A) (A) (A) (A) (A) (A) (A) (A) (A) (A) (A)
                 (A) (A) (A) (A) (A) (A) (A) (A) (A) (A) (A) (A)
                 (A) (A) (A) (A) (A) (A) (A) (A) (A) (A) (A) (A)
                 (A) (A) (A) (A) (A) (A) (A) (A) (A) (A) (A) (A)
                 (A) (A) (A) (A) (A) (A) (A) (A) (A) (A) (A) (A)
                 (A) (A) (A) (A) (A) (A) (A) (A) (A) (A) (A) (A)
                 (A) (A) (A) (A) (A) (A) (A) (A) (A) (A) (A) (A)
                 (A) (A) (A) (A) (A) (A) (A) (A) (A) (A) (A) (A)
                 (A) (A) (A) (A) (A) (A) (A) (A) (A) (A) (A) (A)
                 (A) (A) (A) (A) (A) (A) (A) (A) (A) (A) (A) (A)
                 (A) (A) (A) (A) (A) (A) (A) (A) (A) (A) (A) (A)
                 (A) (A) (A) (A) (A) (A) (A) (A) (A) (A) (A) (A)
                 (A) (A) (A) (A) (A) (A) (A) (A) (A) (A) (A) (A)
                 (A) (A) (A) (A) (A) (A) (A) (A) (A) (A) (A) (A)
                 (A) (A) (A) (A) (A) (A) (A) (A) (A) (A) (A) (A)
                 (A) (A) (A) (A) (A) (A) (A) (A) (A) (A) (A) (A)
                 (A) (A) (A) (A) (A) (A) (A) (A) (A) (A) (A) (A)
                 (A) (A) (A) (A) (A) (A) (A) (A) (A)
 The electronic state is 1-A.
 Alpha  occ. eigenvalues --  -19.17822 -14.38358 -10.24896 -10.24293 -10.23553
 Alpha  occ. eigenvalues --  -10.22311 -10.22232 -10.19973 -10.19835 -10.19710
 Alpha  occ. eigenvalues --  -10.19275 -10.18877 -10.18860 -10.18694 -10.18685
 Alpha  occ. eigenvalues --  -10.18536 -10.18529 -10.18298 -10.18237 -10.17898
 Alpha  occ. eigenvalues --  -10.17894  -1.06455  -0.98727  -0.86717  -0.84066
 Alpha  occ. eigenvalues --   -0.83689  -0.78592  -0.75903  -0.75190  -0.74214
 Alpha  occ. eigenvalues --   -0.72253  -0.71451  -0.69278  -0.63984  -0.62529
 Alpha  occ. eigenvalues --   -0.60915  -0.59728  -0.57586  -0.57119  -0.53878
 Alpha  occ. eigenvalues --   -0.52478  -0.51445  -0.49871  -0.48619  -0.47313
 Alpha  occ. eigenvalues --   -0.46055  -0.45517  -0.45339  -0.43707  -0.43418
 Alpha  occ. eigenvalues --   -0.42998  -0.42695  -0.41802  -0.41506  -0.40805
 Alpha  occ. eigenvalues --   -0.39936  -0.38054  -0.37027  -0.36275  -0.35975
 Alpha  occ. eigenvalues --   -0.34862  -0.34566  -0.33469  -0.33329  -0.32928
 Alpha  occ. eigenvalues --   -0.30438  -0.27646  -0.25801  -0.24654  -0.23548
 Alpha  occ. eigenvalues --   -0.21159  -0.19102
 Alpha virt. eigenvalues --   -0.02665  -0.01235  -0.00409   0.00734   0.04273
 Alpha virt. eigenvalues --    0.04745   0.08451   0.10066   0.10565   0.10649
 Alpha virt. eigenvalues --    0.12709   0.13465   0.13646   0.14917   0.15417
 Alpha virt. eigenvalues --    0.15710   0.15912   0.16140   0.17015   0.17996
 Alpha virt. eigenvalues --    0.18902   0.19159   0.20048   0.20486   0.21327
 Alpha virt. eigenvalues --    0.22137   0.22904   0.24707   0.25832   0.27212
 Alpha virt. eigenvalues --    0.27576   0.29489   0.29797   0.31466   0.32357
 Alpha virt. eigenvalues --    0.33503   0.35551   0.36949   0.37075   0.38980
 Alpha virt. eigenvalues --    0.39339   0.43449   0.47126   0.48393   0.49853
 Alpha virt. eigenvalues --    0.50644   0.51225   0.51922   0.52301   0.53020
 Alpha virt. eigenvalues --    0.53523   0.54231   0.54525   0.55139   0.55349
 Alpha virt. eigenvalues --    0.55982   0.56719   0.56968   0.58018   0.58149
 Alpha virt. eigenvalues --    0.58772   0.59037   0.59279   0.59943   0.60616
 Alpha virt. eigenvalues --    0.61158   0.61465   0.61543   0.62045   0.62503
 Alpha virt. eigenvalues --    0.62856   0.63216   0.63718   0.64059   0.64758
 Alpha virt. eigenvalues --    0.65174   0.66032   0.67359   0.69486   0.71052
 Alpha virt. eigenvalues --    0.71123   0.74352   0.74981   0.77551   0.78563
 Alpha virt. eigenvalues --    0.79783   0.81419   0.82205   0.82940   0.83257
 Alpha virt. eigenvalues --    0.84257   0.84463   0.84633   0.85401   0.85817
 Alpha virt. eigenvalues --    0.86501   0.86960   0.87848   0.88697   0.89302
 Alpha virt. eigenvalues --    0.89843   0.90681   0.91666   0.92201   0.92768
 Alpha virt. eigenvalues --    0.95180   0.95561   0.96458   0.98412   0.98842
 Alpha virt. eigenvalues --    0.99267   1.00299   1.01085   1.01494   1.03481
 Alpha virt. eigenvalues --    1.03822   1.05565   1.07900   1.08031   1.09451
 Alpha virt. eigenvalues --    1.12862   1.14148   1.15373   1.16039   1.18086
 Alpha virt. eigenvalues --    1.18593   1.19579   1.21028   1.21326   1.22315
 Alpha virt. eigenvalues --    1.23922   1.25703   1.26773   1.28996   1.32625
 Alpha virt. eigenvalues --    1.33368   1.35284   1.37394   1.39119   1.39324
 Alpha virt. eigenvalues --    1.40956   1.41307   1.43960   1.44435   1.44849
 Alpha virt. eigenvalues --    1.44990   1.45486   1.47222   1.48005   1.49393
 Alpha virt. eigenvalues --    1.50489   1.50995   1.51347   1.51625   1.52456
 Alpha virt. eigenvalues --    1.57260   1.60682   1.61584   1.67270   1.69615
 Alpha virt. eigenvalues --    1.70437   1.71984   1.74855   1.78942   1.79195
 Alpha virt. eigenvalues --    1.79358   1.80134   1.81244   1.82938   1.84700
 Alpha virt. eigenvalues --    1.84812   1.86220   1.87241   1.90733   1.92119
 Alpha virt. eigenvalues --    1.92252   1.92867   1.95182   1.95754   1.96839
 Alpha virt. eigenvalues --    1.97586   1.98292   1.98391   2.00372   2.03561
 Alpha virt. eigenvalues --    2.03847   2.06085   2.07248   2.08528   2.09025
 Alpha virt. eigenvalues --    2.09718   2.10646   2.12950   2.13087   2.14201
 Alpha virt. eigenvalues --    2.14769   2.16433   2.18784   2.20120   2.22466
 Alpha virt. eigenvalues --    2.23063   2.23689   2.24446   2.26314   2.26909
 Alpha virt. eigenvalues --    2.28110   2.28846   2.29757   2.30238   2.31499
 Alpha virt. eigenvalues --    2.34151   2.36739   2.37712   2.39211   2.40617
 Alpha virt. eigenvalues --    2.46467   2.48068   2.51276   2.52894   2.54167
 Alpha virt. eigenvalues --    2.57285   2.58023   2.60721   2.62309   2.63397
 Alpha virt. eigenvalues --    2.65129   2.66854   2.67087   2.68016   2.68400
 Alpha virt. eigenvalues --    2.70128   2.71439   2.72363   2.73227   2.74911
 Alpha virt. eigenvalues --    2.77220   2.81322   2.81641   2.83723   2.87041
 Alpha virt. eigenvalues --    2.89529   2.90761   2.94590   2.99648   2.99885
 Alpha virt. eigenvalues --    3.08526   3.19542   3.20230   3.36832   3.37292
 Alpha virt. eigenvalues --    3.45640   3.52270   4.03861   4.08692   4.10024
 Alpha virt. eigenvalues --    4.10453   4.11107   4.11750   4.14600   4.16270
 Alpha virt. eigenvalues --    4.19161   4.23883   4.28975   4.32026   4.35144
 Alpha virt. eigenvalues --    4.37591   4.39870   4.44337   4.46478   4.52125
 Alpha virt. eigenvalues --    4.72910   4.80742   4.86414
          Condensed to atoms (all electrons):
              1          2          3          4          5          6
     1  C    4.900287   0.249033  -0.043281   0.003185  -0.000155  -0.000003
     2  O    0.249033   8.210857   0.271124  -0.056575   0.003826   0.000091
     3  C   -0.043281   0.271124   4.507607   0.546190  -0.020015  -0.033731
     4  C    0.003185  -0.056575   0.546190   4.992815   0.502252  -0.018628
     5  C   -0.000155   0.003826  -0.020015   0.502252   5.005931   0.523222
     6  C   -0.000003   0.000091  -0.033731  -0.018628   0.523222   4.594768
     7  C    0.000324   0.003971  -0.006931  -0.037508  -0.068289   0.531013
     8  C   -0.006392  -0.060412   0.474047  -0.065873  -0.038633  -0.016788
     9  N   -0.000000  -0.000000   0.000319   0.004471  -0.051831   0.247408
    10  C    0.000000  -0.000000  -0.000001  -0.000062   0.004067  -0.037635
    11  C    0.000000   0.000000  -0.000008  -0.000003   0.000320  -0.003470
    12  C   -0.000000   0.000000  -0.000000  -0.000000   0.000000   0.000144
    13  C   -0.000000  -0.000000   0.000000   0.000000   0.000000  -0.000001
    14  C    0.000000   0.000000   0.000000  -0.000000  -0.000002  -0.000098
    15  C   -0.000000   0.000000   0.000000   0.000001  -0.000607   0.005969
    16  C   -0.000000   0.000000   0.000000  -0.000001   0.000609   0.006015
    17  C   -0.000000  -0.000000  -0.000001   0.000270  -0.005728  -0.038613
    18  C    0.000000   0.000000  -0.000009  -0.000071  -0.003170  -0.003370
    19  C    0.000000   0.000000  -0.000000  -0.000005   0.000101   0.000149
    20  C   -0.000000  -0.000000   0.000000   0.000000  -0.000001   0.000002
    21  C   -0.000000  -0.000000  -0.000000  -0.000000   0.000004  -0.000094
    22  H    0.382499  -0.030788   0.003613  -0.000106   0.000004  -0.000000
    23  H    0.366129  -0.035892  -0.007470  -0.000227   0.000016   0.000001
    24  H    0.363162  -0.037245  -0.001151   0.000984  -0.000039  -0.000011
    25  H   -0.000179  -0.000274  -0.034692   0.345467  -0.039267   0.003838
    26  H    0.000003  -0.000059   0.003915  -0.035686   0.350245  -0.039059
    27  H   -0.000003  -0.000047   0.002996   0.000434   0.005178  -0.037523
    28  H    0.004053  -0.006553  -0.043046   0.004992   0.000606   0.003330
    29  H   -0.000000   0.000000  -0.000021  -0.000007  -0.000118   0.002312
    30  H    0.000000   0.000000  -0.000000   0.000000  -0.000000   0.000001
    31  H   -0.000000  -0.000000  -0.000000  -0.000000   0.000000  -0.000000
    32  H   -0.000000   0.000000   0.000000   0.000000  -0.000000   0.000002
    33  H    0.000000   0.000000  -0.000022   0.000559   0.005955   0.002808
    34  H    0.000000   0.000000  -0.000000  -0.000000  -0.000001   0.000001
    35  H    0.000000  -0.000000   0.000000   0.000000   0.000000  -0.000000
    36  H   -0.000000   0.000000   0.000000  -0.000000  -0.000000   0.000002
              7          8          9         10         11         12
     1  C    0.000324  -0.006392  -0.000000   0.000000   0.000000  -0.000000
     2  O    0.003971  -0.060412  -0.000000  -0.000000   0.000000   0.000000
     3  C   -0.006931   0.474047   0.000319  -0.000001  -0.000008  -0.000000
     4  C   -0.037508  -0.065873   0.004471  -0.000062  -0.000003  -0.000000
     5  C   -0.068289  -0.038633  -0.051831   0.004067   0.000320   0.000000
     6  C    0.531013  -0.016788   0.247408  -0.037635  -0.003470   0.000144
     7  C    5.009689   0.477590  -0.050571  -0.006382  -0.002715   0.000156
     8  C    0.477590   5.097769   0.004899   0.000225  -0.000054  -0.000005
     9  N   -0.050571   0.004899   7.359759   0.266305  -0.088769   0.004675
    10  C   -0.006382   0.000225   0.266305   4.791479   0.462189  -0.003962
    11  C   -0.002715  -0.000054  -0.088769   0.462189   5.093506   0.519784
    12  C    0.000156  -0.000005   0.004675  -0.003962   0.519784   4.865899
    13  C   -0.000001   0.000000  -0.000331  -0.042003  -0.024296   0.530677
    14  C    0.000005  -0.000000   0.011153  -0.072659  -0.060756  -0.027445
    15  C    0.000557  -0.000002  -0.049721   0.414271  -0.046848  -0.035781
    16  C   -0.000613   0.000002  -0.050897   0.017808   0.015569  -0.000047
    17  C    0.003962  -0.000056   0.266313  -0.115319   0.002581  -0.000014
    18  C    0.000392  -0.000005  -0.088955   0.002397  -0.000211   0.000003
    19  C    0.000000  -0.000000   0.004777  -0.000017   0.000003  -0.000000
    20  C    0.000000   0.000000  -0.000325  -0.000344   0.000001   0.000000
    21  C   -0.000001  -0.000000   0.011093   0.015055  -0.000178   0.000007
    22  H    0.000004   0.000141  -0.000000  -0.000000   0.000000   0.000000
    23  H   -0.000160   0.002732  -0.000000   0.000000  -0.000000  -0.000000
    24  H   -0.000222   0.004902   0.000000  -0.000000  -0.000000   0.000000
    25  H    0.000138   0.007433  -0.000094   0.000001   0.000000   0.000000
    26  H    0.005426   0.000191  -0.007560  -0.000103  -0.000004  -0.000000
    27  H    0.348033  -0.034868  -0.007387   0.002338   0.003778   0.000237
    28  H   -0.035734   0.351254  -0.000107  -0.000001   0.000005   0.000000
    29  H    0.005959   0.000630  -0.005739  -0.037567   0.343302  -0.039738
    30  H   -0.000001  -0.000000  -0.000080   0.002684  -0.039391   0.358691
    31  H    0.000000   0.000000   0.000004   0.001001   0.004773  -0.041818
    32  H   -0.000000   0.000000  -0.000099   0.005485   0.000366   0.004890
    33  H   -0.000119  -0.000011  -0.005958  -0.000129  -0.000000   0.000000
    34  H   -0.000000   0.000000  -0.000082   0.000002  -0.000000   0.000000
    35  H    0.000000  -0.000000   0.000004   0.000005  -0.000000  -0.000000
    36  H   -0.000000   0.000000  -0.000099  -0.000205  -0.000001   0.000002
             13         14         15         16         17         18
     1  C   -0.000000   0.000000  -0.000000  -0.000000  -0.000000   0.000000
     2  O   -0.000000   0.000000   0.000000   0.000000  -0.000000   0.000000
     3  C    0.000000   0.000000   0.000000   0.000000  -0.000001  -0.000009
     4  C    0.000000  -0.000000   0.000001  -0.000001   0.000270  -0.000071
     5  C    0.000000  -0.000002  -0.000607   0.000609  -0.005728  -0.003170
     6  C   -0.000001  -0.000098   0.005969   0.006015  -0.038613  -0.003370
     7  C   -0.000001   0.000005   0.000557  -0.000613   0.003962   0.000392
     8  C    0.000000  -0.000000  -0.000002   0.000002  -0.000056  -0.000005
     9  N   -0.000331   0.011153  -0.049721  -0.050897   0.266313  -0.088955
    10  C   -0.042003  -0.072659   0.414271   0.017808  -0.115319   0.002397
    11  C   -0.024296  -0.060756  -0.046848   0.015569   0.002581  -0.000211
    12  C    0.530677  -0.027445  -0.035781  -0.000047  -0.000014   0.000003
    13  C    4.887725   0.504075   0.003893   0.008699  -0.000355   0.000001
    14  C    0.504075   5.123551   0.504280  -0.107390   0.015273  -0.000179
    15  C    0.003893   0.504280   5.017510   0.243880   0.017905   0.015477
    16  C    0.008699  -0.107390   0.243880   5.019673   0.412498  -0.047622
    17  C   -0.000355   0.015273   0.017905   0.412498   4.793728   0.463730
    18  C    0.000001  -0.000179   0.015477  -0.047622   0.463730   5.091893
    19  C    0.000000   0.000008  -0.000065  -0.035819  -0.003875   0.519688
    20  C    0.000000   0.000106   0.008642   0.003355  -0.042017  -0.024602
    21  C    0.000110  -0.017568  -0.107083   0.503422  -0.072539  -0.060410
    22  H   -0.000000   0.000000   0.000000  -0.000000   0.000000   0.000000
    23  H    0.000000   0.000000  -0.000000   0.000000  -0.000000   0.000000
    24  H    0.000000  -0.000000   0.000000  -0.000000   0.000000  -0.000000
    25  H   -0.000000   0.000000  -0.000000   0.000000  -0.000001   0.000005
    26  H   -0.000000   0.000000   0.000027  -0.000248   0.002785   0.004262
    27  H   -0.000003  -0.000010  -0.000201   0.000019  -0.000101  -0.000002
    28  H   -0.000000   0.000000   0.000000  -0.000000   0.000001   0.000000
    29  H    0.004384   0.000649   0.004236  -0.000201  -0.000111  -0.000000
    30  H   -0.040857   0.004635   0.000985   0.000010   0.000002  -0.000000
    31  H    0.357859  -0.037664   0.002170  -0.000201   0.000005  -0.000000
    32  H   -0.047758   0.350364  -0.035768  -0.008750  -0.000204  -0.000001
    33  H   -0.000000   0.000002  -0.000197   0.004312  -0.036561   0.344288
    34  H    0.000000  -0.000000   0.000010   0.001000   0.002657  -0.039251
    35  H   -0.000000  -0.000001  -0.000201   0.002171   0.001001   0.004766
    36  H   -0.000013   0.003137  -0.008652  -0.035594   0.005492   0.000364
             19         20         21         22         23         24
     1  C    0.000000  -0.000000  -0.000000   0.382499   0.366129   0.363162
     2  O    0.000000  -0.000000  -0.000000  -0.030788  -0.035892  -0.037245
     3  C   -0.000000   0.000000  -0.000000   0.003613  -0.007470  -0.001151
     4  C   -0.000005   0.000000  -0.000000  -0.000106  -0.000227   0.000984
     5  C    0.000101  -0.000001   0.000004   0.000004   0.000016  -0.000039
     6  C    0.000149   0.000002  -0.000094  -0.000000   0.000001  -0.000011
     7  C    0.000000   0.000000  -0.000001   0.000004  -0.000160  -0.000222
     8  C   -0.000000   0.000000  -0.000000   0.000141   0.002732   0.004902
     9  N    0.004777  -0.000325   0.011093  -0.000000  -0.000000   0.000000
    10  C   -0.000017  -0.000344   0.015055  -0.000000   0.000000  -0.000000
    11  C    0.000003   0.000001  -0.000178   0.000000  -0.000000  -0.000000
    12  C   -0.000000   0.000000   0.000007   0.000000  -0.000000   0.000000
    13  C    0.000000   0.000000   0.000110  -0.000000   0.000000   0.000000
    14  C    0.000008   0.000106  -0.017568   0.000000   0.000000  -0.000000
    15  C   -0.000065   0.008642  -0.107083   0.000000  -0.000000   0.000000
    16  C   -0.035819   0.003355   0.503422  -0.000000   0.000000  -0.000000
    17  C   -0.003875  -0.042017  -0.072539   0.000000  -0.000000   0.000000
    18  C    0.519688  -0.024602  -0.060410   0.000000   0.000000  -0.000000
    19  C    4.866351   0.530332  -0.027123  -0.000000   0.000000  -0.000000
    20  C    0.530332   4.888568   0.504198   0.000000  -0.000000   0.000000
    21  C   -0.027123   0.504198   5.123862   0.000000  -0.000000   0.000000
    22  H   -0.000000   0.000000   0.000000   0.543936  -0.036342  -0.031109
    23  H    0.000000  -0.000000  -0.000000  -0.036342   0.602761  -0.045783
    24  H   -0.000000   0.000000   0.000000  -0.031109  -0.045783   0.590727
    25  H    0.000000  -0.000000   0.000000  -0.000032   0.000028   0.000042
    26  H    0.000247  -0.000007  -0.000013  -0.000000  -0.000000   0.000000
    27  H   -0.000000   0.000000   0.000000  -0.000000   0.000009  -0.000004
    28  H    0.000000  -0.000000   0.000000  -0.000149   0.003215   0.000767
    29  H    0.000000  -0.000000   0.000002  -0.000000  -0.000000   0.000000
    30  H    0.000000   0.000000  -0.000000   0.000000  -0.000000   0.000000
    31  H   -0.000000  -0.000000  -0.000001  -0.000000   0.000000   0.000000
    32  H    0.000002  -0.000013   0.003153   0.000000  -0.000000   0.000000
    33  H   -0.039739   0.004334   0.000626  -0.000000   0.000000  -0.000000
    34  H    0.358616  -0.040815   0.004599  -0.000000   0.000000  -0.000000
    35  H   -0.041843   0.357920  -0.037695  -0.000000   0.000000   0.000000
    36  H    0.004857  -0.047587   0.350379  -0.000000   0.000000  -0.000000
             25         26         27         28         29         30
     1  C   -0.000179   0.000003  -0.000003   0.004053  -0.000000   0.000000
     2  O   -0.000274  -0.000059  -0.000047  -0.006553   0.000000   0.000000
     3  C   -0.034692   0.003915   0.002996  -0.043046  -0.000021  -0.000000
     4  C    0.345467  -0.035686   0.000434   0.004992  -0.000007   0.000000
     5  C   -0.039267   0.350245   0.005178   0.000606  -0.000118  -0.000000
     6  C    0.003838  -0.039059  -0.037523   0.003330   0.002312   0.000001
     7  C    0.000138   0.005426   0.348033  -0.035734   0.005959  -0.000001
     8  C    0.007433   0.000191  -0.034868   0.351254   0.000630  -0.000000
     9  N   -0.000094  -0.007560  -0.007387  -0.000107  -0.005739  -0.000080
    10  C    0.000001  -0.000103   0.002338  -0.000001  -0.037567   0.002684
    11  C    0.000000  -0.000004   0.003778   0.000005   0.343302  -0.039391
    12  C    0.000000  -0.000000   0.000237   0.000000  -0.039738   0.358691
    13  C   -0.000000  -0.000000  -0.000003  -0.000000   0.004384  -0.040857
    14  C    0.000000   0.000000  -0.000010   0.000000   0.000649   0.004635
    15  C   -0.000000   0.000027  -0.000201   0.000000   0.004236   0.000985
    16  C    0.000000  -0.000248   0.000019  -0.000000  -0.000201   0.000010
    17  C   -0.000001   0.002785  -0.000101   0.000001  -0.000111   0.000002
    18  C    0.000005   0.004262  -0.000002   0.000000  -0.000000  -0.000000
    19  C    0.000000   0.000247  -0.000000   0.000000   0.000000   0.000000
    20  C   -0.000000  -0.000007   0.000000  -0.000000  -0.000000   0.000000
    21  C    0.000000  -0.000013   0.000000   0.000000   0.000002  -0.000000
[...]
    92    C    7  S      Val( 2S)     0.95766
    93    C    7  S      Ryd( 3S)     0.00084
    94    C    7  S      Ryd( 4S)     0.00005
    95    C    7  px     Val( 2p)     1.08631
    96    C    7  px     Ryd( 3p)     0.00389
    97    C    7  py     Val( 2p)     1.02475
    98    C    7  py     Ryd( 3p)     0.00186
    99    C    7  pz     Val( 2p)     1.11995
   100    C    7  pz     Ryd( 3p)     0.00389
   101    C    7  dxy    Ryd( 3d)     0.00063
   102    C    7  dxz    Ryd( 3d)     0.00076
   103    C    7  dyz    Ryd( 3d)     0.00053
   104    C    7  dx2y2  Ryd( 3d)     0.00043
   105    C    7  dz2    Ryd( 3d)     0.00051

   106    C    8  S      Cor( 1S)     1.99902
   107    C    8  S      Val( 2S)     0.95976
   108    C    8  S      Ryd( 3S)     0.00064
   109    C    8  S      Ryd( 4S)     0.00005
   110    C    8  px     Val( 2p)     1.10927
   111    C    8  px     Ryd( 3p)     0.00380
   112    C    8  py     Val( 2p)     1.09116
   113    C    8  py     Ryd( 3p)     0.00166
   114    C    8  pz     Val( 2p)     1.13835
   115    C    8  pz     Ryd( 3p)     0.00329
   116    C    8  dxy    Ryd( 3d)     0.00054
   117    C    8  dxz    Ryd( 3d)     0.00070
   118    C    8  dyz    Ryd( 3d)     0.00052
   119    C    8  dx2y2  Ryd( 3d)     0.00043
   120    C    8  dz2    Ryd( 3d)     0.00048

   121    N    9  S      Cor( 1S)     1.99922
   122    N    9  S      Val( 2S)     1.16439
   123    N    9  S      Ryd( 3S)     0.00033
   124    N    9  S      Ryd( 4S)     0.00002
   125    N    9  px     Val( 2p)     1.30957
   126    N    9  px     Ryd( 3p)     0.00198
   127    N    9  py     Val( 2p)     1.32598
   128    N    9  py     Ryd( 3p)     0.00168
   129    N    9  pz     Val( 2p)     1.45821
   130    N    9  pz     Ryd( 3p)     0.00467
   131    N    9  dxy    Ryd( 3d)     0.00088
   132    N    9  dxz    Ryd( 3d)     0.00061
   133    N    9  dyz    Ryd( 3d)     0.00087
   134    N    9  dx2y2  Ryd( 3d)     0.00082
   135    N    9  dz2    Ryd( 3d)     0.00055

   136    C   10  S      Cor( 1S)     1.99897
   137    C   10  S      Val( 2S)     0.82577
   138    C   10  S      Ryd( 3S)     0.00152
   139    C   10  S      Ryd( 4S)     0.00008
   140    C   10  px     Val( 2p)     0.98523
   141    C   10  px     Ryd( 3p)     0.00625
   142    C   10  py     Val( 2p)     0.96760
   143    C   10  py     Ryd( 3p)     0.00419
   144    C   10  pz     Val( 2p)     1.04010
   145    C   10  pz     Ryd( 3p)     0.00148
   146    C   10  dxy    Ryd( 3d)     0.00123
   147    C   10  dxz    Ryd( 3d)     0.00085
   148    C   10  dyz    Ryd( 3d)     0.00134
   149    C   10  dx2y2  Ryd( 3d)     0.00074
   150    C   10  dz2    Ryd( 3d)     0.00041

   151    C   11  S      Cor( 1S)     1.99902
   152    C   11  S      Val( 2S)     0.94541
   153    C   11  S      Ryd( 3S)     0.00080
   154    C   11  S      Ryd( 4S)     0.00004
   155    C   11  px     Val( 2p)     1.19591
   156    C   11  px     Ryd( 3p)     0.00370
   157    C   11  py     Val( 2p)     1.05832
   158    C   11  py     Ryd( 3p)     0.00428
   159    C   11  pz     Val( 2p)     1.06759
   160    C   11  pz     Ryd( 3p)     0.00328
   161    C   11  dxy    Ryd( 3d)     0.00054
   162    C   11  dxz    Ryd( 3d)     0.00036
   163    C   11  dyz    Ryd( 3d)     0.00071
   164    C   11  dx2y2  Ryd( 3d)     0.00086
   165    C   11  dz2    Ryd( 3d)     0.00043

   166    C   12  S      Cor( 1S)     1.99914
   167    C   12  S      Val( 2S)     0.95200
   168    C   12  S      Ryd( 3S)     0.00059
   169    C   12  S      Ryd( 4S)     0.00003
   170    C   12  px     Val( 2p)     1.06340
   171    C   12  px     Ryd( 3p)     0.00494
   172    C   12  py     Val( 2p)     1.17497
   173    C   12  py     Ryd( 3p)     0.00489
   174    C   12  pz     Val( 2p)     1.09657
   175    C   12  pz     Ryd( 3p)     0.00321
   176    C   12  dxy    Ryd( 3d)     0.00069
   177    C   12  dxz    Ryd( 3d)     0.00050
   178    C   12  dyz    Ryd( 3d)     0.00036
   179    C   12  dx2y2  Ryd( 3d)     0.00073
   180    C   12  dz2    Ryd( 3d)     0.00044

   181    C   13  S      Cor( 1S)     1.99912
   182    C   13  S      Val( 2S)     0.96459
   183    C   13  S      Ryd( 3S)     0.00050
   184    C   13  S      Ryd( 4S)     0.00003
   185    C   13  px     Val( 2p)     1.12437
   186    C   13  px     Ryd( 3p)     0.00481
   187    C   13  py     Val( 2p)     1.12669
   188    C   13  py     Ryd( 3p)     0.00464
   189    C   13  pz     Val( 2p)     0.95749
   190    C   13  pz     Ryd( 3p)     0.00096
   191    C   13  dxy    Ryd( 3d)     0.00091
   192    C   13  dxz    Ryd( 3d)     0.00057
   193    C   13  dyz    Ryd( 3d)     0.00061
   194    C   13  dx2y2  Ryd( 3d)     0.00062
   195    C   13  dz2    Ryd( 3d)     0.00044

   196    C   14  S      Cor( 1S)     1.99905
   197    C   14  S      Val( 2S)     0.94248
   198    C   14  S      Ryd( 3S)     0.00072
   199    C   14  S      Ryd( 4S)     0.00005
   200    C   14  px     Val( 2p)     1.18093
   201    C   14  px     Ryd( 3p)     0.00455
   202    C   14  py     Val( 2p)     1.06164
   203    C   14  py     Ryd( 3p)     0.00388
   204    C   14  pz     Val( 2p)     1.07240
   205    C   14  pz     Ryd( 3p)     0.00389
   206    C   14  dxy    Ryd( 3d)     0.00073
   207    C   14  dxz    Ryd( 3d)     0.00034
   208    C   14  dyz    Ryd( 3d)     0.00049
   209    C   14  dx2y2  Ryd( 3d)     0.00073
   210    C   14  dz2    Ryd( 3d)     0.00041

   211    C   15  S      Cor( 1S)     1.99901
   212    C   15  S      Val( 2S)     0.85633
   213    C   15  S      Ryd( 3S)     0.00071
   214    C   15  S      Ryd( 4S)     0.00007
   215    C   15  px     Val( 2p)     1.07309
   216    C   15  px     Ryd( 3p)     0.00601
   217    C   15  py     Val( 2p)     1.08032
   218    C   15  py     Ryd( 3p)     0.00452
   219    C   15  pz     Val( 2p)     1.05283
   220    C   15  pz     Ryd( 3p)     0.00160
   221    C   15  dxy    Ryd( 3d)     0.00061
   222    C   15  dxz    Ryd( 3d)     0.00056
   223    C   15  dyz    Ryd( 3d)     0.00095
   224    C   15  dx2y2  Ryd( 3d)     0.00079
   225    C   15  dz2    Ryd( 3d)     0.00035

   226    C   16  S      Cor( 1S)     1.99901
   227    C   16  S      Val( 2S)     0.85632
   228    C   16  S      Ryd( 3S)     0.00071
   229    C   16  S      Ryd( 4S)     0.00007
   230    C   16  px     Val( 2p)     1.07701
   231    C   16  px     Ryd( 3p)     0.00591
   232    C   16  py     Val( 2p)     1.07592
   233    C   16  py     Ryd( 3p)     0.00465
   234    C   16  pz     Val( 2p)     1.05326
   235    C   16  pz     Ryd( 3p)     0.00159
   236    C   16  dxy    Ryd( 3d)     0.00065
   237    C   16  dxz    Ryd( 3d)     0.00059
   238    C   16  dyz    Ryd( 3d)     0.00091
   239    C   16  dx2y2  Ryd( 3d)     0.00075
   240    C   16  dz2    Ryd( 3d)     0.00036

   241    C   17  S      Cor( 1S)     1.99897
   242    C   17  S      Val( 2S)     0.82573
   243    C   17  S      Ryd( 3S)     0.00152
   244    C   17  S      Ryd( 4S)     0.00008
   245    C   17  px     Val( 2p)     0.96749
   246    C   17  px     Ryd( 3p)     0.00614
   247    C   17  py     Val( 2p)     0.98653
   248    C   17  py     Ryd( 3p)     0.00428
   249    C   17  pz     Val( 2p)     1.03929
   250    C   17  pz     Ryd( 3p)     0.00148
   251    C   17  dxy    Ryd( 3d)     0.00126
   252    C   17  dxz    Ryd( 3d)     0.00084
   253    C   17  dyz    Ryd( 3d)     0.00136
   254    C   17  dx2y2  Ryd( 3d)     0.00071
   255    C   17  dz2    Ryd( 3d)     0.00040

   256    C   18  S      Cor( 1S)     1.99902
   257    C   18  S      Val( 2S)     0.94561
   258    C   18  S      Ryd( 3S)     0.00080
   259    C   18  S      Ryd( 4S)     0.00004
   260    C   18  px     Val( 2p)     1.19346
   261    C   18  px     Ryd( 3p)     0.00369
   262    C   18  py     Val( 2p)     1.06146
   263    C   18  py     Ryd( 3p)     0.00429
   264    C   18  pz     Val( 2p)     1.06603
   265    C   18  pz     Ryd( 3p)     0.00326
   266    C   18  dxy    Ryd( 3d)     0.00056
   267    C   18  dxz    Ryd( 3d)     0.00037
   268    C   18  dyz    Ryd( 3d)     0.00069
   269    C   18  dx2y2  Ryd( 3d)     0.00085
   270    C   18  dz2    Ryd( 3d)     0.00043

   271    C   19  S      Cor( 1S)     1.99914
   272    C   19  S      Val( 2S)     0.95211
   273    C   19  S      Ryd( 3S)     0.00059
   274    C   19  S      Ryd( 4S)     0.00003
   275    C   19  px     Val( 2p)     1.05856
   276    C   19  px     Ryd( 3p)     0.00493
   277    C   19  py     Val( 2p)     1.18029
   278    C   19  py     Ryd( 3p)     0.00492
   279    C   19  pz     Val( 2p)     1.09555
   280    C   19  pz     Ryd( 3p)     0.00319
   281    C   19  dxy    Ryd( 3d)     0.00066
   282    C   19  dxz    Ryd( 3d)     0.00051
   283    C   19  dyz    Ryd( 3d)     0.00034
   284    C   19  dx2y2  Ryd( 3d)     0.00076
   285    C   19  dz2    Ryd( 3d)     0.00044

   286    C   20  S      Cor( 1S)     1.99912
   287    C   20  S      Val( 2S)     0.96463
   288    C   20  S      Ryd( 3S)     0.00050
   289    C   20  S      Ryd( 4S)     0.00003
   290    C   20  px     Val( 2p)     1.13312
   291    C   20  px     Ryd( 3p)     0.00484
   292    C   20  py     Val( 2p)     1.11737
   293    C   20  py     Ryd( 3p)     0.00460
   294    C   20  pz     Val( 2p)     0.95803
   295    C   20  pz     Ryd( 3p)     0.00096
   296    C   20  dxy    Ryd( 3d)     0.00090
   297    C   20  dxz    Ryd( 3d)     0.00054
   298    C   20  dyz    Ryd( 3d)     0.00065
   299    C   20  dx2y2  Ryd( 3d)     0.00063
   300    C   20  dz2    Ryd( 3d)     0.00043

   301    C   21  S      Cor( 1S)     1.99905
   302    C   21  S      Val( 2S)     0.94255
   303    C   21  S      Ryd( 3S)     0.00072
   304    C   21  S      Ryd( 4S)     0.00005
   305    C   21  px     Val( 2p)     1.17478
   306    C   21  px     Ryd( 3p)     0.00457
   307    C   21  py     Val( 2p)     1.06803
   308    C   21  py     Ryd( 3p)     0.00384
   309    C   21  pz     Val( 2p)     1.07174
   310    C   21  pz     Ryd( 3p)     0.00388
   311    C   21  dxy    Ryd( 3d)     0.00076
   312    C   21  dxz    Ryd( 3d)     0.00034
   313    C   21  dyz    Ryd( 3d)     0.00049
   314    C   21  dx2y2  Ryd( 3d)     0.00070
   315    C   21  dz2    Ryd( 3d)     0.00041

   316    H   22  S      Val( 1S)     0.76473
   317    H   22  S      Ryd( 2S)     0.00048

   318    H   23  S      Val( 1S)     0.79113
   319    H   23  S      Ryd( 2S)     0.00165

   320    H   24  S      Val( 1S)     0.79101
   321    H   24  S      Ryd( 2S)     0.00165

   322    H   25  S      Val( 1S)     0.74138
   323    H   25  S      Ryd( 2S)     0.00113

   324    H   26  S      Val( 1S)     0.73799
   325    H   26  S      Ryd( 2S)     0.00105

   326    H   27  S      Val( 1S)     0.73914
   327    H   27  S      Ryd( 2S)     0.00108

   328    H   28  S      Val( 1S)     0.75096
   329    H   28  S      Ryd( 2S)     0.00083

   330    H   29  S      Val( 1S)     0.76532
   331    H   29  S      Ryd( 2S)     0.00101

   332    H   30  S      Val( 1S)     0.77002
   333    H   30  S      Ryd( 2S)     0.00076

   334    H   31  S      Val( 1S)     0.76776
   335    H   31  S      Ryd( 2S)     0.00081

   336    H   32  S      Val( 1S)     0.76724
   337    H   32  S      Ryd( 2S)     0.00092

   338    H   33  S      Val( 1S)     0.76465
   339    H   33  S      Ryd( 2S)     0.00100

   340    H   34  S      Val( 1S)     0.76970
   341    H   34  S      Ryd( 2S)     0.00076

   342    H   35  S      Val( 1S)     0.76770
   343    H   35  S      Ryd( 2S)     0.00081

   344    H   36  S      Val( 1S)     0.76723
   345    H   36  S      Ryd( 2S)     0.00092

 WARNING:  1 low occupancy (<1.9990e) core orbital  found on  C    3
           1 low occupancy (<1.9990e) core orbital  found on  C    6
           1 low occupancy (<1.9990e) core orbital  found on  C   10
           1 low occupancy (<1.9990e) core orbital  found on  C   17


 Summary of Natural Population Analysis:                  
                                                          
                                       Natural Population 
                Natural  -----------------------------------------------
    Atom  No    Charge         Core      Valence    Rydberg      Total
 -----------------------------------------------------------------------
      C    1   -0.32062      1.99943     4.30711    0.01408     6.32062
      O    2   -0.50648      1.99974     6.49498    0.01176     8.50648
      C    3    0.33803      1.99880     3.64139    0.02178     5.66197
      C    4   -0.26057      1.99903     4.24723    0.01431     6.26057
      C    5   -0.21008      1.99903     4.19813    0.01293     6.21008
      C    6    0.12160      1.99893     3.86068    0.01879     5.87840
      C    7   -0.20109      1.99903     4.18867    0.01339     6.20109
      C    8   -0.30968      1.99902     4.29854    0.01211     6.30968
      N    9   -0.26978      1.99922     5.25815    0.01241     7.26978
      C   10    0.16424      1.99897     3.81870    0.01809     5.83576
      C   11   -0.28125      1.99902     4.26722    0.01501     6.28125
      C   12   -0.30247      1.99914     4.28694    0.01639     6.30247
      C   13   -0.18634      1.99912     4.17313    0.01409     6.18634
      C   14   -0.27227      1.99905     4.25745    0.01578     6.27227
      C   15   -0.07776      1.99901     4.06258    0.01618     6.07776
      C   16   -0.07770      1.99901     4.06251    0.01618     6.07770
      C   17    0.16392      1.99897     3.81904    0.01806     5.83608
      C   18   -0.28056      1.99902     4.26657    0.01498     6.28056
      C   19   -0.30204      1.99914     4.28652    0.01639     6.30204
      C   20   -0.18636      1.99912     4.17315    0.01409     6.18636
      C   21   -0.27191      1.99905     4.25710    0.01576     6.27191
      H   22    0.23479      0.00000     0.76473    0.00048     0.76521
      H   23    0.20722      0.00000     0.79113    0.00165     0.79278
      H   24    0.20734      0.00000     0.79101    0.00165     0.79266
      H   25    0.25749      0.00000     0.74138    0.00113     0.74251
      H   26    0.26096      0.00000     0.73799    0.00105     0.73904
      H   27    0.25978      0.00000     0.73914    0.00108     0.74022
      H   28    0.24821      0.00000     0.75096    0.00083     0.75179
      H   29    0.23367      0.00000     0.76532    0.00101     0.76633
      H   30    0.22922      0.00000     0.77002    0.00076     0.77078
      H   31    0.23143      0.00000     0.76776    0.00081     0.76857
      H   32    0.23184      0.00000     0.76724    0.00092     0.76816
      H   33    0.23435      0.00000     0.76465    0.00100     0.76565
      H   34    0.22953      0.00000     0.76970    0.00076     0.77047
      H   35    0.23149      0.00000     0.76770    0.00081     0.76851
      H   36    0.23186      0.00000     0.76723    0.00092     0.76814
 =======================================================================
   * Total *   -0.00000     41.98083   101.68177    0.33740   144.00000

                                 Natural Population      
 --------------------------------------------------------
   Core                      41.98083 ( 99.9544% of  42)
   Valence                  101.68177 ( 99.6880% of 102)
   Natural Minimal Basis    143.66260 ( 99.7657% of 144)
   Natural Rydberg Basis      0.33740 (  0.2343% of 144)
 --------------------------------------------------------

    Atom  No          Natural Electron Configuration
 ----------------------------------------------------------------------------
      C    1      [core]2S( 1.10)2p( 3.21)3p( 0.01)3d( 0.01)
      O    2      [core]2S( 1.59)2p( 4.90)3p( 0.01)3d( 0.01)
      C    3      [core]2S( 0.83)2p( 2.81)3p( 0.01)3d( 0.01)
      C    4      [core]2S( 0.96)2p( 3.28)3p( 0.01)
      C    5      [core]2S( 0.96)2p( 3.24)3p( 0.01)
      C    6      [core]2S( 0.83)2p( 3.03)3p( 0.01)
      C    7      [core]2S( 0.96)2p( 3.23)3p( 0.01)
      C    8      [core]2S( 0.96)2p( 3.34)3p( 0.01)
      N    9      [core]2S( 1.16)2p( 4.09)3p( 0.01)
      C   10      [core]2S( 0.83)2p( 2.99)3p( 0.01)
      C   11      [core]2S( 0.95)2p( 3.32)3p( 0.01)
      C   12      [core]2S( 0.95)2p( 3.33)3p( 0.01)
      C   13      [core]2S( 0.96)2p( 3.21)3p( 0.01)
      C   14      [core]2S( 0.94)2p( 3.31)3p( 0.01)
      C   15      [core]2S( 0.86)2p( 3.21)3p( 0.01)
      C   16      [core]2S( 0.86)2p( 3.21)3p( 0.01)
      C   17      [core]2S( 0.83)2p( 2.99)3p( 0.01)
      C   18      [core]2S( 0.95)2p( 3.32)3p( 0.01)
      C   19      [core]2S( 0.95)2p( 3.33)3p( 0.01)
      C   20      [core]2S( 0.96)2p( 3.21)3p( 0.01)
      C   21      [core]2S( 0.94)2p( 3.31)3p( 0.01)
      H   22            1S( 0.76)
      H   23            1S( 0.79)
      H   24            1S( 0.79)
      H   25            1S( 0.74)
      H   26            1S( 0.74)
      H   27            1S( 0.74)
      H   28            1S( 0.75)
      H   29            1S( 0.77)
      H   30            1S( 0.77)
      H   31            1S( 0.77)
      H   32            1S( 0.77)
      H   33            1S( 0.76)
      H   34            1S( 0.77)
      H   35            1S( 0.77)
      H   36            1S( 0.77)


 NBO analysis skipped by request.
 Leave Link  607 at Wed Sep 29 07:56:17 2021, MaxMem= 1610612736 cpu:      32.2
 (Enter /sw/target/amd/app/gaussian/Gaussian09RevA.02_gcc-4.9.2/g09/l9999.exe)
 1\1\GINC-HERMITE\SP\RTD-B3LYP-FC\6-31G(d)\C19H15N1O1\JSCHLEINITZ\29-Se
 p-2021\0\\#p TD(NStates=10, Root=1) b3lyp/6-31G* volume pop=NPA densit
 y=current Geom=AllCheck Guess=Read\\COc1ccc(cc1)n1c2ccccc2c2c1cccc2_co
 nf_0\\0,1\C,0,5.1005515396,-2.7884546021,2.9433028183\O,0,4.0589797058
 ,-3.0973711266,2.029992009\C,0,4.3251698557,-3.0195636149,0.6950294873
 \C,0,3.2562160585,-3.3361866306,-0.1577233593\C,0,3.4179004295,-3.2776
 563904,-1.5349121328\C,0,4.6564867441,-2.9219534559,-2.0904535987\C,0,
 5.7206385307,-2.6177426989,-1.2395543612\C,0,5.5607960161,-2.653486658
 7,0.1476282857\N,0,4.8237551518,-2.8712934271,-3.5027025383\C,0,5.1635
 116232,-1.7378773502,-4.2470267191\C,0,5.3954413598,-0.4299216044,-3.8
 127463023\C,0,5.7093368679,0.5264897267,-4.7759161506\C,0,5.7879431325
 ,0.1948558282,-6.1398958347\C,0,5.5465669131,-1.1077421254,-6.56697755
 68\C,0,5.2286556081,-2.0889653195,-5.6203529865\C,0,4.913311712,-3.499
 6879208,-5.7067590517\C,0,4.66947708,-3.9466081514,-4.3823362599\C,0,4
 .3564721388,-5.2798908798,-4.1037570877\C,0,4.2761832606,-6.164183766,
 -5.1772767081\C,0,4.5049952117,-5.7373199601,-6.4971163899\C,0,4.82568
 89773,-4.4099339956,-6.7668284569\H,0,4.6713614062,-2.9128813587,3.938
 9798636\H,0,5.4473013365,-1.7534096873,2.8246341306\H,0,5.9533968972,-
 3.4703453996,2.8282611679\H,0,2.3041364733,-3.611765069,0.2845586793\H
 ,0,2.5834248137,-3.5023162244,-2.1922001839\H,0,6.6846134817,-2.355748
 7705,-1.6650979531\H,0,6.4040049656,-2.4089892344,0.7831976189\H,0,5.3
 286911086,-0.1670877575,-2.7619323044\H,0,5.8943223267,1.5508010292,-4
 .463357277\H,0,6.0365578471,0.9641174391,-6.8655425976\H,0,5.600927936
 1,-1.360427088,-7.6228516252\H,0,4.1854590199,-5.6160201512,-3.0861375
 555\H,0,4.0335617508,-7.2062942092,-4.9869856466\H,0,4.4331056407,-6.4
 520445751,-7.3120721468\H,0,5.0092832834,-4.0837436971,-7.787406711\\V
 ersion=AM64L-G09RevA.02\State=1-A\HF=-863.0437571\RMSD=1.243e-09\Dipol
 e=0.2168738,0.0518353,2.3567547\Quadrupole=-4.7675981,-6.6635803,11.43
 11784,2.0061461,3.8540796,1.3017287\PG=C01 [X(C19H15N1O1)]\\@


 SUCCESS-- IF YOU HAVE TRIED TO DO SOMETHING AND FAILED
           YOU ARE BETTER OFF THAN IF YOU HAD TRIED TO DO
           NOTHING AND SUCCEEDED.

                   -- FROM THE BACK OF A SUGAR PACKET
 Job cpu time:  0 days  7 hours 11 minutes  8.1 seconds.
 File lengths (MBytes):  RWF=    375 Int=      0 D2E=      0 Chk=     53 Scr=      1
 Normal termination of Gaussian 09 at Wed Sep 29 07:56:24 2021.
