 Entering Gaussian System, Link 0=g09
 Input=C19H17NO_1979_conf_0.com
 Output=C19H17NO_1979_conf_0.log
 Initial command:
 /sw/target/amd/app/gaussian/Gaussian09RevA.02_gcc-4.9.2/g09/l1.exe /home/jschleinitz/gaussian/Gau-4135816.inp -scrdir=/home/jschleinitz/gaussian/
 Entering Link 1 = /sw/target/amd/app/gaussian/Gaussian09RevA.02_gcc-4.9.2/g09/l1.exe PID=   4135818.
  
 Copyright (c) 1988,1990,1992,1993,1995,1998,2003,2009, Gaussian, Inc.
                  All Rights Reserved.
  
 This is part of the Gaussian(R) 09 program.  It is based on
 the Gaussian(R) 03 system (copyright 2003, Gaussian, Inc.),
 the Gaussian(R) 98 system (copyright 1998, Gaussian, Inc.),
 the Gaussian(R) 94 system (copyright 1995, Gaussian, Inc.),
 the Gaussian 92(TM) system (copyright 1992, Gaussian, Inc.),
 the Gaussian 90(TM) system (copyright 1990, Gaussian, Inc.),
 the Gaussian 88(TM) system (copyright 1988, Gaussian, Inc.),
 the Gaussian 86(TM) system (copyright 1986, Carnegie Mellon
 University), and the Gaussian 82(TM) system (copyright 1983,
 Carnegie Mellon University). Gaussian is a federally registered
 trademark of Gaussian, Inc.
  
 This software contains proprietary and confidential information,
 including trade secrets, belonging to Gaussian, Inc.
  
 This software is provided under written license and may be
 used, copied, transmitted, or stored only in accord with that
 written license.
  
 The following legend is applicable only to US Government
 contracts under FAR:
  
                    RESTRICTED RIGHTS LEGEND
  
 Use, reproduction and disclosure by the US Government is
 subject to restrictions as set forth in subparagraphs (a)
 and (c) of the Commercial Computer Software - Restricted
 Rights clause in FAR 52.227-19.
  
 Gaussian, Inc.
 340 Quinnipiac St., Bldg. 40, Wallingford CT 06492
  
  
 ---------------------------------------------------------------
 Warning -- This program may not be used in any manner that
 competes with the business of Gaussian, Inc. or will provide
 assistance to any competitor of Gaussian, Inc.  The licensee
 of this program is prohibited from giving any competitor of
 Gaussian, Inc. access to this program.  By using this program,
 the user acknowledges that Gaussian, Inc. is engaged in the
 business of creating and licensing software in the field of
 computational chemistry and represents and warrants to the
 licensee that it is not a competitor of Gaussian, Inc. and that
 it will not use this program in any manner prohibited above.
 ---------------------------------------------------------------
  

 Cite this work as:
 Gaussian 09, Revision A.02,
 M. J. Frisch, G. W. Trucks, H. B. Schlegel, G. E. Scuseria, 
 M. A. Robb, J. R. Cheeseman, G. Scalmani, V. Barone, B. Mennucci, 
 G. A. Petersson, H. Nakatsuji, M. Caricato, X. Li, H. P. Hratchian, 
 A. F. Izmaylov, J. Bloino, G. Zheng, J. L. Sonnenberg, M. Hada, 
 M. Ehara, K. Toyota, R. Fukuda, J. Hasegawa, M. Ishida, T. Nakajima, 
 Y. Honda, O. Kitao, H. Nakai, T. Vreven, J. A. Montgomery, Jr., 
 J. E. Peralta, F. Ogliaro, M. Bearpark, J. J. Heyd, E. Brothers, 
 K. N. Kudin, V. N. Staroverov, R. Kobayashi, J. Normand, 
 K. Raghavachari, A. Rendell, J. C. Burant, S. S. Iyengar, J. Tomasi, 
 M. Cossi, N. Rega, J. M. Millam, M. Klene, J. E. Knox, J. B. Cross, 
 V. Bakken, C. Adamo, J. Jaramillo, R. Gomperts, R. E. Stratmann, 
 O. Yazyev, A. J. Austin, R. Cammi, C. Pomelli, J. W. Ochterski, 
 R. L. Martin, K. Morokuma, V. G. Zakrzewski, G. A. Voth, 
 P. Salvador, J. J. Dannenberg, S. Dapprich, A. D. Daniels, 
 O. Farkas, J. B. Foresman, J. V. Ortiz, J. Cioslowski, 
 and D. J. Fox, Gaussian, Inc., Wallingford CT, 2009.
 
 ******************************************
 Gaussian 09:  AM64L-G09RevA.02 11-Jun-2009
                28-Sep-2021 
 ******************************************
 %nproc=6
 Will use up to    6 processors via shared memory.
 %mem=12gb
 %chk=C19H17NO_1979_conf_0.chk
 -----------------------------------
 #p opt b3lyp/6-31G* scf=(xqc,tight)
 -----------------------------------
 1/14=-1,18=20,19=15,26=3,38=1/1,3;
 2/9=110,12=2,17=6,18=5,40=1/2;
 3/5=1,6=6,7=1,11=2,16=1,25=1,30=1,71=1,74=-5/1,2,3;
 4//1;
 5/5=2,8=3,13=1,32=2,38=5/2,8;
 6/7=2,8=2,9=2,10=2,28=1/1;
 7//1,2,3,16;
 1/14=-1,18=20,19=15/3(2);
 2/9=110/2;
 99//99;
 2/9=110/2;
 3/5=1,6=6,7=1,11=2,16=1,25=1,30=1,71=1,74=-5/1,2,3;
 4/5=5,16=3/1;
 5/5=2,8=3,13=1,32=2,38=5/2,8;
 7//1,2,3,16;
 1/14=-1,18=20,19=15/3(-5);
 2/9=110/2;
 6/7=2,8=2,9=2,10=2,19=2,28=1/1;
 99/9=1/99;
 Leave Link    1 at Tue Sep 28 18:53:33 2021, MaxMem= 1610612736 cpu:       0.1
 (Enter /sw/target/amd/app/gaussian/Gaussian09RevA.02_gcc-4.9.2/g09/l101.exe)
 --------------------------------------
 COc1cccc(c1)N(c1ccccc1)c1ccccc1_conf_0
 --------------------------------------
 Symbolic Z-matrix:
 Charge =  0 Multiplicity = 1
 C                     3.77737  -1.56896  -0.92383 
 O                     2.87175  -1.16367   0.09382 
 C                     3.43147  -0.67262   1.2426 
 C                     2.62016  -0.75335   2.37731 
 C                     3.06247  -0.25951   3.60182 
 C                     4.31708   0.34682   3.6948 
 C                     5.1453    0.45738   2.56517 
 C                     4.68882  -0.07246   1.34069 
 N                     6.42761   1.12633   2.64695 
 C                     6.77817   2.09756   1.62823 
 C                     5.78932   2.89466   1.01361 
 C                     6.1109    3.81629   0.01326 
 C                     7.43304   3.98068  -0.38406 
 C                     8.43176   3.21233   0.20938 
 C                     8.10458   2.27336   1.1934 
 C                     7.33646   0.79221   3.72506 
 C                     7.36528  -0.50603   4.27099 
 C                     8.2487   -0.84506   5.30113 
 C                     9.13461   0.10381   5.79911 
 C                     9.12425   1.3968    5.28383 
 C                     8.22217   1.74084   4.26947 
 H                     3.18435  -1.94435  -1.76412 
 H                     4.41435  -2.38653  -0.56869 
 H                     4.37728  -0.73494  -1.30143 
 H                     1.6362   -1.21065   2.30125 
 H                     2.42779  -0.33416   4.4788 
 H                     4.63697   0.75674   4.65012 
 H                     5.33375   0.01286   0.47307 
 H                     4.74759   2.80762   1.31574 
 H                     5.32405   4.4051   -0.45244 
 H                     7.6864    4.70322  -1.15518 
 H                     9.46709   3.33863  -0.09488 
 H                     8.90524   1.66541   1.6098 
 H                     6.70514  -1.27978   3.88692 
 H                     8.24561  -1.85464   5.70507 
 H                     9.83227  -0.16319   6.58921 
 H                     9.81397   2.14161   5.66917 
 H                     8.2197    2.76644   3.90988 
 
 NAtoms=     38 NQM=     38 NQMF=      0 NMic=      0 NMicF=      0 NTot=     38.
                    Isotopes and Nuclear Properties:
 (Nuclear quadrupole moments (NQMom) in fm**2, nuclear magnetic moments (NMagM)
  in nuclear magnetons)

  Atom         1           2           3           4           5           6           7           8           9          10
 IAtWgt=          12          16          12          12          12          12          12          12          14          12
 AtmWgt=  12.0000000  15.9949146  12.0000000  12.0000000  12.0000000  12.0000000  12.0000000  12.0000000  14.0030740  12.0000000
 NucSpn=           0           0           0           0           0           0           0           0           2           0
 AtZEff=   0.0000000   0.0000000   0.0000000   0.0000000   0.0000000   0.0000000   0.0000000   0.0000000   0.0000000   0.0000000
 NQMom=    0.0000000   0.0000000   0.0000000   0.0000000   0.0000000   0.0000000   0.0000000   0.0000000   2.0440000   0.0000000
 NMagM=    0.0000000   0.0000000   0.0000000   0.0000000   0.0000000   0.0000000   0.0000000   0.0000000   0.4037610   0.0000000

  Atom        11          12          13          14          15          16          17          18          19          20
 IAtWgt=          12          12          12          12          12          12          12          12          12          12
 AtmWgt=  12.0000000  12.0000000  12.0000000  12.0000000  12.0000000  12.0000000  12.0000000  12.0000000  12.0000000  12.0000000
 NucSpn=           0           0           0           0           0           0           0           0           0           0
 AtZEff=   0.0000000   0.0000000   0.0000000   0.0000000   0.0000000   0.0000000   0.0000000   0.0000000   0.0000000   0.0000000
 NQMom=    0.0000000   0.0000000   0.0000000   0.0000000   0.0000000   0.0000000   0.0000000   0.0000000   0.0000000   0.0000000
 NMagM=    0.0000000   0.0000000   0.0000000   0.0000000   0.0000000   0.0000000   0.0000000   0.0000000   0.0000000   0.0000000

  Atom        21          22          23          24          25          26          27          28          29          30
 IAtWgt=          12           1           1           1           1           1           1           1           1           1
 AtmWgt=  12.0000000   1.0078250   1.0078250   1.0078250   1.0078250   1.0078250   1.0078250   1.0078250   1.0078250   1.0078250
 NucSpn=           0           1           1           1           1           1           1           1           1           1
 AtZEff=   0.0000000   0.0000000   0.0000000   0.0000000   0.0000000   0.0000000   0.0000000   0.0000000   0.0000000   0.0000000
 NQMom=    0.0000000   0.0000000   0.0000000   0.0000000   0.0000000   0.0000000   0.0000000   0.0000000   0.0000000   0.0000000
 NMagM=    0.0000000   2.7928460   2.7928460   2.7928460   2.7928460   2.7928460   2.7928460   2.7928460   2.7928460   2.7928460

  Atom        31          32          33          34          35          36          37          38
 IAtWgt=           1           1           1           1           1           1           1           1
 AtmWgt=   1.0078250   1.0078250   1.0078250   1.0078250   1.0078250   1.0078250   1.0078250   1.0078250
 NucSpn=           1           1           1           1           1           1           1           1
 AtZEff=   0.0000000   0.0000000   0.0000000   0.0000000   0.0000000   0.0000000   0.0000000   0.0000000
 NQMom=    0.0000000   0.0000000   0.0000000   0.0000000   0.0000000   0.0000000   0.0000000   0.0000000
 NMagM=    2.7928460   2.7928460   2.7928460   2.7928460   2.7928460   2.7928460   2.7928460   2.7928460
 Leave Link  101 at Tue Sep 28 18:53:34 2021, MaxMem= 1610612736 cpu:       0.2
 (Enter /sw/target/amd/app/gaussian/Gaussian09RevA.02_gcc-4.9.2/g09/l103.exe)

 GradGradGradGradGradGradGradGradGradGradGradGradGradGradGradGradGradGrad
 Berny optimization.
 Initialization pass.
                           ----------------------------
                           !    Initial Parameters    !
                           ! (Angstroms and Degrees)  !
 --------------------------                            --------------------------
 ! Name  Definition              Value          Derivative Info.                !
 --------------------------------------------------------------------------------
 ! R1    R(1,2)                  1.4213         estimate D2E/DX2                !
 ! R2    R(1,22)                 1.0948         estimate D2E/DX2                !
 ! R3    R(1,23)                 1.0956         estimate D2E/DX2                !
 ! R4    R(1,24)                 1.0946         estimate D2E/DX2                !
 ! R5    R(2,3)                  1.369          estimate D2E/DX2                !
 ! R6    R(3,4)                  1.3972         estimate D2E/DX2                !
 ! R7    R(3,8)                  1.3967         estimate D2E/DX2                !
 ! R8    R(4,5)                  1.3925         estimate D2E/DX2                !
 ! R9    R(4,25)                 1.0877         estimate D2E/DX2                !
 ! R10   R(5,6)                  1.3965         estimate D2E/DX2                !
 ! R11   R(5,26)                 1.0851         estimate D2E/DX2                !
 ! R12   R(6,7)                  1.4051         estimate D2E/DX2                !
 ! R13   R(6,27)                 1.0877         estimate D2E/DX2                !
 ! R14   R(7,8)                  1.4101         estimate D2E/DX2                !
 ! R15   R(7,9)                  1.4486         estimate D2E/DX2                !
 ! R16   R(8,28)                 1.0844         estimate D2E/DX2                !
 ! R17   R(9,10)                 1.4505         estimate D2E/DX2                !
 ! R18   R(9,16)                 1.4491         estimate D2E/DX2                !
 ! R19   R(10,11)                1.411          estimate D2E/DX2                !
 ! R20   R(10,15)                1.4069         estimate D2E/DX2                !
 ! R21   R(11,12)                1.3977         estimate D2E/DX2                !
 ! R22   R(11,29)                1.0881         estimate D2E/DX2                !
 ! R23   R(12,13)                1.3903         estimate D2E/DX2                !
 ! R24   R(12,30)                1.0875         estimate D2E/DX2                !
 ! R25   R(13,14)                1.3928         estimate D2E/DX2                !
 ! R26   R(13,31)                1.0867         estimate D2E/DX2                !
 ! R27   R(14,15)                1.3989         estimate D2E/DX2                !
 ! R28   R(14,32)                1.0865         estimate D2E/DX2                !
 ! R29   R(15,33)                1.0881         estimate D2E/DX2                !
 ! R30   R(16,17)                1.4087         estimate D2E/DX2                !
 ! R31   R(16,21)                1.4074         estimate D2E/DX2                !
 ! R32   R(17,18)                1.3988         estimate D2E/DX2                !
 ! R33   R(17,34)                1.0872         estimate D2E/DX2                !
 ! R34   R(18,19)                1.3904         estimate D2E/DX2                !
 ! R35   R(18,35)                1.0874         estimate D2E/DX2                !
 ! R36   R(19,20)                1.3919         estimate D2E/DX2                !
 ! R37   R(19,36)                1.0873         estimate D2E/DX2                !
 ! R38   R(20,21)                1.4004         estimate D2E/DX2                !
 ! R39   R(20,37)                1.0858         estimate D2E/DX2                !
 ! R40   R(21,38)                1.0868         estimate D2E/DX2                !
 ! A1    A(2,1,22)             107.589          estimate D2E/DX2                !
 ! A2    A(2,1,23)             110.5586         estimate D2E/DX2                !
 ! A3    A(2,1,24)             112.2688         estimate D2E/DX2                !
 ! A4    A(22,1,23)            107.9296         estimate D2E/DX2                !
 ! A5    A(22,1,24)            107.0594         estimate D2E/DX2                !
 ! A6    A(23,1,24)            111.2091         estimate D2E/DX2                !
 ! A7    A(1,2,3)              116.2708         estimate D2E/DX2                !
 ! A8    A(2,3,4)              115.0463         estimate D2E/DX2                !
 ! A9    A(2,3,8)              125.53           estimate D2E/DX2                !
 ! A10   A(4,3,8)              119.3744         estimate D2E/DX2                !
 ! A11   A(3,4,5)              120.6124         estimate D2E/DX2                !
 ! A12   A(3,4,25)             119.5231         estimate D2E/DX2                !
 ! A13   A(5,4,25)             119.864          estimate D2E/DX2                !
 ! A14   A(4,5,6)              119.8599         estimate D2E/DX2                !
 ! A15   A(4,5,26)             120.0352         estimate D2E/DX2                !
 ! A16   A(6,5,26)             120.0999         estimate D2E/DX2                !
 ! A17   A(5,6,7)              120.6758         estimate D2E/DX2                !
 ! A18   A(5,6,27)             119.099          estimate D2E/DX2                !
 ! A19   A(7,6,27)             120.2074         estimate D2E/DX2                !
 ! A20   A(6,7,8)              118.5382         estimate D2E/DX2                !
 ! A21   A(6,7,9)              120.8454         estimate D2E/DX2                !
 ! A22   A(8,7,9)              120.6028         estimate D2E/DX2                !
 ! A23   A(3,8,7)              120.9211         estimate D2E/DX2                !
 ! A24   A(3,8,28)             120.8646         estimate D2E/DX2                !
 ! A25   A(7,8,28)             118.2071         estimate D2E/DX2                !
 ! A26   A(7,9,10)             118.9136         estimate D2E/DX2                !
 ! A27   A(7,9,16)             119.3866         estimate D2E/DX2                !
 ! A28   A(10,9,16)            121.689          estimate D2E/DX2                !
 ! A29   A(9,10,11)            120.984          estimate D2E/DX2                !
 ! A30   A(9,10,15)            121.911          estimate D2E/DX2                !
 ! A31   A(11,10,15)           117.097          estimate D2E/DX2                !
 ! A32   A(10,11,12)           121.5348         estimate D2E/DX2                !
 ! A33   A(10,11,29)           120.3173         estimate D2E/DX2                !
 ! A34   A(12,11,29)           118.1471         estimate D2E/DX2                !
 ! A35   A(11,12,13)           120.0868         estimate D2E/DX2                !
 ! A36   A(11,12,30)           119.8039         estimate D2E/DX2                !
 ! A37   A(13,12,30)           120.1092         estimate D2E/DX2                !
 ! A38   A(12,13,14)           119.6631         estimate D2E/DX2                !
 ! A39   A(12,13,31)           120.2077         estimate D2E/DX2                !
 ! A40   A(14,13,31)           120.129          estimate D2E/DX2                !
 ! A41   A(13,14,15)           120.1499         estimate D2E/DX2                !
 ! A42   A(13,14,32)           119.9895         estimate D2E/DX2                !
 ! A43   A(15,14,32)           119.8601         estimate D2E/DX2                !
 ! A44   A(10,15,14)           121.4518         estimate D2E/DX2                !
 ! A45   A(10,15,33)           120.3722         estimate D2E/DX2                !
 ! A46   A(14,15,33)           118.1705         estimate D2E/DX2                !
 ! A47   A(9,16,17)            120.9072         estimate D2E/DX2                !
 ! A48   A(9,16,21)            121.8079         estimate D2E/DX2                !
 ! A49   A(17,16,21)           117.2849         estimate D2E/DX2                !
 ! A50   A(16,17,18)           121.4474         estimate D2E/DX2                !
 ! A51   A(16,17,34)           120.4367         estimate D2E/DX2                !
 ! A52   A(18,17,34)           118.1092         estimate D2E/DX2                !
 ! A53   A(17,18,19)           120.0513         estimate D2E/DX2                !
 ! A54   A(17,18,35)           119.7899         estimate D2E/DX2                !
 ! A55   A(19,18,35)           120.1569         estimate D2E/DX2                !
 ! A56   A(18,19,20)           119.7762         estimate D2E/DX2                !
 ! A57   A(18,19,36)           120.099          estimate D2E/DX2                !
 ! A58   A(20,19,36)           120.1247         estimate D2E/DX2                !
 ! A59   A(19,20,21)           120.0767         estimate D2E/DX2                !
 ! A60   A(19,20,37)           120.0725         estimate D2E/DX2                !
 ! A61   A(21,20,37)           119.8506         estimate D2E/DX2                !
 ! A62   A(16,21,20)           121.3319         estimate D2E/DX2                !
 ! A63   A(16,21,38)           120.4414         estimate D2E/DX2                !
 ! A64   A(20,21,38)           118.2266         estimate D2E/DX2                !
 ! D1    D(22,1,2,3)           179.376          estimate D2E/DX2                !
 ! D2    D(23,1,2,3)            61.7429         estimate D2E/DX2                !
 ! D3    D(24,1,2,3)           -63.0841         estimate D2E/DX2                !
 ! D4    D(1,2,3,4)           -156.9624         estimate D2E/DX2                !
 ! D5    D(1,2,3,8)             25.6188         estimate D2E/DX2                !
 ! D6    D(2,3,4,5)           -178.5119         estimate D2E/DX2                !
 ! D7    D(2,3,4,25)             1.7566         estimate D2E/DX2                !
 ! D8    D(8,3,4,5)             -0.9223         estimate D2E/DX2                !
 ! D9    D(8,3,4,25)           179.3462         estimate D2E/DX2                !
 ! D10   D(2,3,8,7)            176.9913         estimate D2E/DX2                !
 ! D11   D(2,3,8,28)            -2.0108         estimate D2E/DX2                !
 ! D12   D(4,3,8,7)             -0.3251         estimate D2E/DX2                !
 ! D13   D(4,3,8,28)          -179.3273         estimate D2E/DX2                !
 ! D14   D(3,4,5,6)              1.2911         estimate D2E/DX2                !
 ! D15   D(3,4,5,26)          -179.5159         estimate D2E/DX2                !
 ! D16   D(25,4,5,6)          -178.9783         estimate D2E/DX2                !
 ! D17   D(25,4,5,26)            0.2147         estimate D2E/DX2                !
 ! D18   D(4,5,6,7)             -0.412          estimate D2E/DX2                !
 ! D19   D(4,5,6,27)           178.0551         estimate D2E/DX2                !
 ! D20   D(26,5,6,7)          -179.6044         estimate D2E/DX2                !
 ! D21   D(26,5,6,27)           -1.1373         estimate D2E/DX2                !
 ! D22   D(5,6,7,8)             -0.803          estimate D2E/DX2                !
 ! D23   D(5,6,7,9)            177.8602         estimate D2E/DX2                !
 ! D24   D(27,6,7,8)          -179.2531         estimate D2E/DX2                !
 ! D25   D(27,6,7,9)            -0.5899         estimate D2E/DX2                !
 ! D26   D(6,7,8,3)              1.174          estimate D2E/DX2                !
 ! D27   D(6,7,8,28)          -179.798          estimate D2E/DX2                !
 ! D28   D(9,7,8,3)           -177.4926         estimate D2E/DX2                !
 ! D29   D(9,7,8,28)             1.5354         estimate D2E/DX2                !
 ! D30   D(6,7,9,10)          -132.9317         estimate D2E/DX2                !
 ! D31   D(6,7,9,16)            48.2454         estimate D2E/DX2                !
 ! D32   D(8,7,9,10)            45.7038         estimate D2E/DX2                !
 ! D33   D(8,7,9,16)          -133.1191         estimate D2E/DX2                !
 ! D34   D(7,9,10,11)           32.4917         estimate D2E/DX2                !
 ! D35   D(7,9,10,15)         -146.4455         estimate D2E/DX2                !
 ! D36   D(16,9,10,11)        -148.7136         estimate D2E/DX2                !
 ! D37   D(16,9,10,15)          32.3492         estimate D2E/DX2                !
 ! D38   D(7,9,16,17)           31.4685         estimate D2E/DX2                !
 ! D39   D(7,9,16,21)         -148.5265         estimate D2E/DX2                !
 ! D40   D(10,9,16,17)        -147.3206         estimate D2E/DX2                !
 ! D41   D(10,9,16,21)          32.6844         estimate D2E/DX2                !
 ! D42   D(9,10,11,12)        -178.7905         estimate D2E/DX2                !
 ! D43   D(9,10,11,29)           1.5329         estimate D2E/DX2                !
 ! D44   D(15,10,11,12)          0.1961         estimate D2E/DX2                !
 ! D45   D(15,10,11,29)       -179.4805         estimate D2E/DX2                !
 ! D46   D(9,10,15,14)         179.9504         estimate D2E/DX2                !
 ! D47   D(9,10,15,33)           0.8207         estimate D2E/DX2                !
 ! D48   D(11,10,15,14)          0.9739         estimate D2E/DX2                !
 ! D49   D(11,10,15,33)       -178.1558         estimate D2E/DX2                !
 ! D50   D(10,11,12,13)         -1.0342         estimate D2E/DX2                !
 ! D51   D(10,11,12,30)        179.0367         estimate D2E/DX2                !
 ! D52   D(29,11,12,13)        178.6492         estimate D2E/DX2                !
 ! D53   D(29,11,12,30)         -1.2799         estimate D2E/DX2                !
 ! D54   D(11,12,13,14)          0.6995         estimate D2E/DX2                !
 ! D55   D(11,12,13,31)       -179.4356         estimate D2E/DX2                !
 ! D56   D(30,12,13,14)       -179.3716         estimate D2E/DX2                !
 ! D57   D(30,12,13,31)          0.4933         estimate D2E/DX2                !
 ! D58   D(12,13,14,15)          0.453          estimate D2E/DX2                !
 ! D59   D(12,13,14,32)       -179.8113         estimate D2E/DX2                !
 ! D60   D(31,13,14,15)       -179.412          estimate D2E/DX2                !
 ! D61   D(31,13,14,32)          0.3237         estimate D2E/DX2                !
 ! D62   D(13,14,15,10)         -1.316          estimate D2E/DX2                !
 ! D63   D(13,14,15,33)        177.8323         estimate D2E/DX2                !
 ! D64   D(32,14,15,10)        178.948          estimate D2E/DX2                !
 ! D65   D(32,14,15,33)         -1.9038         estimate D2E/DX2                !
 ! D66   D(9,16,17,18)         179.2469         estimate D2E/DX2                !
 ! D67   D(9,16,17,34)           0.2018         estimate D2E/DX2                !
 ! D68   D(21,16,17,18)         -0.7579         estimate D2E/DX2                !
 ! D69   D(21,16,17,34)       -179.8029         estimate D2E/DX2                !
 ! D70   D(9,16,21,20)        -178.058          estimate D2E/DX2                !
 ! D71   D(9,16,21,38)           2.0616         estimate D2E/DX2                !
 ! D72   D(17,16,21,20)          1.9467         estimate D2E/DX2                !
 ! D73   D(17,16,21,38)       -177.9336         estimate D2E/DX2                !
 ! D74   D(16,17,18,19)         -0.7108         estimate D2E/DX2                !
 ! D75   D(16,17,18,35)        179.7846         estimate D2E/DX2                !
 ! D76   D(34,17,18,19)        178.3557         estimate D2E/DX2                !
 ! D77   D(34,17,18,35)         -1.1489         estimate D2E/DX2                !
 ! D78   D(17,18,19,20)          1.0236         estimate D2E/DX2                !
 ! D79   D(17,18,19,36)       -179.047          estimate D2E/DX2                !
 ! D80   D(35,18,19,20)       -179.4736         estimate D2E/DX2                !
 ! D81   D(35,18,19,36)          0.4557         estimate D2E/DX2                !
 ! D82   D(18,19,20,21)          0.1495         estimate D2E/DX2                !
 ! D83   D(18,19,20,37)        179.9992         estimate D2E/DX2                !
 ! D84   D(36,19,20,21)       -179.7799         estimate D2E/DX2                !
 ! D85   D(36,19,20,37)          0.0699         estimate D2E/DX2                !
 ! D86   D(19,20,21,16)         -1.6789         estimate D2E/DX2                !
 ! D87   D(19,20,21,38)        178.204          estimate D2E/DX2                !
 ! D88   D(37,20,21,16)        178.471          estimate D2E/DX2                !
 ! D89   D(37,20,21,38)         -1.6461         estimate D2E/DX2                !
 --------------------------------------------------------------------------------
 Trust Radius=3.00D-01 FncErr=1.00D-07 GrdErr=1.00D-06
 Number of steps in this run= 203 maximum allowed number of steps= 228.
 GradGradGradGradGradGradGradGradGradGradGradGradGradGradGradGradGradGrad

 Leave Link  103 at Tue Sep 28 18:53:34 2021, MaxMem= 1610612736 cpu:       0.0
 (Enter /sw/target/amd/app/gaussian/Gaussian09RevA.02_gcc-4.9.2/g09/l202.exe)
                          Input orientation:                          
 ---------------------------------------------------------------------
 Center     Atomic      Atomic             Coordinates (Angstroms)
 Number     Number       Type             X           Y           Z
 ---------------------------------------------------------------------
      1          6           0        3.777366   -1.568962   -0.923835
      2          8           0        2.871752   -1.163667    0.093819
      3          6           0        3.431472   -0.672620    1.242605
      4          6           0        2.620164   -0.753347    2.377310
      5          6           0        3.062466   -0.259514    3.601823
      6          6           0        4.317082    0.346823    3.694798
      7          6           0        5.145297    0.457381    2.565169
      8          6           0        4.688817   -0.072456    1.340689
      9          7           0        6.427608    1.126329    2.646952
     10          6           0        6.778175    2.097559    1.628235
     11          6           0        5.789317    2.894662    1.013612
     12          6           0        6.110898    3.816285    0.013263
     13          6           0        7.433035    3.980684   -0.384056
     14          6           0        8.431762    3.212333    0.209385
     15          6           0        8.104581    2.273363    1.193395
     16          6           0        7.336459    0.792215    3.725064
     17          6           0        7.365277   -0.506034    4.270989
     18          6           0        8.248696   -0.845063    5.301126
     19          6           0        9.134608    0.103814    5.799113
     20          6           0        9.124253    1.396802    5.283826
     21          6           0        8.222166    1.740841    4.269471
     22          1           0        3.184350   -1.944351   -1.764124
     23          1           0        4.414349   -2.386526   -0.568693
     24          1           0        4.377283   -0.734938   -1.301428
     25          1           0        1.636198   -1.210649    2.301252
     26          1           0        2.427791   -0.334161    4.478803
     27          1           0        4.636967    0.756743    4.650116
     28          1           0        5.333752    0.012856    0.473070
     29          1           0        4.747589    2.807619    1.315736
     30          1           0        5.324050    4.405099   -0.452441
     31          1           0        7.686399    4.703218   -1.155182
     32          1           0        9.467092    3.338632   -0.094885
     33          1           0        8.905241    1.665406    1.609804
     34          1           0        6.705141   -1.279784    3.886921
     35          1           0        8.245611   -1.854640    5.705073
     36          1           0        9.832275   -0.163195    6.589211
     37          1           0        9.813968    2.141610    5.669172
     38          1           0        8.219702    2.766445    3.909885
 ---------------------------------------------------------------------
                    Distance matrix (angstroms):
                    1          2          3          4          5
     1  C    0.000000
     2  O    1.421274   0.000000
     3  C    2.369923   1.368985   0.000000
     4  C    3.591922   2.333664   1.397244   0.000000
     5  C    4.765220   3.627665   2.423372   1.392456   0.000000
     6  C    5.029244   4.163845   2.799432   2.413644   1.396549
     7  C    4.260335   3.728857   2.441982   2.806680   2.434497
     8  C    2.863274   2.459095   1.396687   2.411954   2.791548
     9  N    5.199893   4.940311   3.766330   4.254705   3.762515
    10  C    5.381569   5.315088   4.361539   5.096845   4.822586
    11  C    5.265508   5.082148   4.282216   5.021072   4.907481
    12  C    5.943434   5.941252   5.370371   6.217353   6.227587
    13  C    6.667372   6.891880   6.349156   7.293827   7.277938
    14  C    6.768188   7.076471   6.415864   7.362145   7.238211
    15  C    6.162055   6.356472   5.524418   6.375065   6.135057
    16  C    6.313046   6.078241   4.853583   5.142823   4.403219
    17  C    6.402274   6.170331   4.967261   5.115005   4.361506
    18  C    7.698504   7.491934   6.301348   6.343302   5.488851
    19  C    8.757639   8.566227   7.341007   7.408201   6.467689
    20  C    8.713209   8.519738   7.281603   7.441381   6.505212
    21  C    7.594832   7.382355   6.159340   6.417451   5.574019
    22  H    1.094838   2.039396   3.273956   4.346064   5.625559
    23  H    1.095575   2.076996   2.680359   3.816453   4.872882
    24  H    1.094564   2.096937   2.714875   4.076876   5.098690
    25  H    3.887696   2.530131   2.152491   1.087704   2.151833
    26  H    5.703909   4.484781   3.405129   2.151510   1.085116
    27  H    6.100553   5.250123   3.886828   3.393156   2.147265
    28  H    2.622180   2.754901   2.163500   3.402463   3.875825
    29  H    5.011134   4.558832   3.721502   4.281746   4.180088
    30  H    6.189010   6.109281   5.677875   6.475187   6.581066
    31  H    7.394207   7.691629   7.263155   8.241318   8.284839
    32  H    7.559406   7.987791   7.369378   8.350836   8.223840
    33  H    6.570811   6.834095   5.963502   6.778025   6.466180
    34  H    5.639048   5.394068   4.251819   4.386695   3.793589
    35  H    7.999328   7.800126   6.669837   6.628160   5.816621
    36  H    9.751101   9.572875   8.355597   8.372749   7.400276
    37  H    9.678669   9.497566   8.261395   8.424247   7.458023
    38  H    7.867334   7.655632   6.470603   6.789149   5.987355
                    6          7          8          9         10
     6  C    0.000000
     7  C    1.405072   0.000000
     8  C    2.419879   1.410126   0.000000
     9  N    2.481921   1.448620   2.483304   0.000000
    10  C    3.659609   2.496861   3.026064   1.450507   0.000000
    11  C    3.980919   2.960139   3.181488   2.490425   1.411019
    12  C    5.367369   4.327453   4.348181   3.777895   2.451002
    13  C    6.288971   5.132770   5.189742   4.283133   2.832722
    14  C    6.106541   4.892885   5.106792   3.782827   2.447490
    15  C    4.930895   3.733218   4.146324   2.498150   1.406893
    16  C    3.052200   2.501731   3.666457   1.449127   2.532251
    17  C    3.217274   2.960794   3.992253   2.486228   3.756000
    18  C    4.411176   4.337385   5.380960   3.774572   4.930679
    19  C    5.262675   5.147621   6.298704   4.278961   5.188836
    20  C    5.170721   4.909755   6.113930   3.781291   4.399829
    21  C    4.186075   3.744201   4.934609   2.496124   3.031252
    22  H    6.027635   5.325074   3.925210   6.277371   6.384412
    23  H    5.065375   4.294554   3.012639   5.170468   5.524598
    24  H    5.112348   4.118500   2.741663   4.822639   4.729719
    25  H    3.399240   3.894324   3.396565   5.342152   6.151189
    26  H    2.155881   3.416632   3.876660   4.635433   5.741502
    27  H    1.087655   2.166800   3.412121   2.712131   3.938823
    28  H    3.394802   2.147090   1.084426   2.676211   2.786889
    29  H    3.449752   2.691258   2.880782   2.724212   2.173734
    30  H    5.889242   4.972162   4.864908   4.644825   3.430514
    31  H    7.338445   6.190746   6.166192   5.369814   3.919405
    32  H    7.059407   5.835700   6.043865   4.653001   3.426321
    33  H    5.209325   4.063154   4.568459   2.739516   2.170601
    34  H    2.895788   2.682887   3.465040   2.721016   4.063673
    35  H    4.931631   4.981605   5.905490   4.641489   5.864628
    36  H    6.249408   6.208525   7.349175   5.366194   6.248986
    37  H    6.110251   5.853883   7.064349   4.651026   5.054419
    38  H    4.596877   4.073328   5.208385   2.737989   2.780528
                   11         12         13         14         15
    11  C    0.000000
    12  C    1.397678   0.000000
    13  C    2.415519   1.390301   0.000000
    14  C    2.780326   2.406165   1.392835   0.000000
    15  C    2.403911   2.783540   2.419560   1.398924   0.000000
    16  C    3.763762   4.942112   5.201973   4.406434   3.032022
    17  C    4.965771   6.195493   6.465653   5.608945   4.212268
    18  C    6.198134   7.366129   7.501629   6.513203   5.159342
    19  C    6.471540   7.510082   7.493800   6.434434   5.194279
    20  C    5.621398   6.535522   6.454575   5.433751   4.305777
    21  C    4.225006   5.184615   5.224455   4.323600   3.124043
    22  H    6.157736   6.701397   7.420375   7.617182   7.123532
    23  H    5.682004   6.456920   7.048966   6.934857   6.199786
    24  H    4.530700   5.044548   5.693531   5.856817   5.400627
    25  H    5.979966   7.108299   8.231898   8.373672   7.430052
    26  H    5.807986   7.122677   8.204740   8.176382   7.058260
    27  H    4.372959   5.747494   6.599597   6.336441   5.125759
    28  H    2.967242   3.909150   4.570045   4.461373   3.647774
    29  H    1.088142   2.138331   3.387772   3.867938   3.401440
    30  H    2.155737   1.087525   2.152353   3.393903   3.870973
    31  H    3.401979   2.152699   1.086685   2.154146   3.405126
    32  H    3.866770   3.391738   2.152495   1.086480   2.156594
    33  H    3.402279   3.870862   3.391663   2.139705   1.088147
    34  H    5.149819   6.428707   6.814953   6.056782   4.673154
    35  H    7.113301   8.313429   8.472826   7.477396   6.116824
    36  H    7.535470   8.539790   8.458991   7.352402   6.167379
    37  H    6.199931   6.964666   6.759630   5.732906   4.792905
    38  H    3.783069   4.553338   4.531131   3.733294   2.763276
                   16         17         18         19         20
    16  C    0.000000
    17  C    1.408657   0.000000
    18  C    2.448843   1.398769   0.000000
    19  C    2.830003   2.416115   1.390395   0.000000
    20  C    2.447749   2.782197   2.406836   1.391922   0.000000
    21  C    1.407391   2.404727   2.784227   2.419135   1.400371
    22  H    7.406752   7.481410   8.762066   9.838857   9.804048
    23  H    6.089292   5.972165   7.178656   8.308526   8.411228
    24  H    6.029472   6.327111   7.654651   8.587976   8.393069
    25  H    6.207389   6.099073   7.270353   8.377888   8.471453
    26  H    5.092334   4.944845   5.900862   6.849557   6.963253
    27  H    2.853811   3.030184   4.004271   4.687780   4.576789
    28  H    3.897909   4.338263   5.704652   6.543815   6.279059
    29  H    4.070499   5.154231   6.440743   6.830605   6.073823
    30  H    5.878288   7.113130   8.319933   8.491368   7.509737
    31  H    6.263801   7.528794   8.531326   8.462508   7.379744
    32  H    5.061210   6.185461   6.935757   6.731552   5.728767
    33  H    2.774503   3.764113   4.512136   4.476772   3.690333
    34  H    2.172081   1.087187   2.138111   3.387201   3.868793
    35  H    3.428241   2.156461   1.087395   2.152836   3.394310
    36  H    3.917301   3.402613   2.152169   1.087331   2.153814
    37  H    3.426146   3.867948   3.392013   2.151982   1.085788
    38  H    2.170682   3.401405   3.870321   3.390551   2.140525
                   21         22         23         24         25
    21  C    0.000000
    22  H    8.681273   0.000000
    23  H    7.412319   1.771291   0.000000
    24  H    7.207463   1.760641   1.807212   0.000000
    25  H    7.480653   4.411618   4.163821   4.551830   0.000000
    26  H    6.158266   6.491473   5.799641   6.113281   2.477211
    27  H    3.737244   7.109745   6.096366   6.141126   4.288637
    28  H    5.073611   3.668191   2.772654   2.150087   4.302455
    29  H    4.683509   5.874561   5.535456   4.419999   5.176724
    30  H    6.147666   6.827470   6.853265   5.295010   7.260834
    31  H    6.203997   8.051672   7.830373   6.367509   9.139239
    32  H    4.811484   8.376701   7.650630   6.629923   9.368049
    33  H    2.747019   7.559255   6.429006   5.894008   7.847853
    34  H    3.401747   6.691183   5.130800   5.712683   5.311621
    35  H    3.871562   9.022932   7.370320   8.081382   7.462243
    36  H    3.405730  10.823384   9.248390   9.609683   9.309105
    37  H    2.157223  10.765723   9.411210   9.296307   9.458142
    38  H    1.086817   8.929767   7.816104   7.360818   7.857958
                   26         27         28         29         30
    26  H    0.000000
    27  H    2.469793   0.000000
    28  H    4.960940   4.299603   0.000000
    29  H    5.025657   3.916174   2.977309   0.000000
    30  H    7.427386   6.310204   4.488703   2.451673   0.000000
    31  H    9.207058   7.653443   5.494146   4.281978   2.482622
    32  H    9.162957   7.246468   5.335528   4.954345   4.293017
    33  H    7.361167   5.318584   4.096172   4.321712   4.958195
    34  H    4.420436   3.001208   3.899488   5.210553   7.283911
    35  H    6.136988   4.577616   6.272186   7.296513   9.253909
    36  H    7.701262   5.621174   7.594398   7.905018   9.527763
    37  H    7.880484   5.455059   7.183551   6.712985   7.921924
    38  H    6.594214   4.174067   5.265231   4.334383   5.486335
                   31         32         33         34         35
    31  H    0.000000
    32  H    2.481369   0.000000
    33  H    4.284743   2.453838   0.000000
    34  H    7.885555   6.694245   4.324332   0.000000
    35  H    9.506909   7.880457   5.440319   2.451363   0.000000
    36  H    9.394806   7.554687   5.384949   4.281134   2.481973
    37  H    7.593430   5.897248   4.187007   4.954509   4.293140
    38  H    5.448890   4.233386   2.640572   4.320461   4.957600
                   36         37         38
    36  H    0.000000
    37  H    2.481720   0.000000
    38  H    4.285087   2.455034   0.000000
 Stoichiometry    C19H17NO
 Framework group  C1[X(C19H17NO)]
 Deg. of freedom   108
 Full point group                 C1      NOp   1
 Largest Abelian subgroup         C1      NOp   1
 Largest concise Abelian subgroup C1      NOp   1
                         Standard orientation:                         
 ---------------------------------------------------------------------
 Center     Atomic      Atomic             Coordinates (Angstroms)
 Number     Number       Type             X           Y           Z
 ---------------------------------------------------------------------
      1          6           0        4.209931    0.117105    1.887312
      2          8           0        4.283341   -0.539975    0.629187
      3          6           0        3.089689   -0.893343    0.059585
      4          6           0        3.162334   -1.936458   -0.867197
      5          6           0        2.021909   -2.368608   -1.539218
      6          6           0        0.797424   -1.738386   -1.307253
      7          6           0        0.700167   -0.674986   -0.394047
      8          6           0        1.862053   -0.270228    0.294898
      9          7           0       -0.558186    0.011438   -0.184592
     10          6           0       -0.573492    1.461855   -0.179519
     11          6           0        0.319323    2.200529   -0.984637
     12          6           0        0.331469    3.598078   -0.970092
     13          6           0       -0.563654    4.294527   -0.165947
     14          6           0       -1.461260    3.592333    0.634814
     15          6           0       -1.455406    2.193423    0.636804
     16          6           0       -1.762111   -0.763336    0.039587
     17          6           0       -1.708786   -2.010860    0.691626
     18          6           0       -2.865599   -2.760921    0.927730
     19          6           0       -4.105190   -2.272863    0.529717
     20          6           0       -4.188020   -1.046228   -0.122932
     21          6           0       -3.026008   -0.308280   -0.380223
     22          1           0        5.234650    0.322262    2.213704
     23          1           0        3.741869   -0.533385    2.634350
     24          1           0        3.694563    1.080579    1.822624
     25          1           0        4.119202   -2.416310   -1.060189
     26          1           0        2.087619   -3.184768   -2.251288
     27          1           0       -0.079053   -2.064866   -1.862404
     28          1           0        1.780179    0.548829    1.000889
     29          1           0        1.018432    1.687934   -1.642319
     30          1           0        1.042324    4.138942   -1.590465
     31          1           0       -0.562073    5.381195   -0.160034
     32          1           0       -2.165147    4.131228    1.262965
     33          1           0       -2.145882    1.677762    1.301184
     34          1           0       -0.759487   -2.409981    1.040208
     35          1           0       -2.792827   -3.722408    1.430400
     36          1           0       -5.006582   -2.848168    0.726706
     37          1           0       -5.153549   -0.660531   -0.435868
     38          1           0       -3.122292    0.631314   -0.917868
 ---------------------------------------------------------------------
 Rotational constants (GHZ):      0.3634692      0.2564249      0.1711745
 Leave Link  202 at Tue Sep 28 18:53:35 2021, MaxMem= 1610612736 cpu:       0.1
 (Enter /sw/target/amd/app/gaussian/Gaussian09RevA.02_gcc-4.9.2/g09/l301.exe)
 Standard basis: 6-31G(d) (6D, 7F)
 Ernie: Thresh=  0.10000D-02 Tol=  0.10000D-05 Strict=F.
 There are   349 symmetry adapted basis functions of A   symmetry.
 Integral buffers will be    131072 words long.
 Raffenetti 2 integral format.
 Two-electron integral symmetry is turned on.
   349 basis functions,   656 primitive gaussians,   349 cartesian basis functions
    73 alpha electrons       73 beta electrons
       nuclear repulsion energy      1540.4801581646 Hartrees.
 IExCor=  402 DFT=T Ex+Corr=B3LYP ExCW=0 ScaHFX=  0.200000
 ScaDFX=  0.800000  0.720000  1.000000  0.810000 ScalE2=  1.000000  1.000000
 IRadAn=      0 IRanWt=     -1 IRanGd=            0 ICorTp=0
 NAtoms=   38 NActive=   38 NUniq=   38 SFac= 7.50D-01 NAtFMM=   80 NAOKFM=F Big=F
 Leave Link  301 at Tue Sep 28 18:53:35 2021, MaxMem= 1610612736 cpu:       0.1
 (Enter /sw/target/amd/app/gaussian/Gaussian09RevA.02_gcc-4.9.2/g09/l302.exe)
 NPDir=0 NMtPBC=     1 NCelOv=     1 NCel=       1 NClECP=     1 NCelD=      1
         NCelK=      1 NCelE2=     1 NClLst=     1 CellRange=     0.0.
 One-electron integrals computed using PRISM.
 NBasis=   349 RedAO= T  NBF=   349
 NBsUse=   349 1.00D-06 NBFU=   349
 Precomputing XC quadrature grid using
 IXCGrd= 2 IRadAn=           0 IRanWt=          -1 IRanGd=           0 AccXCQ= 1.00D-10.
 NRdTot=    2412 NPtTot=      306800 NUsed=      324191 NTot=      324223
 NSgBfM=   346   346   346   346   346 NAtAll=    38    38.
 Leave Link  302 at Tue Sep 28 18:53:40 2021, MaxMem= 1610612736 cpu:       4.1
 (Enter /sw/target/amd/app/gaussian/Gaussian09RevA.02_gcc-4.9.2/g09/l303.exe)
 DipDrv:  MaxL=1.
 Leave Link  303 at Tue Sep 28 18:53:41 2021, MaxMem= 1610612736 cpu:       0.3
 (Enter /sw/target/amd/app/gaussian/Gaussian09RevA.02_gcc-4.9.2/g09/l401.exe)
 Harris functional with IExCor=  402 diagonalized for initial guess.
 ExpMin= 1.61D-01 ExpMax= 5.48D+03 ExpMxC= 8.25D+02 IAcc=1 IRadAn=         1 AccDes= 0.00D+00
 HarFok:  IExCor=  402 AccDes= 0.00D+00 IRadAn=         1 IDoV= 1
 ScaDFX=  1.000000  1.000000  1.000000  1.000000
 FoFCou: FMM=F IPFlag=           0 FMFlag=      100000 FMFlg1=           0
         NFxFlg=           0 DoJE=T BraDBF=F KetDBF=T FulRan=T
         Omega=  0.000000  0.000000  1.000000  0.000000  0.000000 ICntrl=     500 IOpCl=  0
         NMat0=    1 NMatS0=    1 NMatT0=    0 NMatD0=    1 NMtDS0=    0 NMtDT0=    0
         I1Cent=           4 NGrid=           0.
 Petite list used in FoFCou.
 Harris En= -864.315266178652    
 Initial guess orbital symmetries:
       Occupied  (A) (A) (A) (A) (A) (A) (A) (A) (A) (A) (A) (A)
                 (A) (A) (A) (A) (A) (A) (A) (A) (A) (A) (A) (A)
                 (A) (A) (A) (A) (A) (A) (A) (A) (A) (A) (A) (A)
                 (A) (A) (A) (A) (A) (A) (A) (A) (A) (A) (A) (A)
                 (A) (A) (A) (A) (A) (A) (A) (A) (A) (A) (A) (A)
                 (A) (A) (A) (A) (A) (A) (A) (A) (A) (A) (A) (A)
                 (A)
       Virtual   (A) (A) (A) (A) (A) (A) (A) (A) (A) (A) (A) (A)
                 (A) (A) (A) (A) (A) (A) (A) (A) (A) (A) (A) (A)
                 (A) (A) (A) (A) (A) (A) (A) (A) (A) (A) (A) (A)
                 (A) (A) (A) (A) (A) (A) (A) (A) (A) (A) (A) (A)
                 (A) (A) (A) (A) (A) (A) (A) (A) (A) (A) (A) (A)
                 (A) (A) (A) (A) (A) (A) (A) (A) (A) (A) (A) (A)
                 (A) (A) (A) (A) (A) (A) (A) (A) (A) (A) (A) (A)
                 (A) (A) (A) (A) (A) (A) (A) (A) (A) (A) (A) (A)
                 (A) (A) (A) (A) (A) (A) (A) (A) (A) (A) (A) (A)
                 (A) (A) (A) (A) (A) (A) (A) (A) (A) (A) (A) (A)
                 (A) (A) (A) (A) (A) (A) (A) (A) (A) (A) (A) (A)
                 (A) (A) (A) (A) (A) (A) (A) (A) (A) (A) (A) (A)
                 (A) (A) (A) (A) (A) (A) (A) (A) (A) (A) (A) (A)
                 (A) (A) (A) (A) (A) (A) (A) (A) (A) (A) (A) (A)
                 (A) (A) (A) (A) (A) (A) (A) (A) (A) (A) (A) (A)
                 (A) (A) (A) (A) (A) (A) (A) (A) (A) (A) (A) (A)
                 (A) (A) (A) (A) (A) (A) (A) (A) (A) (A) (A) (A)
                 (A) (A) (A) (A) (A) (A) (A) (A) (A) (A) (A) (A)
                 (A) (A) (A) (A) (A) (A) (A) (A) (A) (A) (A) (A)
                 (A) (A) (A) (A) (A) (A) (A) (A) (A) (A) (A) (A)
                 (A) (A) (A) (A) (A) (A) (A) (A) (A) (A) (A) (A)
                 (A) (A) (A) (A) (A) (A) (A) (A) (A) (A) (A) (A)
                 (A) (A) (A) (A) (A) (A) (A) (A) (A) (A) (A) (A)
 The electronic state of the initial guess is 1-A.
 Leave Link  401 at Tue Sep 28 18:53:55 2021, MaxMem= 1610612736 cpu:      18.1
 (Enter /sw/target/amd/app/gaussian/Gaussian09RevA.02_gcc-4.9.2/g09/l502.exe)
 Closed shell SCF:
 Requested convergence on RMS density matrix=1.00D-08 within  64 cycles.
 Requested convergence on MAX density matrix=1.00D-06.
 Requested convergence on             energy=1.00D-06.
 No special actions if energy rises.
 Using DIIS extrapolation, IDIIS=  1040.
 Integral symmetry usage will be decided dynamically.
       323836 words used for storage of precomputed grid.
 IEnd=      699508 IEndB=      699508 NGot=  1610612736 MDV=  1610039603
 LenX=  1610039603 LenY=  1609917361
 Fock matrices will be formed incrementally for  20 cycles.
 Integral accuracy reduced to 1.0D-05 until final iterations.

 Cycle   1  Pass 0  IDiag  1:
 FoFCou: FMM=F IPFlag=           0 FMFlag=      100000 FMFlg1=           0
         NFxFlg=           0 DoJE=F BraDBF=F KetDBF=F FulRan=T
         Omega=  0.000000  0.000000  1.000000  0.000000  0.000000 ICntrl=       0 IOpCl=  0
         NMat0=    1 NMatS0=    1 NMatT0=    0 NMatD0=    1 NMtDS0=    0 NMtDT0=    0
         I1Cent=           0 NGrid=           0.
 Symmetry not used in FoFCou.
 E= -863.724079217326    
 DIIS: error= 2.46D-02 at cycle   1 NSaved=   1.
 NSaved= 1 IEnMin= 1 EnMin= -863.724079217326     IErMin= 1 ErrMin= 2.46D-02
 ErrMax= 2.46D-02 EMaxC= 1.00D-01 BMatC= 4.47D-01 BMatP= 4.47D-01
 IDIUse=3 WtCom= 7.54D-01 WtEn= 2.46D-01
 Coeff-Com:  0.100D+01
 Coeff-En:   0.100D+01
 Coeff:      0.100D+01
 Gap=     0.222 Goal=   None    Shift=    0.000
 GapD=    0.222 DampG=1.000 DampE=0.500 DampFc=0.5000 IDamp=-1.
 Damping current iteration by 5.00D-01
 RMSDP=4.49D-03 MaxDP=1.30D-01              OVMax= 2.45D-01

 Cycle   2  Pass 0  IDiag  1:
 RMSU=  1.56D-03    CP:  9.75D-01
 E= -863.932955232721     Delta-E=       -0.208876015396 Rises=F Damp=T
 DIIS: error= 6.15D-03 at cycle   2 NSaved=   2.
 NSaved= 2 IEnMin= 2 EnMin= -863.932955232721     IErMin= 2 ErrMin= 6.15D-03
 ErrMax= 6.15D-03 EMaxC= 1.00D-01 BMatC= 3.98D-02 BMatP= 4.47D-01
 IDIUse=3 WtCom= 9.39D-01 WtEn= 6.15D-02
 Coeff-Com:  0.779D-01 0.922D+00
 Coeff-En:   0.123D+00 0.877D+00
 Coeff:      0.806D-01 0.919D+00
 Gap=     0.173 Goal=   None    Shift=    0.000
 RMSDP=1.59D-03 MaxDP=9.27D-02 DE=-2.09D-01 OVMax= 2.54D-01

 Cycle   3  Pass 0  IDiag  1:
 RMSU=  1.08D-03    CP:  9.66D-01  8.01D-01
 E= -864.133693989922     Delta-E=       -0.200738757201 Rises=F Damp=F
 DIIS: error= 1.22D-02 at cycle   3 NSaved=   3.
 NSaved= 3 IEnMin= 3 EnMin= -864.133693989922     IErMin= 2 ErrMin= 6.15D-03
 ErrMax= 1.22D-02 EMaxC= 1.00D-01 BMatC= 7.20D-02 BMatP= 3.98D-02
 IDIUse=2 WtCom= 0.00D+00 WtEn= 1.00D+00
 Coeff-En:   0.000D+00 0.000D+00 0.100D+01
 Coeff:      0.000D+00 0.000D+00 0.100D+01
 Gap=     0.249 Goal=   None    Shift=    0.000
 RMSDP=2.98D-03 MaxDP=1.51D-01 DE=-2.01D-01 OVMax= 2.59D-01

 Cycle   4  Pass 0  IDiag  1:
 RMSU=  1.02D-03    CP:  9.68D-01  1.27D+00 -5.73D-01
 E= -863.756700359341     Delta-E=        0.376993630581 Rises=F Damp=F
 DIIS: error= 3.13D-02 at cycle   4 NSaved=   4.
 NSaved= 4 IEnMin= 3 EnMin= -864.133693989922     IErMin= 2 ErrMin= 6.15D-03
 ErrMax= 3.13D-02 EMaxC= 1.00D-01 BMatC= 4.18D-01 BMatP= 3.98D-02
 IDIUse=2 WtCom= 0.00D+00 WtEn= 1.00D+00
 Coeff-En:   0.000D+00 0.000D+00 0.792D+00 0.208D+00
 Coeff:      0.000D+00 0.000D+00 0.792D+00 0.208D+00
 Gap=     0.191 Goal=   None    Shift=    0.000
 RMSDP=1.53D-03 MaxDP=7.57D-02 DE= 3.77D-01 OVMax= 1.56D-01

 Cycle   5  Pass 0  IDiag  1:
 RMSU=  1.97D-04    CP:  9.68D-01  1.01D+00  1.87D-01  4.74D-01
 E= -864.176081373065     Delta-E=       -0.419381013724 Rises=F Damp=F
 DIIS: error= 8.70D-03 at cycle   5 NSaved=   5.
 NSaved= 5 IEnMin= 5 EnMin= -864.176081373065     IErMin= 2 ErrMin= 6.15D-03
 ErrMax= 8.70D-03 EMaxC= 1.00D-01 BMatC= 3.45D-02 BMatP= 3.98D-02
 IDIUse=3 WtCom= 9.13D-01 WtEn= 8.70D-02
 Coeff-Com:  0.194D-02 0.142D-01 0.332D+00-0.753D-01 0.727D+00
 Coeff-En:   0.000D+00 0.000D+00 0.365D+00 0.000D+00 0.635D+00
 Coeff:      0.177D-02 0.130D-01 0.335D+00-0.687D-01 0.719D+00
 Gap=     0.174 Goal=   None    Shift=    0.000
 RMSDP=6.18D-04 MaxDP=3.64D-02 DE=-4.19D-01 OVMax= 6.85D-02

 Cycle   6  Pass 0  IDiag  1:
 RMSU=  6.36D-05    CP:  9.67D-01  9.18D-01  5.16D-01  2.77D-01  7.69D-01
 E= -864.212963923828     Delta-E=       -0.036882550763 Rises=F Damp=F
 DIIS: error= 5.76D-04 at cycle   6 NSaved=   6.
 NSaved= 6 IEnMin= 6 EnMin= -864.212963923828     IErMin= 6 ErrMin= 5.76D-04
 ErrMax= 5.76D-04 EMaxC= 1.00D-01 BMatC= 3.01D-04 BMatP= 3.45D-02
 IDIUse=3 WtCom= 9.94D-01 WtEn= 5.76D-03
 Coeff-Com: -0.168D-02 0.821D-02 0.138D+00-0.718D-01 0.436D+00 0.491D+00
 Coeff-En:   0.000D+00 0.000D+00 0.000D+00 0.000D+00 0.000D+00 0.100D+01
 Coeff:     -0.167D-02 0.816D-02 0.137D+00-0.714D-01 0.434D+00 0.494D+00
 Gap=     0.172 Goal=   None    Shift=    0.000
 RMSDP=5.37D-05 MaxDP=3.10D-03 DE=-3.69D-02 OVMax= 6.10D-03

 Cycle   7  Pass 0  IDiag  1:
 RMSU=  1.47D-05    CP:  9.68D-01  9.17D-01  5.16D-01  2.70D-01  8.41D-01
                    CP:  5.08D-01
 E= -864.213253593508     Delta-E=       -0.000289669680 Rises=F Damp=F
 DIIS: error= 1.16D-04 at cycle   7 NSaved=   7.
 NSaved= 7 IEnMin= 7 EnMin= -864.213253593508     IErMin= 7 ErrMin= 1.16D-04
 ErrMax= 1.16D-04 EMaxC= 1.00D-01 BMatC= 7.75D-06 BMatP= 3.01D-04
 IDIUse=3 WtCom= 9.99D-01 WtEn= 1.16D-03
 Coeff-Com: -0.263D-03 0.848D-03 0.410D-01-0.214D-01 0.127D+00 0.200D+00
 Coeff-Com:  0.653D+00
 Coeff-En:   0.000D+00 0.000D+00 0.000D+00 0.000D+00 0.000D+00 0.000D+00
 Coeff-En:   0.100D+01
 Coeff:     -0.263D-03 0.847D-03 0.409D-01-0.214D-01 0.126D+00 0.200D+00
 Coeff:      0.653D+00
 Gap=     0.172 Goal=   None    Shift=    0.000
 RMSDP=1.11D-05 MaxDP=4.43D-04 DE=-2.90D-04 OVMax= 1.04D-03

 Cycle   8  Pass 0  IDiag  1:
 RMSU=  5.48D-06    CP:  9.68D-01  9.17D-01  5.17D-01  2.71D-01  8.35D-01
                    CP:  5.56D-01  7.27D-01
 E= -864.213259146861     Delta-E=       -0.000005553353 Rises=F Damp=F
 DIIS: error= 4.78D-05 at cycle   8 NSaved=   8.
 NSaved= 8 IEnMin= 8 EnMin= -864.213259146861     IErMin= 8 ErrMin= 4.78D-05
 ErrMax= 4.78D-05 EMaxC= 1.00D-01 BMatC= 2.13D-06 BMatP= 7.75D-06
 IDIUse=1 WtCom= 1.00D+00 WtEn= 0.00D+00
 Coeff-Com:  0.174D-03-0.923D-03 0.485D-02-0.220D-02 0.110D-01 0.542D-01
 Coeff-Com:  0.419D+00 0.514D+00
 Coeff:      0.174D-03-0.923D-03 0.485D-02-0.220D-02 0.110D-01 0.542D-01
 Coeff:      0.419D+00 0.514D+00
 Gap=     0.172 Goal=   None    Shift=    0.000
 RMSDP=4.49D-06 MaxDP=2.00D-04 DE=-5.55D-06 OVMax= 3.48D-04

 Initial convergence to 1.0D-05 achieved.  Increase integral accuracy.
 Cycle   9  Pass 1  IDiag  1:
 E= -864.213148858790     Delta-E=        0.000110288071 Rises=F Damp=F
 DIIS: error= 3.49D-05 at cycle   1 NSaved=   1.
 NSaved= 1 IEnMin= 1 EnMin= -864.213148858790     IErMin= 1 ErrMin= 3.49D-05
 ErrMax= 3.49D-05 EMaxC= 1.00D-01 BMatC= 4.08D-07 BMatP= 4.08D-07
 IDIUse=1 WtCom= 1.00D+00 WtEn= 0.00D+00
 Coeff-Com:  0.100D+01
 Coeff:      0.100D+01
 Gap=     0.172 Goal=   None    Shift=    0.000
 RMSDP=4.49D-06 MaxDP=2.00D-04 DE= 1.10D-04 OVMax= 2.56D-04

 Cycle  10  Pass 1  IDiag  1:
 RMSU=  1.13D-05    CP:  1.00D+00
 E= -864.213149059975     Delta-E=       -0.000000201185 Rises=F Damp=F
 DIIS: error= 2.62D-05 at cycle   2 NSaved=   2.
 NSaved= 2 IEnMin= 2 EnMin= -864.213149059975     IErMin= 2 ErrMin= 2.62D-05
 ErrMax= 2.62D-05 EMaxC= 1.00D-01 BMatC= 2.56D-07 BMatP= 4.08D-07
 IDIUse=1 WtCom= 1.00D+00 WtEn= 0.00D+00
 Coeff-Com:  0.416D+00 0.584D+00
 Coeff:      0.416D+00 0.584D+00
 Gap=     0.172 Goal=   None    Shift=    0.000
 RMSDP=2.81D-06 MaxDP=9.53D-05 DE=-2.01D-07 OVMax= 2.59D-04

 Cycle  11  Pass 1  IDiag  1:
 RMSU=  1.98D-06    CP:  1.00D+00  9.87D-01
 E= -864.213149181298     Delta-E=       -0.000000121323 Rises=F Damp=F
 DIIS: error= 2.16D-05 at cycle   3 NSaved=   3.
 NSaved= 3 IEnMin= 3 EnMin= -864.213149181298     IErMin= 3 ErrMin= 2.16D-05
 ErrMax= 2.16D-05 EMaxC= 1.00D-01 BMatC= 1.45D-07 BMatP= 2.56D-07
 IDIUse=1 WtCom= 1.00D+00 WtEn= 0.00D+00
 Coeff-Com:  0.282D-02 0.428D+00 0.569D+00
 Coeff:      0.282D-02 0.428D+00 0.569D+00
 Gap=     0.172 Goal=   None    Shift=    0.000
 RMSDP=1.35D-06 MaxDP=3.59D-05 DE=-1.21D-07 OVMax= 1.16D-04

 Cycle  12  Pass 1  IDiag  1:
 RMSU=  3.33D-07    CP:  1.00D+00  1.00D+00  5.57D-01
 E= -864.213149340598     Delta-E=       -0.000000159300 Rises=F Damp=F
 DIIS: error= 3.29D-06 at cycle   4 NSaved=   4.
 NSaved= 4 IEnMin= 4 EnMin= -864.213149340598     IErMin= 4 ErrMin= 3.29D-06
 ErrMax= 3.29D-06 EMaxC= 1.00D-01 BMatC= 8.16D-09 BMatP= 1.45D-07
 IDIUse=1 WtCom= 1.00D+00 WtEn= 0.00D+00
 Coeff-Com: -0.112D-01 0.258D+00 0.365D+00 0.388D+00
 Coeff:     -0.112D-01 0.258D+00 0.365D+00 0.388D+00
 Gap=     0.172 Goal=   None    Shift=    0.000
 RMSDP=3.32D-07 MaxDP=1.81D-05 DE=-1.59D-07 OVMax= 3.39D-05

 Cycle  13  Pass 1  IDiag  1:
 RMSU=  1.36D-07    CP:  1.00D+00  1.00D+00  5.87D-01  4.54D-01
 E= -864.213149348435     Delta-E=       -0.000000007838 Rises=F Damp=F
 DIIS: error= 8.95D-07 at cycle   5 NSaved=   5.
 NSaved= 5 IEnMin= 5 EnMin= -864.213149348435     IErMin= 5 ErrMin= 8.95D-07
 ErrMax= 8.95D-07 EMaxC= 1.00D-01 BMatC= 3.98D-10 BMatP= 8.16D-09
 IDIUse=1 WtCom= 1.00D+00 WtEn= 0.00D+00
 Coeff-Com: -0.649D-02 0.119D+00 0.172D+00 0.236D+00 0.480D+00
 Coeff:     -0.649D-02 0.119D+00 0.172D+00 0.236D+00 0.480D+00
 Gap=     0.172 Goal=   None    Shift=    0.000
 RMSDP=8.76D-08 MaxDP=3.13D-06 DE=-7.84D-09 OVMax= 8.61D-06

 Cycle  14  Pass 1  IDiag  1:
 RMSU=  4.30D-08    CP:  1.00D+00  1.00D+00  5.86D-01  4.98D-01  6.90D-01
 E= -864.213149348881     Delta-E=       -0.000000000446 Rises=F Damp=F
 DIIS: error= 2.89D-07 at cycle   6 NSaved=   6.
 NSaved= 6 IEnMin= 6 EnMin= -864.213149348881     IErMin= 6 ErrMin= 2.89D-07
 ErrMax= 2.89D-07 EMaxC= 1.00D-01 BMatC= 4.76D-11 BMatP= 3.98D-10
 IDIUse=1 WtCom= 1.00D+00 WtEn= 0.00D+00
 Coeff-Com: -0.205D-02 0.274D-01 0.411D-01 0.783D-01 0.288D+00 0.567D+00
 Coeff:     -0.205D-02 0.274D-01 0.411D-01 0.783D-01 0.288D+00 0.567D+00
 Gap=     0.172 Goal=   None    Shift=    0.000
 RMSDP=2.45D-08 MaxDP=1.01D-06 DE=-4.46D-10 OVMax= 2.23D-06

 Cycle  15  Pass 1  IDiag  1:
 RMSU=  1.09D-08    CP:  1.00D+00  1.00D+00  5.86D-01  5.00D-01  7.46D-01
                    CP:  7.44D-01
 E= -864.213149348933     Delta-E=       -0.000000000053 Rises=F Damp=F
 DIIS: error= 6.16D-08 at cycle   7 NSaved=   7.
 NSaved= 7 IEnMin= 7 EnMin= -864.213149348933     IErMin= 7 ErrMin= 6.16D-08
 ErrMax= 6.16D-08 EMaxC= 1.00D-01 BMatC= 3.35D-12 BMatP= 4.76D-11
 IDIUse=1 WtCom= 1.00D+00 WtEn= 0.00D+00
 Coeff-Com: -0.425D-03 0.270D-02 0.476D-02 0.177D-01 0.972D-01 0.281D+00
 Coeff-Com:  0.597D+00
 Coeff:     -0.425D-03 0.270D-02 0.476D-02 0.177D-01 0.972D-01 0.281D+00
 Coeff:      0.597D+00
 Gap=     0.172 Goal=   None    Shift=    0.000
 RMSDP=7.58D-09 MaxDP=3.13D-07 DE=-5.28D-11 OVMax= 7.29D-07

 SCF Done:  E(RB3LYP) =  -864.213149349     A.U. after   15 cycles
             Convg  =    0.7584D-08             -V/T =  2.0100
 KE= 8.556374681837D+02 PE=-5.085264348200D+03 EE= 1.824933572503D+03
 Leave Link  502 at Tue Sep 28 19:04:19 2021, MaxMem= 1610612736 cpu:     799.4
 (Enter /sw/target/amd/app/gaussian/Gaussian09RevA.02_gcc-4.9.2/g09/l508.exe)
 QCSCF skips out because SCF is already converged.
 Leave Link  508 at Tue Sep 28 19:04:20 2021, MaxMem= 1610612736 cpu:       0.0
 (Enter /sw/target/amd/app/gaussian/Gaussian09RevA.02_gcc-4.9.2/g09/l601.exe)
 Copying SCF densities to generalized density rwf, IOpCl= 0 IROHF=0.

 **********************************************************************

            Population analysis using the SCF density.

 **********************************************************************

 Orbital symmetries:
       Occupied  (A) (A) (A) (A) (A) (A) (A) (A) (A) (A) (A) (A)
                 (A) (A) (A) (A) (A) (A) (A) (A) (A) (A) (A) (A)
                 (A) (A) (A) (A) (A) (A) (A) (A) (A) (A) (A) (A)
                 (A) (A) (A) (A) (A) (A) (A) (A) (A) (A) (A) (A)
                 (A) (A) (A) (A) (A) (A) (A) (A) (A) (A) (A) (A)
                 (A) (A) (A) (A) (A) (A) (A) (A) (A) (A) (A) (A)
                 (A)
       Virtual   (A) (A) (A) (A) (A) (A) (A) (A) (A) (A) (A) (A)
                 (A) (A) (A) (A) (A) (A) (A) (A) (A) (A) (A) (A)
                 (A) (A) (A) (A) (A) (A) (A) (A) (A) (A) (A) (A)
                 (A) (A) (A) (A) (A) (A) (A) (A) (A) (A) (A) (A)
                 (A) (A) (A) (A) (A) (A) (A) (A) (A) (A) (A) (A)
                 (A) (A) (A) (A) (A) (A) (A) (A) (A) (A) (A) (A)
                 (A) (A) (A) (A) (A) (A) (A) (A) (A) (A) (A) (A)
                 (A) (A) (A) (A) (A) (A) (A) (A) (A) (A) (A) (A)
                 (A) (A) (A) (A) (A) (A) (A) (A) (A) (A) (A) (A)
                 (A) (A) (A) (A) (A) (A) (A) (A) (A) (A) (A) (A)
                 (A) (A) (A) (A) (A) (A) (A) (A) (A) (A) (A) (A)
                 (A) (A) (A) (A) (A) (A) (A) (A) (A) (A) (A) (A)
                 (A) (A) (A) (A) (A) (A) (A) (A) (A) (A) (A) (A)
                 (A) (A) (A) (A) (A) (A) (A) (A) (A) (A) (A) (A)
                 (A) (A) (A) (A) (A) (A) (A) (A) (A) (A) (A) (A)
                 (A) (A) (A) (A) (A) (A) (A) (A) (A) (A) (A) (A)
                 (A) (A) (A) (A) (A) (A) (A) (A) (A) (A) (A) (A)
                 (A) (A) (A) (A) (A) (A) (A) (A) (A) (A) (A) (A)
                 (A) (A) (A) (A) (A) (A) (A) (A) (A) (A) (A) (A)
                 (A) (A) (A) (A) (A) (A) (A) (A) (A) (A) (A) (A)
                 (A) (A) (A) (A) (A) (A) (A) (A) (A) (A) (A) (A)
                 (A) (A) (A) (A) (A) (A) (A) (A) (A) (A) (A) (A)
                 (A) (A) (A) (A) (A) (A) (A) (A) (A) (A) (A) (A)
 The electronic state is 1-A.
 Alpha  occ. eigenvalues --  -19.17528 -14.36875 -10.24609 -10.23853 -10.23314
 Alpha  occ. eigenvalues --  -10.23252 -10.23252 -10.19029 -10.18846 -10.18800
 Alpha  occ. eigenvalues --  -10.18775 -10.18741 -10.18715 -10.18637 -10.18614
 Alpha  occ. eigenvalues --  -10.18570 -10.18540 -10.18259 -10.18216 -10.18129
 Alpha  occ. eigenvalues --  -10.18046  -1.06061  -0.94760  -0.84985  -0.84945
 Alpha  occ. eigenvalues --   -0.82998  -0.75733  -0.75283  -0.74446  -0.73895
 Alpha  occ. eigenvalues --   -0.73787  -0.71127  -0.68919  -0.62321  -0.61672
 Alpha  occ. eigenvalues --   -0.59924  -0.59621  -0.59111  -0.56898  -0.53471
 Alpha  occ. eigenvalues --   -0.52856  -0.50294  -0.48668  -0.48056  -0.47249
 Alpha  occ. eigenvalues --   -0.46923  -0.46776  -0.44927  -0.44444  -0.43918
 Alpha  occ. eigenvalues --   -0.42948  -0.42418  -0.41668  -0.41553  -0.41188
 Alpha  occ. eigenvalues --   -0.37713  -0.37330  -0.36961  -0.36234  -0.36031
 Alpha  occ. eigenvalues --   -0.35858  -0.35027  -0.34168  -0.34072  -0.33473
 Alpha  occ. eigenvalues --   -0.31791  -0.29867  -0.25611  -0.25308  -0.24789
 Alpha  occ. eigenvalues --   -0.24318  -0.22265  -0.18268
 Alpha virt. eigenvalues --   -0.01113  -0.00826  -0.00518   0.00783   0.01460
 Alpha virt. eigenvalues --    0.03653   0.09070   0.09725   0.09994   0.10870
 Alpha virt. eigenvalues --    0.13187   0.14326   0.14703   0.14850   0.15327
 Alpha virt. eigenvalues --    0.15378   0.15559   0.16258   0.16287   0.16734
 Alpha virt. eigenvalues --    0.18100   0.18452   0.18780   0.19080   0.19146
 Alpha virt. eigenvalues --    0.19483   0.19692   0.20975   0.24543   0.25188
 Alpha virt. eigenvalues --    0.27361   0.28881   0.29659   0.30641   0.30792
 Alpha virt. eigenvalues --    0.30888   0.31310   0.33172   0.33325   0.36230
 Alpha virt. eigenvalues --    0.37407   0.39197   0.40558   0.44768   0.45638
 Alpha virt. eigenvalues --    0.47723   0.50281   0.51180   0.52008   0.52078
 Alpha virt. eigenvalues --    0.53296   0.53951   0.54395   0.54786   0.55090
 Alpha virt. eigenvalues --    0.55555   0.56370   0.57155   0.57570   0.57792
 Alpha virt. eigenvalues --    0.58162   0.58778   0.59441   0.59954   0.60413
 Alpha virt. eigenvalues --    0.60518   0.60805   0.61042   0.61404   0.61497
 Alpha virt. eigenvalues --    0.61862   0.61938   0.62535   0.62845   0.63223
 Alpha virt. eigenvalues --    0.63624   0.63816   0.64611   0.65497   0.67141
 Alpha virt. eigenvalues --    0.67588   0.69068   0.69869   0.70989   0.75010
 Alpha virt. eigenvalues --    0.79023   0.79874   0.80624   0.81086   0.81832
 Alpha virt. eigenvalues --    0.83631   0.83724   0.84177   0.84497   0.84628
 Alpha virt. eigenvalues --    0.84807   0.84863   0.85271   0.85883   0.87127
 Alpha virt. eigenvalues --    0.87353   0.88853   0.89066   0.89586   0.90369
 Alpha virt. eigenvalues --    0.91994   0.92390   0.93283   0.93881   0.94881
 Alpha virt. eigenvalues --    0.95384   0.96472   0.97409   0.97942   1.00313
 Alpha virt. eigenvalues --    1.01525   1.02328   1.02775   1.04841   1.05695
 Alpha virt. eigenvalues --    1.06790   1.07481   1.10636   1.11648   1.12850
 Alpha virt. eigenvalues --    1.15574   1.15770   1.16461   1.17061   1.17966
 Alpha virt. eigenvalues --    1.18511   1.19211   1.19913   1.22199   1.22631
 Alpha virt. eigenvalues --    1.25732   1.26567   1.28511   1.29347   1.30776
 Alpha virt. eigenvalues --    1.35476   1.38011   1.39290   1.41432   1.43040
 Alpha virt. eigenvalues --    1.43223   1.43638   1.45853   1.46218   1.46892
 Alpha virt. eigenvalues --    1.47808   1.48133   1.49108   1.49938   1.50131
 Alpha virt. eigenvalues --    1.51059   1.51627   1.51706   1.52025   1.52556
 Alpha virt. eigenvalues --    1.53486   1.64824   1.69411   1.70834   1.72767
 Alpha virt. eigenvalues --    1.73999   1.75261   1.78412   1.78570   1.80215
 Alpha virt. eigenvalues --    1.80772   1.81712   1.82889   1.86126   1.87393
 Alpha virt. eigenvalues --    1.89253   1.90280   1.90446   1.91127   1.92941
 Alpha virt. eigenvalues --    1.93549   1.93709   1.95008   1.96175   1.96665
 Alpha virt. eigenvalues --    1.98268   1.98350   2.00156   2.02920   2.05953
 Alpha virt. eigenvalues --    2.06747   2.07481   2.09892   2.10947   2.13434
 Alpha virt. eigenvalues --    2.13730   2.14215   2.14624   2.14971   2.15603
 Alpha virt. eigenvalues --    2.16199   2.16442   2.18239   2.20638   2.22342
 Alpha virt. eigenvalues --    2.23435   2.24200   2.25477   2.29004   2.29382
 Alpha virt. eigenvalues --    2.29837   2.31086   2.31426   2.31542   2.32320
 Alpha virt. eigenvalues --    2.33103   2.36608   2.40539   2.43598   2.49209
 Alpha virt. eigenvalues --    2.50872   2.51731   2.52535   2.57003   2.58216
 Alpha virt. eigenvalues --    2.59322   2.59780   2.61519   2.62264   2.64989
 Alpha virt. eigenvalues --    2.65129   2.68198   2.69161   2.69595   2.72595
 Alpha virt. eigenvalues --    2.72927   2.74109   2.75272   2.75409   2.75966
 Alpha virt. eigenvalues --    2.77029   2.79763   2.81640   2.82665   2.88288
 Alpha virt. eigenvalues --    2.93686   2.96157   2.99435   3.00076   3.09564
 Alpha virt. eigenvalues --    3.20076   3.22379   3.40380   3.42696   3.43298
 Alpha virt. eigenvalues --    4.04926   4.09343   4.09436   4.10569   4.12301
 Alpha virt. eigenvalues --    4.12712   4.16847   4.16961   4.17220   4.20896
 Alpha virt. eigenvalues --    4.25103   4.31133   4.34657   4.35268   4.37809
 Alpha virt. eigenvalues --    4.38845   4.42460   4.51110   4.69688   4.73267
 Alpha virt. eigenvalues --    4.77682
          Condensed to atoms (all electrons):
              1          2          3          4          5          6
     1  C    4.898355   0.248304  -0.042930   0.003681  -0.000164   0.000009
     2  O    0.248304   8.207502   0.268878  -0.056290   0.003398   0.000275
     3  C   -0.042930   0.268878   4.531088   0.545297  -0.009266  -0.039258
     4  C    0.003681  -0.056290   0.545297   4.993079   0.527063  -0.042123
     5  C   -0.000164   0.003398  -0.009266   0.527063   4.877818   0.508594
     6  C    0.000009   0.000275  -0.039258  -0.042123   0.508594   5.026186
     7  C    0.000477   0.002958   0.009682  -0.032196  -0.008685   0.533833
     8  C   -0.005867  -0.053361   0.439389  -0.079090  -0.039579  -0.078236
     9  N   -0.000009  -0.000021   0.003873   0.000364   0.005166  -0.064602
    10  C   -0.000005  -0.000001   0.000004   0.000037  -0.000017   0.001028
    11  C   -0.000010   0.000004  -0.000457   0.000016  -0.000054   0.000932
    12  C   -0.000000   0.000000  -0.000018  -0.000001   0.000000  -0.000003
    13  C   -0.000000  -0.000000  -0.000000   0.000000   0.000000   0.000000
    14  C    0.000000  -0.000000   0.000000  -0.000000  -0.000000   0.000002
    15  C    0.000001  -0.000000  -0.000012   0.000000   0.000002  -0.000245
    16  C   -0.000000   0.000000  -0.000025   0.000033  -0.000102  -0.000971
    17  C    0.000000  -0.000000  -0.000041   0.000005  -0.000277  -0.005038
    18  C    0.000000  -0.000000   0.000000  -0.000001  -0.000010  -0.000032
    19  C   -0.000000  -0.000000  -0.000000   0.000000  -0.000000   0.000001
    20  C    0.000000   0.000000  -0.000000  -0.000000   0.000000  -0.000025
    21  C   -0.000000  -0.000000   0.000002   0.000000  -0.000008   0.000524
    22  H    0.382521  -0.031160   0.003396  -0.000127   0.000003   0.000000
    23  H    0.365889  -0.038424  -0.001064   0.000729  -0.000025  -0.000006
    24  H    0.364407  -0.034249  -0.008027  -0.000171   0.000017  -0.000006
    25  H   -0.000174  -0.000336  -0.037214   0.345978  -0.043960   0.005417
    26  H    0.000003  -0.000062   0.003928  -0.039147   0.359211  -0.038394
    27  H   -0.000000   0.000002   0.000407   0.004775  -0.043651   0.352696
    28  H    0.004211  -0.006410  -0.044905   0.004905   0.000230   0.006079
    29  H   -0.000002  -0.000005  -0.000360   0.000026   0.000019   0.000785
    30  H   -0.000000   0.000000   0.000000  -0.000000  -0.000000  -0.000000
    31  H   -0.000000  -0.000000   0.000000  -0.000000  -0.000000   0.000000
    32  H    0.000000   0.000000  -0.000000  -0.000000   0.000000  -0.000000
    33  H    0.000000   0.000000   0.000000   0.000000  -0.000000  -0.000004
    34  H   -0.000000  -0.000000  -0.000014  -0.000004  -0.000118   0.002178
    35  H    0.000000   0.000000  -0.000000  -0.000000   0.000000   0.000004
    36  H    0.000000   0.000000   0.000000  -0.000000   0.000000   0.000000
    37  H   -0.000000  -0.000000   0.000000   0.000000  -0.000000  -0.000000
    38  H    0.000000  -0.000000  -0.000000   0.000000  -0.000000   0.000004
              7          8          9         10         11         12
     1  C    0.000477  -0.005867  -0.000009  -0.000005  -0.000010  -0.000000
     2  O    0.002958  -0.053361  -0.000021  -0.000001   0.000004   0.000000
     3  C    0.009682   0.439389   0.003873   0.000004  -0.000457  -0.000018
     4  C   -0.032196  -0.079090   0.000364   0.000037   0.000016  -0.000001
     5  C   -0.008685  -0.039579   0.005166  -0.000017  -0.000054   0.000000
     6  C    0.533833  -0.078236  -0.064602   0.001028   0.000932  -0.000003
     7  C    4.600688   0.478831   0.255893  -0.032585  -0.000535   0.000039
     8  C    0.478831   5.264729  -0.054164  -0.002345  -0.005949  -0.000140
     9  N    0.255893  -0.054164   7.301954   0.259886  -0.060844   0.004750
    10  C   -0.032585  -0.002345   0.259886   4.575122   0.522407  -0.013225
    11  C   -0.000535  -0.005949  -0.060844   0.522407   5.017916   0.523746
    12  C    0.000039  -0.000140   0.004750  -0.013225   0.523746   4.860727
    13  C    0.000022   0.000004   0.000229  -0.035120  -0.037770   0.548890
    14  C   -0.000037  -0.000030   0.004745  -0.012318  -0.041345  -0.027539
    15  C    0.002288   0.000517  -0.061605   0.519833  -0.068050  -0.041656
    16  C   -0.032271   0.001063   0.257567  -0.029813   0.002641  -0.000038
    17  C   -0.000771   0.000812  -0.060239   0.002547  -0.000255   0.000002
    18  C    0.000046  -0.000005   0.004847  -0.000036   0.000002  -0.000000
    19  C    0.000019   0.000000   0.000236   0.000018   0.000000  -0.000000
    20  C   -0.000054   0.000002   0.004685   0.000050  -0.000005   0.000000
    21  C    0.002675  -0.000241  -0.061016  -0.003603   0.000552  -0.000014
    22  H    0.000003   0.000180  -0.000000   0.000000  -0.000000   0.000000
    23  H   -0.000212   0.003822   0.000000   0.000000   0.000000   0.000000
    24  H   -0.000096   0.003623   0.000010  -0.000016   0.000017   0.000000
    25  H    0.000172   0.007672   0.000003   0.000000   0.000000  -0.000000
    26  H    0.003351   0.000557  -0.000109   0.000001  -0.000000  -0.000000
    27  H   -0.037930   0.006383  -0.008691   0.000083  -0.000004   0.000000
    28  H   -0.035522   0.343121  -0.009035   0.007363   0.002456  -0.000148
    29  H    0.008192   0.002066  -0.010380  -0.037878   0.351365  -0.043095
    30  H   -0.000001   0.000004  -0.000091   0.003400  -0.038987   0.358774
    31  H   -0.000000   0.000000   0.000004   0.000680   0.005034  -0.043848
    32  H    0.000001  -0.000000  -0.000093   0.003315   0.000697   0.004792
    33  H   -0.000006   0.000004  -0.009251  -0.039413   0.005791   0.000380
    34  H    0.009291   0.000763  -0.010898  -0.000015  -0.000003  -0.000000
    35  H   -0.000001  -0.000000  -0.000093   0.000001  -0.000000   0.000000
    36  H   -0.000000   0.000000   0.000004  -0.000000   0.000000  -0.000000
    37  H    0.000001  -0.000000  -0.000092  -0.000002  -0.000000  -0.000000
    38  H    0.000008  -0.000005  -0.009074   0.006449  -0.000048  -0.000030
             13         14         15         16         17         18
     1  C   -0.000000   0.000000   0.000001  -0.000000   0.000000   0.000000
     2  O   -0.000000  -0.000000  -0.000000   0.000000  -0.000000  -0.000000
     3  C   -0.000000   0.000000  -0.000012  -0.000025  -0.000041   0.000000
     4  C    0.000000  -0.000000   0.000000   0.000033   0.000005  -0.000001
     5  C    0.000000  -0.000000   0.000002  -0.000102  -0.000277  -0.000010
     6  C    0.000000   0.000002  -0.000245  -0.000971  -0.005038  -0.000032
     7  C    0.000022  -0.000037   0.002288  -0.032271  -0.000771   0.000046
     8  C    0.000004  -0.000030   0.000517   0.001063   0.000812  -0.000005
     9  N    0.000229   0.004745  -0.061605   0.257567  -0.060239   0.004847
    10  C   -0.035120  -0.012318   0.519833  -0.029813   0.002547  -0.000036
    11  C   -0.037770  -0.041345  -0.068050   0.002641  -0.000255   0.000002
    12  C    0.548890  -0.027539  -0.041656  -0.000038   0.000002  -0.000000
    13  C    4.862533   0.549432  -0.037628   0.000014   0.000000  -0.000000
    14  C    0.549432   4.862463   0.521304   0.000065  -0.000006   0.000000
    15  C   -0.037628   0.521304   5.029040  -0.003281   0.000618  -0.000017
    16  C    0.000014   0.000065  -0.003281   4.568530   0.523266  -0.012690
    17  C    0.000000  -0.000006   0.000618   0.523266   5.017118   0.523031
    18  C   -0.000000   0.000000  -0.000017  -0.012690   0.523031   4.860250
    19  C    0.000000  -0.000000   0.000004  -0.035271  -0.037761   0.549354
    20  C   -0.000000  -0.000010  -0.000219  -0.012026  -0.041223  -0.027396
    21  C    0.000004  -0.000155  -0.006746   0.519895  -0.067538  -0.041775
    22  H   -0.000000   0.000000   0.000000   0.000000  -0.000000  -0.000000
    23  H   -0.000000  -0.000000   0.000000   0.000000  -0.000000  -0.000000
    24  H    0.000001  -0.000000  -0.000003  -0.000000   0.000000   0.000000
    25  H   -0.000000  -0.000000   0.000000  -0.000000   0.000000   0.000000
    26  H    0.000000   0.000000  -0.000000  -0.000001   0.000003   0.000000
    27  H    0.000000  -0.000000  -0.000006   0.006104   0.001845  -0.000136
    28  H   -0.000007  -0.000009   0.000336   0.000146  -0.000008   0.000000
    29  H    0.004873   0.000351   0.006009  -0.000014  -0.000003  -0.000000
    30  H   -0.043108   0.004788   0.000665   0.000001  -0.000000   0.000000
    31  H    0.358136  -0.043801   0.005040  -0.000000   0.000000  -0.000000
    32  H   -0.042824   0.358490  -0.039085  -0.000001   0.000000  -0.000000
    33  H    0.004767  -0.042286   0.351326   0.006436  -0.000042  -0.000035
    34  H    0.000000   0.000000   0.000003  -0.038347   0.350433  -0.043241
    35  H    0.000000  -0.000000  -0.000000   0.003403  -0.039114   0.358575
    36  H   -0.000000  -0.000000   0.000000   0.000685   0.005035  -0.043869
    37  H   -0.000000   0.000000   0.000004   0.003324   0.000701   0.004791
    38  H   -0.000014   0.000136   0.003963  -0.039425   0.005804   0.000383
             19         20         21         22         23         24
     1  C   -0.000000   0.000000  -0.000000   0.382521   0.365889   0.364407
     2  O   -0.000000   0.000000  -0.000000  -0.031160  -0.038424  -0.034249
     3  C   -0.000000  -0.000000   0.000002   0.003396  -0.001064  -0.008027
     4  C    0.000000  -0.000000   0.000000  -0.000127   0.000729  -0.000171
     5  C   -0.000000   0.000000  -0.000008   0.000003  -0.000025   0.000017
     6  C    0.000001  -0.000025   0.000524   0.000000  -0.000006  -0.000006
     7  C    0.000019  -0.000054   0.002675   0.000003  -0.000212  -0.000096
     8  C    0.000000   0.000002  -0.000241   0.000180   0.003822   0.003623
     9  N    0.000236   0.004685  -0.061016  -0.000000   0.000000   0.000010
    10  C    0.000018   0.000050  -0.003603   0.000000   0.000000  -0.000016
    11  C    0.000000  -0.000005   0.000552  -0.000000   0.000000   0.000017
    12  C   -0.000000   0.000000  -0.000014   0.000000   0.000000   0.000000
    13  C    0.000000  -0.000000   0.000004  -0.000000  -0.000000   0.000001
    14  C   -0.000000  -0.000010  -0.000155   0.000000  -0.000000  -0.000000
    15  C    0.000004  -0.000219  -0.006746   0.000000   0.000000  -0.000003
    16  C   -0.035271  -0.012026   0.519895   0.000000   0.000000  -0.000000
    17  C   -0.037761  -0.041223  -0.067538  -0.000000  -0.000000   0.000000
    18  C    0.549354  -0.027396  -0.041775  -0.000000  -0.000000   0.000000
    19  C    4.861282   0.549716  -0.037564  -0.000000   0.000000  -0.000000
    20  C    0.549716   4.861122   0.521214   0.000000  -0.000000   0.000000
    21  C   -0.037564   0.521214   5.028271   0.000000  -0.000000   0.000000
    22  H   -0.000000   0.000000   0.000000   0.547225  -0.032693  -0.035429
    23  H    0.000000  -0.000000  -0.000000  -0.032693   0.592169  -0.045417
    24  H   -0.000000   0.000000   0.000000  -0.035429  -0.045417   0.596717
    25  H   -0.000000   0.000000   0.000000  -0.000030   0.000033   0.000030
    26  H   -0.000000  -0.000000  -0.000000  -0.000000   0.000000  -0.000000
    27  H   -0.000001  -0.000012   0.000161  -0.000000   0.000000   0.000000
    28  H    0.000000  -0.000000  -0.000009  -0.000147   0.001090   0.003019
    29  H    0.000000   0.000000   0.000000  -0.000000   0.000000   0.000002
    30  H    0.000000  -0.000000  -0.000000  -0.000000   0.000000   0.000000
    31  H   -0.000000   0.000000   0.000000   0.000000  -0.000000   0.000000
    32  H   -0.000000   0.000000   0.000005  -0.000000   0.000000   0.000000
    33  H   -0.000015   0.000192   0.004307  -0.000000  -0.000000  -0.000000
[...]
   102    C    7  dxz    Ryd( 3d)     0.00102
   103    C    7  dyz    Ryd( 3d)     0.00060
   104    C    7  dx2y2  Ryd( 3d)     0.00071
   105    C    7  dz2    Ryd( 3d)     0.00089

   106    C    8  S      Cor( 1S)     1.99895
   107    C    8  S      Val( 2S)     0.95029
   108    C    8  S      Ryd( 3S)     0.00081
   109    C    8  S      Ryd( 4S)     0.00006
   110    C    8  px     Val( 2p)     1.06607
   111    C    8  px     Ryd( 3p)     0.00319
   112    C    8  py     Val( 2p)     1.17828
   113    C    8  py     Ryd( 3p)     0.00344
   114    C    8  pz     Val( 2p)     1.13761
   115    C    8  pz     Ryd( 3p)     0.00356
   116    C    8  dxy    Ryd( 3d)     0.00054
   117    C    8  dxz    Ryd( 3d)     0.00052
   118    C    8  dyz    Ryd( 3d)     0.00063
   119    C    8  dx2y2  Ryd( 3d)     0.00054
   120    C    8  dz2    Ryd( 3d)     0.00039

   121    N    9  S      Cor( 1S)     1.99923
   122    N    9  S      Val( 2S)     1.16925
   123    N    9  S      Ryd( 3S)     0.00069
   124    N    9  S      Ryd( 4S)     0.00003
   125    N    9  px     Val( 2p)     1.30944
   126    N    9  px     Ryd( 3p)     0.00155
   127    N    9  py     Val( 2p)     1.31240
   128    N    9  py     Ryd( 3p)     0.00143
   129    N    9  pz     Val( 2p)     1.45917
   130    N    9  pz     Ryd( 3p)     0.00746
   131    N    9  dxy    Ryd( 3d)     0.00096
   132    N    9  dxz    Ryd( 3d)     0.00059
   133    N    9  dyz    Ryd( 3d)     0.00050
   134    N    9  dx2y2  Ryd( 3d)     0.00082
   135    N    9  dz2    Ryd( 3d)     0.00065

   136    C   10  S      Cor( 1S)     1.99894
   137    C   10  S      Val( 2S)     0.83941
   138    C   10  S      Ryd( 3S)     0.00136
   139    C   10  S      Ryd( 4S)     0.00009
   140    C   10  px     Val( 2p)     1.08792
   141    C   10  px     Ryd( 3p)     0.00518
   142    C   10  py     Val( 2p)     0.85386
   143    C   10  py     Ryd( 3p)     0.00457
   144    C   10  pz     Val( 2p)     1.07285
   145    C   10  pz     Ryd( 3p)     0.00287
   146    C   10  dxy    Ryd( 3d)     0.00051
   147    C   10  dxz    Ryd( 3d)     0.00047
   148    C   10  dyz    Ryd( 3d)     0.00106
   149    C   10  dx2y2  Ryd( 3d)     0.00113
   150    C   10  dz2    Ryd( 3d)     0.00116

   151    C   11  S      Cor( 1S)     1.99902
   152    C   11  S      Val( 2S)     0.94895
   153    C   11  S      Ryd( 3S)     0.00078
   154    C   11  S      Ryd( 4S)     0.00005
   155    C   11  px     Val( 2p)     1.09593
   156    C   11  px     Ryd( 3p)     0.00467
   157    C   11  py     Val( 2p)     1.11006
   158    C   11  py     Ryd( 3p)     0.00380
   159    C   11  pz     Val( 2p)     1.11713
   160    C   11  pz     Ryd( 3p)     0.00462
   161    C   11  dxy    Ryd( 3d)     0.00065
   162    C   11  dxz    Ryd( 3d)     0.00052
   163    C   11  dyz    Ryd( 3d)     0.00076
   164    C   11  dx2y2  Ryd( 3d)     0.00043
   165    C   11  dz2    Ryd( 3d)     0.00041

   166    C   12  S      Cor( 1S)     1.99911
   167    C   12  S      Val( 2S)     0.95318
   168    C   12  S      Ryd( 3S)     0.00061
   169    C   12  S      Ryd( 4S)     0.00003
   170    C   12  px     Val( 2p)     1.10491
   171    C   12  px     Ryd( 3p)     0.00384
   172    C   12  py     Val( 2p)     1.08365
   173    C   12  py     Ryd( 3p)     0.00492
   174    C   12  pz     Val( 2p)     1.12756
   175    C   12  pz     Ryd( 3p)     0.00440
   176    C   12  dxy    Ryd( 3d)     0.00060
   177    C   12  dxz    Ryd( 3d)     0.00057
   178    C   12  dyz    Ryd( 3d)     0.00064
   179    C   12  dx2y2  Ryd( 3d)     0.00048
   180    C   12  dz2    Ryd( 3d)     0.00044

   181    C   13  S      Cor( 1S)     1.99910
   182    C   13  S      Val( 2S)     0.96601
   183    C   13  S      Ryd( 3S)     0.00048
   184    C   13  S      Ryd( 4S)     0.00003
   185    C   13  px     Val( 2p)     0.99736
   186    C   13  px     Ryd( 3p)     0.00219
   187    C   13  py     Val( 2p)     1.19426
   188    C   13  py     Ryd( 3p)     0.00500
   189    C   13  pz     Val( 2p)     1.01780
   190    C   13  pz     Ryd( 3p)     0.00291
   191    C   13  dxy    Ryd( 3d)     0.00043
   192    C   13  dxz    Ryd( 3d)     0.00041
   193    C   13  dyz    Ryd( 3d)     0.00049
   194    C   13  dx2y2  Ryd( 3d)     0.00090
   195    C   13  dz2    Ryd( 3d)     0.00087

   196    C   14  S      Cor( 1S)     1.99911
   197    C   14  S      Val( 2S)     0.95218
   198    C   14  S      Ryd( 3S)     0.00061
   199    C   14  S      Ryd( 4S)     0.00003
   200    C   14  px     Val( 2p)     1.10991
   201    C   14  px     Ryd( 3p)     0.00416
   202    C   14  py     Val( 2p)     1.08813
   203    C   14  py     Ryd( 3p)     0.00497
   204    C   14  pz     Val( 2p)     1.13186
   205    C   14  pz     Ryd( 3p)     0.00454
   206    C   14  dxy    Ryd( 3d)     0.00057
   207    C   14  dxz    Ryd( 3d)     0.00054
   208    C   14  dyz    Ryd( 3d)     0.00063
   209    C   14  dx2y2  Ryd( 3d)     0.00049
   210    C   14  dz2    Ryd( 3d)     0.00044

   211    C   15  S      Cor( 1S)     1.99902
   212    C   15  S      Val( 2S)     0.95156
   213    C   15  S      Ryd( 3S)     0.00076
   214    C   15  S      Ryd( 4S)     0.00004
   215    C   15  px     Val( 2p)     1.08506
   216    C   15  px     Ryd( 3p)     0.00430
   217    C   15  py     Val( 2p)     1.10378
   218    C   15  py     Ryd( 3p)     0.00380
   219    C   15  pz     Val( 2p)     1.11006
   220    C   15  pz     Ryd( 3p)     0.00439
   221    C   15  dxy    Ryd( 3d)     0.00072
   222    C   15  dxz    Ryd( 3d)     0.00054
   223    C   15  dyz    Ryd( 3d)     0.00078
   224    C   15  dx2y2  Ryd( 3d)     0.00042
   225    C   15  dz2    Ryd( 3d)     0.00041

   226    C   16  S      Cor( 1S)     1.99894
   227    C   16  S      Val( 2S)     0.83984
   228    C   16  S      Ryd( 3S)     0.00128
   229    C   16  S      Ryd( 4S)     0.00008
   230    C   16  px     Val( 2p)     0.92005
   231    C   16  px     Ryd( 3p)     0.00485
   232    C   16  py     Val( 2p)     1.04042
   233    C   16  py     Ryd( 3p)     0.00523
   234    C   16  pz     Val( 2p)     1.04711
   235    C   16  pz     Ryd( 3p)     0.00240
   236    C   16  dxy    Ryd( 3d)     0.00104
   237    C   16  dxz    Ryd( 3d)     0.00099
   238    C   16  dyz    Ryd( 3d)     0.00055
   239    C   16  dx2y2  Ryd( 3d)     0.00078
   240    C   16  dz2    Ryd( 3d)     0.00098

   241    C   17  S      Cor( 1S)     1.99902
   242    C   17  S      Val( 2S)     0.95343
   243    C   17  S      Ryd( 3S)     0.00074
   244    C   17  S      Ryd( 4S)     0.00005
   245    C   17  px     Val( 2p)     1.16935
   246    C   17  px     Ryd( 3p)     0.00391
   247    C   17  py     Val( 2p)     1.05121
   248    C   17  py     Ryd( 3p)     0.00373
   249    C   17  pz     Val( 2p)     1.06304
   250    C   17  pz     Ryd( 3p)     0.00354
   251    C   17  dxy    Ryd( 3d)     0.00052
   252    C   17  dxz    Ryd( 3d)     0.00067
   253    C   17  dyz    Ryd( 3d)     0.00049
   254    C   17  dx2y2  Ryd( 3d)     0.00073
   255    C   17  dz2    Ryd( 3d)     0.00046

   256    C   18  S      Cor( 1S)     1.99911
   257    C   18  S      Val( 2S)     0.95427
   258    C   18  S      Ryd( 3S)     0.00061
   259    C   18  S      Ryd( 4S)     0.00003
   260    C   18  px     Val( 2p)     1.05576
   261    C   18  px     Ryd( 3p)     0.00489
   262    C   18  py     Val( 2p)     1.14896
   263    C   18  py     Ryd( 3p)     0.00436
   264    C   18  pz     Val( 2p)     1.11218
   265    C   18  pz     Ryd( 3p)     0.00390
   266    C   18  dxy    Ryd( 3d)     0.00056
   267    C   18  dxz    Ryd( 3d)     0.00051
   268    C   18  dyz    Ryd( 3d)     0.00066
   269    C   18  dx2y2  Ryd( 3d)     0.00060
   270    C   18  dz2    Ryd( 3d)     0.00036

   271    C   19  S      Cor( 1S)     1.99910
   272    C   19  S      Val( 2S)     0.96665
   273    C   19  S      Ryd( 3S)     0.00049
   274    C   19  S      Ryd( 4S)     0.00003
   275    C   19  px     Val( 2p)     1.16013
   276    C   19  px     Ryd( 3p)     0.00474
   277    C   19  py     Val( 2p)     1.05712
   278    C   19  py     Ryd( 3p)     0.00334
   279    C   19  pz     Val( 2p)     0.99456
   280    C   19  pz     Ryd( 3p)     0.00208
   281    C   19  dxy    Ryd( 3d)     0.00079
   282    C   19  dxz    Ryd( 3d)     0.00047
   283    C   19  dyz    Ryd( 3d)     0.00041
   284    C   19  dx2y2  Ryd( 3d)     0.00064
   285    C   19  dz2    Ryd( 3d)     0.00073

   286    C   20  S      Cor( 1S)     1.99911
   287    C   20  S      Val( 2S)     0.95619
   288    C   20  S      Ryd( 3S)     0.00060
   289    C   20  S      Ryd( 4S)     0.00003
   290    C   20  px     Val( 2p)     1.14865
   291    C   20  px     Ryd( 3p)     0.00493
   292    C   20  py     Val( 2p)     1.07005
   293    C   20  py     Ryd( 3p)     0.00409
   294    C   20  pz     Val( 2p)     1.07785
   295    C   20  pz     Ryd( 3p)     0.00354
   296    C   20  dxy    Ryd( 3d)     0.00060
   297    C   20  dxz    Ryd( 3d)     0.00064
   298    C   20  dyz    Ryd( 3d)     0.00045
   299    C   20  dx2y2  Ryd( 3d)     0.00065
   300    C   20  dz2    Ryd( 3d)     0.00043

   301    C   21  S      Cor( 1S)     1.99902
   302    C   21  S      Val( 2S)     0.95220
   303    C   21  S      Ryd( 3S)     0.00077
   304    C   21  S      Ryd( 4S)     0.00004
   305    C   21  px     Val( 2p)     1.05425
   306    C   21  px     Ryd( 3p)     0.00403
   307    C   21  py     Val( 2p)     1.14870
   308    C   21  py     Ryd( 3p)     0.00447
   309    C   21  pz     Val( 2p)     1.10307
   310    C   21  pz     Ryd( 3p)     0.00451
   311    C   21  dxy    Ryd( 3d)     0.00057
   312    C   21  dxz    Ryd( 3d)     0.00060
   313    C   21  dyz    Ryd( 3d)     0.00065
   314    C   21  dx2y2  Ryd( 3d)     0.00060
   315    C   21  dz2    Ryd( 3d)     0.00036

   316    H   22  S      Val( 1S)     0.76973
   317    H   22  S      Ryd( 2S)     0.00052

   318    H   23  S      Val( 1S)     0.79415
   319    H   23  S      Ryd( 2S)     0.00174

   320    H   24  S      Val( 1S)     0.79026
   321    H   24  S      Ryd( 2S)     0.00174

   322    H   25  S      Val( 1S)     0.74908
   323    H   25  S      Ryd( 2S)     0.00115

   324    H   26  S      Val( 1S)     0.75602
   325    H   26  S      Ryd( 2S)     0.00075

   326    H   27  S      Val( 1S)     0.74451
   327    H   27  S      Ryd( 2S)     0.00083

   328    H   28  S      Val( 1S)     0.74201
   329    H   28  S      Ryd( 2S)     0.00095

   330    H   29  S      Val( 1S)     0.75804
   331    H   29  S      Ryd( 2S)     0.00098

   332    H   30  S      Val( 1S)     0.76634
   333    H   30  S      Ryd( 2S)     0.00084

   334    H   31  S      Val( 1S)     0.76620
   335    H   31  S      Ryd( 2S)     0.00084

   336    H   32  S      Val( 1S)     0.76614
   337    H   32  S      Ryd( 2S)     0.00082

   338    H   33  S      Val( 1S)     0.75425
   339    H   33  S      Ryd( 2S)     0.00100

   340    H   34  S      Val( 1S)     0.75410
   341    H   34  S      Ryd( 2S)     0.00092

   342    H   35  S      Val( 1S)     0.76337
   343    H   35  S      Ryd( 2S)     0.00082

   344    H   36  S      Val( 1S)     0.76352
   345    H   36  S      Ryd( 2S)     0.00081

   346    H   37  S      Val( 1S)     0.76214
   347    H   37  S      Ryd( 2S)     0.00082

   348    H   38  S      Val( 1S)     0.74865
   349    H   38  S      Ryd( 2S)     0.00090

 WARNING:  1 low occupancy (<1.9990e) core orbital  found on  C    3
           1 low occupancy (<1.9990e) core orbital  found on  C    7
           1 low occupancy (<1.9990e) core orbital  found on  C    8
           1 low occupancy (<1.9990e) core orbital  found on  C   10
           1 low occupancy (<1.9990e) core orbital  found on  C   16


 Summary of Natural Population Analysis:                  
                                                          
                                       Natural Population 
                Natural  -----------------------------------------------
    Atom  No    Charge         Core      Valence    Rydberg      Total
 -----------------------------------------------------------------------
      C    1   -0.31925      1.99943     4.30571    0.01411     6.31925
      O    2   -0.51690      1.99974     6.50539    0.01177     8.51690
      C    3    0.31279      1.99880     3.66584    0.02258     5.68721
      C    4   -0.23261      1.99903     4.21936    0.01422     6.23261
      C    5   -0.25975      1.99912     4.24504    0.01559     6.25975
      C    6   -0.23771      1.99901     4.22501    0.01368     6.23771
      C    7    0.15873      1.99896     3.82382    0.01849     5.84127
      C    8   -0.34489      1.99895     4.33226    0.01368     6.34489
      N    9   -0.26420      1.99923     5.25027    0.01469     7.26420
      C   10    0.12862      1.99894     3.85404    0.01840     5.87138
      C   11   -0.28779      1.99902     4.27207    0.01670     6.28779
      C   12   -0.28495      1.99911     4.26930    0.01654     6.28495
      C   13   -0.18824      1.99910     4.17543    0.01371     6.18824
      C   14   -0.29818      1.99911     4.28208    0.01699     6.29818
      C   15   -0.26564      1.99902     4.25047    0.01615     6.26564
      C   16    0.13548      1.99894     3.84741    0.01817     5.86452
      C   17   -0.25089      1.99902     4.23704    0.01483     6.25089
      C   18   -0.28676      1.99911     4.27117    0.01648     6.28676
      C   19   -0.19128      1.99910     4.17847    0.01371     6.19128
      C   20   -0.26780      1.99911     4.25274    0.01596     6.26780
      C   21   -0.27384      1.99902     4.25822    0.01660     6.27384
      H   22    0.22975      0.00000     0.76973    0.00052     0.77025
      H   23    0.20411      0.00000     0.79415    0.00174     0.79589
      H   24    0.20801      0.00000     0.79026    0.00174     0.79199
      H   25    0.24978      0.00000     0.74908    0.00115     0.75022
      H   26    0.24323      0.00000     0.75602    0.00075     0.75677
      H   27    0.25466      0.00000     0.74451    0.00083     0.74534
      H   28    0.25704      0.00000     0.74201    0.00095     0.74296
      H   29    0.24098      0.00000     0.75804    0.00098     0.75902
      H   30    0.23282      0.00000     0.76634    0.00084     0.76718
      H   31    0.23296      0.00000     0.76620    0.00084     0.76704
      H   32    0.23304      0.00000     0.76614    0.00082     0.76696
      H   33    0.24475      0.00000     0.75425    0.00100     0.75525
      H   34    0.24498      0.00000     0.75410    0.00092     0.75502
      H   35    0.23582      0.00000     0.76337    0.00082     0.76418
      H   36    0.23567      0.00000     0.76352    0.00081     0.76433
      H   37    0.23704      0.00000     0.76214    0.00082     0.76296
      H   38    0.25044      0.00000     0.74865    0.00090     0.74956
 =======================================================================
   * Total *    0.00000     41.98089   103.66964    0.34947   146.00000

                                 Natural Population      
 --------------------------------------------------------
   Core                      41.98089 ( 99.9545% of  42)
   Valence                  103.66964 ( 99.6823% of 104)
   Natural Minimal Basis    145.65053 ( 99.7606% of 146)
   Natural Rydberg Basis      0.34947 (  0.2394% of 146)
 --------------------------------------------------------

    Atom  No          Natural Electron Configuration
 ----------------------------------------------------------------------------
      C    1      [core]2S( 1.10)2p( 3.21)3p( 0.01)3d( 0.01)
      O    2      [core]2S( 1.59)2p( 4.92)3p( 0.01)3d( 0.01)
      C    3      [core]2S( 0.83)2p( 2.84)3p( 0.01)3d( 0.01)
      C    4      [core]2S( 0.97)2p( 3.25)3p( 0.01)
      C    5      [core]2S( 0.96)2p( 3.29)3p( 0.01)
      C    6      [core]2S( 0.96)2p( 3.27)3p( 0.01)
      C    7      [core]2S( 0.84)2p( 2.99)3p( 0.01)
      C    8      [core]2S( 0.95)2p( 3.38)3p( 0.01)
      N    9      [core]2S( 1.17)2p( 4.08)3p( 0.01)
      C   10      [core]2S( 0.84)2p( 3.01)3p( 0.01)
      C   11      [core]2S( 0.95)2p( 3.32)3p( 0.01)
      C   12      [core]2S( 0.95)2p( 3.32)3p( 0.01)
      C   13      [core]2S( 0.97)2p( 3.21)3p( 0.01)
      C   14      [core]2S( 0.95)2p( 3.33)3p( 0.01)
      C   15      [core]2S( 0.95)2p( 3.30)3p( 0.01)
      C   16      [core]2S( 0.84)2p( 3.01)3p( 0.01)
      C   17      [core]2S( 0.95)2p( 3.28)3p( 0.01)
      C   18      [core]2S( 0.95)2p( 3.32)3p( 0.01)
      C   19      [core]2S( 0.97)2p( 3.21)3p( 0.01)
      C   20      [core]2S( 0.96)2p( 3.30)3p( 0.01)
      C   21      [core]2S( 0.95)2p( 3.31)3p( 0.01)
      H   22            1S( 0.77)
      H   23            1S( 0.79)
      H   24            1S( 0.79)
      H   25            1S( 0.75)
      H   26            1S( 0.76)
      H   27            1S( 0.74)
      H   28            1S( 0.74)
      H   29            1S( 0.76)
      H   30            1S( 0.77)
      H   31            1S( 0.77)
      H   32            1S( 0.77)
      H   33            1S( 0.75)
      H   34            1S( 0.75)
      H   35            1S( 0.76)
      H   36            1S( 0.76)
      H   37            1S( 0.76)
      H   38            1S( 0.75)


 NBO analysis skipped by request.
 Leave Link  607 at Wed Sep 29 05:56:31 2021, MaxMem= 1610612736 cpu:      32.1
 (Enter /sw/target/amd/app/gaussian/Gaussian09RevA.02_gcc-4.9.2/g09/l9999.exe)
 1\1\GINC-HERMITE\SP\RTD-B3LYP-FC\6-31G(d)\C19H17N1O1\JSCHLEINITZ\29-Se
 p-2021\0\\#p TD(NStates=10, Root=1) b3lyp/6-31G* volume pop=NPA densit
 y=current Geom=AllCheck Guess=Read\\COc1cccc(c1)N(c1ccccc1)c1ccccc1_co
 nf_0\\0,1\C,0,3.6650533903,-1.1458329728,-1.0605297054\O,0,2.933264604
 8,-1.2877907556,0.146328987\C,0,3.4636457623,-0.7667863965,1.292436929
 9\C,0,2.6848538157,-0.9259123619,2.4486232107\C,0,3.1567832973,-0.4292
 42452,3.657959787\C,0,4.3827271868,0.2344752859,3.7402834441\C,0,5.163
 1959172,0.3855682994,2.5873810874\C,0,4.7028793167,-0.1260655218,1.360
 4963957\N,0,6.4199613202,1.04927596,2.643727808\C,0,6.7920298935,1.954
 481614,1.6129141355\C,0,5.8573347847,2.8634622994,1.0901853376\C,0,6.2
 230903039,3.7415676371,0.0718219066\C,0,7.5261051198,3.7444908047,-0.4
 3099561\C,0,8.4603956249,2.8486352945,0.0932075448\C,0,8.0991982902,1.
 9539456571,1.0988988045\C,0,7.3039320754,0.8091842123,3.7308148153\C,0
 ,7.4822540459,-0.4903359985,4.233046991\C,0,8.3447408321,-0.7184853957
 ,5.3034320314\C,0,9.0574772768,0.335061484,5.880053021\C,0,8.888755761
 4,1.6268354514,5.3773698551\C,0,8.014516354,1.8681092458,4.3193020341\
 H,0,3.0523827254,-1.6072320391,-1.8373771869\H,0,4.6335123241,-1.66121
 86472,-1.0099969032\H,0,3.8337064469,-0.0899100204,-1.3098907212\H,0,1
 .7284012534,-1.4322002112,2.3710474118\H,0,2.5528870191,-0.544045842,4
 .5542500316\H,0,4.732558104,0.6345416992,4.6855965567\H,0,5.3250124478
 ,-0.0143684625,0.4818348485\H,0,4.847724851,2.8759238989,1.4882431098\
 H,0,5.4863485681,4.4387294168,-0.3191108905\H,0,7.8096120461,4.4358646
 763,-1.2194454218\H,0,9.4768262924,2.8335554019,-0.2917969855\H,0,8.82
 61921243,1.2509230696,1.4929727409\H,0,6.9406073548,-1.3150645745,3.78
 11650861\H,0,8.4696835393,-1.7310105481,5.6786080527\H,0,9.7343830978,
 0.151874153,6.7096567573\H,0,9.4299456055,2.4591873258,5.8199404175\H,
 0,7.8770293825,2.8766216206,3.9425893348\\Version=AM64L-G09RevA.02\Sta
 te=1-A\HF=-864.220142\RMSD=7.200e-09\Dipole=-0.3234648,-0.4348912,-0.1
 68253\Quadrupole=-1.7245201,-2.5906857,4.3152058,0.0004707,1.4001979,0
 .6768644\PG=C01 [X(C19H17N1O1)]\\@


  ON THE CHOICE OF THE CORRECT LANGUAGE -
 I SPEAK SPANISH TO GOD, ITALIAN TO WOMEN,
 FRENCH TO MEN, AND GERMAN TO MY HORSE.
          -- CHARLES V
 Job cpu time:  0 days  7 hours 38 minutes 44.8 seconds.
 File lengths (MBytes):  RWF=    388 Int=      0 D2E=      0 Chk=     54 Scr=      1
 Normal termination of Gaussian 09 at Wed Sep 29 05:56:38 2021.
