 Entering Gaussian System, Link 0=g09
 Input=C19H18O2_4630_conf_0.com
 Output=C19H18O2_4630_conf_0.log
 Initial command:
 /sw/target/amd/app/gaussian/Gaussian09RevA.02_gcc-4.9.2/g09/l1.exe /home/jschleinitz/gaussian/Gau-3146918.inp -scrdir=/home/jschleinitz/gaussian/
 Entering Link 1 = /sw/target/amd/app/gaussian/Gaussian09RevA.02_gcc-4.9.2/g09/l1.exe PID=   3146920.
  
 Copyright (c) 1988,1990,1992,1993,1995,1998,2003,2009, Gaussian, Inc.
                  All Rights Reserved.
  
 This is part of the Gaussian(R) 09 program.  It is based on
 the Gaussian(R) 03 system (copyright 2003, Gaussian, Inc.),
 the Gaussian(R) 98 system (copyright 1998, Gaussian, Inc.),
 the Gaussian(R) 94 system (copyright 1995, Gaussian, Inc.),
 the Gaussian 92(TM) system (copyright 1992, Gaussian, Inc.),
 the Gaussian 90(TM) system (copyright 1990, Gaussian, Inc.),
 the Gaussian 88(TM) system (copyright 1988, Gaussian, Inc.),
 the Gaussian 86(TM) system (copyright 1986, Carnegie Mellon
 University), and the Gaussian 82(TM) system (copyright 1983,
 Carnegie Mellon University). Gaussian is a federally registered
 trademark of Gaussian, Inc.
  
 This software contains proprietary and confidential information,
 including trade secrets, belonging to Gaussian, Inc.
  
 This software is provided under written license and may be
 used, copied, transmitted, or stored only in accord with that
 written license.
  
 The following legend is applicable only to US Government
 contracts under FAR:
  
                    RESTRICTED RIGHTS LEGEND
  
 Use, reproduction and disclosure by the US Government is
 subject to restrictions as set forth in subparagraphs (a)
 and (c) of the Commercial Computer Software - Restricted
 Rights clause in FAR 52.227-19.
  
 Gaussian, Inc.
 340 Quinnipiac St., Bldg. 40, Wallingford CT 06492
  
  
 ---------------------------------------------------------------
 Warning -- This program may not be used in any manner that
 competes with the business of Gaussian, Inc. or will provide
 assistance to any competitor of Gaussian, Inc.  The licensee
 of this program is prohibited from giving any competitor of
 Gaussian, Inc. access to this program.  By using this program,
 the user acknowledges that Gaussian, Inc. is engaged in the
 business of creating and licensing software in the field of
 computational chemistry and represents and warrants to the
 licensee that it is not a competitor of Gaussian, Inc. and that
 it will not use this program in any manner prohibited above.
 ---------------------------------------------------------------
  

 Cite this work as:
 Gaussian 09, Revision A.02,
 M. J. Frisch, G. W. Trucks, H. B. Schlegel, G. E. Scuseria, 
 M. A. Robb, J. R. Cheeseman, G. Scalmani, V. Barone, B. Mennucci, 
 G. A. Petersson, H. Nakatsuji, M. Caricato, X. Li, H. P. Hratchian, 
 A. F. Izmaylov, J. Bloino, G. Zheng, J. L. Sonnenberg, M. Hada, 
 M. Ehara, K. Toyota, R. Fukuda, J. Hasegawa, M. Ishida, T. Nakajima, 
 Y. Honda, O. Kitao, H. Nakai, T. Vreven, J. A. Montgomery, Jr., 
 J. E. Peralta, F. Ogliaro, M. Bearpark, J. J. Heyd, E. Brothers, 
 K. N. Kudin, V. N. Staroverov, R. Kobayashi, J. Normand, 
 K. Raghavachari, A. Rendell, J. C. Burant, S. S. Iyengar, J. Tomasi, 
 M. Cossi, N. Rega, J. M. Millam, M. Klene, J. E. Knox, J. B. Cross, 
 V. Bakken, C. Adamo, J. Jaramillo, R. Gomperts, R. E. Stratmann, 
 O. Yazyev, A. J. Austin, R. Cammi, C. Pomelli, J. W. Ochterski, 
 R. L. Martin, K. Morokuma, V. G. Zakrzewski, G. A. Voth, 
 P. Salvador, J. J. Dannenberg, S. Dapprich, A. D. Daniels, 
 O. Farkas, J. B. Foresman, J. V. Ortiz, J. Cioslowski, 
 and D. J. Fox, Gaussian, Inc., Wallingford CT, 2009.
 
 ******************************************
 Gaussian 09:  AM64L-G09RevA.02 11-Jun-2009
                29-Sep-2021 
 ******************************************
 %nproc=6
 Will use up to    6 processors via shared memory.
 %mem=12gb
 %chk=C19H18O2_4630_conf_0.chk
 -----------------------------------
 #p opt b3lyp/6-31G* scf=(xqc,tight)
 -----------------------------------
 1/14=-1,18=20,19=15,26=3,38=1/1,3;
 2/9=110,12=2,17=6,18=5,40=1/2;
 3/5=1,6=6,7=1,11=2,16=1,25=1,30=1,71=1,74=-5/1,2,3;
 4//1;
 5/5=2,8=3,13=1,32=2,38=5/2,8;
 6/7=2,8=2,9=2,10=2,28=1/1;
 7//1,2,3,16;
 1/14=-1,18=20,19=15/3(2);
 2/9=110/2;
 99//99;
 2/9=110/2;
 3/5=1,6=6,7=1,11=2,16=1,25=1,30=1,71=1,74=-5/1,2,3;
 4/5=5,16=3/1;
 5/5=2,8=3,13=1,32=2,38=5/2,8;
 7//1,2,3,16;
 1/14=-1,18=20,19=15/3(-5);
 2/9=110/2;
 6/7=2,8=2,9=2,10=2,19=2,28=1/1;
 99/9=1/99;
 Leave Link    1 at Wed Sep 29 12:53:23 2021, MaxMem= 1610612736 cpu:       0.1
 (Enter /sw/target/amd/app/gaussian/Gaussian09RevA.02_gcc-4.9.2/g09/l101.exe)
 -----------------------------------------
 O=C(C(C)(C)C)Oc1cc2ccccc2c2c1cccc2_conf_0
 -----------------------------------------
 Symbolic Z-matrix:
 Charge =  0 Multiplicity = 1
 O                     3.34107   2.24238   2.92161 
 C                     3.016     2.1556    1.74404 
 C                     1.605     2.44415   1.22408 
 C                     1.5395    3.93065   0.85979 
 C                     1.26213   1.57852   0.00281 
 C                     0.59494   2.13434   2.34078 
 O                     3.87531   1.86694   0.67764 
 C                     5.25321   1.53625   0.81329 
 C                     5.73173   0.93755   1.97431 
 C                     7.0776    0.59719   2.0902 
 C                     7.52976   0.01917   3.28934 
 C                     8.86221  -0.33923   3.45403 
 C                     9.75758  -0.12347   2.41957 
 C                     9.31874   0.45118   1.22133 
 C                     7.96728   0.83159   1.01247 
 C                     7.46365   1.42033  -0.20392 
 C                     6.08904   1.77293  -0.29714 
 C                     5.59671   2.3411   -1.495 
 C                     6.421     2.56607  -2.59438 
 C                     7.76335   2.23104  -2.51791 
 C                     8.27071   1.67046  -1.34423 
 H                     2.30808   4.19357   0.12379 
 H                     1.70982   4.56067   1.74082 
 H                     0.56328   4.19549   0.43994 
 H                     1.88306   1.8343   -0.86325 
 H                     0.21672   1.71252  -0.29712 
 H                     1.41851   0.51499   0.21718 
 H                     0.76089   2.76898   3.21915 
 H                     0.6811    1.09289   2.67233 
 H                    -0.43467   2.29877   2.0044 
 H                     5.06221   0.72325   2.80217 
 H                     6.83878  -0.15254   4.11283 
 H                     9.1957   -0.78263   4.38766 
 H                     10.80365  -0.39928   2.53687 
 H                     10.06418   0.59744   0.44703 
 H                     4.54598   2.61278  -1.58223 
 H                     6.01597   3.00028  -3.50427 
 H                     8.41864   2.40007  -3.36793 
 H                     9.32928   1.42395  -1.34101 
 
 NAtoms=     39 NQM=     39 NQMF=      0 NMic=      0 NMicF=      0 NTot=     39.
                    Isotopes and Nuclear Properties:
 (Nuclear quadrupole moments (NQMom) in fm**2, nuclear magnetic moments (NMagM)
  in nuclear magnetons)

  Atom         1           2           3           4           5           6           7           8           9          10
 IAtWgt=          16          12          12          12          12          12          16          12          12          12
 AtmWgt=  15.9949146  12.0000000  12.0000000  12.0000000  12.0000000  12.0000000  15.9949146  12.0000000  12.0000000  12.0000000
 NucSpn=           0           0           0           0           0           0           0           0           0           0
 AtZEff=   0.0000000   0.0000000   0.0000000   0.0000000   0.0000000   0.0000000   0.0000000   0.0000000   0.0000000   0.0000000
 NQMom=    0.0000000   0.0000000   0.0000000   0.0000000   0.0000000   0.0000000   0.0000000   0.0000000   0.0000000   0.0000000
 NMagM=    0.0000000   0.0000000   0.0000000   0.0000000   0.0000000   0.0000000   0.0000000   0.0000000   0.0000000   0.0000000

  Atom        11          12          13          14          15          16          17          18          19          20
 IAtWgt=          12          12          12          12          12          12          12          12          12          12
 AtmWgt=  12.0000000  12.0000000  12.0000000  12.0000000  12.0000000  12.0000000  12.0000000  12.0000000  12.0000000  12.0000000
 NucSpn=           0           0           0           0           0           0           0           0           0           0
 AtZEff=   0.0000000   0.0000000   0.0000000   0.0000000   0.0000000   0.0000000   0.0000000   0.0000000   0.0000000   0.0000000
 NQMom=    0.0000000   0.0000000   0.0000000   0.0000000   0.0000000   0.0000000   0.0000000   0.0000000   0.0000000   0.0000000
 NMagM=    0.0000000   0.0000000   0.0000000   0.0000000   0.0000000   0.0000000   0.0000000   0.0000000   0.0000000   0.0000000

  Atom        21          22          23          24          25          26          27          28          29          30
 IAtWgt=          12           1           1           1           1           1           1           1           1           1
 AtmWgt=  12.0000000   1.0078250   1.0078250   1.0078250   1.0078250   1.0078250   1.0078250   1.0078250   1.0078250   1.0078250
 NucSpn=           0           1           1           1           1           1           1           1           1           1
 AtZEff=   0.0000000   0.0000000   0.0000000   0.0000000   0.0000000   0.0000000   0.0000000   0.0000000   0.0000000   0.0000000
 NQMom=    0.0000000   0.0000000   0.0000000   0.0000000   0.0000000   0.0000000   0.0000000   0.0000000   0.0000000   0.0000000
 NMagM=    0.0000000   2.7928460   2.7928460   2.7928460   2.7928460   2.7928460   2.7928460   2.7928460   2.7928460   2.7928460

  Atom        31          32          33          34          35          36          37          38          39
 IAtWgt=           1           1           1           1           1           1           1           1           1
 AtmWgt=   1.0078250   1.0078250   1.0078250   1.0078250   1.0078250   1.0078250   1.0078250   1.0078250   1.0078250
 NucSpn=           1           1           1           1           1           1           1           1           1
 AtZEff=   0.0000000   0.0000000   0.0000000   0.0000000   0.0000000   0.0000000   0.0000000   0.0000000   0.0000000
 NQMom=    0.0000000   0.0000000   0.0000000   0.0000000   0.0000000   0.0000000   0.0000000   0.0000000   0.0000000
 NMagM=    2.7928460   2.7928460   2.7928460   2.7928460   2.7928460   2.7928460   2.7928460   2.7928460   2.7928460
 Leave Link  101 at Wed Sep 29 12:53:24 2021, MaxMem= 1610612736 cpu:       0.2
 (Enter /sw/target/amd/app/gaussian/Gaussian09RevA.02_gcc-4.9.2/g09/l103.exe)

 GradGradGradGradGradGradGradGradGradGradGradGradGradGradGradGradGradGrad
 Berny optimization.
 Initialization pass.
                           ----------------------------
                           !    Initial Parameters    !
                           ! (Angstroms and Degrees)  !
 --------------------------                            --------------------------
 ! Name  Definition              Value          Derivative Info.                !
 --------------------------------------------------------------------------------
 ! R1    R(1,2)                  1.2247         estimate D2E/DX2                !
 ! R2    R(2,3)                  1.5312         estimate D2E/DX2                !
 ! R3    R(2,7)                  1.3996         estimate D2E/DX2                !
 ! R4    R(3,4)                  1.5319         estimate D2E/DX2                !
 ! R5    R(3,5)                  1.5357         estimate D2E/DX2                !
 ! R6    R(3,6)                  1.5373         estimate D2E/DX2                !
 ! R7    R(4,22)                 1.0961         estimate D2E/DX2                !
 ! R8    R(4,23)                 1.0964         estimate D2E/DX2                !
 ! R9    R(4,24)                 1.0952         estimate D2E/DX2                !
 ! R10   R(5,25)                 1.0959         estimate D2E/DX2                !
 ! R11   R(5,26)                 1.0958         estimate D2E/DX2                !
 ! R12   R(5,27)                 1.0961         estimate D2E/DX2                !
 ! R13   R(6,28)                 1.0963         estimate D2E/DX2                !
 ! R14   R(6,29)                 1.0963         estimate D2E/DX2                !
 ! R15   R(6,30)                 1.0956         estimate D2E/DX2                !
 ! R16   R(7,8)                  1.4235         estimate D2E/DX2                !
 ! R17   R(8,9)                  1.3912         estimate D2E/DX2                !
 ! R18   R(8,17)                 1.4098         estimate D2E/DX2                !
 ! R19   R(9,10)                 1.3931         estimate D2E/DX2                !
 ! R20   R(9,31)                 1.0861         estimate D2E/DX2                !
 ! R21   R(10,11)                1.4059         estimate D2E/DX2                !
 ! R22   R(10,15)                1.417          estimate D2E/DX2                !
 ! R23   R(11,12)                1.3896         estimate D2E/DX2                !
 ! R24   R(11,32)                1.0886         estimate D2E/DX2                !
 ! R25   R(12,13)                1.385          estimate D2E/DX2                !
 ! R26   R(12,33)                1.086          estimate D2E/DX2                !
 ! R27   R(13,14)                1.3995         estimate D2E/DX2                !
 ! R28   R(13,34)                1.0882         estimate D2E/DX2                !
 ! R29   R(14,15)                1.4194         estimate D2E/DX2                !
 ! R30   R(14,35)                1.0847         estimate D2E/DX2                !
 ! R31   R(15,16)                1.4422         estimate D2E/DX2                !
 ! R32   R(16,17)                1.4222         estimate D2E/DX2                !
 ! R33   R(16,21)                1.4192         estimate D2E/DX2                !
 ! R34   R(17,18)                1.4142         estimate D2E/DX2                !
 ! R35   R(18,19)                1.3924         estimate D2E/DX2                !
 ! R36   R(18,36)                1.0888         estimate D2E/DX2                !
 ! R37   R(19,20)                1.3856         estimate D2E/DX2                !
 ! R38   R(19,37)                1.0865         estimate D2E/DX2                !
 ! R39   R(20,21)                1.3961         estimate D2E/DX2                !
 ! R40   R(20,38)                1.0865         estimate D2E/DX2                !
 ! R41   R(21,39)                1.0869         estimate D2E/DX2                !
 ! A1    A(1,2,3)              123.9004         estimate D2E/DX2                !
 ! A2    A(1,2,7)              125.7508         estimate D2E/DX2                !
 ! A3    A(3,2,7)              110.2365         estimate D2E/DX2                !
 ! A4    A(2,3,4)              107.639          estimate D2E/DX2                !
 ! A5    A(2,3,5)              111.6893         estimate D2E/DX2                !
 ! A6    A(2,3,6)              108.7125         estimate D2E/DX2                !
 ! A7    A(4,3,5)              110.384          estimate D2E/DX2                !
 ! A8    A(4,3,6)              109.8898         estimate D2E/DX2                !
 ! A9    A(5,3,6)              108.5047         estimate D2E/DX2                !
 ! A10   A(3,4,22)             111.2503         estimate D2E/DX2                !
 ! A11   A(3,4,23)             111.0915         estimate D2E/DX2                !
 ! A12   A(3,4,24)             111.3415         estimate D2E/DX2                !
 ! A13   A(22,4,23)            107.0255         estimate D2E/DX2                !
 ! A14   A(22,4,24)            108.0351         estimate D2E/DX2                !
 ! A15   A(23,4,24)            107.9125         estimate D2E/DX2                !
 ! A16   A(3,5,25)             111.7402         estimate D2E/DX2                !
 ! A17   A(3,5,26)             111.2068         estimate D2E/DX2                !
 ! A18   A(3,5,27)             111.0712         estimate D2E/DX2                !
 ! A19   A(25,5,26)            107.1988         estimate D2E/DX2                !
 ! A20   A(25,5,27)            107.4678         estimate D2E/DX2                !
 ! A21   A(26,5,27)            107.9556         estimate D2E/DX2                !
 ! A22   A(3,6,28)             111.4625         estimate D2E/DX2                !
 ! A23   A(3,6,29)             111.0688         estimate D2E/DX2                !
 ! A24   A(3,6,30)             111.3588         estimate D2E/DX2                !
 ! A25   A(28,6,29)            107.2            estimate D2E/DX2                !
 ! A26   A(28,6,30)            107.5404         estimate D2E/DX2                !
 ! A27   A(29,6,30)            108.0158         estimate D2E/DX2                !
 ! A28   A(2,7,8)              124.7215         estimate D2E/DX2                !
 ! A29   A(7,8,9)              120.827          estimate D2E/DX2                !
 ! A30   A(7,8,17)             117.374          estimate D2E/DX2                !
 ! A31   A(9,8,17)             121.7117         estimate D2E/DX2                !
 ! A32   A(8,9,10)             120.4563         estimate D2E/DX2                !
 ! A33   A(8,9,31)             120.5991         estimate D2E/DX2                !
 ! A34   A(10,9,31)            118.9438         estimate D2E/DX2                !
 ! A35   A(9,10,11)            118.8249         estimate D2E/DX2                !
 ! A36   A(9,10,15)            120.1917         estimate D2E/DX2                !
 ! A37   A(11,10,15)           120.9834         estimate D2E/DX2                !
 ! A38   A(10,11,12)           121.0325         estimate D2E/DX2                !
 ! A39   A(10,11,32)           120.3929         estimate D2E/DX2                !
 ! A40   A(12,11,32)           118.574          estimate D2E/DX2                !
 ! A41   A(11,12,13)           119.4175         estimate D2E/DX2                !
 ! A42   A(11,12,33)           120.1077         estimate D2E/DX2                !
 ! A43   A(13,12,33)           120.4747         estimate D2E/DX2                !
 ! A44   A(12,13,14)           120.0483         estimate D2E/DX2                !
 ! A45   A(12,13,34)           120.0963         estimate D2E/DX2                !
 ! A46   A(14,13,34)           119.8554         estimate D2E/DX2                !
 ! A47   A(13,14,15)           122.3156         estimate D2E/DX2                !
 ! A48   A(13,14,35)           116.8107         estimate D2E/DX2                !
 ! A49   A(15,14,35)           120.8737         estimate D2E/DX2                !
 ! A50   A(10,15,14)           116.2028         estimate D2E/DX2                !
 ! A51   A(10,15,16)           119.3243         estimate D2E/DX2                !
 ! A52   A(14,15,16)           124.4722         estimate D2E/DX2                !
 ! A53   A(15,16,17)           119.6063         estimate D2E/DX2                !
 ! A54   A(15,16,21)           123.4385         estimate D2E/DX2                !
 ! A55   A(17,16,21)           116.9544         estimate D2E/DX2                !
 ! A56   A(8,17,16)            118.6705         estimate D2E/DX2                !
 ! A57   A(8,17,18)            121.8823         estimate D2E/DX2                !
 ! A58   A(16,17,18)           119.4463         estimate D2E/DX2                !
 ! A59   A(17,18,19)           121.8426         estimate D2E/DX2                !
 ! A60   A(17,18,36)           120.2691         estimate D2E/DX2                !
 ! A61   A(19,18,36)           117.8876         estimate D2E/DX2                !
 ! A62   A(18,19,20)           119.3976         estimate D2E/DX2                !
 ! A63   A(18,19,37)           120.3383         estimate D2E/DX2                !
 ! A64   A(20,19,37)           120.2641         estimate D2E/DX2                !
 ! A65   A(19,20,21)           119.7047         estimate D2E/DX2                !
 ! A66   A(19,20,38)           120.2302         estimate D2E/DX2                !
 ! A67   A(21,20,38)           120.0648         estimate D2E/DX2                !
 ! A68   A(16,21,20)           122.6538         estimate D2E/DX2                !
 ! A69   A(16,21,39)           120.7625         estimate D2E/DX2                !
 ! A70   A(20,21,39)           116.583          estimate D2E/DX2                !
 ! D1    D(1,2,3,4)             90.1618         estimate D2E/DX2                !
 ! D2    D(1,2,3,5)           -148.5188         estimate D2E/DX2                !
 ! D3    D(1,2,3,6)            -28.826          estimate D2E/DX2                !
 ! D4    D(7,2,3,4)            -86.1771         estimate D2E/DX2                !
 ! D5    D(7,2,3,5)             35.1424         estimate D2E/DX2                !
 ! D6    D(7,2,3,6)            154.8351         estimate D2E/DX2                !
 ! D7    D(1,2,7,8)              4.6247         estimate D2E/DX2                !
 ! D8    D(3,2,7,8)           -179.1197         estimate D2E/DX2                !
 ! D9    D(2,3,4,22)            57.0768         estimate D2E/DX2                !
 ! D10   D(2,3,4,23)           -62.0476         estimate D2E/DX2                !
 ! D11   D(2,3,4,24)           177.6465         estimate D2E/DX2                !
 ! D12   D(5,3,4,22)           -65.0546         estimate D2E/DX2                !
 ! D13   D(5,3,4,23)           175.821          estimate D2E/DX2                !
 ! D14   D(5,3,4,24)            55.5151         estimate D2E/DX2                !
 ! D15   D(6,3,4,22)           175.3087         estimate D2E/DX2                !
 ! D16   D(6,3,4,23)            56.1843         estimate D2E/DX2                !
 ! D17   D(6,3,4,24)           -64.1216         estimate D2E/DX2                !
 ! D18   D(2,3,5,25)           -66.3193         estimate D2E/DX2                !
 ! D19   D(2,3,5,26)           173.9334         estimate D2E/DX2                !
 ! D20   D(2,3,5,27)            53.6774         estimate D2E/DX2                !
 ! D21   D(4,3,5,25)            53.3954         estimate D2E/DX2                !
 ! D22   D(4,3,5,26)           -66.3519         estimate D2E/DX2                !
 ! D23   D(4,3,5,27)           173.3921         estimate D2E/DX2                !
 ! D24   D(6,3,5,25)           173.8656         estimate D2E/DX2                !
 ! D25   D(6,3,5,26)            54.1183         estimate D2E/DX2                !
 ! D26   D(6,3,5,27)           -66.1377         estimate D2E/DX2                !
 ! D27   D(2,3,6,28)            61.5541         estimate D2E/DX2                !
 ! D28   D(2,3,6,29)           -57.9157         estimate D2E/DX2                !
 ! D29   D(2,3,6,30)          -178.3489         estimate D2E/DX2                !
 ! D30   D(4,3,6,28)           -56.0121         estimate D2E/DX2                !
 ! D31   D(4,3,6,29)          -175.4819         estimate D2E/DX2                !
 ! D32   D(4,3,6,30)            64.0848         estimate D2E/DX2                !
 ! D33   D(5,3,6,28)          -176.7885         estimate D2E/DX2                !
 ! D34   D(5,3,6,29)            63.7417         estimate D2E/DX2                !
 ! D35   D(5,3,6,30)           -56.6915         estimate D2E/DX2                !
 ! D36   D(2,7,8,9)             27.1895         estimate D2E/DX2                !
 ! D37   D(2,7,8,17)          -156.1508         estimate D2E/DX2                !
 ! D38   D(7,8,9,10)           178.9412         estimate D2E/DX2                !
 ! D39   D(7,8,9,31)            -0.7335         estimate D2E/DX2                !
 ! D40   D(17,8,9,10)            2.4282         estimate D2E/DX2                !
 ! D41   D(17,8,9,31)         -177.2465         estimate D2E/DX2                !
 ! D42   D(7,8,17,16)         -178.385          estimate D2E/DX2                !
 ! D43   D(7,8,17,18)            1.2599         estimate D2E/DX2                !
 ! D44   D(9,8,17,16)           -1.7568         estimate D2E/DX2                !
 ! D45   D(9,8,17,18)          177.8882         estimate D2E/DX2                !
 ! D46   D(8,9,10,11)          178.6886         estimate D2E/DX2                !
 ! D47   D(8,9,10,15)           -1.3931         estimate D2E/DX2                !
 ! D48   D(31,9,10,11)          -1.6314         estimate D2E/DX2                !
 ! D49   D(31,9,10,15)         178.287          estimate D2E/DX2                !
 ! D50   D(9,10,11,12)         179.9359         estimate D2E/DX2                !
 ! D51   D(9,10,11,32)          -0.3565         estimate D2E/DX2                !
 ! D52   D(15,10,11,12)          0.0183         estimate D2E/DX2                !
 ! D53   D(15,10,11,32)        179.7258         estimate D2E/DX2                !
 ! D54   D(9,10,15,14)        -179.9258         estimate D2E/DX2                !
 ! D55   D(9,10,15,16)          -0.2266         estimate D2E/DX2                !
 ! D56   D(11,10,15,14)         -0.0092         estimate D2E/DX2                !
 ! D57   D(11,10,15,16)        179.69           estimate D2E/DX2                !
 ! D58   D(10,11,12,13)         -0.0234         estimate D2E/DX2                !
 ! D59   D(10,11,12,33)        179.8579         estimate D2E/DX2                !
 ! D60   D(32,11,12,13)       -179.7361         estimate D2E/DX2                !
 ! D61   D(32,11,12,33)          0.1451         estimate D2E/DX2                !
 ! D62   D(11,12,13,14)          0.0199         estimate D2E/DX2                !
 ! D63   D(11,12,13,34)        179.9569         estimate D2E/DX2                !
 ! D64   D(33,12,13,14)       -179.8609         estimate D2E/DX2                !
 ! D65   D(33,12,13,34)          0.0761         estimate D2E/DX2                !
 ! D66   D(12,13,14,15)         -0.0117         estimate D2E/DX2                !
 ! D67   D(12,13,14,35)        179.9294         estimate D2E/DX2                !
 ! D68   D(34,13,14,15)       -179.9488         estimate D2E/DX2                !
 ! D69   D(34,13,14,35)         -0.0077         estimate D2E/DX2                !
 ! D70   D(13,14,15,10)          0.0061         estimate D2E/DX2                !
 ! D71   D(13,14,15,16)       -179.6758         estimate D2E/DX2                !
 ! D72   D(35,14,15,10)       -179.9326         estimate D2E/DX2                !
 ! D73   D(35,14,15,16)          0.3855         estimate D2E/DX2                !
 ! D74   D(10,15,16,17)          0.8546         estimate D2E/DX2                !
 ! D75   D(10,15,16,21)       -178.8193         estimate D2E/DX2                !
 ! D76   D(14,15,16,17)       -179.4727         estimate D2E/DX2                !
 ! D77   D(14,15,16,21)          0.8533         estimate D2E/DX2                !
 ! D78   D(15,16,17,8)           0.1103         estimate D2E/DX2                !
 ! D79   D(15,16,17,18)       -179.5435         estimate D2E/DX2                !
 ! D80   D(21,16,17,8)         179.8051         estimate D2E/DX2                !
 ! D81   D(21,16,17,18)          0.1513         estimate D2E/DX2                !
 ! D82   D(15,16,21,20)        179.4428         estimate D2E/DX2                !
 ! D83   D(15,16,21,39)         -0.2501         estimate D2E/DX2                !
 ! D84   D(17,16,21,20)         -0.2392         estimate D2E/DX2                !
 ! D85   D(17,16,21,39)       -179.9321         estimate D2E/DX2                !
 ! D86   D(8,17,18,19)        -179.554          estimate D2E/DX2                !
 ! D87   D(8,17,18,36)           0.1402         estimate D2E/DX2                !
 ! D88   D(16,17,18,19)          0.0883         estimate D2E/DX2                !
 ! D89   D(16,17,18,36)        179.7825         estimate D2E/DX2                !
 ! D90   D(17,18,19,20)         -0.2519         estimate D2E/DX2                !
 ! D91   D(17,18,19,37)        179.7436         estimate D2E/DX2                !
 ! D92   D(36,18,19,20)       -179.9531         estimate D2E/DX2                !
 ! D93   D(36,18,19,37)          0.0424         estimate D2E/DX2                !
 ! D94   D(18,19,20,21)          0.1657         estimate D2E/DX2                !
 ! D95   D(18,19,20,38)        179.9546         estimate D2E/DX2                !
 ! D96   D(37,19,20,21)       -179.8298         estimate D2E/DX2                !
 ! D97   D(37,19,20,38)         -0.0409         estimate D2E/DX2                !
 ! D98   D(19,20,21,16)          0.0824         estimate D2E/DX2                !
 ! D99   D(19,20,21,39)        179.7873         estimate D2E/DX2                !
 ! D100  D(38,20,21,16)       -179.7069         estimate D2E/DX2                !
 ! D101  D(38,20,21,39)         -0.002          estimate D2E/DX2                !
 --------------------------------------------------------------------------------
 Trust Radius=3.00D-01 FncErr=1.00D-07 GrdErr=1.00D-06
 Number of steps in this run= 222 maximum allowed number of steps= 234.
 GradGradGradGradGradGradGradGradGradGradGradGradGradGradGradGradGradGrad

 Leave Link  103 at Wed Sep 29 12:53:24 2021, MaxMem= 1610612736 cpu:       0.0
 (Enter /sw/target/amd/app/gaussian/Gaussian09RevA.02_gcc-4.9.2/g09/l202.exe)
                          Input orientation:                          
 ---------------------------------------------------------------------
 Center     Atomic      Atomic             Coordinates (Angstroms)
 Number     Number       Type             X           Y           Z
 ---------------------------------------------------------------------
      1          8           0        3.341067    2.242383    2.921612
      2          6           0        3.016003    2.155603    1.744038
      3          6           0        1.605004    2.444153    1.224078
      4          6           0        1.539505    3.930655    0.859790
      5          6           0        1.262128    1.578522    0.002807
      6          6           0        0.594941    2.134340    2.340775
      7          8           0        3.875308    1.866940    0.677636
      8          6           0        5.253215    1.536251    0.813293
      9          6           0        5.731727    0.937554    1.974309
     10          6           0        7.077599    0.597186    2.090195
     11          6           0        7.529761    0.019169    3.289336
     12          6           0        8.862209   -0.339234    3.454027
     13          6           0        9.757578   -0.123469    2.419568
     14          6           0        9.318736    0.451185    1.221330
     15          6           0        7.967281    0.831585    1.012475
     16          6           0        7.463648    1.420332   -0.203917
     17          6           0        6.089038    1.772927   -0.297138
     18          6           0        5.596706    2.341102   -1.494999
     19          6           0        6.421001    2.566074   -2.594383
     20          6           0        7.763353    2.231040   -2.517912
     21          6           0        8.270712    1.670462   -1.344233
     22          1           0        2.308078    4.193572    0.123790
     23          1           0        1.709824    4.560674    1.740822
     24          1           0        0.563277    4.195486    0.439944
     25          1           0        1.883057    1.834302   -0.863255
     26          1           0        0.216721    1.712524   -0.297117
     27          1           0        1.418509    0.514985    0.217176
     28          1           0        0.760893    2.768978    3.219150
     29          1           0        0.681100    1.092887    2.672333
     30          1           0       -0.434665    2.298771    2.004401
     31          1           0        5.062212    0.723254    2.802174
     32          1           0        6.838776   -0.152543    4.112831
     33          1           0        9.195703   -0.782634    4.387661
     34          1           0       10.803650   -0.399280    2.536866
     35          1           0       10.064180    0.597442    0.447027
     36          1           0        4.545979    2.612776   -1.582230
     37          1           0        6.015967    3.000281   -3.504272
     38          1           0        8.418640    2.400073   -3.367933
     39          1           0        9.329279    1.423949   -1.341007
 ---------------------------------------------------------------------
                    Distance matrix (angstroms):
                    1          2          3          4          5
     1  O    0.000000
     2  C    1.224695   0.000000
     3  C    2.436441   1.531189   0.000000
     4  C    3.216675   2.472398   1.531889   0.000000
     5  C    3.644464   2.537910   1.535703   2.518707   0.000000
     6  C    2.808959   2.493610   1.537279   2.512422   2.494026
     7  O    2.337049   1.399623   2.405422   3.122191   2.714275
     8  C    2.932565   2.500999   3.781861   4.418934   4.072769
     9  C    2.883612   2.985268   4.456740   5.270250   4.926964
    10  C    4.166485   4.364063   5.840440   6.580000   6.256190
    11  C    4.756370   5.227456   6.726706   7.555500   7.246797
    12  C    6.118107   6.582279   8.086219   8.864763   8.564458
    13  C    6.857180   7.148380   8.630547   9.295459   8.995008
    14  C    6.467757   6.550016   7.967031   8.529587   8.225851
    15  C    5.199713   5.177196   6.566865   7.137496   6.821761
    16  C    5.238356   4.910875   6.116460   6.521400   6.206980
    17  C    4.258179   3.708960   4.782385   5.166481   4.840126
    18  C    4.960252   4.145575   4.830909   4.953038   4.649034
    19  C    6.325897   5.530316   6.147303   6.133710   5.859576
    20  C    7.010361   6.380222   7.209241   7.282434   7.003265
    21  C    6.544152   6.114306   7.185157   7.434739   7.137452
    22  H    3.563988   2.698088   2.182982   1.096141   2.819066
    23  H    3.070780   2.736875   2.181209   1.096426   3.480568
    24  H    4.205877   3.446397   2.183398   1.095183   2.743717
    25  H    4.076461   2.860905   2.192302   2.735253   1.095919
    26  H    4.516913   3.492652   2.185554   2.829893   1.095804
    27  H    3.740869   2.752258   2.184107   3.477699   1.096139
    28  H    2.650119   2.763641   2.190514   2.742683   3.466019
    29  H    2.908420   2.728163   2.185626   3.474924   2.774852
    30  H    3.885950   3.463438   2.188674   2.805446   2.721074
    31  H    2.298774   2.712608   4.171830   5.144875   4.796725
    32  H    4.403254   5.054929   6.517676   7.438888   7.140580
    33  H    6.751059   7.335576   8.833976   9.658071   9.367156
    34  H    7.925690   8.234284   9.717181  10.362688  10.068455
    35  H    7.350487   7.333955   8.693205   9.162465   8.867692
    36  H    4.676921   3.689701   4.068554   4.091351   3.790211
    37  H    7.001534   6.103935   6.490236   6.320550   6.076182
    38  H    8.084862   7.441808   8.216699   8.218201   7.953145
    39  H    7.395839   7.064720   8.202737   8.473940   8.179771
                    6          7          8          9         10
     6  C    0.000000
     7  O    3.687594   0.000000
     8  C    4.938667   1.423511   0.000000
     9  C    5.287076   2.447736   1.391175   0.000000
    10  C    6.667120   3.723206   2.416754   1.393073   0.000000
    11  C    7.312007   4.856980   3.689849   2.409492   1.405878
    12  C    8.700898   6.119210   4.849305   3.690484   2.433465
    13  C    9.437045   6.449585   5.062023   4.187063   2.794659
    14  C    8.954930   5.650741   4.227567   3.697319   2.408099
    15  C    7.603483   4.234184   2.811118   2.435992   1.417025
    16  C    7.359647   3.721932   2.436015   2.824410   2.467703
    17  C    6.105269   2.420666   1.409849   2.446424   2.838834
    18  C    6.306629   2.812184   2.468600   3.744900   4.252988
    19  C    7.647559   4.204218   3.746535   4.898992   5.123760
    20  C    8.660388   5.045888   4.228528   5.097122   4.937042
    21  C    8.527129   4.842121   3.711903   4.242207   3.790876
    22  H    3.477110   2.859401   4.026239   5.074194   6.288806
    23  H    2.736787   3.616060   4.750060   5.418231   6.681640
    24  H    2.804013   4.055635   5.404298   6.299307   7.622826
    25  H    3.466277   2.518824   3.775926   4.864996   6.102179
    26  H    2.698047   3.789360   5.160461   6.014586   7.349482
    27  H    2.794682   2.841772   4.012893   4.676530   5.961565
    28  H    1.096288   4.119776   5.242969   5.441777   6.774363
    29  H    1.096348   3.844599   4.955486   5.101000   6.442034
    30  H    1.095570   4.530194   5.861071   6.314920   7.703043
    31  H    4.707501   2.688944   2.157103   1.086064   2.141166
    32  H    6.881533   4.965986   4.031498   2.643321   2.170296
    33  H    9.309758   7.006506   5.804873   4.558777   3.415936
    34  H   10.520238   7.522925   6.125709   5.275224   3.882771
    35  H    9.778284   6.321941   4.915374   4.606345   3.408764
    36  H    5.588343   2.472461   2.719857   4.106255   4.894733
    37  H    8.018850   4.832725   4.622396   5.860928   6.180614
    38  H    9.688666   6.106777   5.314957   6.156137   5.902539
    39  H    9.505200   5.832405   4.611715   4.916327   4.186496
                   11         12         13         14         15
    11  C    0.000000
    12  C    1.389603   0.000000
    13  C    2.395832   1.385043   0.000000
    14  C    2.768343   2.412077   1.399494   0.000000
    15  C    2.456734   2.851823   2.469251   1.419421   0.000000
    16  C    3.764366   4.293321   3.811576   2.532178   1.442179
    17  C    4.244307   5.120834   4.943176   3.805745   2.475683
    18  C    5.658439   6.506963   6.221800   4.980335   3.766390
    19  C    6.506476   7.140279   6.595915   5.237298   4.290555
    20  C    6.218606   6.593773   5.822315   4.423689   3.803115
    21  C    4.974509   5.235651   4.426641   3.027722   2.519892
    22  H    7.396776   8.636750   8.910807   8.022430   6.642236
    23  H    7.542866   8.837465   9.336393   8.663332   7.320681
    24  H    8.607703   9.925757  10.349273   9.554497   8.152478
    25  H    7.240441   8.489508   8.753164   7.845243   6.445277
    26  H    8.319294   9.644961  10.088568   9.313610   7.909631
    27  H    6.857944   8.161836   8.648597   7.964043   6.604480
    28  H    7.306432   8.680293   9.483983   9.088462   7.781706
    29  H    6.959721   8.342216   9.161106   8.782138   7.477423
    30  H    8.383300   9.772019  10.484342   9.957691   8.586574
    31  H    2.611869   3.999222   4.786417   4.548746   3.413823
    32  H    1.088618   2.136155   3.374521   3.856873   3.442999
    33  H    2.150482   1.086045   2.150254   3.400456   3.937843
    34  H    3.385212   2.148018   1.088162   2.158447   3.447287
    35  H    3.851805   3.371075   2.122413   1.084723   2.184385
    36  H    6.273906   7.260034   7.117737   5.942359   4.648703
    37  H    7.571770   8.226261   7.671332   6.303767   5.376976
    38  H    7.125872   7.364761   6.454161   5.066525   4.674597
    39  H    5.162533   5.130236   4.088993   2.740794   2.782949
                   16         17         18         19         20
    16  C    0.000000
    17  C    1.422169   0.000000
    18  C    2.449527   1.414243   0.000000
    19  C    2.848537   2.452879   1.392380   0.000000
    20  C    2.470150   2.818693   2.398504   1.385642   0.000000
    21  C    1.419238   2.422108   2.760941   2.405500   1.396132
    22  H    5.863289   4.509142   4.106969   5.191662   6.371040
    23  H    6.837416   5.576946   5.523123   6.705791   7.759460
    24  H    7.465330   6.078331   5.702468   6.795223   8.028016
    25  H    5.634634   4.244353   3.800939   4.911745   6.121533
    26  H    7.253414   5.872628   5.547456   6.670762   7.883681
    27  H    6.127045   4.864235   4.870686   6.093994   7.119171
    28  H    7.646121   6.461078   6.766932   8.116352   9.068501
    29  H    7.374483   6.206932   6.564136   7.928118   8.853945
    30  H    8.248132   6.937745   6.973165   8.259566   9.362874
    31  H    3.910166   3.429566   4.622641   5.862178   6.154095
    32  H    4.636671   4.870049   6.261690   7.249286   7.106551
    33  H    5.379189   6.174917   7.570746   8.225677   7.669472
    34  H    4.688123   5.914188   7.132874   7.370933   6.458542
    35  H    2.804219   4.211567   5.173987   5.137941   4.093080
    36  H    3.440125   2.176657   1.088780   2.131277   3.372345
    37  H    3.935017   3.434741   2.155800   1.086501   2.148952
    38  H    3.447158   3.905143   3.387429   2.148604   1.086514
    39  H    2.184849   3.422076   3.846685   3.366523   2.118638
                   21         22         23         24         25
    21  C    0.000000
    22  H    6.638839   0.000000
    23  H    7.804880   1.762800   0.000000
    24  H    8.304432   1.773213   1.772065   0.000000
    25  H    6.407833   2.592500   3.774166   3.002555   0.000000
    26  H    8.121884   3.272084   3.807165   2.613132   1.764091
    27  H    7.122206   3.785770   4.332893   3.785120   1.767408
    28  H    8.855992   3.742259   2.509203   3.130170   4.335770
    29  H    8.606312   4.330863   3.735175   3.824077   3.807200
    30  H    9.348354   3.827480   3.128021   2.653478   3.716318
    31  H    5.327698   5.177075   5.204879   6.154424   4.977632
    32  H    5.929025   7.438306   7.358464   8.472151   7.298503
    33  H    6.303007   9.506977   9.570532  10.718439   9.375248
    34  H    5.075681   9.954495  10.389057  11.418152   9.804422
    35  H    2.752546   8.555335   9.336829  10.159386   8.377198
    36  H    3.849446   3.227635   4.783384   4.738784   2.866026
    37  H    3.393827   5.323084   6.963384   6.834997   5.041372
    38  H    2.156288   7.262765   8.704930   8.912360   7.021921
    39  H    1.086896   7.688544   8.797318   9.364613   7.472808
                   26         27         28         29         30
    26  H    0.000000
    27  H    1.772820   0.000000
    28  H    3.711651   3.811140   0.000000
    29  H    3.068751   2.627839   1.764839   0.000000
    30  H    2.462718   3.132143   1.768069   1.773477   0.000000
    31  H    5.836355   4.472377   4.781235   4.398594   5.773591
    32  H    8.171765   6.708280   6.802545   6.445395   7.959734
    33  H   10.430488   8.919726   9.226343   8.885854  10.388406
    34  H   11.161283   9.710701  10.552741  10.232836  11.569906
    35  H    9.938290   8.649119   9.947432   9.656068  10.749218
    36  H    4.604828   4.173686   6.115925   5.945474   6.145677
    37  H    6.750956   6.415800   8.536610   8.381492   8.511654
    38  H    8.784880   8.087547  10.107763   9.902681  10.356315
    39  H    9.176693   8.113842   9.799050   9.539785  10.358169
                   31         32         33         34         35
    31  H    0.000000
    32  H    2.375084   0.000000
    33  H    4.676240   2.455127   0.000000
    34  H    5.856157   4.273730   2.481510   0.000000
    35  H    5.530121   4.940023   4.264676   2.430576   0.000000
    36  H    4.802061   6.733322   8.293874   8.074520   6.215303
    37  H    6.772426   8.284780   9.311486   8.424623   6.146090
    38  H    7.221327   8.060624   8.419186   6.956386   4.528929
    39  H    5.988721   6.199377   6.140398   4.531648   2.102441
                   36         37         38         39
    36  H    0.000000
    37  H    2.450565   0.000000
    38  H    4.269834   2.480257   0.000000
    39  H    4.934719   4.259410   2.427038   0.000000
 Stoichiometry    C19H18O2
 Framework group  C1[X(C19H18O2)]
 Deg. of freedom   111
 Full point group                 C1      NOp   1
 Largest Abelian subgroup         C1      NOp   1
 Largest concise Abelian subgroup C1      NOp   1
                         Standard orientation:                         
 ---------------------------------------------------------------------
 Center     Atomic      Atomic             Coordinates (Angstroms)
 Number     Number       Type             X           Y           Z
 ---------------------------------------------------------------------
      1          8           0        2.240487   -1.870933   -0.744694
      2          6           0        2.502888   -0.802883   -0.205906
      3          6           0        3.927253   -0.302359    0.049435
      4          6           0        4.360400    0.509760   -1.175117
      5          6           0        4.007185    0.559153    1.318211
      6          6           0        4.852756   -1.517142    0.225426
      7          8           0        1.571784    0.165723    0.186255
      8          6           0        0.158976    0.013680    0.101170
      9          6           0       -0.426948   -1.246913    0.155645
     10          6           0       -1.811757   -1.385197    0.093743
     11          6           0       -2.365976   -2.676878    0.123644
     12          6           0       -3.741179   -2.867867    0.065879
     13          6           0       -4.577722   -1.767497   -0.022027
     14          6           0       -4.037213   -0.476952   -0.052467
     15          6           0       -2.639144   -0.238304    0.004135
     16          6           0       -2.032870    1.070075   -0.017189
     17          6           0       -0.616594    1.189085    0.033424
     18          6           0       -0.026022    2.474068    0.022119
     19          6           0       -0.793154    3.634627   -0.035610
     20          6           0       -2.174194    3.535138   -0.088838
     21          6           0       -2.777964    2.276338   -0.080450
     22          1           0        3.665966    1.335078   -1.370402
     23          1           0        4.378614   -0.114521   -2.076279
     24          1           0        5.360982    0.933612   -1.038693
     25          1           0        3.450369    1.496629    1.208061
     26          1           0        5.044302    0.823945    1.552860
     27          1           0        3.590255    0.028360    2.181894
     28          1           0        4.876302   -2.137700   -0.678012
     29          1           0        4.512289   -2.156004    1.048782
     30          1           0        5.881440   -1.207271    0.440053
     31          1           0        0.186447   -2.137947    0.252293
     32          1           0       -1.721080   -3.551542    0.188144
     33          1           0       -4.153060   -3.872541    0.087724
     34          1           0       -5.656243   -1.904320   -0.068602
     35          1           0       -4.740001    0.346287   -0.123103
     36          1           0        1.056701    2.580843    0.063972
     37          1           0       -0.313866    4.609695   -0.038848
     38          1           0       -2.785937    4.431960   -0.133466
     39          1           0       -3.863968    2.257521   -0.120243
 ---------------------------------------------------------------------
 Rotational constants (GHZ):      0.4981890      0.2055157      0.1513266
 Leave Link  202 at Wed Sep 29 12:53:25 2021, MaxMem= 1610612736 cpu:       0.1
 (Enter /sw/target/amd/app/gaussian/Gaussian09RevA.02_gcc-4.9.2/g09/l301.exe)
 Standard basis: 6-31G(d) (6D, 7F)
 Ernie: Thresh=  0.10000D-02 Tol=  0.10000D-05 Strict=F.
 There are   351 symmetry adapted basis functions of A   symmetry.
 Integral buffers will be    131072 words long.
 Raffenetti 2 integral format.
 Two-electron integral symmetry is turned on.
   351 basis functions,   660 primitive gaussians,   351 cartesian basis functions
    74 alpha electrons       74 beta electrons
       nuclear repulsion energy      1576.3527110814 Hartrees.
 IExCor=  402 DFT=T Ex+Corr=B3LYP ExCW=0 ScaHFX=  0.200000
 ScaDFX=  0.800000  0.720000  1.000000  0.810000 ScalE2=  1.000000  1.000000
 IRadAn=      0 IRanWt=     -1 IRanGd=            0 ICorTp=0
 NAtoms=   39 NActive=   39 NUniq=   39 SFac= 7.50D-01 NAtFMM=   80 NAOKFM=F Big=F
 Leave Link  301 at Wed Sep 29 12:53:25 2021, MaxMem= 1610612736 cpu:       0.1
 (Enter /sw/target/amd/app/gaussian/Gaussian09RevA.02_gcc-4.9.2/g09/l302.exe)
 NPDir=0 NMtPBC=     1 NCelOv=     1 NCel=       1 NClECP=     1 NCelD=      1
         NCelK=      1 NCelE2=     1 NClLst=     1 CellRange=     0.0.
 One-electron integrals computed using PRISM.
 NBasis=   351 RedAO= T  NBF=   351
 NBsUse=   351 1.00D-06 NBFU=   351
 Precomputing XC quadrature grid using
 IXCGrd= 2 IRadAn=           0 IRanWt=          -1 IRanGd=           0 AccXCQ= 1.00D-10.
 NRdTot=    2478 NPtTot=      315990 NUsed=      333856 NTot=      333888
 NSgBfM=   347   347   348   348   348 NAtAll=    39    39.
 Leave Link  302 at Wed Sep 29 12:53:32 2021, MaxMem= 1610612736 cpu:       4.1
 (Enter /sw/target/amd/app/gaussian/Gaussian09RevA.02_gcc-4.9.2/g09/l303.exe)
 DipDrv:  MaxL=1.
 Leave Link  303 at Wed Sep 29 12:53:33 2021, MaxMem= 1610612736 cpu:       0.3
 (Enter /sw/target/amd/app/gaussian/Gaussian09RevA.02_gcc-4.9.2/g09/l401.exe)
 Harris functional with IExCor=  402 diagonalized for initial guess.
 ExpMin= 1.61D-01 ExpMax= 5.48D+03 ExpMxC= 8.25D+02 IAcc=1 IRadAn=         1 AccDes= 0.00D+00
 HarFok:  IExCor=  402 AccDes= 0.00D+00 IRadAn=         1 IDoV= 1
 ScaDFX=  1.000000  1.000000  1.000000  1.000000
 FoFCou: FMM=F IPFlag=           0 FMFlag=      100000 FMFlg1=           0
         NFxFlg=           0 DoJE=T BraDBF=F KetDBF=T FulRan=T
         Omega=  0.000000  0.000000  1.000000  0.000000  0.000000 ICntrl=     500 IOpCl=  0
         NMat0=    1 NMatS0=    1 NMatT0=    0 NMatD0=    1 NMtDS0=    0 NMtDT0=    0
         I1Cent=           4 NGrid=           0.
 Petite list used in FoFCou.
 Harris En= -885.473962678372    
 Initial guess orbital symmetries:
       Occupied  (A) (A) (A) (A) (A) (A) (A) (A) (A) (A) (A) (A)
                 (A) (A) (A) (A) (A) (A) (A) (A) (A) (A) (A) (A)
                 (A) (A) (A) (A) (A) (A) (A) (A) (A) (A) (A) (A)
                 (A) (A) (A) (A) (A) (A) (A) (A) (A) (A) (A) (A)
                 (A) (A) (A) (A) (A) (A) (A) (A) (A) (A) (A) (A)
                 (A) (A) (A) (A) (A) (A) (A) (A) (A) (A) (A) (A)
                 (A) (A)
       Virtual   (A) (A) (A) (A) (A) (A) (A) (A) (A) (A) (A) (A)
                 (A) (A) (A) (A) (A) (A) (A) (A) (A) (A) (A) (A)
                 (A) (A) (A) (A) (A) (A) (A) (A) (A) (A) (A) (A)
                 (A) (A) (A) (A) (A) (A) (A) (A) (A) (A) (A) (A)
                 (A) (A) (A) (A) (A) (A) (A) (A) (A) (A) (A) (A)
                 (A) (A) (A) (A) (A) (A) (A) (A) (A) (A) (A) (A)
                 (A) (A) (A) (A) (A) (A) (A) (A) (A) (A) (A) (A)
                 (A) (A) (A) (A) (A) (A) (A) (A) (A) (A) (A) (A)
                 (A) (A) (A) (A) (A) (A) (A) (A) (A) (A) (A) (A)
                 (A) (A) (A) (A) (A) (A) (A) (A) (A) (A) (A) (A)
                 (A) (A) (A) (A) (A) (A) (A) (A) (A) (A) (A) (A)
                 (A) (A) (A) (A) (A) (A) (A) (A) (A) (A) (A) (A)
                 (A) (A) (A) (A) (A) (A) (A) (A) (A) (A) (A) (A)
                 (A) (A) (A) (A) (A) (A) (A) (A) (A) (A) (A) (A)
                 (A) (A) (A) (A) (A) (A) (A) (A) (A) (A) (A) (A)
                 (A) (A) (A) (A) (A) (A) (A) (A) (A) (A) (A) (A)
                 (A) (A) (A) (A) (A) (A) (A) (A) (A) (A) (A) (A)
                 (A) (A) (A) (A) (A) (A) (A) (A) (A) (A) (A) (A)
                 (A) (A) (A) (A) (A) (A) (A) (A) (A) (A) (A) (A)
                 (A) (A) (A) (A) (A) (A) (A) (A) (A) (A) (A) (A)
                 (A) (A) (A) (A) (A) (A) (A) (A) (A) (A) (A) (A)
                 (A) (A) (A) (A) (A) (A) (A) (A) (A) (A) (A) (A)
                 (A) (A) (A) (A) (A) (A) (A) (A) (A) (A) (A) (A)
                 (A)
 The electronic state of the initial guess is 1-A.
 Leave Link  401 at Wed Sep 29 12:53:53 2021, MaxMem= 1610612736 cpu:      16.9
 (Enter /sw/target/amd/app/gaussian/Gaussian09RevA.02_gcc-4.9.2/g09/l502.exe)
 Closed shell SCF:
 Requested convergence on RMS density matrix=1.00D-08 within  64 cycles.
 Requested convergence on MAX density matrix=1.00D-06.
 Requested convergence on             energy=1.00D-06.
 No special actions if energy rises.
 Using DIIS extrapolation, IDIIS=  1040.
 Integral symmetry usage will be decided dynamically.
       333492 words used for storage of precomputed grid.
 IEnd=      713394 IEndB=      713394 NGot=  1610612736 MDV=  1610027119
 LenX=  1610027119 LenY=  1609903477
 Fock matrices will be formed incrementally for  20 cycles.
 Integral accuracy reduced to 1.0D-05 until final iterations.

 Cycle   1  Pass 0  IDiag  1:
 FoFCou: FMM=F IPFlag=           0 FMFlag=      100000 FMFlg1=           0
         NFxFlg=           0 DoJE=F BraDBF=F KetDBF=F FulRan=T
         Omega=  0.000000  0.000000  1.000000  0.000000  0.000000 ICntrl=       0 IOpCl=  0
         NMat0=    1 NMatS0=    1 NMatT0=    0 NMatD0=    1 NMtDS0=    0 NMtDT0=    0
         I1Cent=           0 NGrid=           0.
 Symmetry not used in FoFCou.
 E= -884.777276973735    
 DIIS: error= 3.60D-02 at cycle   1 NSaved=   1.
 NSaved= 1 IEnMin= 1 EnMin= -884.777276973735     IErMin= 1 ErrMin= 3.60D-02
 ErrMax= 3.60D-02 EMaxC= 1.00D-01 BMatC= 5.51D-01 BMatP= 5.51D-01
 IDIUse=3 WtCom= 6.40D-01 WtEn= 3.60D-01
 Coeff-Com:  0.100D+01
 Coeff-En:   0.100D+01
 Coeff:      0.100D+01
 Gap=     0.168 Goal=   None    Shift=    0.000
 GapD=    0.168 DampG=1.000 DampE=0.500 DampFc=0.5000 IDamp=-1.
 Damping current iteration by 5.00D-01
 RMSDP=5.27D-03 MaxDP=2.05D-01              OVMax= 2.37D-01

 Cycle   2  Pass 0  IDiag  1:
 RMSU=  1.79D-03    CP:  9.62D-01
 E= -884.974030468269     Delta-E=       -0.196753494535 Rises=F Damp=T
 DIIS: error= 1.75D-02 at cycle   2 NSaved=   2.
 NSaved= 2 IEnMin= 2 EnMin= -884.974030468269     IErMin= 2 ErrMin= 1.75D-02
 ErrMax= 1.75D-02 EMaxC= 1.00D-01 BMatC= 7.60D-02 BMatP= 5.51D-01
 IDIUse=3 WtCom= 8.25D-01 WtEn= 1.75D-01
 Coeff-Com:  0.175D+00 0.825D+00
 Coeff-En:   0.260D+00 0.740D+00
 Coeff:      0.190D+00 0.810D+00
 Gap=     0.168 Goal=   None    Shift=    0.000
 RMSDP=1.97D-03 MaxDP=8.08D-02 DE=-1.97D-01 OVMax= 2.66D-01

 Cycle   3  Pass 0  IDiag  1:
 RMSU=  1.35D-03    CP:  9.38D-01  9.49D-01
 E= -885.244853755011     Delta-E=       -0.270823286741 Rises=F Damp=F
 DIIS: error= 2.52D-02 at cycle   3 NSaved=   3.
 NSaved= 3 IEnMin= 3 EnMin= -885.244853755011     IErMin= 2 ErrMin= 1.75D-02
 ErrMax= 2.52D-02 EMaxC= 1.00D-01 BMatC= 1.13D-01 BMatP= 7.60D-02
 IDIUse=2 WtCom= 0.00D+00 WtEn= 1.00D+00
 Coeff-En:   0.000D+00 0.000D+00 0.100D+01
 Coeff:      0.000D+00 0.000D+00 0.100D+01
 Gap=     0.173 Goal=   None    Shift=    0.000
 RMSDP=3.12D-03 MaxDP=1.90D-01 DE=-2.71D-01 OVMax= 3.42D-01

 Cycle   4  Pass 0  IDiag  1:
 RMSU=  1.35D-03    CP:  9.44D-01  1.27D+00 -2.16D-01
 E= -884.670490641610     Delta-E=        0.574363113401 Rises=F Damp=F
 DIIS: error= 7.00D-02 at cycle   4 NSaved=   4.
 NSaved= 4 IEnMin= 3 EnMin= -885.244853755011     IErMin= 2 ErrMin= 1.75D-02
 ErrMax= 7.00D-02 EMaxC= 1.00D-01 BMatC= 8.04D-01 BMatP= 7.60D-02
 IDIUse=2 WtCom= 0.00D+00 WtEn= 1.00D+00
 Coeff-En:   0.000D+00 0.000D+00 0.813D+00 0.187D+00
 Coeff:      0.000D+00 0.000D+00 0.813D+00 0.187D+00
 Gap=     0.192 Goal=   None    Shift=    0.000
 RMSDP=1.66D-03 MaxDP=9.74D-02 DE= 5.74D-01 OVMax= 1.44D-01

 Cycle   5  Pass 0  IDiag  1:
 RMSU=  2.66D-04    CP:  9.44D-01  1.03D+00  3.81D-01  4.93D-01
 E= -885.290431593756     Delta-E=       -0.619940952145 Rises=F Damp=F
 DIIS: error= 1.83D-02 at cycle   5 NSaved=   5.
 NSaved= 5 IEnMin= 5 EnMin= -885.290431593756     IErMin= 2 ErrMin= 1.75D-02
 ErrMax= 1.83D-02 EMaxC= 1.00D-01 BMatC= 6.34D-02 BMatP= 7.60D-02
 IDIUse=3 WtCom= 8.17D-01 WtEn= 1.83D-01
 Coeff-Com: -0.707D-03 0.562D-01 0.349D+00-0.732D-01 0.669D+00
 Coeff-En:   0.000D+00 0.000D+00 0.391D+00 0.000D+00 0.609D+00
 Coeff:     -0.577D-03 0.459D-01 0.357D+00-0.598D-01 0.658D+00
 Gap=     0.161 Goal=   None    Shift=    0.000
 RMSDP=7.20D-04 MaxDP=3.54D-02 DE=-6.20D-01 OVMax= 7.52D-02

 Cycle   6  Pass 0  IDiag  1:
 RMSU=  1.01D-04    CP:  9.42D-01  9.74D-01  6.50D-01  2.63D-01  6.55D-01
 E= -885.344681313328     Delta-E=       -0.054249719572 Rises=F Damp=F
 DIIS: error= 1.28D-03 at cycle   6 NSaved=   6.
 NSaved= 6 IEnMin= 6 EnMin= -885.344681313328     IErMin= 6 ErrMin= 1.28D-03
 ErrMax= 1.28D-03 EMaxC= 1.00D-01 BMatC= 9.72D-04 BMatP= 6.34D-02
 IDIUse=3 WtCom= 9.87D-01 WtEn= 1.28D-02
 Coeff-Com: -0.505D-02 0.248D-01 0.180D+00-0.628D-01 0.444D+00 0.420D+00
 Coeff-En:   0.000D+00 0.000D+00 0.000D+00 0.000D+00 0.000D+00 0.100D+01
 Coeff:     -0.498D-02 0.244D-01 0.178D+00-0.620D-01 0.438D+00 0.427D+00
 Gap=     0.159 Goal=   None    Shift=    0.000
 RMSDP=1.04D-04 MaxDP=5.68D-03 DE=-5.42D-02 OVMax= 1.40D-02

 Cycle   7  Pass 0  IDiag  1:
 RMSU=  2.56D-05    CP:  9.42D-01  9.87D-01  6.32D-01  2.77D-01  7.53D-01
                    CP:  5.01D-01
 E= -885.345565830543     Delta-E=       -0.000884517215 Rises=F Damp=F
 DIIS: error= 3.04D-04 at cycle   7 NSaved=   7.
 NSaved= 7 IEnMin= 7 EnMin= -885.345565830543     IErMin= 7 ErrMin= 3.04D-04
 ErrMax= 3.04D-04 EMaxC= 1.00D-01 BMatC= 4.85D-05 BMatP= 9.72D-04
 IDIUse=3 WtCom= 9.97D-01 WtEn= 3.04D-03
 Coeff-Com: -0.714D-03 0.247D-02 0.439D-01-0.169D-01 0.105D+00 0.175D+00
 Coeff-Com:  0.691D+00
 Coeff-En:   0.000D+00 0.000D+00 0.000D+00 0.000D+00 0.000D+00 0.000D+00
 Coeff-En:   0.100D+01
 Coeff:     -0.712D-03 0.246D-02 0.438D-01-0.169D-01 0.105D+00 0.175D+00
 Coeff:      0.692D+00
 Gap=     0.159 Goal=   None    Shift=    0.000
 RMSDP=2.58D-05 MaxDP=1.16D-03 DE=-8.85D-04 OVMax= 3.34D-03

 Cycle   8  Pass 0  IDiag  1:
 RMSU=  1.09D-05    CP:  9.42D-01  9.84D-01  6.37D-01  2.72D-01  7.42D-01
                    CP:  5.59D-01  7.09D-01
 E= -885.345609481732     Delta-E=       -0.000043651189 Rises=F Damp=F
 DIIS: error= 1.20D-04 at cycle   8 NSaved=   8.
 NSaved= 8 IEnMin= 8 EnMin= -885.345609481732     IErMin= 8 ErrMin= 1.20D-04
 ErrMax= 1.20D-04 EMaxC= 1.00D-01 BMatC= 8.28D-06 BMatP= 4.85D-05
 IDIUse=3 WtCom= 9.99D-01 WtEn= 1.20D-03
 Coeff-Com:  0.277D-03-0.128D-02 0.107D-01-0.388D-02 0.199D-01 0.682D-01
 Coeff-Com:  0.447D+00 0.459D+00
 Coeff-En:   0.000D+00 0.000D+00 0.000D+00 0.000D+00 0.000D+00 0.000D+00
 Coeff-En:   0.361D-01 0.964D+00
 Coeff:      0.277D-03-0.128D-02 0.107D-01-0.388D-02 0.199D-01 0.682D-01
 Coeff:      0.447D+00 0.460D+00
 Gap=     0.159 Goal=   None    Shift=    0.000
 RMSDP=9.61D-06 MaxDP=4.69D-04 DE=-4.37D-05 OVMax= 8.66D-04

 Initial convergence to 1.0D-05 achieved.  Increase integral accuracy.
 Cycle   9  Pass 1  IDiag  1:
 E= -885.345703271628     Delta-E=       -0.000093789896 Rises=F Damp=F
 DIIS: error= 6.16D-05 at cycle   1 NSaved=   1.
 NSaved= 1 IEnMin= 1 EnMin= -885.345703271628     IErMin= 1 ErrMin= 6.16D-05
 ErrMax= 6.16D-05 EMaxC= 1.00D-01 BMatC= 7.50D-07 BMatP= 7.50D-07
 IDIUse=1 WtCom= 1.00D+00 WtEn= 0.00D+00
 Coeff-Com:  0.100D+01
 Coeff:      0.100D+01
 Gap=     0.159 Goal=   None    Shift=    0.000
 RMSDP=9.61D-06 MaxDP=4.69D-04 DE=-9.38D-05 OVMax= 4.32D-04

 Cycle  10  Pass 1  IDiag  1:
 RMSU=  2.62D-05    CP:  1.00D+00
 E= -885.345703280108     Delta-E=       -0.000000008480 Rises=F Damp=F
 DIIS: error= 4.51D-05 at cycle   2 NSaved=   2.
 NSaved= 2 IEnMin= 2 EnMin= -885.345703280108     IErMin= 2 ErrMin= 4.51D-05
 ErrMax= 4.51D-05 EMaxC= 1.00D-01 BMatC= 7.23D-07 BMatP= 7.50D-07
 IDIUse=1 WtCom= 1.00D+00 WtEn= 0.00D+00
 Coeff-Com:  0.494D+00 0.506D+00
 Coeff:      0.494D+00 0.506D+00
 Gap=     0.159 Goal=   None    Shift=    0.000
 RMSDP=4.12D-06 MaxDP=2.02D-04 DE=-8.48D-09 OVMax= 5.21D-04

 Cycle  11  Pass 1  IDiag  1:
 RMSU=  2.92D-06    CP:  1.00D+00  9.98D-01
 E= -885.345703749054     Delta-E=       -0.000000468946 Rises=F Damp=F
 DIIS: error= 2.66D-05 at cycle   3 NSaved=   3.
 NSaved= 3 IEnMin= 3 EnMin= -885.345703749054     IErMin= 3 ErrMin= 2.66D-05
 ErrMax= 2.66D-05 EMaxC= 1.00D-01 BMatC= 2.74D-07 BMatP= 7.23D-07
 IDIUse=1 WtCom= 1.00D+00 WtEn= 0.00D+00
 Coeff-Com:  0.497D-01 0.373D+00 0.577D+00
 Coeff:      0.497D-01 0.373D+00 0.577D+00
 Gap=     0.159 Goal=   None    Shift=    0.000
 RMSDP=1.86D-06 MaxDP=9.02D-05 DE=-4.69D-07 OVMax= 2.50D-04

 Cycle  12  Pass 1  IDiag  1:
 RMSU=  6.37D-07    CP:  1.00D+00  1.00D+00  6.10D-01
 E= -885.345704011314     Delta-E=       -0.000000262260 Rises=F Damp=F
 DIIS: error= 1.01D-05 at cycle   4 NSaved=   4.
 NSaved= 4 IEnMin= 4 EnMin= -885.345704011314     IErMin= 4 ErrMin= 1.01D-05
 ErrMax= 1.01D-05 EMaxC= 1.00D-01 BMatC= 3.53D-08 BMatP= 2.74D-07
 IDIUse=1 WtCom= 1.00D+00 WtEn= 0.00D+00
 Coeff-Com: -0.322D-02 0.214D+00 0.388D+00 0.401D+00
 Coeff:     -0.322D-02 0.214D+00 0.388D+00 0.401D+00
 Gap=     0.159 Goal=   None    Shift=    0.000
 RMSDP=5.50D-07 MaxDP=3.74D-05 DE=-2.62D-07 OVMax= 4.02D-05

 Cycle  13  Pass 1  IDiag  1:
 RMSU=  1.73D-07    CP:  1.00D+00  1.01D+00  6.31D-01  4.68D-01
 E= -885.345704039517     Delta-E=       -0.000000028203 Rises=F Damp=F
 DIIS: error= 1.61D-06 at cycle   5 NSaved=   5.
 NSaved= 5 IEnMin= 5 EnMin= -885.345704039517     IErMin= 5 ErrMin= 1.61D-06
 ErrMax= 1.61D-06 EMaxC= 1.00D-01 BMatC= 1.46D-09 BMatP= 3.53D-08
 IDIUse=1 WtCom= 1.00D+00 WtEn= 0.00D+00
 Coeff-Com: -0.542D-02 0.101D+00 0.193D+00 0.237D+00 0.474D+00
 Coeff:     -0.542D-02 0.101D+00 0.193D+00 0.237D+00 0.474D+00
 Gap=     0.159 Goal=   None    Shift=    0.000
 RMSDP=1.19D-07 MaxDP=6.67D-06 DE=-2.82D-08 OVMax= 9.39D-06

 Cycle  14  Pass 1  IDiag  1:
 RMSU=  5.42D-08    CP:  1.00D+00  1.01D+00  6.38D-01  4.76D-01  6.53D-01
 E= -885.345704040688     Delta-E=       -0.000000001171 Rises=F Damp=F
 DIIS: error= 5.10D-07 at cycle   6 NSaved=   6.
 NSaved= 6 IEnMin= 6 EnMin= -885.345704040688     IErMin= 6 ErrMin= 5.10D-07
 ErrMax= 5.10D-07 EMaxC= 1.00D-01 BMatC= 9.64D-11 BMatP= 1.46D-09
 IDIUse=1 WtCom= 1.00D+00 WtEn= 0.00D+00
 Coeff-Com: -0.280D-02 0.412D-01 0.798D-01 0.105D+00 0.270D+00 0.507D+00
 Coeff:     -0.280D-02 0.412D-01 0.798D-01 0.105D+00 0.270D+00 0.507D+00
 Gap=     0.159 Goal=   None    Shift=    0.000
 RMSDP=3.22D-08 MaxDP=2.05D-06 DE=-1.17D-09 OVMax= 2.92D-06

 Cycle  15  Pass 1  IDiag  1:
 RMSU=  1.92D-08    CP:  1.00D+00  1.01D+00  6.36D-01  4.77D-01  6.73D-01
                    CP:  8.17D-01
 E= -885.345704040779     Delta-E=       -0.000000000091 Rises=F Damp=F
 DIIS: error= 1.87D-07 at cycle   7 NSaved=   7.
 NSaved= 7 IEnMin= 7 EnMin= -885.345704040779     IErMin= 7 ErrMin= 1.87D-07
 ErrMax= 1.87D-07 EMaxC= 1.00D-01 BMatC= 1.02D-11 BMatP= 9.64D-11
 IDIUse=1 WtCom= 1.00D+00 WtEn= 0.00D+00
 Coeff-Com: -0.782D-03 0.874D-02 0.172D-01 0.251D-01 0.819D-01 0.279D+00
 Coeff-Com:  0.589D+00
 Coeff:     -0.782D-03 0.874D-02 0.172D-01 0.251D-01 0.819D-01 0.279D+00
 Coeff:      0.589D+00
 Gap=     0.159 Goal=   None    Shift=    0.000
 RMSDP=1.05D-08 MaxDP=5.91D-07 DE=-9.09D-11 OVMax= 9.16D-07

 Cycle  16  Pass 1  IDiag  1:
 RMSU=  5.99D-09    CP:  1.00D+00  1.01D+00  6.37D-01  4.77D-01  6.79D-01
                    CP:  8.36D-01  8.01D-01
 E= -885.345704040776     Delta-E=        0.000000000003 Rises=F Damp=F
 DIIS: error= 3.19D-08 at cycle   8 NSaved=   8.
 NSaved= 8 IEnMin= 7 EnMin= -885.345704040779     IErMin= 8 ErrMin= 3.19D-08
 ErrMax= 3.19D-08 EMaxC= 1.00D-01 BMatC= 1.27D-12 BMatP= 1.02D-11
 IDIUse=1 WtCom= 1.00D+00 WtEn= 0.00D+00
 Coeff-Com: -0.141D-04-0.136D-02-0.258D-02-0.175D-02 0.372D-02 0.744D-01
 Coeff-Com:  0.319D+00 0.609D+00
 Coeff:     -0.141D-04-0.136D-02-0.258D-02-0.175D-02 0.372D-02 0.744D-01
 Coeff:      0.319D+00 0.609D+00
 Gap=     0.159 Goal=   None    Shift=    0.000
 RMSDP=3.69D-09 MaxDP=1.20D-07 DE= 3.18D-12 OVMax= 2.47D-07

 SCF Done:  E(RB3LYP) =  -885.345704041     A.U. after   16 cycles
             Convg  =    0.3687D-08             -V/T =  2.0097
 KE= 8.768605565166D+02 PE=-5.207905806935D+03 EE= 1.869346835296D+03
 Leave Link  502 at Wed Sep 29 13:06:36 2021, MaxMem= 1610612736 cpu:     805.9
 (Enter /sw/target/amd/app/gaussian/Gaussian09RevA.02_gcc-4.9.2/g09/l508.exe)
 QCSCF skips out because SCF is already converged.
 Leave Link  508 at Wed Sep 29 13:06:36 2021, MaxMem= 1610612736 cpu:       0.0
 (Enter /sw/target/amd/app/gaussian/Gaussian09RevA.02_gcc-4.9.2/g09/l601.exe)
 Copying SCF densities to generalized density rwf, IOpCl= 0 IROHF=0.

 **********************************************************************

            Population analysis using the SCF density.

 **********************************************************************

 Orbital symmetries:
       Occupied  (A) (A) (A) (A) (A) (A) (A) (A) (A) (A) (A) (A)
                 (A) (A) (A) (A) (A) (A) (A) (A) (A) (A) (A) (A)
                 (A) (A) (A) (A) (A) (A) (A) (A) (A) (A) (A) (A)
                 (A) (A) (A) (A) (A) (A) (A) (A) (A) (A) (A) (A)
                 (A) (A) (A) (A) (A) (A) (A) (A) (A) (A) (A) (A)
                 (A) (A) (A) (A) (A) (A) (A) (A) (A) (A) (A) (A)
                 (A) (A)
       Virtual   (A) (A) (A) (A) (A) (A) (A) (A) (A) (A) (A) (A)
                 (A) (A) (A) (A) (A) (A) (A) (A) (A) (A) (A) (A)
                 (A) (A) (A) (A) (A) (A) (A) (A) (A) (A) (A) (A)
                 (A) (A) (A) (A) (A) (A) (A) (A) (A) (A) (A) (A)
                 (A) (A) (A) (A) (A) (A) (A) (A) (A) (A) (A) (A)
                 (A) (A) (A) (A) (A) (A) (A) (A) (A) (A) (A) (A)
                 (A) (A) (A) (A) (A) (A) (A) (A) (A) (A) (A) (A)
                 (A) (A) (A) (A) (A) (A) (A) (A) (A) (A) (A) (A)
                 (A) (A) (A) (A) (A) (A) (A) (A) (A) (A) (A) (A)
                 (A) (A) (A) (A) (A) (A) (A) (A) (A) (A) (A) (A)
                 (A) (A) (A) (A) (A) (A) (A) (A) (A) (A) (A) (A)
                 (A) (A) (A) (A) (A) (A) (A) (A) (A) (A) (A) (A)
                 (A) (A) (A) (A) (A) (A) (A) (A) (A) (A) (A) (A)
                 (A) (A) (A) (A) (A) (A) (A) (A) (A) (A) (A) (A)
                 (A) (A) (A) (A) (A) (A) (A) (A) (A) (A) (A) (A)
                 (A) (A) (A) (A) (A) (A) (A) (A) (A) (A) (A) (A)
                 (A) (A) (A) (A) (A) (A) (A) (A) (A) (A) (A) (A)
                 (A) (A) (A) (A) (A) (A) (A) (A) (A) (A) (A) (A)
                 (A) (A) (A) (A) (A) (A) (A) (A) (A) (A) (A) (A)
                 (A) (A) (A) (A) (A) (A) (A) (A) (A) (A) (A) (A)
                 (A) (A) (A) (A) (A) (A) (A) (A) (A) (A) (A) (A)
                 (A) (A) (A) (A) (A) (A) (A) (A) (A) (A) (A) (A)
                 (A) (A) (A) (A) (A) (A) (A) (A) (A) (A) (A) (A)
                 (A)
 The electronic state is 1-A.
 Alpha  occ. eigenvalues --  -19.20459 -19.14717 -10.32552 -10.25606 -10.21639
 Alpha  occ. eigenvalues --  -10.20623 -10.20446 -10.20057 -10.19513 -10.19474
 Alpha  occ. eigenvalues --  -10.19324 -10.19245 -10.19232 -10.19161 -10.18956
 Alpha  occ. eigenvalues --  -10.18860 -10.18800 -10.18799 -10.18528 -10.18015
 Alpha  occ. eigenvalues --  -10.17726  -1.09307  -1.02084  -0.88590  -0.84921
 Alpha  occ. eigenvalues --   -0.82997  -0.80776  -0.77550  -0.76205  -0.72411
 Alpha  occ. eigenvalues --   -0.71891  -0.69497  -0.68813  -0.66585  -0.63534
 Alpha  occ. eigenvalues --   -0.62364  -0.59892  -0.58491  -0.56066  -0.53404
 Alpha  occ. eigenvalues --   -0.52180  -0.49037  -0.48672  -0.48414  -0.47556
 Alpha  occ. eigenvalues --   -0.46352  -0.45560  -0.43825  -0.43478  -0.43126
 Alpha  occ. eigenvalues --   -0.43112  -0.42451  -0.42105  -0.40519  -0.40233
 Alpha  occ. eigenvalues --   -0.39175  -0.38852  -0.38642  -0.36935  -0.36836
 Alpha  occ. eigenvalues --   -0.36065  -0.35976  -0.35828  -0.34840  -0.33667
 Alpha  occ. eigenvalues --   -0.33455  -0.33040  -0.32689  -0.29934  -0.28237
 Alpha  occ. eigenvalues --   -0.27317  -0.26149  -0.22436  -0.20448
 Alpha virt. eigenvalues --   -0.04565  -0.03457  -0.00473   0.01286   0.03741
 Alpha virt. eigenvalues --    0.07139   0.08546   0.09379   0.09951   0.11037
 Alpha virt. eigenvalues --    0.11859   0.13234   0.14366   0.14571   0.14820
 Alpha virt. eigenvalues --    0.15507   0.15899   0.15982   0.16963   0.17261
 Alpha virt. eigenvalues --    0.18177   0.18993   0.19426   0.21140   0.21438
 Alpha virt. eigenvalues --    0.22287   0.23058   0.23475   0.23860   0.24221
 Alpha virt. eigenvalues --    0.24792   0.25584   0.27688   0.28190   0.29330
 Alpha virt. eigenvalues --    0.30094   0.30354   0.32812   0.34110   0.34848
 Alpha virt. eigenvalues --    0.37781   0.39346   0.39826   0.45149   0.48412
 Alpha virt. eigenvalues --    0.48864   0.49673   0.50152   0.50437   0.50658
 Alpha virt. eigenvalues --    0.52153   0.52308   0.52965   0.53510   0.54349
 Alpha virt. eigenvalues --    0.54977   0.55603   0.55793   0.57000   0.57221
 Alpha virt. eigenvalues --    0.57720   0.58102   0.58728   0.59231   0.60171
 Alpha virt. eigenvalues --    0.60851   0.61181   0.61409   0.62147   0.62183
 Alpha virt. eigenvalues --    0.62788   0.63101   0.63345   0.63944   0.64598
 Alpha virt. eigenvalues --    0.65909   0.67039   0.67984   0.68817   0.69321
 Alpha virt. eigenvalues --    0.70704   0.70872   0.72587   0.73562   0.75770
 Alpha virt. eigenvalues --    0.77511   0.79603   0.80246   0.80650   0.82379
 Alpha virt. eigenvalues --    0.82926   0.83635   0.84012   0.84356   0.84747
 Alpha virt. eigenvalues --    0.86246   0.87222   0.87712   0.88488   0.88914
 Alpha virt. eigenvalues --    0.89516   0.90303   0.90372   0.90671   0.91424
 Alpha virt. eigenvalues --    0.91911   0.92264   0.93345   0.94394   0.95273
 Alpha virt. eigenvalues --    0.96001   0.96928   0.97747   0.98510   0.99230
 Alpha virt. eigenvalues --    0.99384   1.01712   1.03448   1.04645   1.05985
 Alpha virt. eigenvalues --    1.06927   1.08556   1.09092   1.10441   1.12405
 Alpha virt. eigenvalues --    1.13574   1.16047   1.17517   1.18713   1.20747
 Alpha virt. eigenvalues --    1.21085   1.22632   1.23848   1.24985   1.26322
 Alpha virt. eigenvalues --    1.27396   1.29786   1.30901   1.33774   1.35498
 Alpha virt. eigenvalues --    1.36243   1.39828   1.41791   1.43351   1.44113
 Alpha virt. eigenvalues --    1.45228   1.45951   1.46719   1.47570   1.48847
 Alpha virt. eigenvalues --    1.49298   1.49404   1.50060   1.50588   1.51672
 Alpha virt. eigenvalues --    1.52290   1.53324   1.54375   1.61348   1.64037
 Alpha virt. eigenvalues --    1.66291   1.66792   1.70146   1.72086   1.73094
 Alpha virt. eigenvalues --    1.74654   1.77185   1.78028   1.78079   1.80976
 Alpha virt. eigenvalues --    1.81872   1.82740   1.84330   1.84855   1.86212
 Alpha virt. eigenvalues --    1.86835   1.88178   1.88408   1.90789   1.91624
 Alpha virt. eigenvalues --    1.92552   1.93503   1.94033   1.94716   1.95870
 Alpha virt. eigenvalues --    1.96538   1.97905   1.99183   2.00287   2.01221
 Alpha virt. eigenvalues --    2.02636   2.04638   2.07365   2.07698   2.08184
 Alpha virt. eigenvalues --    2.09228   2.10186   2.11863   2.14028   2.15206
 Alpha virt. eigenvalues --    2.15830   2.19497   2.20505   2.21345   2.22497
 Alpha virt. eigenvalues --    2.23817   2.24195   2.24396   2.25144   2.26346
 Alpha virt. eigenvalues --    2.26608   2.27737   2.29315   2.30779   2.31009
 Alpha virt. eigenvalues --    2.33474   2.36141   2.37374   2.38313   2.39193
 Alpha virt. eigenvalues --    2.40728   2.42263   2.43435   2.52170   2.52454
 Alpha virt. eigenvalues --    2.54680   2.57814   2.59496   2.61564   2.62080
 Alpha virt. eigenvalues --    2.63705   2.65075   2.65989   2.67491   2.68499
 Alpha virt. eigenvalues --    2.69456   2.70503   2.72690   2.73782   2.78292
 Alpha virt. eigenvalues --    2.79444   2.81055   2.83501   2.84589   2.87590
 Alpha virt. eigenvalues --    2.89235   2.90994   2.95705   2.98700   3.02423
 Alpha virt. eigenvalues --    3.10017   3.15468   3.25604   3.35494   3.43730
 Alpha virt. eigenvalues --    3.54691   4.07353   4.08373   4.09658   4.10838
 Alpha virt. eigenvalues --    4.11562   4.13492   4.15344   4.17102   4.18507
 Alpha virt. eigenvalues --    4.28269   4.29480   4.31615   4.32268   4.35718
 Alpha virt. eigenvalues --    4.38282   4.42058   4.50610   4.58344   4.64723
 Alpha virt. eigenvalues --    4.72606   4.91228
          Condensed to atoms (all electrons):
              1          2          3          4          5          6
     1  O    8.063836   0.521338  -0.074635  -0.002172   0.002535   0.000246
     2  C    0.521338   4.398881   0.361747  -0.038428  -0.044124  -0.046997
     3  C   -0.074635   0.361747   4.965728   0.371831   0.352716   0.371184
     4  C   -0.002172  -0.038428   0.371831   5.130778  -0.053932  -0.054267
     5  C    0.002535  -0.044124   0.352716  -0.053932   5.158462  -0.066399
     6  C    0.000246  -0.046997   0.371184  -0.054267  -0.066399   5.136157
     7  O   -0.063995   0.227100  -0.091148  -0.001551   0.002117   0.002880
     8  C   -0.003054  -0.009373   0.003751  -0.000167  -0.000092  -0.000041
     9  C   -0.004157  -0.004077   0.000268  -0.000005  -0.000074  -0.000005
    10  C    0.000340   0.000493   0.000000   0.000000  -0.000001  -0.000000
    11  C   -0.000058  -0.000022  -0.000000  -0.000000   0.000000   0.000000
    12  C   -0.000000   0.000000   0.000000  -0.000000   0.000000  -0.000000
    13  C   -0.000000   0.000000  -0.000000   0.000000  -0.000000  -0.000000
    14  C    0.000000   0.000000   0.000000   0.000000  -0.000000  -0.000000
    15  C    0.000019  -0.000008   0.000001   0.000000  -0.000000   0.000000
    16  C   -0.000019   0.000023   0.000000  -0.000000   0.000000  -0.000000
    17  C   -0.000030   0.001523  -0.000316   0.000039   0.000048   0.000001
    18  C    0.000036  -0.000087  -0.000028  -0.000065  -0.000184   0.000000
    19  C    0.000000   0.000006  -0.000001  -0.000000  -0.000000   0.000000
    20  C   -0.000000  -0.000000   0.000000   0.000000   0.000000   0.000000
    21  C   -0.000000   0.000002  -0.000000  -0.000000  -0.000000   0.000000
    22  H   -0.000131  -0.005356  -0.031176   0.366556  -0.004281   0.005798
    23  H    0.002304  -0.003230  -0.031106   0.368695   0.005864  -0.005707
    24  H   -0.000047   0.004435  -0.030288   0.372348  -0.005888  -0.004030
    25  H   -0.000012  -0.006800  -0.024125  -0.004328   0.365679   0.005474
    26  H   -0.000055   0.003991  -0.026039  -0.004717   0.362749  -0.005893
    27  H    0.000094  -0.003099  -0.032627   0.005249   0.372253  -0.002831
    28  H    0.006147  -0.006022  -0.024997  -0.004821   0.005722   0.366803
    29  H    0.001070  -0.003867  -0.030780   0.005325  -0.003234   0.371247
    30  H    0.000408   0.005059  -0.029241  -0.004105  -0.005352   0.364786
    31  H    0.016024   0.001887   0.000145   0.000007  -0.000039   0.000013
    32  H   -0.000031  -0.000002  -0.000000   0.000000   0.000000   0.000000
    33  H    0.000000  -0.000000  -0.000000   0.000000   0.000000   0.000000
    34  H   -0.000000   0.000000  -0.000000   0.000000  -0.000000  -0.000000
    35  H   -0.000000   0.000000  -0.000000   0.000000   0.000000   0.000000
    36  H    0.000007  -0.000242   0.000059   0.000012   0.000063   0.000002
    37  H   -0.000000  -0.000000  -0.000000  -0.000000   0.000000  -0.000000
    38  H    0.000000   0.000000   0.000000   0.000000   0.000000   0.000000
    39  H    0.000000  -0.000000   0.000000  -0.000000  -0.000000  -0.000000
              7          8          9         10         11         12
     1  O   -0.063995  -0.003054  -0.004157   0.000340  -0.000058  -0.000000
     2  C    0.227100  -0.009373  -0.004077   0.000493  -0.000022   0.000000
     3  C   -0.091148   0.003751   0.000268   0.000000  -0.000000   0.000000
     4  C   -0.001551  -0.000167  -0.000005   0.000000  -0.000000  -0.000000
     5  C    0.002117  -0.000092  -0.000074  -0.000001   0.000000   0.000000
     6  C    0.002880  -0.000041  -0.000005  -0.000000   0.000000  -0.000000
     7  O    8.365692   0.212679  -0.054085   0.002846  -0.000065   0.000000
     8  C    0.212679   4.936456   0.362890   0.049710   0.009139  -0.000406
     9  C   -0.054085   0.362890   5.446834   0.323784  -0.085468   0.008984
    10  C    0.002846   0.049710   0.323784   4.781746   0.457704  -0.003088
    11  C   -0.000065   0.009139  -0.085468   0.457704   5.112515   0.502580
    12  C    0.000000  -0.000406   0.008984  -0.003088   0.502580   4.890629
    13  C   -0.000000   0.000084  -0.000510  -0.036884  -0.023297   0.516830
    14  C    0.000002  -0.002159   0.018996  -0.060740  -0.074114  -0.018126
    15  C    0.000312  -0.084355  -0.004132   0.426114  -0.025027  -0.040249
    16  C    0.002468   0.039616  -0.105149   0.026499   0.015528  -0.000899
    17  C   -0.057584   0.344913  -0.011580  -0.056707  -0.000265   0.000042
    18  C    0.000030  -0.108628   0.016328  -0.002168  -0.000009   0.000000
    19  C    0.000539   0.007551  -0.000410   0.000084   0.000000  -0.000000
    20  C   -0.000000  -0.000547   0.000068  -0.000235   0.000000   0.000000
    21  C   -0.000066   0.016742  -0.002029   0.012288  -0.000106  -0.000012
    22  H    0.004094   0.000010   0.000004  -0.000000   0.000000  -0.000000
    23  H    0.000024  -0.000005  -0.000001  -0.000000   0.000000   0.000000
    24  H   -0.000052   0.000005   0.000000  -0.000000   0.000000   0.000000
    25  H    0.003790   0.000201   0.000011  -0.000000   0.000000  -0.000000
    26  H    0.000399  -0.000002   0.000001   0.000000  -0.000000  -0.000000
    27  H    0.000960  -0.000018  -0.000002  -0.000000  -0.000000   0.000000
    28  H    0.000069  -0.000003   0.000001  -0.000000   0.000000   0.000000
    29  H    0.000043  -0.000005  -0.000005   0.000000  -0.000000  -0.000000
    30  H   -0.000039   0.000000   0.000000   0.000000  -0.000000   0.000000
    31  H   -0.007556  -0.031837   0.346707  -0.038064  -0.008741   0.000310
    32  H   -0.000001   0.000517  -0.008012  -0.042303   0.358057  -0.045764
    33  H   -0.000000   0.000003  -0.000231   0.002621  -0.035894   0.355538
    34  H    0.000000  -0.000000   0.000008   0.000966   0.004504  -0.041998
    35  H   -0.000000   0.000018  -0.000226   0.004891   0.000766   0.004661
    36  H    0.007416  -0.010655   0.000404  -0.000009   0.000000  -0.000000
    37  H   -0.000002  -0.000187   0.000003  -0.000001  -0.000000   0.000000
    38  H    0.000000   0.000014  -0.000001   0.000002  -0.000000  -0.000000
    39  H    0.000000  -0.000208   0.000022  -0.000177   0.000002  -0.000001
             13         14         15         16         17         18
     1  O   -0.000000   0.000000   0.000019  -0.000019  -0.000030   0.000036
     2  C    0.000000   0.000000  -0.000008   0.000023   0.001523  -0.000087
     3  C   -0.000000   0.000000   0.000001   0.000000  -0.000316  -0.000028
     4  C    0.000000   0.000000   0.000000  -0.000000   0.000039  -0.000065
     5  C   -0.000000  -0.000000  -0.000000   0.000000   0.000048  -0.000184
     6  C   -0.000000  -0.000000   0.000000  -0.000000   0.000001   0.000000
     7  O   -0.000000   0.000002   0.000312   0.002468  -0.057584   0.000030
     8  C    0.000084  -0.002159  -0.084355   0.039616   0.344913  -0.108628
     9  C   -0.000510   0.018996  -0.004132  -0.105149  -0.011580   0.016328
    10  C   -0.036884  -0.060740   0.426114   0.026499  -0.056707  -0.002168
    11  C   -0.023297  -0.074114  -0.025027   0.015528  -0.000265  -0.000009
    12  C    0.516830  -0.018126  -0.040249  -0.000899   0.000042   0.000000
    13  C    4.883481   0.510682  -0.004574   0.007736  -0.000214  -0.000000
    14  C    0.510682   5.163204   0.468363  -0.104017   0.012346  -0.000018
    15  C   -0.004574   0.468363   4.997827   0.265664   0.010160   0.017219
    16  C    0.007736  -0.104017   0.265664   5.012257   0.431409  -0.049400
    17  C   -0.000214   0.012346   0.010160   0.431409   4.917834   0.432852
    18  C   -0.000000  -0.000018   0.017219  -0.049400   0.432852   5.171423
    19  C    0.000000  -0.000023  -0.000869  -0.037839  -0.002973   0.494556
    20  C   -0.000006   0.000498   0.007594  -0.004421  -0.036065  -0.020986
    21  C    0.000429  -0.022712  -0.095852   0.475862  -0.064742  -0.074988
    22  H   -0.000000   0.000000   0.000000  -0.000001  -0.000064   0.000022
    23  H    0.000000  -0.000000  -0.000000   0.000000  -0.000001   0.000001
    24  H   -0.000000   0.000000   0.000000   0.000000  -0.000000   0.000001
    25  H   -0.000000   0.000000   0.000000  -0.000000  -0.000091  -0.000102
    26  H   -0.000000  -0.000000  -0.000000  -0.000000  -0.000001   0.000003
    27  H   -0.000000   0.000000   0.000000  -0.000000  -0.000005   0.000011
[...]

   106    C    8  S      Cor( 1S)     1.99867
   107    C    8  S      Val( 2S)     0.82791
   108    C    8  S      Ryd( 3S)     0.00125
   109    C    8  S      Ryd( 4S)     0.00014
   110    C    8  px     Val( 2p)     0.73585
   111    C    8  px     Ryd( 3p)     0.00688
   112    C    8  py     Val( 2p)     1.07896
   113    C    8  py     Ryd( 3p)     0.00542
   114    C    8  pz     Val( 2p)     0.98808
   115    C    8  pz     Ryd( 3p)     0.00283
   116    C    8  dxy    Ryd( 3d)     0.00134
   117    C    8  dxz    Ryd( 3d)     0.00133
   118    C    8  dyz    Ryd( 3d)     0.00091
   119    C    8  dx2y2  Ryd( 3d)     0.00170
   120    C    8  dz2    Ryd( 3d)     0.00048

   121    C    9  S      Cor( 1S)     1.99896
   122    C    9  S      Val( 2S)     0.95330
   123    C    9  S      Ryd( 3S)     0.00083
   124    C    9  S      Ryd( 4S)     0.00007
   125    C    9  px     Val( 2p)     1.09396
   126    C    9  px     Ryd( 3p)     0.00394
   127    C    9  py     Val( 2p)     1.17153
   128    C    9  py     Ryd( 3p)     0.00407
   129    C    9  pz     Val( 2p)     0.97955
   130    C    9  pz     Ryd( 3p)     0.00189
   131    C    9  dxy    Ryd( 3d)     0.00081
   132    C    9  dxz    Ryd( 3d)     0.00050
   133    C    9  dyz    Ryd( 3d)     0.00065
   134    C    9  dx2y2  Ryd( 3d)     0.00060
   135    C    9  dz2    Ryd( 3d)     0.00044

   136    C   10  S      Cor( 1S)     1.99903
   137    C   10  S      Val( 2S)     0.86799
   138    C   10  S      Ryd( 3S)     0.00049
   139    C   10  S      Ryd( 4S)     0.00007
   140    C   10  px     Val( 2p)     1.07442
   141    C   10  px     Ryd( 3p)     0.00510
   142    C   10  py     Val( 2p)     1.09272
   143    C   10  py     Ryd( 3p)     0.00512
   144    C   10  pz     Val( 2p)     1.00777
   145    C   10  pz     Ryd( 3p)     0.00092
   146    C   10  dxy    Ryd( 3d)     0.00071
   147    C   10  dxz    Ryd( 3d)     0.00065
   148    C   10  dyz    Ryd( 3d)     0.00070
   149    C   10  dx2y2  Ryd( 3d)     0.00071
   150    C   10  dz2    Ryd( 3d)     0.00035

   151    C   11  S      Cor( 1S)     1.99907
   152    C   11  S      Val( 2S)     0.95153
   153    C   11  S      Ryd( 3S)     0.00065
   154    C   11  S      Ryd( 4S)     0.00004
   155    C   11  px     Val( 2p)     1.10939
   156    C   11  px     Ryd( 3p)     0.00428
   157    C   11  py     Val( 2p)     1.13452
   158    C   11  py     Ryd( 3p)     0.00464
   159    C   11  pz     Val( 2p)     0.98571
   160    C   11  pz     Ryd( 3p)     0.00167
   161    C   11  dxy    Ryd( 3d)     0.00086
   162    C   11  dxz    Ryd( 3d)     0.00064
   163    C   11  dyz    Ryd( 3d)     0.00036
   164    C   11  dx2y2  Ryd( 3d)     0.00064
   165    C   11  dz2    Ryd( 3d)     0.00042

   166    C   12  S      Cor( 1S)     1.99911
   167    C   12  S      Val( 2S)     0.96075
   168    C   12  S      Ryd( 3S)     0.00058
   169    C   12  S      Ryd( 4S)     0.00003
   170    C   12  px     Val( 2p)     1.08547
   171    C   12  px     Ryd( 3p)     0.00480
   172    C   12  py     Val( 2p)     1.16798
   173    C   12  py     Ryd( 3p)     0.00491
   174    C   12  pz     Val( 2p)     1.02370
   175    C   12  pz     Ryd( 3p)     0.00247
   176    C   12  dxy    Ryd( 3d)     0.00076
   177    C   12  dxz    Ryd( 3d)     0.00055
   178    C   12  dyz    Ryd( 3d)     0.00036
   179    C   12  dx2y2  Ryd( 3d)     0.00074
   180    C   12  dz2    Ryd( 3d)     0.00043

   181    C   13  S      Cor( 1S)     1.99912
   182    C   13  S      Val( 2S)     0.96456
   183    C   13  S      Ryd( 3S)     0.00060
   184    C   13  S      Ryd( 4S)     0.00003
   185    C   13  px     Val( 2p)     1.19340
   186    C   13  px     Ryd( 3p)     0.00514
   187    C   13  py     Val( 2p)     1.06062
   188    C   13  py     Ryd( 3p)     0.00460
   189    C   13  pz     Val( 2p)     0.97461
   190    C   13  pz     Ryd( 3p)     0.00136
   191    C   13  dxy    Ryd( 3d)     0.00064
   192    C   13  dxz    Ryd( 3d)     0.00033
   193    C   13  dyz    Ryd( 3d)     0.00071
   194    C   13  dx2y2  Ryd( 3d)     0.00088
   195    C   13  dz2    Ryd( 3d)     0.00043

   196    C   14  S      Cor( 1S)     1.99908
   197    C   14  S      Val( 2S)     0.94643
   198    C   14  S      Ryd( 3S)     0.00063
   199    C   14  S      Ryd( 4S)     0.00005
   200    C   14  px     Val( 2p)     1.09475
   201    C   14  px     Ryd( 3p)     0.00430
   202    C   14  py     Val( 2p)     1.15373
   203    C   14  py     Ryd( 3p)     0.00408
   204    C   14  pz     Val( 2p)     1.00746
   205    C   14  pz     Ryd( 3p)     0.00215
   206    C   14  dxy    Ryd( 3d)     0.00081
   207    C   14  dxz    Ryd( 3d)     0.00045
   208    C   14  dyz    Ryd( 3d)     0.00045
   209    C   14  dx2y2  Ryd( 3d)     0.00067
   210    C   14  dz2    Ryd( 3d)     0.00041

   211    C   15  S      Cor( 1S)     1.99901
   212    C   15  S      Val( 2S)     0.86004
   213    C   15  S      Ryd( 3S)     0.00042
   214    C   15  S      Ryd( 4S)     0.00007
   215    C   15  px     Val( 2p)     1.08908
   216    C   15  px     Ryd( 3p)     0.00476
   217    C   15  py     Val( 2p)     1.06641
   218    C   15  py     Ryd( 3p)     0.00493
   219    C   15  pz     Val( 2p)     1.00920
   220    C   15  pz     Ryd( 3p)     0.00151
   221    C   15  dxy    Ryd( 3d)     0.00075
   222    C   15  dxz    Ryd( 3d)     0.00062
   223    C   15  dyz    Ryd( 3d)     0.00061
   224    C   15  dx2y2  Ryd( 3d)     0.00066
   225    C   15  dz2    Ryd( 3d)     0.00034

   226    C   16  S      Cor( 1S)     1.99903
   227    C   16  S      Val( 2S)     0.85940
   228    C   16  S      Ryd( 3S)     0.00046
   229    C   16  S      Ryd( 4S)     0.00007
   230    C   16  px     Val( 2p)     1.06726
   231    C   16  px     Ryd( 3p)     0.00526
   232    C   16  py     Val( 2p)     1.08289
   233    C   16  py     Ryd( 3p)     0.00460
   234    C   16  pz     Val( 2p)     1.01058
   235    C   16  pz     Ryd( 3p)     0.00158
   236    C   16  dxy    Ryd( 3d)     0.00063
   237    C   16  dxz    Ryd( 3d)     0.00048
   238    C   16  dyz    Ryd( 3d)     0.00076
   239    C   16  dx2y2  Ryd( 3d)     0.00075
   240    C   16  dz2    Ryd( 3d)     0.00034

   241    C   17  S      Cor( 1S)     1.99897
   242    C   17  S      Val( 2S)     0.87027
   243    C   17  S      Ryd( 3S)     0.00054
   244    C   17  S      Ryd( 4S)     0.00007
   245    C   17  px     Val( 2p)     1.08520
   246    C   17  px     Ryd( 3p)     0.00522
   247    C   17  py     Val( 2p)     1.09005
   248    C   17  py     Ryd( 3p)     0.00461
   249    C   17  pz     Val( 2p)     1.02942
   250    C   17  pz     Ryd( 3p)     0.00122
   251    C   17  dxy    Ryd( 3d)     0.00069
   252    C   17  dxz    Ryd( 3d)     0.00061
   253    C   17  dyz    Ryd( 3d)     0.00073
   254    C   17  dx2y2  Ryd( 3d)     0.00067
   255    C   17  dz2    Ryd( 3d)     0.00035

   256    C   18  S      Cor( 1S)     1.99908
   257    C   18  S      Val( 2S)     0.94789
   258    C   18  S      Ryd( 3S)     0.00068
   259    C   18  S      Ryd( 4S)     0.00005
   260    C   18  px     Val( 2p)     1.19902
   261    C   18  px     Ryd( 3p)     0.00491
   262    C   18  py     Val( 2p)     1.05113
   263    C   18  py     Ryd( 3p)     0.00432
   264    C   18  pz     Val( 2p)     0.99617
   265    C   18  pz     Ryd( 3p)     0.00195
   266    C   18  dxy    Ryd( 3d)     0.00063
   267    C   18  dxz    Ryd( 3d)     0.00031
   268    C   18  dyz    Ryd( 3d)     0.00067
   269    C   18  dx2y2  Ryd( 3d)     0.00084
   270    C   18  dz2    Ryd( 3d)     0.00042

   271    C   19  S      Cor( 1S)     1.99910
   272    C   19  S      Val( 2S)     0.95896
   273    C   19  S      Ryd( 3S)     0.00059
   274    C   19  S      Ryd( 4S)     0.00003
   275    C   19  px     Val( 2p)     1.08619
   276    C   19  px     Ryd( 3p)     0.00478
   277    C   19  py     Val( 2p)     1.16555
   278    C   19  py     Ryd( 3p)     0.00489
   279    C   19  pz     Val( 2p)     1.02763
   280    C   19  pz     Ryd( 3p)     0.00254
   281    C   19  dxy    Ryd( 3d)     0.00080
   282    C   19  dxz    Ryd( 3d)     0.00047
   283    C   19  dyz    Ryd( 3d)     0.00042
   284    C   19  dx2y2  Ryd( 3d)     0.00069
   285    C   19  dz2    Ryd( 3d)     0.00043

   286    C   20  S      Cor( 1S)     1.99911
   287    C   20  S      Val( 2S)     0.96310
   288    C   20  S      Ryd( 3S)     0.00060
   289    C   20  S      Ryd( 4S)     0.00003
   290    C   20  px     Val( 2p)     1.09665
   291    C   20  px     Ryd( 3p)     0.00478
   292    C   20  py     Val( 2p)     1.15846
   293    C   20  py     Ryd( 3p)     0.00498
   294    C   20  pz     Val( 2p)     0.97718
   295    C   20  pz     Ryd( 3p)     0.00132
   296    C   20  dxy    Ryd( 3d)     0.00084
   297    C   20  dxz    Ryd( 3d)     0.00059
   298    C   20  dyz    Ryd( 3d)     0.00047
   299    C   20  dx2y2  Ryd( 3d)     0.00068
   300    C   20  dz2    Ryd( 3d)     0.00043

   301    C   21  S      Cor( 1S)     1.99908
   302    C   21  S      Val( 2S)     0.94424
   303    C   21  S      Ryd( 3S)     0.00065
   304    C   21  S      Ryd( 4S)     0.00005
   305    C   21  px     Val( 2p)     1.19028
   306    C   21  px     Ryd( 3p)     0.00455
   307    C   21  py     Val( 2p)     1.05762
   308    C   21  py     Ryd( 3p)     0.00383
   309    C   21  pz     Val( 2p)     1.01932
   310    C   21  pz     Ryd( 3p)     0.00222
   311    C   21  dxy    Ryd( 3d)     0.00061
   312    C   21  dxz    Ryd( 3d)     0.00030
   313    C   21  dyz    Ryd( 3d)     0.00059
   314    C   21  dx2y2  Ryd( 3d)     0.00087
   315    C   21  dz2    Ryd( 3d)     0.00042

   316    H   22  S      Val( 1S)     0.75936
   317    H   22  S      Ryd( 2S)     0.00101

   318    H   23  S      Val( 1S)     0.76067
   319    H   23  S      Ryd( 2S)     0.00089

   320    H   24  S      Val( 1S)     0.76215
   321    H   24  S      Ryd( 2S)     0.00103

   322    H   25  S      Val( 1S)     0.75410
   323    H   25  S      Ryd( 2S)     0.00106

   324    H   26  S      Val( 1S)     0.76244
   325    H   26  S      Ryd( 2S)     0.00105

   326    H   27  S      Val( 1S)     0.76311
   327    H   27  S      Ryd( 2S)     0.00092

   328    H   28  S      Val( 1S)     0.75507
   329    H   28  S      Ryd( 2S)     0.00102

   330    H   29  S      Val( 1S)     0.75581
   331    H   29  S      Ryd( 2S)     0.00103

   332    H   30  S      Val( 1S)     0.76816
   333    H   30  S      Ryd( 2S)     0.00090

   334    H   31  S      Val( 1S)     0.74452
   335    H   31  S      Ryd( 2S)     0.00123

   336    H   32  S      Val( 1S)     0.76508
   337    H   32  S      Ryd( 2S)     0.00105

   338    H   33  S      Val( 1S)     0.76327
   339    H   33  S      Ryd( 2S)     0.00080

   340    H   34  S      Val( 1S)     0.76299
   341    H   34  S      Ryd( 2S)     0.00081

   342    H   35  S      Val( 1S)     0.76922
   343    H   35  S      Ryd( 2S)     0.00096

   344    H   36  S      Val( 1S)     0.75926
   345    H   36  S      Ryd( 2S)     0.00115

   346    H   37  S      Val( 1S)     0.76530
   347    H   37  S      Ryd( 2S)     0.00079

   348    H   38  S      Val( 1S)     0.76401
   349    H   38  S      Ryd( 2S)     0.00082

   350    H   39  S      Val( 1S)     0.77078
   351    H   39  S      Ryd( 2S)     0.00098

 WARNING:  1 low occupancy (<1.9990e) core orbital  found on  C    8
           1 low occupancy (<1.9990e) core orbital  found on  C    9
           1 low occupancy (<1.9990e) core orbital  found on  C   17


 Summary of Natural Population Analysis:                  
                                                          
                                       Natural Population 
                Natural  -----------------------------------------------
    Atom  No    Charge         Core      Valence    Rydberg      Total
 -----------------------------------------------------------------------
      O    1   -0.57228      1.99977     6.55248    0.02002     8.57228
      C    2    0.84420      1.99927     3.10765    0.04888     5.15580
      C    3   -0.15169      1.99905     4.14035    0.01229     6.15169
      C    4   -0.66926      1.99938     4.65997    0.00991     6.66926
      C    5   -0.67022      1.99938     4.66110    0.00974     6.67022
      C    6   -0.67034      1.99940     4.65984    0.01111     6.67034
      O    7   -0.54239      1.99969     6.53183    0.01087     8.54239
      C    8    0.34825      1.99867     3.63080    0.02228     5.65175
      C    9   -0.21109      1.99896     4.19835    0.01377     6.21109
      C   10   -0.05675      1.99903     4.04290    0.01482     6.05675
      C   11   -0.19441      1.99907     4.18114    0.01420     6.19441
      C   12   -0.25261      1.99911     4.23789    0.01561     6.25261
      C   13   -0.20702      1.99912     4.19318    0.01472     6.20702
      C   14   -0.21547      1.99908     4.20237    0.01402     6.21547
      C   15   -0.03840      1.99901     4.02472    0.01466     6.03840
      C   16   -0.03409      1.99903     4.02013    0.01493     6.03409
      C   17   -0.08861      1.99897     4.07495    0.01470     6.08861
      C   18   -0.20806      1.99908     4.19420    0.01478     6.20806
      C   19   -0.25309      1.99910     4.23834    0.01565     6.25309
      C   20   -0.20923      1.99911     4.19540    0.01472     6.20923
      C   21   -0.22463      1.99908     4.21146    0.01409     6.22463
      H   22    0.23963      0.00000     0.75936    0.00101     0.76037
      H   23    0.23843      0.00000     0.76067    0.00089     0.76157
      H   24    0.23682      0.00000     0.76215    0.00103     0.76318
      H   25    0.24484      0.00000     0.75410    0.00106     0.75516
      H   26    0.23651      0.00000     0.76244    0.00105     0.76349
      H   27    0.23597      0.00000     0.76311    0.00092     0.76403
      H   28    0.24391      0.00000     0.75507    0.00102     0.75609
      H   29    0.24316      0.00000     0.75581    0.00103     0.75684
      H   30    0.23094      0.00000     0.76816    0.00090     0.76906
      H   31    0.25425      0.00000     0.74452    0.00123     0.74575
      H   32    0.23387      0.00000     0.76508    0.00105     0.76613
      H   33    0.23593      0.00000     0.76327    0.00080     0.76407
      H   34    0.23620      0.00000     0.76299    0.00081     0.76380
      H   35    0.22981      0.00000     0.76922    0.00096     0.77019
      H   36    0.23959      0.00000     0.75926    0.00115     0.76041
      H   37    0.23391      0.00000     0.76530    0.00079     0.76609
      H   38    0.23517      0.00000     0.76401    0.00082     0.76483
      H   39    0.22824      0.00000     0.77078    0.00098     0.77176
 =======================================================================
   * Total *    0.00000     41.98236   105.66436    0.35328   148.00000

                                 Natural Population      
 --------------------------------------------------------
   Core                      41.98236 ( 99.9580% of  42)
   Valence                  105.66436 ( 99.6834% of 106)
   Natural Minimal Basis    147.64672 ( 99.7613% of 148)
   Natural Rydberg Basis      0.35328 (  0.2387% of 148)
 --------------------------------------------------------

    Atom  No          Natural Electron Configuration
 ----------------------------------------------------------------------------
      O    1      [core]2S( 1.70)2p( 4.86)3d( 0.02)
      C    2      [core]2S( 0.78)2p( 2.33)3S( 0.01)3p( 0.03)3d( 0.01)
      C    3      [core]2S( 0.94)2p( 3.20)3p( 0.01)
      C    4      [core]2S( 1.09)2p( 3.57)3p( 0.01)
      C    5      [core]2S( 1.10)2p( 3.57)3p( 0.01)
      C    6      [core]2S( 1.09)2p( 3.57)3p( 0.01)
      O    7      [core]2S( 1.60)2p( 4.94)3d( 0.01)
      C    8      [core]2S( 0.83)2p( 2.80)3p( 0.02)3d( 0.01)
      C    9      [core]2S( 0.95)2p( 3.25)3p( 0.01)
      C   10      [core]2S( 0.87)2p( 3.17)3p( 0.01)
      C   11      [core]2S( 0.95)2p( 3.23)3p( 0.01)
      C   12      [core]2S( 0.96)2p( 3.28)3p( 0.01)
      C   13      [core]2S( 0.96)2p( 3.23)3p( 0.01)
      C   14      [core]2S( 0.95)2p( 3.26)3p( 0.01)
      C   15      [core]2S( 0.86)2p( 3.16)3p( 0.01)
      C   16      [core]2S( 0.86)2p( 3.16)3p( 0.01)
      C   17      [core]2S( 0.87)2p( 3.20)3p( 0.01)
      C   18      [core]2S( 0.95)2p( 3.25)3p( 0.01)
      C   19      [core]2S( 0.96)2p( 3.28)3p( 0.01)
      C   20      [core]2S( 0.96)2p( 3.23)3p( 0.01)
      C   21      [core]2S( 0.94)2p( 3.27)3p( 0.01)
      H   22            1S( 0.76)
      H   23            1S( 0.76)
      H   24            1S( 0.76)
      H   25            1S( 0.75)
      H   26            1S( 0.76)
      H   27            1S( 0.76)
      H   28            1S( 0.76)
      H   29            1S( 0.76)
      H   30            1S( 0.77)
      H   31            1S( 0.74)
      H   32            1S( 0.77)
      H   33            1S( 0.76)
      H   34            1S( 0.76)
      H   35            1S( 0.77)
      H   36            1S( 0.76)
      H   37            1S( 0.77)
      H   38            1S( 0.76)
      H   39            1S( 0.77)


 NBO analysis skipped by request.
 Leave Link  607 at Thu Sep 30 11:18:53 2021, MaxMem= 1610612736 cpu:      32.7
 (Enter /sw/target/amd/app/gaussian/Gaussian09RevA.02_gcc-4.9.2/g09/l9999.exe)
 1\1\GINC-HERMITE\SP\RTD-B3LYP-FC\6-31G(d)\C19H18O2\JSCHLEINITZ\30-Sep-
 2021\0\\#p TD(NStates=10, Root=1) b3lyp/6-31G* volume pop=NPA density=
 current Geom=AllCheck Guess=Read\\O=C(C(C)(C)C)Oc1cc2ccccc2c2c1cccc2_c
 onf_0\\0,1\O,0,3.4625141296,2.4277757343,2.7553432784\C,0,3.0535876151
 ,2.1963908299,1.644727428\C,0,1.6077907928,2.3735206891,1.1670311213\C
 ,0,1.5709421832,3.3618430618,-0.0199539285\C,0,1.0582613915,1.00014371
 96,0.7194146574\C,0,0.7747856773,2.9233881142,2.3359738581\O,0,3.84470
 58357,1.7188568237,0.6243616575\C,0,5.1964268919,1.434889882,0.8245656
 622\C,0,5.6363861843,0.6894440762,1.8715488103\C,0,7.0254920953,0.3650
 718952,2.0015616626\C,0,7.476414479,-0.40453532,3.0998322663\C,0,8.810
 5200726,-0.7304540813,3.2402118191\C,0,9.7384294103,-0.291490566,2.277
 4522538\C,0,9.3194686786,0.4619158321,1.1957433793\C,0,7.960201291,0.8
 120046104,1.0223650458\C,0,7.4764772961,1.6030370225,-0.1015733508\C,0
 ,6.087252733,1.9188720685,-0.1975288913\C,0,5.6145572829,2.6901236269,
 -1.2840746767\C,0,6.4804223814,3.1451880268,-2.2589535294\C,0,7.850014
 6544,2.8379444686,-2.1754863032\C,0,8.331066288,2.084811041,-1.1206004
 363\H,0,2.1189025039,2.9732063843,-0.8829590254\H,0,2.0005086278,4.332
 0032767,0.2552227508\H,0,0.5315889962,3.5300879095,-0.3245310752\H,0,1
 .6395340967,0.5884570818,-0.1103410606\H,0,0.0181007768,1.1097363957,0
 .3914102573\H,0,1.0753205088,0.2780727115,1.5439954963\H,0,1.157217132
 3,3.8908159433,2.6751701416\H,0,0.7943512169,2.2422180857,3.1918237217
 \H,0,-0.2661163794,3.0535492264,2.0194932823\H,0,4.9439317591,0.342076
 0414,2.6286356005\H,0,6.7488274492,-0.7340248815,3.8375019185\H,0,9.14
 34738494,-1.3211133564,4.0891875331\H,0,10.7900450015,-0.5438088663,2.
 3827839771\H,0,10.0590885914,0.7863023216,0.4718115706\H,0,4.557045094
 3,2.9202015546,-1.3395587137\H,0,6.1036530972,3.738179223,-3.087785639
 2\H,0,8.53469661,3.1923871834,-2.9411660599\H,0,9.3918108501,1.8631692
 347,-1.0816066231\\Version=AM64L-G09RevA.02\State=1-A\HF=-885.3553882\
 RMSD=5.999e-09\Dipole=-0.3850427,-0.2307884,-0.4092648\Quadrupole=8.64
 77092,-4.3837222,-4.263987,-2.0415486,1.2414334,-6.525753\PG=C01 [X(C1
 9H18O2)]\\@


 BETTER TO HUNT IN FIELDS, FOR HEALTH UNBOUGHT
 THAN FEE THE DOCTOR FOR A NAUSEOUS DRAUGHT.
 THE WISE, FOR CURE, ON EXERCISE DEPEND;
 GOD NEVER MADE HIS WORK FOR MAN TO MEND.
     -- JOHN DRYDEN (1631-1700)
 Job cpu time:  0 days  7 hours 41 minutes 59.6 seconds.
 File lengths (MBytes):  RWF=    395 Int=      0 D2E=      0 Chk=     55 Scr=      1
 Normal termination of Gaussian 09 at Thu Sep 30 11:19:01 2021.
