 Entering Gaussian System, Link 0=g09
 Input=C19H19NO2_3761_conf_0.com
 Output=C19H19NO2_3761_conf_0.log
 Initial command:
 /sw/target/amd/app/gaussian/Gaussian09RevA.02_gcc-4.9.2/g09/l1.exe /home/jschleinitz/gaussian/Gau-3623497.inp -scrdir=/home/jschleinitz/gaussian/
 Entering Link 1 = /sw/target/amd/app/gaussian/Gaussian09RevA.02_gcc-4.9.2/g09/l1.exe PID=   3623499.
  
 Copyright (c) 1988,1990,1992,1993,1995,1998,2003,2009, Gaussian, Inc.
                  All Rights Reserved.
  
 This is part of the Gaussian(R) 09 program.  It is based on
 the Gaussian(R) 03 system (copyright 2003, Gaussian, Inc.),
 the Gaussian(R) 98 system (copyright 1998, Gaussian, Inc.),
 the Gaussian(R) 94 system (copyright 1995, Gaussian, Inc.),
 the Gaussian 92(TM) system (copyright 1992, Gaussian, Inc.),
 the Gaussian 90(TM) system (copyright 1990, Gaussian, Inc.),
 the Gaussian 88(TM) system (copyright 1988, Gaussian, Inc.),
 the Gaussian 86(TM) system (copyright 1986, Carnegie Mellon
 University), and the Gaussian 82(TM) system (copyright 1983,
 Carnegie Mellon University). Gaussian is a federally registered
 trademark of Gaussian, Inc.
  
 This software contains proprietary and confidential information,
 including trade secrets, belonging to Gaussian, Inc.
  
 This software is provided under written license and may be
 used, copied, transmitted, or stored only in accord with that
 written license.
  
 The following legend is applicable only to US Government
 contracts under FAR:
  
                    RESTRICTED RIGHTS LEGEND
  
 Use, reproduction and disclosure by the US Government is
 subject to restrictions as set forth in subparagraphs (a)
 and (c) of the Commercial Computer Software - Restricted
 Rights clause in FAR 52.227-19.
  
 Gaussian, Inc.
 340 Quinnipiac St., Bldg. 40, Wallingford CT 06492
  
  
 ---------------------------------------------------------------
 Warning -- This program may not be used in any manner that
 competes with the business of Gaussian, Inc. or will provide
 assistance to any competitor of Gaussian, Inc.  The licensee
 of this program is prohibited from giving any competitor of
 Gaussian, Inc. access to this program.  By using this program,
 the user acknowledges that Gaussian, Inc. is engaged in the
 business of creating and licensing software in the field of
 computational chemistry and represents and warrants to the
 licensee that it is not a competitor of Gaussian, Inc. and that
 it will not use this program in any manner prohibited above.
 ---------------------------------------------------------------
  

 Cite this work as:
 Gaussian 09, Revision A.02,
 M. J. Frisch, G. W. Trucks, H. B. Schlegel, G. E. Scuseria, 
 M. A. Robb, J. R. Cheeseman, G. Scalmani, V. Barone, B. Mennucci, 
 G. A. Petersson, H. Nakatsuji, M. Caricato, X. Li, H. P. Hratchian, 
 A. F. Izmaylov, J. Bloino, G. Zheng, J. L. Sonnenberg, M. Hada, 
 M. Ehara, K. Toyota, R. Fukuda, J. Hasegawa, M. Ishida, T. Nakajima, 
 Y. Honda, O. Kitao, H. Nakai, T. Vreven, J. A. Montgomery, Jr., 
 J. E. Peralta, F. Ogliaro, M. Bearpark, J. J. Heyd, E. Brothers, 
 K. N. Kudin, V. N. Staroverov, R. Kobayashi, J. Normand, 
 K. Raghavachari, A. Rendell, J. C. Burant, S. S. Iyengar, J. Tomasi, 
 M. Cossi, N. Rega, J. M. Millam, M. Klene, J. E. Knox, J. B. Cross, 
 V. Bakken, C. Adamo, J. Jaramillo, R. Gomperts, R. E. Stratmann, 
 O. Yazyev, A. J. Austin, R. Cammi, C. Pomelli, J. W. Ochterski, 
 R. L. Martin, K. Morokuma, V. G. Zakrzewski, G. A. Voth, 
 P. Salvador, J. J. Dannenberg, S. Dapprich, A. D. Daniels, 
 O. Farkas, J. B. Foresman, J. V. Ortiz, J. Cioslowski, 
 and D. J. Fox, Gaussian, Inc., Wallingford CT, 2009.
 
 ******************************************
 Gaussian 09:  AM64L-G09RevA.02 11-Jun-2009
                29-Sep-2021 
 ******************************************
 %nproc=6
 Will use up to    6 processors via shared memory.
 %mem=12gb
 %chk=C19H19NO2_3761_conf_0.chk
 -----------------------------------
 #p opt b3lyp/6-31G* scf=(xqc,tight)
 -----------------------------------
 1/14=-1,18=20,19=15,26=3,38=1/1,3;
 2/9=110,12=2,17=6,18=5,40=1/2;
 3/5=1,6=6,7=1,11=2,16=1,25=1,30=1,71=1,74=-5/1,2,3;
 4//1;
 5/5=2,8=3,13=1,32=2,38=5/2,8;
 6/7=2,8=2,9=2,10=2,28=1/1;
 7//1,2,3,16;
 1/14=-1,18=20,19=15/3(2);
 2/9=110/2;
 99//99;
 2/9=110/2;
 3/5=1,6=6,7=1,11=2,16=1,25=1,30=1,71=1,74=-5/1,2,3;
 4/5=5,16=3/1;
 5/5=2,8=3,13=1,32=2,38=5/2,8;
 7//1,2,3,16;
 1/14=-1,18=20,19=15/3(-5);
 2/9=110/2;
 6/7=2,8=2,9=2,10=2,19=2,28=1/1;
 99/9=1/99;
 Leave Link    1 at Wed Sep 29 15:22:53 2021, MaxMem= 1610612736 cpu:       0.1
 (Enter /sw/target/amd/app/gaussian/Gaussian09RevA.02_gcc-4.9.2/g09/l101.exe)
 ----------------------------------------
 CCN(C(=O)Oc1c2ccccc2cc2c1cccc2)CC_conf_0
 ----------------------------------------
 Symbolic Z-matrix:
 Charge =  0 Multiplicity = 1
 C                     0.41373  -1.41008  -0.91307 
 C                     1.36184  -0.23565  -1.11255 
 N                     0.76506   0.79858  -1.95248 
 C                     0.03511   1.83308  -1.36547 
 O                    -0.05929   2.00038  -0.15645 
 O                    -0.58171   2.64509  -2.32743 
 C                    -1.44469   3.76627  -2.09369 
 C                    -1.17401   4.912    -2.89974 
 C                    -0.09531   5.00718  -3.8102 
 C                     0.09671   6.14027  -4.60561 
 C                    -0.78513   7.21046  -4.51241 
 C                    -1.84505   7.14838  -3.60998 
 C                    -2.04491   6.01565  -2.80311 
 C                    -3.12142   5.96992  -1.90875 
 C                    -3.39847   4.83401  -1.13643 
 C                    -2.58024   3.68437  -1.24017 
 C                    -2.98302   2.54194  -0.50677 
 C                    -4.09298   2.56034   0.34257 
 C                    -4.85299   3.71369   0.46433 
 C                    -4.51232   4.83945  -0.28022 
 C                     1.08745   0.79556  -3.3765 
 C                     2.33038   1.63181  -3.64958 
 H                     0.88593  -2.18122  -0.29635 
 H                     0.13595  -1.8629   -1.87109 
 H                    -0.50809  -1.09186  -0.41511 
 H                     2.29196  -0.58168  -1.57756 
 H                     1.62181   0.18759  -0.13693 
 H                     0.60727   4.1862   -3.9132 
 H                     0.92909   6.18357  -5.30386 
 H                    -0.65207   8.08825  -5.13784 
 H                    -2.52874   7.99446  -3.55227 
 H                    -3.7818    6.83472  -1.83488 
 H                    -2.43148   1.60988  -0.58035 
 H                    -4.35449   1.67109   0.90927 
 H                    -5.71243   3.73742   1.12708 
 H                    -5.13302   5.72863  -0.19067 
 H                     0.2458    1.19967  -3.94807 
 H                     1.23545  -0.23625  -3.71205 
 H                     2.25618   2.62135  -3.18676 
 H                     2.47653   1.7653   -4.72525 
 H                     3.2228    1.14801  -3.23934 
 
 NAtoms=     41 NQM=     41 NQMF=      0 NMic=      0 NMicF=      0 NTot=     41.
                    Isotopes and Nuclear Properties:
 (Nuclear quadrupole moments (NQMom) in fm**2, nuclear magnetic moments (NMagM)
  in nuclear magnetons)

  Atom         1           2           3           4           5           6           7           8           9          10
 IAtWgt=          12          12          14          12          16          16          12          12          12          12
 AtmWgt=  12.0000000  12.0000000  14.0030740  12.0000000  15.9949146  15.9949146  12.0000000  12.0000000  12.0000000  12.0000000
 NucSpn=           0           0           2           0           0           0           0           0           0           0
 AtZEff=   0.0000000   0.0000000   0.0000000   0.0000000   0.0000000   0.0000000   0.0000000   0.0000000   0.0000000   0.0000000
 NQMom=    0.0000000   0.0000000   2.0440000   0.0000000   0.0000000   0.0000000   0.0000000   0.0000000   0.0000000   0.0000000
 NMagM=    0.0000000   0.0000000   0.4037610   0.0000000   0.0000000   0.0000000   0.0000000   0.0000000   0.0000000   0.0000000

  Atom        11          12          13          14          15          16          17          18          19          20
 IAtWgt=          12          12          12          12          12          12          12          12          12          12
 AtmWgt=  12.0000000  12.0000000  12.0000000  12.0000000  12.0000000  12.0000000  12.0000000  12.0000000  12.0000000  12.0000000
 NucSpn=           0           0           0           0           0           0           0           0           0           0
 AtZEff=   0.0000000   0.0000000   0.0000000   0.0000000   0.0000000   0.0000000   0.0000000   0.0000000   0.0000000   0.0000000
 NQMom=    0.0000000   0.0000000   0.0000000   0.0000000   0.0000000   0.0000000   0.0000000   0.0000000   0.0000000   0.0000000
 NMagM=    0.0000000   0.0000000   0.0000000   0.0000000   0.0000000   0.0000000   0.0000000   0.0000000   0.0000000   0.0000000

  Atom        21          22          23          24          25          26          27          28          29          30
 IAtWgt=          12          12           1           1           1           1           1           1           1           1
 AtmWgt=  12.0000000  12.0000000   1.0078250   1.0078250   1.0078250   1.0078250   1.0078250   1.0078250   1.0078250   1.0078250
 NucSpn=           0           0           1           1           1           1           1           1           1           1
 AtZEff=   0.0000000   0.0000000   0.0000000   0.0000000   0.0000000   0.0000000   0.0000000   0.0000000   0.0000000   0.0000000
 NQMom=    0.0000000   0.0000000   0.0000000   0.0000000   0.0000000   0.0000000   0.0000000   0.0000000   0.0000000   0.0000000
 NMagM=    0.0000000   0.0000000   2.7928460   2.7928460   2.7928460   2.7928460   2.7928460   2.7928460   2.7928460   2.7928460

  Atom        31          32          33          34          35          36          37          38          39          40
 IAtWgt=           1           1           1           1           1           1           1           1           1           1
 AtmWgt=   1.0078250   1.0078250   1.0078250   1.0078250   1.0078250   1.0078250   1.0078250   1.0078250   1.0078250   1.0078250
 NucSpn=           1           1           1           1           1           1           1           1           1           1
 AtZEff=   0.0000000   0.0000000   0.0000000   0.0000000   0.0000000   0.0000000   0.0000000   0.0000000   0.0000000   0.0000000
 NQMom=    0.0000000   0.0000000   0.0000000   0.0000000   0.0000000   0.0000000   0.0000000   0.0000000   0.0000000   0.0000000
 NMagM=    2.7928460   2.7928460   2.7928460   2.7928460   2.7928460   2.7928460   2.7928460   2.7928460   2.7928460   2.7928460

  Atom        41
 IAtWgt=           1
 AtmWgt=   1.0078250
 NucSpn=           1
 AtZEff=   0.0000000
 NQMom=    0.0000000
 NMagM=    2.7928460
 Leave Link  101 at Wed Sep 29 15:22:54 2021, MaxMem= 1610612736 cpu:       0.2
 (Enter /sw/target/amd/app/gaussian/Gaussian09RevA.02_gcc-4.9.2/g09/l103.exe)

 GradGradGradGradGradGradGradGradGradGradGradGradGradGradGradGradGradGrad
 Berny optimization.
 Initialization pass.
                           ----------------------------
                           !    Initial Parameters    !
                           ! (Angstroms and Degrees)  !
 --------------------------                            --------------------------
 ! Name  Definition              Value          Derivative Info.                !
 --------------------------------------------------------------------------------
 ! R1    R(1,2)                  1.5225         estimate D2E/DX2                !
 ! R2    R(1,23)                 1.0945         estimate D2E/DX2                !
 ! R3    R(1,24)                 1.0955         estimate D2E/DX2                !
 ! R4    R(1,25)                 1.095          estimate D2E/DX2                !
 ! R5    R(2,3)                  1.4599         estimate D2E/DX2                !
 ! R6    R(2,26)                 1.0959         estimate D2E/DX2                !
 ! R7    R(2,27)                 1.0948         estimate D2E/DX2                !
 ! R8    R(3,4)                  1.3956         estimate D2E/DX2                !
 ! R9    R(3,21)                 1.4601         estimate D2E/DX2                !
 ! R10   R(4,5)                  1.2242         estimate D2E/DX2                !
 ! R11   R(4,6)                  1.4019         estimate D2E/DX2                !
 ! R12   R(6,7)                  1.434          estimate D2E/DX2                !
 ! R13   R(7,8)                  1.4268         estimate D2E/DX2                !
 ! R14   R(7,16)                 1.4229         estimate D2E/DX2                !
 ! R15   R(8,9)                  1.4148         estimate D2E/DX2                !
 ! R16   R(8,13)                 1.4092         estimate D2E/DX2                !
 ! R17   R(9,10)                 1.3977         estimate D2E/DX2                !
 ! R18   R(9,28)                 1.0855         estimate D2E/DX2                !
 ! R19   R(10,11)                1.3898         estimate D2E/DX2                !
 ! R20   R(10,29)                1.0873         estimate D2E/DX2                !
 ! R21   R(11,12)                1.3934         estimate D2E/DX2                !
 ! R22   R(11,30)                1.086          estimate D2E/DX2                !
 ! R23   R(12,13)                1.405          estimate D2E/DX2                !
 ! R24   R(12,31)                1.0893         estimate D2E/DX2                !
 ! R25   R(13,14)                1.4003         estimate D2E/DX2                !
 ! R26   R(14,15)                1.4012         estimate D2E/DX2                !
 ! R27   R(14,32)                1.0906         estimate D2E/DX2                !
 ! R28   R(15,16)                1.4149         estimate D2E/DX2                !
 ! R29   R(15,20)                1.4049         estimate D2E/DX2                !
 ! R30   R(16,17)                1.4161         estimate D2E/DX2                !
 ! R31   R(17,18)                1.3978         estimate D2E/DX2                !
 ! R32   R(17,33)                1.0855         estimate D2E/DX2                !
 ! R33   R(18,19)                1.3866         estimate D2E/DX2                !
 ! R34   R(18,34)                1.0864         estimate D2E/DX2                !
 ! R35   R(19,20)                1.392          estimate D2E/DX2                !
 ! R36   R(19,35)                1.0856         estimate D2E/DX2                !
 ! R37   R(20,36)                1.0881         estimate D2E/DX2                !
 ! R38   R(21,22)                1.5227         estimate D2E/DX2                !
 ! R39   R(21,37)                1.0947         estimate D2E/DX2                !
 ! R40   R(21,38)                1.095          estimate D2E/DX2                !
 ! R41   R(22,39)                1.0949         estimate D2E/DX2                !
 ! R42   R(22,40)                1.0937         estimate D2E/DX2                !
 ! R43   R(22,41)                1.0949         estimate D2E/DX2                !
 ! A1    A(2,1,23)             110.4044         estimate D2E/DX2                !
 ! A2    A(2,1,24)             111.2351         estimate D2E/DX2                !
 ! A3    A(2,1,25)             111.08           estimate D2E/DX2                !
 ! A4    A(23,1,24)            108.1152         estimate D2E/DX2                !
 ! A5    A(23,1,25)            108.1618         estimate D2E/DX2                !
 ! A6    A(24,1,25)            107.7198         estimate D2E/DX2                !
 ! A7    A(1,2,3)              111.5484         estimate D2E/DX2                !
 ! A8    A(1,2,26)             109.9102         estimate D2E/DX2                !
 ! A9    A(1,2,27)             109.2278         estimate D2E/DX2                !
 ! A10   A(3,2,26)             109.0568         estimate D2E/DX2                !
 ! A11   A(3,2,27)             109.6276         estimate D2E/DX2                !
 ! A12   A(26,2,27)            107.3767         estimate D2E/DX2                !
 ! A13   A(2,3,4)              119.7995         estimate D2E/DX2                !
 ! A14   A(2,3,21)             117.9956         estimate D2E/DX2                !
 ! A15   A(4,3,21)             121.821          estimate D2E/DX2                !
 ! A16   A(3,4,5)              123.8523         estimate D2E/DX2                !
 ! A17   A(3,4,6)              111.7706         estimate D2E/DX2                !
 ! A18   A(5,4,6)              124.3752         estimate D2E/DX2                !
 ! A19   A(4,6,7)              127.288          estimate D2E/DX2                !
 ! A20   A(6,7,8)              114.935          estimate D2E/DX2                !
 ! A21   A(6,7,16)             122.2103         estimate D2E/DX2                !
 ! A22   A(8,7,16)             122.4453         estimate D2E/DX2                !
 ! A23   A(7,8,9)              124.2105         estimate D2E/DX2                !
 ! A24   A(7,8,13)             118.2243         estimate D2E/DX2                !
 ! A25   A(9,8,13)             117.5577         estimate D2E/DX2                !
 ! A26   A(8,9,10)             121.7044         estimate D2E/DX2                !
 ! A27   A(8,9,28)             120.2439         estimate D2E/DX2                !
 ! A28   A(10,9,28)            118.0499         estimate D2E/DX2                !
 ! A29   A(9,10,11)            119.928          estimate D2E/DX2                !
 ! A30   A(9,10,29)            120.1935         estimate D2E/DX2                !
 ! A31   A(11,10,29)           119.8763         estimate D2E/DX2                !
 ! A32   A(10,11,12)           119.4563         estimate D2E/DX2                !
 ! A33   A(10,11,30)           120.399          estimate D2E/DX2                !
 ! A34   A(12,11,30)           120.1447         estimate D2E/DX2                !
 ! A35   A(11,12,13)           121.0671         estimate D2E/DX2                !
 ! A36   A(11,12,31)           118.4971         estimate D2E/DX2                !
 ! A37   A(13,12,31)           120.4297         estimate D2E/DX2                !
 ! A38   A(8,13,12)            120.272          estimate D2E/DX2                !
 ! A39   A(8,13,14)            119.5595         estimate D2E/DX2                !
 ! A40   A(12,13,14)           120.1639         estimate D2E/DX2                !
 ! A41   A(13,14,15)           122.0388         estimate D2E/DX2                !
 ! A42   A(13,14,32)           118.8718         estimate D2E/DX2                !
 ! A43   A(15,14,32)           119.0618         estimate D2E/DX2                !
 ! A44   A(14,15,16)           120.2593         estimate D2E/DX2                !
 ! A45   A(14,15,20)           119.3091         estimate D2E/DX2                !
 ! A46   A(16,15,20)           120.4183         estimate D2E/DX2                !
 ! A47   A(7,16,15)            117.3046         estimate D2E/DX2                !
 ! A48   A(7,16,17)            125.7389         estimate D2E/DX2                !
 ! A49   A(15,16,17)           116.9397         estimate D2E/DX2                !
 ! A50   A(16,17,18)           122.0027         estimate D2E/DX2                !
 ! A51   A(16,17,33)           120.8698         estimate D2E/DX2                !
 ! A52   A(18,17,33)           117.1267         estimate D2E/DX2                !
 ! A53   A(17,18,19)           119.9712         estimate D2E/DX2                !
 ! A54   A(17,18,34)           119.8242         estimate D2E/DX2                !
 ! A55   A(19,18,34)           120.2039         estimate D2E/DX2                !
 ! A56   A(18,19,20)           119.4434         estimate D2E/DX2                !
 ! A57   A(18,19,35)           120.3804         estimate D2E/DX2                !
 ! A58   A(20,19,35)           120.1737         estimate D2E/DX2                !
 ! A59   A(15,20,19)           121.1229         estimate D2E/DX2                !
 ! A60   A(15,20,36)           120.3698         estimate D2E/DX2                !
 ! A61   A(19,20,36)           118.5063         estimate D2E/DX2                !
 ! A62   A(3,21,22)            110.7323         estimate D2E/DX2                !
 ! A63   A(3,21,37)            109.7978         estimate D2E/DX2                !
 ! A64   A(3,21,38)            109.3081         estimate D2E/DX2                !
 ! A65   A(22,21,37)           109.3419         estimate D2E/DX2                !
 ! A66   A(22,21,38)           110.6214         estimate D2E/DX2                !
 ! A67   A(37,21,38)           106.9628         estimate D2E/DX2                !
 ! A68   A(21,22,39)           111.4192         estimate D2E/DX2                !
 ! A69   A(21,22,40)           110.6386         estimate D2E/DX2                !
 ! A70   A(21,22,41)           110.8212         estimate D2E/DX2                !
 ! A71   A(39,22,40)           108.3284         estimate D2E/DX2                !
 ! A72   A(39,22,41)           107.229          estimate D2E/DX2                !
 ! A73   A(40,22,41)           108.2711         estimate D2E/DX2                !
 ! D1    D(23,1,2,3)           178.9927         estimate D2E/DX2                !
 ! D2    D(23,1,2,26)           57.9027         estimate D2E/DX2                !
 ! D3    D(23,1,2,27)          -59.6608         estimate D2E/DX2                !
 ! D4    D(24,1,2,3)            58.9625         estimate D2E/DX2                !
 ! D5    D(24,1,2,26)          -62.1275         estimate D2E/DX2                !
 ! D6    D(24,1,2,27)         -179.6909         estimate D2E/DX2                !
 ! D7    D(25,1,2,3)           -61.02           estimate D2E/DX2                !
 ! D8    D(25,1,2,26)          177.89           estimate D2E/DX2                !
 ! D9    D(25,1,2,27)           60.3265         estimate D2E/DX2                !
 ! D10   D(1,2,3,4)             90.5998         estimate D2E/DX2                !
 ! D11   D(1,2,3,21)           -96.3821         estimate D2E/DX2                !
 ! D12   D(26,2,3,4)          -147.8144         estimate D2E/DX2                !
 ! D13   D(26,2,3,21)           25.2037         estimate D2E/DX2                !
 ! D14   D(27,2,3,4)           -30.5141         estimate D2E/DX2                !
 ! D15   D(27,2,3,21)          142.5039         estimate D2E/DX2                !
 ! D16   D(2,3,4,5)              6.0085         estimate D2E/DX2                !
 ! D17   D(2,3,4,6)           -173.5027         estimate D2E/DX2                !
 ! D18   D(21,3,4,5)          -166.7346         estimate D2E/DX2                !
 ! D19   D(21,3,4,6)            13.7542         estimate D2E/DX2                !
 ! D20   D(2,3,21,22)          -89.4716         estimate D2E/DX2                !
 ! D21   D(2,3,21,37)          149.6885         estimate D2E/DX2                !
 ! D22   D(2,3,21,38)           32.6442         estimate D2E/DX2                !
 ! D23   D(4,3,21,22)           83.3972         estimate D2E/DX2                !
 ! D24   D(4,3,21,37)          -37.4426         estimate D2E/DX2                !
 ! D25   D(4,3,21,38)         -154.4869         estimate D2E/DX2                !
 ! D26   D(3,4,6,7)            177.5801         estimate D2E/DX2                !
 ! D27   D(5,4,6,7)             -1.9281         estimate D2E/DX2                !
 ! D28   D(4,6,7,8)            135.4279         estimate D2E/DX2                !
 ! D29   D(4,6,7,16)           -51.7522         estimate D2E/DX2                !
 ! D30   D(6,7,8,9)             -3.894          estimate D2E/DX2                !
 ! D31   D(6,7,8,13)           175.0811         estimate D2E/DX2                !
 ! D32   D(16,7,8,9)          -176.6952         estimate D2E/DX2                !
 ! D33   D(16,7,8,13)            2.28           estimate D2E/DX2                !
 ! D34   D(6,7,16,15)         -176.8942         estimate D2E/DX2                !
 ! D35   D(6,7,16,17)            1.564          estimate D2E/DX2                !
 ! D36   D(8,7,16,15)           -4.6125         estimate D2E/DX2                !
 ! D37   D(8,7,16,17)          173.8457         estimate D2E/DX2                !
 ! D38   D(7,8,9,10)           177.9498         estimate D2E/DX2                !
 ! D39   D(7,8,9,28)            -1.5675         estimate D2E/DX2                !
 ! D40   D(13,8,9,10)           -1.0317         estimate D2E/DX2                !
 ! D41   D(13,8,9,28)          179.451          estimate D2E/DX2                !
 ! D42   D(7,8,13,12)         -177.8493         estimate D2E/DX2                !
 ! D43   D(7,8,13,14)            1.3762         estimate D2E/DX2                !
 ! D44   D(9,8,13,12)            1.1947         estimate D2E/DX2                !
 ! D45   D(9,8,13,14)         -179.5797         estimate D2E/DX2                !
 ! D46   D(8,9,10,11)            0.0109         estimate D2E/DX2                !
 ! D47   D(8,9,10,29)         -179.4409         estimate D2E/DX2                !
 ! D48   D(28,9,10,11)         179.5384         estimate D2E/DX2                !
 ! D49   D(28,9,10,29)           0.0866         estimate D2E/DX2                !
 ! D50   D(9,10,11,12)           0.8573         estimate D2E/DX2                !
 ! D51   D(9,10,11,30)        -179.0503         estimate D2E/DX2                !
 ! D52   D(29,10,11,12)       -179.6893         estimate D2E/DX2                !
 ! D53   D(29,10,11,30)          0.4032         estimate D2E/DX2                !
 ! D54   D(10,11,12,13)         -0.6864         estimate D2E/DX2                !
 ! D55   D(10,11,12,31)       -179.7906         estimate D2E/DX2                !
 ! D56   D(30,11,12,13)        179.2214         estimate D2E/DX2                !
 ! D57   D(30,11,12,31)          0.1172         estimate D2E/DX2                !
 ! D58   D(11,12,13,8)          -0.3646         estimate D2E/DX2                !
 ! D59   D(11,12,13,14)       -179.5855         estimate D2E/DX2                !
 ! D60   D(31,12,13,8)         178.7223         estimate D2E/DX2                !
 ! D61   D(31,12,13,14)         -0.4985         estimate D2E/DX2                !
 ! D62   D(8,13,14,15)          -2.6127         estimate D2E/DX2                !
 ! D63   D(8,13,14,32)         179.3155         estimate D2E/DX2                !
 ! D64   D(12,13,14,15)        176.6137         estimate D2E/DX2                !
 ! D65   D(12,13,14,32)         -1.4581         estimate D2E/DX2                !
 ! D66   D(13,14,15,16)          0.165          estimate D2E/DX2                !
 ! D67   D(13,14,15,20)       -178.5121         estimate D2E/DX2                !
 ! D68   D(32,14,15,16)        178.2333         estimate D2E/DX2                !
 ! D69   D(32,14,15,20)         -0.4438         estimate D2E/DX2                !
 ! D70   D(14,15,16,7)           3.3443         estimate D2E/DX2                !
 ! D71   D(14,15,16,17)       -175.2519         estimate D2E/DX2                !
 ! D72   D(20,15,16,7)        -177.9935         estimate D2E/DX2                !
 ! D73   D(20,15,16,17)          3.4103         estimate D2E/DX2                !
 ! D74   D(14,15,20,19)        177.4502         estimate D2E/DX2                !
 ! D75   D(14,15,20,36)         -2.1739         estimate D2E/DX2                !
 ! D76   D(16,15,20,19)         -1.2246         estimate D2E/DX2                !
 ! D77   D(16,15,20,36)        179.1513         estimate D2E/DX2                !
 ! D78   D(7,16,17,18)         178.0141         estimate D2E/DX2                !
 ! D79   D(7,16,17,33)          -1.6608         estimate D2E/DX2                !
 ! D80   D(15,16,17,18)         -3.5227         estimate D2E/DX2                !
 ! D81   D(15,16,17,33)        176.8024         estimate D2E/DX2                !
 ! D82   D(16,17,18,19)          1.3664         estimate D2E/DX2                !
 ! D83   D(16,17,18,34)       -178.3391         estimate D2E/DX2                !
 ! D84   D(33,17,18,19)       -178.947          estimate D2E/DX2                !
 ! D85   D(33,17,18,34)          1.3475         estimate D2E/DX2                !
 ! D86   D(17,18,19,20)          0.992          estimate D2E/DX2                !
 ! D87   D(17,18,19,35)       -179.588          estimate D2E/DX2                !
 ! D88   D(34,18,19,20)       -179.3037         estimate D2E/DX2                !
 ! D89   D(34,18,19,35)          0.1164         estimate D2E/DX2                !
 ! D90   D(18,19,20,15)         -1.0577         estimate D2E/DX2                !
 ! D91   D(18,19,20,36)        178.5733         estimate D2E/DX2                !
 ! D92   D(35,19,20,15)        179.521          estimate D2E/DX2                !
 ! D93   D(35,19,20,36)         -0.848          estimate D2E/DX2                !
 ! D94   D(3,21,22,39)         -50.1095         estimate D2E/DX2                !
 ! D95   D(3,21,22,40)        -170.6874         estimate D2E/DX2                !
 ! D96   D(3,21,22,41)          69.2032         estimate D2E/DX2                !
 ! D97   D(37,21,22,39)         71.0004         estimate D2E/DX2                !
 ! D98   D(37,21,22,40)        -49.5775         estimate D2E/DX2                !
 ! D99   D(37,21,22,41)       -169.687          estimate D2E/DX2                !
 ! D100  D(38,21,22,39)       -171.4538         estimate D2E/DX2                !
 ! D101  D(38,21,22,40)         67.9683         estimate D2E/DX2                !
 ! D102  D(38,21,22,41)        -52.1411         estimate D2E/DX2                !
 --------------------------------------------------------------------------------
 Trust Radius=3.00D-01 FncErr=1.00D-07 GrdErr=1.00D-06
 Number of steps in this run= 228 maximum allowed number of steps= 246.
 GradGradGradGradGradGradGradGradGradGradGradGradGradGradGradGradGradGrad

 Leave Link  103 at Wed Sep 29 15:22:54 2021, MaxMem= 1610612736 cpu:       0.0
 (Enter /sw/target/amd/app/gaussian/Gaussian09RevA.02_gcc-4.9.2/g09/l202.exe)
                          Input orientation:                          
 ---------------------------------------------------------------------
 Center     Atomic      Atomic             Coordinates (Angstroms)
 Number     Number       Type             X           Y           Z
 ---------------------------------------------------------------------
      1          6           0        0.413735   -1.410075   -0.913072
      2          6           0        1.361844   -0.235651   -1.112551
      3          7           0        0.765056    0.798582   -1.952475
      4          6           0        0.035114    1.833076   -1.365473
      5          8           0       -0.059291    2.000377   -0.156448
      6          8           0       -0.581709    2.645089   -2.327430
      7          6           0       -1.444687    3.766265   -2.093694
      8          6           0       -1.174014    4.911996   -2.899745
      9          6           0       -0.095309    5.007185   -3.810201
     10          6           0        0.096715    6.140270   -4.605612
     11          6           0       -0.785134    7.210457   -4.512407
     12          6           0       -1.845046    7.148380   -3.609978
     13          6           0       -2.044914    6.015648   -2.803110
     14          6           0       -3.121425    5.969916   -1.908746
     15          6           0       -3.398472    4.834015   -1.136433
     16          6           0       -2.580238    3.684368   -1.240174
     17          6           0       -2.983017    2.541940   -0.506773
     18          6           0       -4.092976    2.560336    0.342567
     19          6           0       -4.852994    3.713686    0.464332
     20          6           0       -4.512315    4.839445   -0.280216
     21          6           0        1.087451    0.795562   -3.376503
     22          6           0        2.330381    1.631808   -3.649581
     23          1           0        0.885933   -2.181225   -0.296350
     24          1           0        0.135949   -1.862902   -1.871091
     25          1           0       -0.508093   -1.091861   -0.415110
     26          1           0        2.291962   -0.581685   -1.577558
     27          1           0        1.621807    0.187586   -0.136930
     28          1           0        0.607267    4.186204   -3.913200
     29          1           0        0.929086    6.183566   -5.303860
     30          1           0       -0.652068    8.088246   -5.137835
     31          1           0       -2.528740    7.994460   -3.552274
     32          1           0       -3.781796    6.834724   -1.834884
     33          1           0       -2.431480    1.609881   -0.580352
     34          1           0       -4.354488    1.671087    0.909275
     35          1           0       -5.712430    3.737416    1.127079
     36          1           0       -5.133017    5.728629   -0.190669
     37          1           0        0.245795    1.199670   -3.948072
     38          1           0        1.235446   -0.236249   -3.712048
     39          1           0        2.256179    2.621349   -3.186757
     40          1           0        2.476534    1.765301   -4.725253
     41          1           0        3.222805    1.148013   -3.239341
 ---------------------------------------------------------------------
                    Distance matrix (angstroms):
                    1          2          3          4          5
     1  C    0.000000
     2  C    1.522490   0.000000
     3  N    2.466161   1.459886   0.000000
     4  C    3.296369   2.470590   1.395552   0.000000
     5  O    3.525254   2.816661   2.312914   1.224191   0.000000
     6  O    4.408591   3.681303   2.316022   1.401855   2.324164
     7  C    5.625131   4.985439   3.702709   2.541129   2.964896
     8  C    6.814426   6.010234   4.645158   3.646331   4.152808
     9  C    7.059299   6.073544   4.680140   4.008575   4.732030
    10  C    8.410889   7.379322   6.001620   5.390196   6.079318
    11  C    9.418390   8.462450   7.075908   6.284284   6.829799
    12  C    9.253245   8.428832   7.062569   6.068382   6.451180
    13  C    8.047270   7.317290   5.986425   4.887456   5.202876
    14  C    8.243361   7.696928   6.469107   5.231857   5.310787
    15  C    7.319253   6.954329   5.855391   4.565918   4.487762
    16  C    5.918126   5.560832   4.475056   3.206719   3.219543
    17  C    5.226990   5.192283   4.379201   3.216981   2.994026
    18  C    6.136061   6.299999   5.654332   4.526305   4.102826
    19  C    7.475868   7.530474   6.775048   5.547836   5.128390
    20  C    7.982668   7.807377   6.853880   5.558341   5.282524
    21  C    3.374496   2.502833   1.460070   2.495615   3.624273
    22  C    4.518303   3.295753   2.454521   3.244365   4.248335
    23  H    1.094527   2.162852   3.411247   4.240463   4.289383
    24  H    1.095453   2.173970   2.736036   3.731765   4.231199
    25  H    1.094986   2.171678   2.749214   3.123063   3.135325
    26  H    2.157663   1.095942   2.092162   3.312010   3.770277
    27  H    2.148106   1.094782   2.098462   2.595101   2.472384
    28  H    6.352681   5.288272   3.917310   3.515037   4.397195
    29  H    8.786808   7.678587   6.344820   5.936063   6.706103
    30  H   10.450008   9.462876   8.080468   7.336899   7.888457
    31  H   10.201413   9.424629   8.073978   7.022685   7.318391
    32  H    9.296716   8.773198   7.557956   6.309170   6.328120
    33  H    4.162462   4.251887   3.571943   2.598138   2.441201
    34  H    5.962421   6.356091   5.929639   4.946648   4.437670
    35  H    8.257650   8.417040   7.751015   6.547793   6.051672
    36  H    9.069146   8.865987   7.886481   6.577619   6.296326
    37  H    4.006269   3.368366   2.100692   2.667472   3.887238
    38  H    3.144414   2.602568   2.094812   3.351018   4.395581
    39  H    4.981629   3.642062   2.658831   2.978520   3.863908
    40  H    5.373163   4.277612   3.398824   4.153703   5.230645
    41  H    4.454909   3.146575   2.796186   3.760594   4.582893
                    6          7          8          9         10
     6  O    0.000000
     7  C    1.434015   0.000000
     8  C    2.411895   1.426773   0.000000
     9  C    2.831023   2.511393   1.414778   0.000000
    10  C    4.226897   3.784382   2.456296   1.397653   0.000000
    11  C    5.065381   4.260004   2.834577   2.413164   1.389837
    12  C    4.849802   3.728016   2.440518   2.772433   2.403749
    13  C    3.705119   2.433776   1.409203   2.414993   2.801985
    14  C    4.204751   2.775200   2.427690   3.701319   4.202205
    15  C    3.760854   2.423575   2.839641   4.253223   5.094883
    16  C    2.501269   1.422913   2.497742   3.811792   4.952142
    17  C    3.015247   2.526609   3.823084   5.032785   6.263641
    18  C    4.411923   3.795138   4.956130   6.262100   7.406342
    19  C    5.213416   4.261786   5.127168   6.525361   7.489476
    20  C    4.945296   3.721661   4.243990   5.656755   6.453243
    21  C    2.703221   4.108820   4.720864   4.395996   5.572986
    22  C    3.354860   4.607366   4.858258   4.159680   5.121473
    23  H    5.438066   6.635878   7.831655   8.061216   9.404247
    24  H    4.587512   5.851110   6.976631   7.142249   8.457535
    25  H    4.198475   5.224581   6.531705   6.992525   8.380323
    26  H    4.385472   5.756181   6.628854   6.474506   7.692392
    27  H    3.961451   5.102868   6.145715   6.298408   7.597991
    28  H    2.510650   2.774430   2.174127   1.085464   2.135058
    29  H    4.864407   4.667259   3.437978   2.159694   1.087321
    30  H    6.126278   5.345517   3.920464   3.400814   2.153729
    31  H    5.822967   4.602201   3.429673   3.861596   3.382389
    32  H    5.294922   3.865811   3.410474   4.564204   4.816850
    33  H    2.746924   2.813176   4.226674   5.237489   6.566499
    34  H    5.065452   4.677023   5.926849   7.179388   8.378591
    35  H    6.281012   5.346761   6.179981   7.585585   8.507856
    36  H    5.898166   4.590877   4.866177   6.244997   6.856476
    37  H    2.323894   3.589409   4.110501   3.825249   4.986393
    38  H    3.677136   5.081565   5.741931   5.410559   6.538743
    39  H    2.965234   4.025174   4.134691   3.407402   4.365689
    40  H    3.984524   5.128833   5.153705   4.238101   4.981787
    41  H    4.188931   5.472954   5.797837   5.121422   6.046632
                   11         12         13         14         15
    11  C    0.000000
    12  C    1.393429   0.000000
    13  C    2.436454   1.405014   0.000000
    14  C    3.711636   2.431483   1.400304   0.000000
    15  C    4.886124   3.726640   2.450752   1.401248   0.000000
    16  C    5.134512   4.260970   2.857308   2.442050   1.414905
    17  C    6.532292   5.669580   4.268471   3.706171   2.413023
    18  C    7.492410   6.459562   5.101864   4.199710   2.799891
    19  C    7.317295   6.119221   4.884722   3.704106   2.435820
    20  C    6.117598   4.851064   3.719746   2.421704   1.404914
    21  C    6.778476   7.000882   6.114719   6.829560   6.438208
    22  C    6.447653   6.918694   6.251222   7.181356   7.027787
    23  H   10.429347  10.270340   9.058832   9.224957   8.262896
    24  H    9.494776   9.388891   8.227781   8.483216   7.607927
    25  H    9.262456   8.938468   7.653826   7.676533   6.632541
    26  H    8.876899   8.999971   7.989698   8.505170   7.868001
    27  H    8.617359   8.516677   7.383744   7.685892   6.913141
    28  H    3.382889   3.857495   3.407819   4.593757   4.916913
    29  H    2.149292   3.390562   3.889296   5.289526   6.157637
    30  H    1.085993   2.154273   3.418571   4.583891   5.843285
    31  H    2.139317   1.089321   2.170491   2.674180   4.071994
    32  H    4.036122   2.645815   2.150605   1.090613   2.153510
    33  H    7.038321   6.340151   4.949835   4.609833   3.411647
    34  H    8.533437   7.531380   6.163696   5.285984   3.886258
    35  H    8.254942   7.002217   5.838442   4.573139   3.417663
    36  H    6.306926   4.951577   4.055071   2.656409   2.168744
    37  H    6.124610   6.314513   5.454533   6.184842   5.864679
    38  H    7.757368   8.002037   7.118508   7.794274   7.335841
    39  H    5.662759   6.123167   5.492527   6.462572   6.408962
    40  H    6.350866   6.992669   6.496428   7.546432   7.537395
    41  H    7.378177   7.862880   7.185613   8.079015   7.864486
                   16         17         18         19         20
    16  C    0.000000
    17  C    1.416067   0.000000
    18  C    2.461075   1.397758   0.000000
    19  C    2.841059   2.410985   1.386604   0.000000
    20  C    2.447171   2.769226   2.399592   1.392030   0.000000
    21  C    5.134301   5.277679   6.616853   7.652212   7.569503
    22  C    5.842296   6.240014   7.619640   8.535770   8.274300
    23  H    6.878249   6.109119   6.905081   8.262197   8.856136
    24  H    6.208698   5.567042   6.507621   7.838501   8.310157
    25  H    5.271326   4.397518   5.173394   6.537956   7.157681
    26  H    6.484702   6.223264   7.370659   8.583119   8.796018
    27  H    5.576900   5.184995   6.206336   7.397158   7.699856
    28  H    4.190119   5.215121   6.545784   7.014307   6.311531
    29  H    5.922406   7.181785   8.380396   8.532572   7.526786
    30  H    6.189003   7.592204   8.510726   8.256442   7.003762
    31  H    4.891356   6.261902   6.866318   6.313502   4.959340
    32  H    3.423765   4.563980   4.807132   4.021782   2.632829
    33  H    2.181969   1.085514   2.125020   3.373587   3.853575
    34  H    3.438226   2.155113   1.086421   2.149115   3.387963
    35  H    3.926491   3.398284   2.150258   1.085554   2.152957
    36  H    3.434697   3.857123   3.376996   2.137155   1.088088
    37  H    4.636043   4.906063   6.251874   7.196335   7.024297
    38  H    6.003403   5.982270   7.256230   8.373365   8.401006
    39  H    5.320726   5.885388   7.264408   8.066225   7.692883
    40  H    6.434247   6.943014   8.335067   9.189667   8.834745
    41  H    6.641165   6.922585   8.267126   9.247616   9.067258
                   21         22         23         24         25
    21  C    0.000000
    22  C    1.522745   0.000000
    23  H    4.288264   5.279186   0.000000
    24  H    3.199851   4.493501   1.773024   0.000000
    25  H    3.857198   5.092849   1.773168   1.768948   0.000000
    26  H    2.565904   3.032211   2.485345   2.525088   3.074390
    27  H    3.339163   3.863492   2.485596   3.069135   2.500169
    28  H    3.466277   3.092500   7.328260   6.401877   6.429513
    29  H    5.724541   5.041703   9.749192   8.783998   8.882410
    30  H    7.701394   7.266051  11.457201  10.503235  10.324691
    31  H    8.058032   8.006489  11.216309  10.348649   9.822732
    32  H    7.909338   8.229347  10.268500   9.539325   8.692735
    33  H    4.567763   5.665330   5.045629   4.507541   3.320563
    34  H    6.982059   8.091488   6.614821   6.354805   4.917584
    35  H    8.670360   9.588372   8.977464   8.634589   7.265355
    36  H    8.554467   9.189685   9.940055   9.392399   8.243748
    37  H    1.094705   2.149729   5.017498   3.702061   4.278000
    38  H    1.095046   2.166200   3.946147   2.691470   3.826461
    39  H    2.176104   1.094944   5.770333   5.131750   5.395476
    40  H    2.165427   1.093733   6.141682   5.175755   5.970655
    41  H    2.168587   1.094886   5.020557   4.523980   5.187766
                   26         27         28         29         30
    26  H    0.000000
    27  H    1.765303   0.000000
    28  H    5.570115   5.592714   0.000000
    29  H    7.842919   7.945364   2.454987   0.000000
    30  H    9.823981   9.622889   4.279205   2.481012   0.000000
    31  H   10.034388   9.478339   4.946476   4.278312   2.458597
    32  H    9.589571   8.733065   5.531539   5.886443   4.719746
    33  H    5.301725   4.318413   5.194160   7.384005   8.118262
    34  H    7.445443   6.245913   7.362139   9.321034   9.563232
    35  H    9.488940   8.245608   8.095949   9.562969   9.153477
    36  H    9.842450   8.736915   7.013356   7.943600   7.079629
    37  H    3.602688   4.176425   3.008532   5.210017   7.047992
    38  H    2.406574   3.620826   4.471371   6.621310   8.654063
    39  H    3.584722   3.953110   2.386504   4.351171   6.492424
    40  H    3.930700   4.926709   3.164547   4.717037   7.066683
    41  H    2.572906   3.620852   4.065185   5.905944   8.172255
                   31         32         33         34         35
    31  H    0.000000
    32  H    2.421686   0.000000
    33  H    7.043056   5.540414   0.000000
    34  H    7.951341   5.875503   2.433248   0.000000
    35  H    7.081995   4.700414   4.266891   2.482169   0.000000
    36  H    4.818365   2.398476   4.941076   4.275468   2.457053
    37  H    7.350094   7.241608   4.321761   6.706613   8.227865
    38  H    9.052028   8.871027   5.163533   7.499462   9.353082
    39  H    7.204122   7.485802   5.458074   7.834629   9.129815
    40  H    8.076575   8.556867   6.425961   8.855487  10.256616
    41  H    8.947180   9.131024   6.265340   8.654478  10.276627
                   36         37         38         39         40
    36  H    0.000000
    37  H    7.972525   0.000000
    38  H    9.409421   1.759824   0.000000
    39  H    8.557567   2.577288   3.079560   0.000000
    40  H    9.704415   2.429022   2.563804   1.774357   0.000000
    41  H   10.004808   3.060646   2.467636   1.762909   1.773669
                   41
    41  H    0.000000
 Stoichiometry    C19H19NO2
 Framework group  C1[X(C19H19NO2)]
 Deg. of freedom   117
 Full point group                 C1      NOp   1
 Largest Abelian subgroup         C1      NOp   1
 Largest concise Abelian subgroup C1      NOp   1
                         Standard orientation:                         
 ---------------------------------------------------------------------
 Center     Atomic      Atomic             Coordinates (Angstroms)
 Number     Number       Type             X           Y           Z
 ---------------------------------------------------------------------
      1          6           0       -4.854252    1.416222   -0.388794
      2          6           0       -4.373985    0.269734    0.490344
      3          7           0       -3.121504   -0.295607   -0.002555
      4          6           0       -1.904344    0.211140    0.454930
      5          8           0       -1.804701    1.049617    1.341310
      6          8           0       -0.817382   -0.348557   -0.230964
      7          6           0        0.571350   -0.032634   -0.063582
      8          6           0        1.442276   -1.161278   -0.005870
      9          6           0        1.003600   -2.506218   -0.023088
     10          6           0        1.905963   -3.573411   -0.006538
     11          6           0        3.273003   -3.325100    0.027943
     12          6           0        3.729721   -2.009135    0.063841
     13          6           0        2.831056   -0.929177    0.051329
     14          6           0        3.311076    0.385987    0.079217
     15          6           0        2.454385    1.491867   -0.002046
     16          6           0        1.056380    1.304149   -0.112956
     17          6           0        0.265617    2.464771   -0.294330
     18          6           0        0.820827    3.747521   -0.289979
     19          6           0        2.188875    3.909661   -0.132421
     20          6           0        3.000357    2.786354   -0.000412
     21          6           0       -3.191710   -1.484247   -0.847546
     22          6           0       -3.148878   -2.749975   -0.002057
     23          1           0       -5.802223    1.813953   -0.013097
     24          1           0       -5.008868    1.086194   -1.421844
     25          1           0       -4.124348    2.232286   -0.405343
     26          1           0       -5.134138   -0.519045    0.523301
     27          1           0       -4.235722    0.633525    1.513616
     28          1           0       -0.056916   -2.734987   -0.057741
     29          1           0        1.541944   -4.597729   -0.029549
     30          1           0        3.981294   -4.148325    0.025477
     31          1           0        4.804360   -1.832409    0.087081
     32          1           0        4.387443    0.552641    0.134881
     33          1           0       -0.807722    2.390504   -0.438443
     34          1           0        0.177317    4.615206   -0.405430
     35          1           0        2.626311    4.903117   -0.121360
     36          1           0        4.074311    2.930314    0.098761
     37          1           0       -2.352722   -1.489372   -1.550718
     38          1           0       -4.108920   -1.450256   -1.444788
     39          1           0       -2.316784   -2.727698    0.709297
     40          1           0       -3.035473   -3.633689   -0.636441
     41          1           0       -4.069863   -2.860840    0.579553
 ---------------------------------------------------------------------
 Rotational constants (GHZ):      0.3664591      0.2315664      0.1467607
 Leave Link  202 at Wed Sep 29 15:22:55 2021, MaxMem= 1610612736 cpu:       0.1
 (Enter /sw/target/amd/app/gaussian/Gaussian09RevA.02_gcc-4.9.2/g09/l301.exe)
 Standard basis: 6-31G(d) (6D, 7F)
 Ernie: Thresh=  0.10000D-02 Tol=  0.10000D-05 Strict=F.
 There are   368 symmetry adapted basis functions of A   symmetry.
 Integral buffers will be    131072 words long.
 Raffenetti 2 integral format.
 Two-electron integral symmetry is turned on.
   368 basis functions,   692 primitive gaussians,   368 cartesian basis functions
    78 alpha electrons       78 beta electrons
       nuclear repulsion energy      1735.6757075238 Hartrees.
 IExCor=  402 DFT=T Ex+Corr=B3LYP ExCW=0 ScaHFX=  0.200000
 ScaDFX=  0.800000  0.720000  1.000000  0.810000 ScalE2=  1.000000  1.000000
 IRadAn=      0 IRanWt=     -1 IRanGd=            0 ICorTp=0
 NAtoms=   41 NActive=   41 NUniq=   41 SFac= 7.50D-01 NAtFMM=   80 NAOKFM=F Big=F
 Leave Link  301 at Wed Sep 29 15:22:55 2021, MaxMem= 1610612736 cpu:       0.1
 (Enter /sw/target/amd/app/gaussian/Gaussian09RevA.02_gcc-4.9.2/g09/l302.exe)
 NPDir=0 NMtPBC=     1 NCelOv=     1 NCel=       1 NClECP=     1 NCelD=      1
         NCelK=      1 NCelE2=     1 NClLst=     1 CellRange=     0.0.
 One-electron integrals computed using PRISM.
 NBasis=   368 RedAO= T  NBF=   368
 NBsUse=   368 1.00D-06 NBFU=   368
 Precomputing XC quadrature grid using
 IXCGrd= 2 IRadAn=           0 IRanWt=          -1 IRanGd=           0 AccXCQ= 1.00D-10.
 NRdTot=    2605 NPtTot=      332496 NUsed=      351277 NTot=      351309
 NSgBfM=   366   366   366   366   366 NAtAll=    41    41.
 Leave Link  302 at Wed Sep 29 15:23:01 2021, MaxMem= 1610612736 cpu:       4.6
 (Enter /sw/target/amd/app/gaussian/Gaussian09RevA.02_gcc-4.9.2/g09/l303.exe)
 DipDrv:  MaxL=1.
 Leave Link  303 at Wed Sep 29 15:23:02 2021, MaxMem= 1610612736 cpu:       0.3
 (Enter /sw/target/amd/app/gaussian/Gaussian09RevA.02_gcc-4.9.2/g09/l401.exe)
 Harris functional with IExCor=  402 diagonalized for initial guess.
 ExpMin= 1.61D-01 ExpMax= 5.48D+03 ExpMxC= 8.25D+02 IAcc=1 IRadAn=         1 AccDes= 0.00D+00
 HarFok:  IExCor=  402 AccDes= 0.00D+00 IRadAn=         1 IDoV= 1
 ScaDFX=  1.000000  1.000000  1.000000  1.000000
 FoFCou: FMM=F IPFlag=           0 FMFlag=      100000 FMFlg1=           0
         NFxFlg=           0 DoJE=T BraDBF=F KetDBF=T FulRan=T
         Omega=  0.000000  0.000000  1.000000  0.000000  0.000000 ICntrl=     500 IOpCl=  0
         NMat0=    1 NMatS0=    1 NMatT0=    0 NMatD0=    1 NMtDS0=    0 NMtDT0=    0
         I1Cent=           4 NGrid=           0.
 Petite list used in FoFCou.
 Harris En= -940.825222304240    
 Initial guess orbital symmetries:
       Occupied  (A) (A) (A) (A) (A) (A) (A) (A) (A) (A) (A) (A)
                 (A) (A) (A) (A) (A) (A) (A) (A) (A) (A) (A) (A)
                 (A) (A) (A) (A) (A) (A) (A) (A) (A) (A) (A) (A)
                 (A) (A) (A) (A) (A) (A) (A) (A) (A) (A) (A) (A)
                 (A) (A) (A) (A) (A) (A) (A) (A) (A) (A) (A) (A)
                 (A) (A) (A) (A) (A) (A) (A) (A) (A) (A) (A) (A)
                 (A) (A) (A) (A) (A) (A)
       Virtual   (A) (A) (A) (A) (A) (A) (A) (A) (A) (A) (A) (A)
                 (A) (A) (A) (A) (A) (A) (A) (A) (A) (A) (A) (A)
                 (A) (A) (A) (A) (A) (A) (A) (A) (A) (A) (A) (A)
                 (A) (A) (A) (A) (A) (A) (A) (A) (A) (A) (A) (A)
                 (A) (A) (A) (A) (A) (A) (A) (A) (A) (A) (A) (A)
                 (A) (A) (A) (A) (A) (A) (A) (A) (A) (A) (A) (A)
                 (A) (A) (A) (A) (A) (A) (A) (A) (A) (A) (A) (A)
                 (A) (A) (A) (A) (A) (A) (A) (A) (A) (A) (A) (A)
                 (A) (A) (A) (A) (A) (A) (A) (A) (A) (A) (A) (A)
                 (A) (A) (A) (A) (A) (A) (A) (A) (A) (A) (A) (A)
                 (A) (A) (A) (A) (A) (A) (A) (A) (A) (A) (A) (A)
                 (A) (A) (A) (A) (A) (A) (A) (A) (A) (A) (A) (A)
                 (A) (A) (A) (A) (A) (A) (A) (A) (A) (A) (A) (A)
                 (A) (A) (A) (A) (A) (A) (A) (A) (A) (A) (A) (A)
                 (A) (A) (A) (A) (A) (A) (A) (A) (A) (A) (A) (A)
                 (A) (A) (A) (A) (A) (A) (A) (A) (A) (A) (A) (A)
                 (A) (A) (A) (A) (A) (A) (A) (A) (A) (A) (A) (A)
                 (A) (A) (A) (A) (A) (A) (A) (A) (A) (A) (A) (A)
                 (A) (A) (A) (A) (A) (A) (A) (A) (A) (A) (A) (A)
                 (A) (A) (A) (A) (A) (A) (A) (A) (A) (A) (A) (A)
                 (A) (A) (A) (A) (A) (A) (A) (A) (A) (A) (A) (A)
                 (A) (A) (A) (A) (A) (A) (A) (A) (A) (A) (A) (A)
                 (A) (A) (A) (A) (A) (A) (A) (A) (A) (A) (A) (A)
                 (A) (A) (A) (A) (A) (A) (A) (A) (A) (A) (A) (A)
                 (A) (A)
 The electronic state of the initial guess is 1-A.
 Leave Link  401 at Wed Sep 29 15:23:24 2021, MaxMem= 1610612736 cpu:      19.2
 (Enter /sw/target/amd/app/gaussian/Gaussian09RevA.02_gcc-4.9.2/g09/l502.exe)
 Closed shell SCF:
 Requested convergence on RMS density matrix=1.00D-08 within  64 cycles.
 Requested convergence on MAX density matrix=1.00D-06.
 Requested convergence on             energy=1.00D-06.
 No special actions if energy rises.
 Using DIIS extrapolation, IDIIS=  1040.
 Integral symmetry usage will be decided dynamically.
       350895 words used for storage of precomputed grid.
 IEnd=      767697 IEndB=      767697 NGot=  1610612736 MDV=  1609985056
 LenX=  1609985056 LenY=  1609849191
 Fock matrices will be formed incrementally for  20 cycles.
 Integral accuracy reduced to 1.0D-05 until final iterations.

 Cycle   1  Pass 0  IDiag  1:
 FoFCou: FMM=F IPFlag=           0 FMFlag=      100000 FMFlg1=           0
         NFxFlg=           0 DoJE=F BraDBF=F KetDBF=F FulRan=T
         Omega=  0.000000  0.000000  1.000000  0.000000  0.000000 ICntrl=       0 IOpCl=  0
         NMat0=    1 NMatS0=    1 NMatT0=    0 NMatD0=    1 NMtDS0=    0 NMtDT0=    0
         I1Cent=           0 NGrid=           0.
 Symmetry not used in FoFCou.
 E= -940.082868123925    
 DIIS: error= 4.05D-02 at cycle   1 NSaved=   1.
 NSaved= 1 IEnMin= 1 EnMin= -940.082868123925     IErMin= 1 ErrMin= 4.05D-02
 ErrMax= 4.05D-02 EMaxC= 1.00D-01 BMatC= 5.87D-01 BMatP= 5.87D-01
 IDIUse=3 WtCom= 5.95D-01 WtEn= 4.05D-01
 Coeff-Com:  0.100D+01
 Coeff-En:   0.100D+01
 Coeff:      0.100D+01
 Gap=     0.113 Goal=   None    Shift=    0.000
 GapD=    0.113 DampG=1.000 DampE=0.500 DampFc=0.5000 IDamp=-1.
 Damping current iteration by 5.00D-01
 RMSDP=5.31D-03 MaxDP=1.89D-01              OVMax= 3.61D-01

 Cycle   2  Pass 0  IDiag  1:
 RMSU=  1.82D-03    CP:  9.66D-01
 E= -940.271774640711     Delta-E=       -0.188906516786 Rises=F Damp=T
 DIIS: error= 1.72D-02 at cycle   2 NSaved=   2.
 NSaved= 2 IEnMin= 2 EnMin= -940.271774640711     IErMin= 2 ErrMin= 1.72D-02
 ErrMax= 1.72D-02 EMaxC= 1.00D-01 BMatC= 9.10D-02 BMatP= 5.87D-01
 IDIUse=3 WtCom= 8.28D-01 WtEn= 1.72D-01
 Coeff-Com:  0.195D+00 0.805D+00
 Coeff-En:   0.298D+00 0.702D+00
 Coeff:      0.213D+00 0.787D+00
 Gap=     0.110 Goal=   None    Shift=    0.000
 RMSDP=2.16D-03 MaxDP=1.15D-01 DE=-1.89D-01 OVMax= 4.56D-01

 Cycle   3  Pass 0  IDiag  1:
 RMSU=  1.46D-03    CP:  9.43D-01  8.15D-01
 E= -940.565869800850     Delta-E=       -0.294095160139 Rises=F Damp=F
 DIIS: error= 2.22D-02 at cycle   3 NSaved=   3.
 NSaved= 3 IEnMin= 3 EnMin= -940.565869800850     IErMin= 2 ErrMin= 1.72D-02
 ErrMax= 2.22D-02 EMaxC= 1.00D-01 BMatC= 1.21D-01 BMatP= 9.10D-02
 IDIUse=2 WtCom= 0.00D+00 WtEn= 1.00D+00
 Coeff-En:   0.000D+00 0.000D+00 0.100D+01
 Coeff:      0.000D+00 0.000D+00 0.100D+01
 Gap=     0.110 Goal=   None    Shift=    0.000
 RMSDP=3.48D-03 MaxDP=2.08D-01 DE=-2.94D-01 OVMax= 4.01D-01

 Cycle   4  Pass 0  IDiag  1:
 RMSU=  1.31D-03    CP:  9.50D-01  1.31D+00 -2.78D-01
 E= -939.911009422173     Delta-E=        0.654860378677 Rises=F Damp=F
 DIIS: error= 5.82D-02 at cycle   4 NSaved=   4.
 NSaved= 4 IEnMin= 3 EnMin= -940.565869800850     IErMin= 2 ErrMin= 1.72D-02
 ErrMax= 5.82D-02 EMaxC= 1.00D-01 BMatC= 8.39D-01 BMatP= 9.10D-02
 IDIUse=2 WtCom= 0.00D+00 WtEn= 1.00D+00
 Coeff-En:   0.000D+00 0.000D+00 0.809D+00 0.191D+00
 Coeff:      0.000D+00 0.000D+00 0.809D+00 0.191D+00
 Gap=     0.122 Goal=   None    Shift=    0.000
 RMSDP=1.85D-03 MaxDP=1.08D-01 DE= 6.55D-01 OVMax= 2.60D-01

 Cycle   5  Pass 0  IDiag  1:
 RMSU=  3.05D-04    CP:  9.49D-01  9.78D-01  3.51D-01  5.15D-01
 E= -940.621684570506     Delta-E=       -0.710675148333 Rises=F Damp=F
 DIIS: error= 1.51D-02 at cycle   5 NSaved=   5.
 NSaved= 5 IEnMin= 5 EnMin= -940.621684570506     IErMin= 5 ErrMin= 1.51D-02
 ErrMax= 1.51D-02 EMaxC= 1.00D-01 BMatC= 6.51D-02 BMatP= 9.10D-02
 IDIUse=3 WtCom= 8.49D-01 WtEn= 1.51D-01
 Coeff-Com: -0.223D-02 0.626D-01 0.335D+00-0.840D-01 0.689D+00
 Coeff-En:   0.000D+00 0.000D+00 0.385D+00 0.000D+00 0.615D+00
 Coeff:     -0.189D-02 0.532D-01 0.342D+00-0.713D-01 0.678D+00
 Gap=     0.112 Goal=   None    Shift=    0.000
 RMSDP=8.02D-04 MaxDP=5.26D-02 DE=-7.11D-01 OVMax= 1.39D-01

 Cycle   6  Pass 0  IDiag  1:
 RMSU=  1.18D-04    CP:  9.48D-01  8.83D-01  6.37D-01  2.81D-01  6.98D-01
 E= -940.683292637988     Delta-E=       -0.061608067482 Rises=F Damp=F
 DIIS: error= 1.63D-03 at cycle   6 NSaved=   6.
 NSaved= 6 IEnMin= 6 EnMin= -940.683292637988     IErMin= 6 ErrMin= 1.63D-03
 ErrMax= 1.63D-03 EMaxC= 1.00D-01 BMatC= 1.37D-03 BMatP= 6.51D-02
 IDIUse=3 WtCom= 9.84D-01 WtEn= 1.63D-02
 Coeff-Com: -0.602D-02 0.270D-01 0.185D+00-0.684D-01 0.471D+00 0.391D+00
 Coeff-En:   0.000D+00 0.000D+00 0.000D+00 0.000D+00 0.000D+00 0.100D+01
 Coeff:     -0.592D-02 0.266D-01 0.182D+00-0.673D-01 0.464D+00 0.401D+00
 Gap=     0.114 Goal=   None    Shift=    0.000
 RMSDP=1.33D-04 MaxDP=9.37D-03 DE=-6.16D-02 OVMax= 2.64D-02

 Cycle   7  Pass 0  IDiag  1:
 RMSU=  3.29D-05    CP:  9.47D-01  8.99D-01  6.15D-01  2.95D-01  7.96D-01
                    CP:  4.21D-01
 E= -940.684526284675     Delta-E=       -0.001233646687 Rises=F Damp=F
 DIIS: error= 7.91D-04 at cycle   7 NSaved=   7.
 NSaved= 7 IEnMin= 7 EnMin= -940.684526284675     IErMin= 7 ErrMin= 7.91D-04
 ErrMax= 7.91D-04 EMaxC= 1.00D-01 BMatC= 1.05D-04 BMatP= 1.37D-03
 IDIUse=3 WtCom= 9.92D-01 WtEn= 7.91D-03
 Coeff-Com: -0.166D-02 0.621D-02 0.624D-01-0.255D-01 0.160D+00 0.228D+00
 Coeff-Com:  0.570D+00
 Coeff-En:   0.000D+00 0.000D+00 0.000D+00 0.000D+00 0.000D+00 0.813D-01
 Coeff-En:   0.919D+00
 Coeff:     -0.164D-02 0.616D-02 0.619D-01-0.253D-01 0.159D+00 0.227D+00
 Coeff:      0.573D+00
 Gap=     0.114 Goal=   None    Shift=    0.000
 RMSDP=4.12D-05 MaxDP=2.16D-03 DE=-1.23D-03 OVMax= 8.52D-03

 Cycle   8  Pass 0  IDiag  1:
 RMSU=  1.56D-05    CP:  9.47D-01  8.95D-01  6.23D-01  2.89D-01  7.84D-01
                    CP:  5.26D-01  5.64D-01
 E= -940.684631085986     Delta-E=       -0.000104801311 Rises=F Damp=F
 DIIS: error= 2.67D-04 at cycle   8 NSaved=   8.
 NSaved= 8 IEnMin= 8 EnMin= -940.684631085986     IErMin= 8 ErrMin= 2.67D-04
 ErrMax= 2.67D-04 EMaxC= 1.00D-01 BMatC= 2.13D-05 BMatP= 1.05D-04
 IDIUse=3 WtCom= 9.97D-01 WtEn= 2.67D-03
 Coeff-Com:  0.350D-03-0.215D-02 0.970D-02-0.346D-02 0.184D-01 0.860D-01
 Coeff-Com:  0.399D+00 0.492D+00
 Coeff-En:   0.000D+00 0.000D+00 0.000D+00 0.000D+00 0.000D+00 0.000D+00
 Coeff-En:   0.105D+00 0.895D+00
 Coeff:      0.349D-03-0.215D-02 0.968D-02-0.345D-02 0.184D-01 0.858D-01
 Coeff:      0.399D+00 0.493D+00
 Gap=     0.114 Goal=   None    Shift=    0.000
 RMSDP=1.53D-05 MaxDP=5.65D-04 DE=-1.05D-04 OVMax= 2.09D-03

 Cycle   9  Pass 0  IDiag  1:
 RMSU=  3.94D-06    CP:  9.47D-01  8.95D-01  6.24D-01  2.90D-01  7.83D-01
                    CP:  5.12D-01  7.26D-01  4.91D-01
 E= -940.684651491808     Delta-E=       -0.000020405821 Rises=F Damp=F
 DIIS: error= 3.55D-05 at cycle   9 NSaved=   9.
 NSaved= 9 IEnMin= 9 EnMin= -940.684651491808     IErMin= 9 ErrMin= 3.55D-05
 ErrMax= 3.55D-05 EMaxC= 1.00D-01 BMatC= 5.74D-07 BMatP= 2.13D-05
 IDIUse=1 WtCom= 1.00D+00 WtEn= 0.00D+00
 Coeff-Com:  0.281D-03-0.117D-02 0.147D-02-0.565D-03 0.537D-03 0.324D-01
 Coeff-Com:  0.168D+00 0.246D+00 0.554D+00
 Coeff:      0.281D-03-0.117D-02 0.147D-02-0.565D-03 0.537D-03 0.324D-01
 Coeff:      0.168D+00 0.246D+00 0.554D+00
 Gap=     0.114 Goal=   None    Shift=    0.000
 RMSDP=3.12D-06 MaxDP=1.26D-04 DE=-2.04D-05 OVMax= 4.44D-04

 Initial convergence to 1.0D-05 achieved.  Increase integral accuracy.
 Cycle  10  Pass 1  IDiag  1:
 E= -940.684795825620     Delta-E=       -0.000144333812 Rises=F Damp=F
 DIIS: error= 5.04D-05 at cycle   1 NSaved=   1.
 NSaved= 1 IEnMin= 1 EnMin= -940.684795825620     IErMin= 1 ErrMin= 5.04D-05
 ErrMax= 5.04D-05 EMaxC= 1.00D-01 BMatC= 6.76D-07 BMatP= 6.76D-07
 IDIUse=1 WtCom= 1.00D+00 WtEn= 0.00D+00
 Coeff-Com:  0.100D+01
 Coeff:      0.100D+01
 Gap=     0.114 Goal=   None    Shift=    0.000
 RMSDP=3.12D-06 MaxDP=1.26D-04 DE=-1.44D-04 OVMax= 3.18D-04

 Cycle  11  Pass 1  IDiag  1:
 RMSU=  2.57D-05    CP:  1.00D+00
 E= -940.684796043385     Delta-E=       -0.000000217764 Rises=F Damp=F
 DIIS: error= 5.56D-05 at cycle   2 NSaved=   2.
 NSaved= 2 IEnMin= 2 EnMin= -940.684796043385     IErMin= 1 ErrMin= 5.04D-05
 ErrMax= 5.56D-05 EMaxC= 1.00D-01 BMatC= 4.31D-07 BMatP= 6.76D-07
 IDIUse=1 WtCom= 1.00D+00 WtEn= 0.00D+00
 Coeff-Com:  0.418D+00 0.582D+00
 Coeff:      0.418D+00 0.582D+00
 Gap=     0.114 Goal=   None    Shift=    0.000
 RMSDP=3.70D-06 MaxDP=1.43D-04 DE=-2.18D-07 OVMax= 3.77D-04

 Cycle  12  Pass 1  IDiag  1:
 RMSU=  2.62D-06    CP:  1.00D+00  1.00D+00
 E= -940.684796212825     Delta-E=       -0.000000169440 Rises=F Damp=F
 DIIS: error= 4.73D-05 at cycle   3 NSaved=   3.
 NSaved= 3 IEnMin= 3 EnMin= -940.684796212825     IErMin= 3 ErrMin= 4.73D-05
 ErrMax= 4.73D-05 EMaxC= 1.00D-01 BMatC= 2.76D-07 BMatP= 4.31D-07
 IDIUse=1 WtCom= 1.00D+00 WtEn= 0.00D+00
 Coeff-Com: -0.632D-03 0.444D+00 0.557D+00
 Coeff:     -0.632D-03 0.444D+00 0.557D+00
 Gap=     0.114 Goal=   None    Shift=    0.000
 RMSDP=1.74D-06 MaxDP=6.28D-05 DE=-1.69D-07 OVMax= 1.69D-04

 Cycle  13  Pass 1  IDiag  1:
 RMSU=  3.09D-07    CP:  1.00D+00  1.01D+00  5.54D-01
 E= -940.684796521987     Delta-E=       -0.000000309162 Rises=F Damp=F
 DIIS: error= 2.76D-06 at cycle   4 NSaved=   4.
 NSaved= 4 IEnMin= 4 EnMin= -940.684796521987     IErMin= 4 ErrMin= 2.76D-06
 ErrMax= 2.76D-06 EMaxC= 1.00D-01 BMatC= 6.86D-09 BMatP= 2.76D-07
 IDIUse=1 WtCom= 1.00D+00 WtEn= 0.00D+00
 Coeff-Com: -0.885D-02 0.256D+00 0.336D+00 0.417D+00
 Coeff:     -0.885D-02 0.256D+00 0.336D+00 0.417D+00
 Gap=     0.114 Goal=   None    Shift=    0.000
 RMSDP=2.37D-07 MaxDP=1.57D-05 DE=-3.09D-07 OVMax= 2.50D-05

 Cycle  14  Pass 1  IDiag  1:
 RMSU=  9.77D-08    CP:  1.00D+00  1.01D+00  5.67D-01  5.76D-01
 E= -940.684796528471     Delta-E=       -0.000000006484 Rises=F Damp=F
 DIIS: error= 3.24D-07 at cycle   5 NSaved=   5.
 NSaved= 5 IEnMin= 5 EnMin= -940.684796528471     IErMin= 5 ErrMin= 3.24D-07
 ErrMax= 3.24D-07 EMaxC= 1.00D-01 BMatC= 8.36D-11 BMatP= 6.86D-09
 IDIUse=1 WtCom= 1.00D+00 WtEn= 0.00D+00
 Coeff-Com: -0.326D-02 0.810D-01 0.107D+00 0.166D+00 0.649D+00
 Coeff:     -0.326D-02 0.810D-01 0.107D+00 0.166D+00 0.649D+00
 Gap=     0.114 Goal=   None    Shift=    0.000
 RMSDP=5.35D-08 MaxDP=3.34D-06 DE=-6.48D-09 OVMax= 9.32D-06

 Cycle  15  Pass 1  IDiag  1:
 RMSU=  3.48D-08    CP:  1.00D+00  1.01D+00  5.66D-01  6.01D-01  8.72D-01
 E= -940.684796528504     Delta-E=       -0.000000000034 Rises=F Damp=F
 DIIS: error= 5.64D-07 at cycle   6 NSaved=   6.
 NSaved= 6 IEnMin= 6 EnMin= -940.684796528504     IErMin= 5 ErrMin= 3.24D-07
 ErrMax= 5.64D-07 EMaxC= 1.00D-01 BMatC= 5.42D-11 BMatP= 8.36D-11
 IDIUse=1 WtCom= 1.00D+00 WtEn= 0.00D+00
 Coeff-Com: -0.949D-03 0.162D-01 0.220D-01 0.499D-01 0.460D+00 0.452D+00
 Coeff:     -0.949D-03 0.162D-01 0.220D-01 0.499D-01 0.460D+00 0.452D+00
 Gap=     0.114 Goal=   None    Shift=    0.000
 RMSDP=3.03D-08 MaxDP=1.72D-06 DE=-3.37D-11 OVMax= 5.94D-06

 Cycle  16  Pass 1  IDiag  1:
 RMSU=  1.11D-08    CP:  1.00D+00  1.01D+00  5.66D-01  6.07D-01  9.37D-01
                    CP:  5.09D-01
 E= -940.684796528527     Delta-E=       -0.000000000023 Rises=F Damp=F
 DIIS: error= 1.42D-07 at cycle   7 NSaved=   7.
 NSaved= 7 IEnMin= 7 EnMin= -940.684796528527     IErMin= 7 ErrMin= 1.42D-07
 ErrMax= 1.42D-07 EMaxC= 1.00D-01 BMatC= 5.59D-12 BMatP= 5.42D-11
 IDIUse=1 WtCom= 1.00D+00 WtEn= 0.00D+00
 Coeff-Com: -0.102D-03-0.186D-02-0.212D-02 0.721D-02 0.206D+00 0.285D+00
 Coeff-Com:  0.506D+00
 Coeff:     -0.102D-03-0.186D-02-0.212D-02 0.721D-02 0.206D+00 0.285D+00
 Coeff:      0.506D+00
 Gap=     0.114 Goal=   None    Shift=    0.000
 RMSDP=9.82D-09 MaxDP=6.18D-07 DE=-2.27D-11 OVMax= 2.08D-06

 SCF Done:  E(RB3LYP) =  -940.684796529     A.U. after   16 cycles
             Convg  =    0.9821D-08             -V/T =  2.0097
 KE= 9.316719981714D+02 PE=-5.655897098822D+03 EE= 2.047864596598D+03
 Leave Link  502 at Wed Sep 29 15:35:26 2021, MaxMem= 1610612736 cpu:     826.8
 (Enter /sw/target/amd/app/gaussian/Gaussian09RevA.02_gcc-4.9.2/g09/l508.exe)
 QCSCF skips out because SCF is already converged.
 Leave Link  508 at Wed Sep 29 15:35:26 2021, MaxMem= 1610612736 cpu:       0.0
 (Enter /sw/target/amd/app/gaussian/Gaussian09RevA.02_gcc-4.9.2/g09/l601.exe)
 Copying SCF densities to generalized density rwf, IOpCl= 0 IROHF=0.

 **********************************************************************

            Population analysis using the SCF density.

 **********************************************************************

 Orbital symmetries:
       Occupied  (A) (A) (A) (A) (A) (A) (A) (A) (A) (A) (A) (A)
                 (A) (A) (A) (A) (A) (A) (A) (A) (A) (A) (A) (A)
                 (A) (A) (A) (A) (A) (A) (A) (A) (A) (A) (A) (A)
                 (A) (A) (A) (A) (A) (A) (A) (A) (A) (A) (A) (A)
                 (A) (A) (A) (A) (A) (A) (A) (A) (A) (A) (A) (A)
                 (A) (A) (A) (A) (A) (A) (A) (A) (A) (A) (A) (A)
                 (A) (A) (A) (A) (A) (A)
       Virtual   (A) (A) (A) (A) (A) (A) (A) (A) (A) (A) (A) (A)
                 (A) (A) (A) (A) (A) (A) (A) (A) (A) (A) (A) (A)
                 (A) (A) (A) (A) (A) (A) (A) (A) (A) (A) (A) (A)
                 (A) (A) (A) (A) (A) (A) (A) (A) (A) (A) (A) (A)
                 (A) (A) (A) (A) (A) (A) (A) (A) (A) (A) (A) (A)
                 (A) (A) (A) (A) (A) (A) (A) (A) (A) (A) (A) (A)
                 (A) (A) (A) (A) (A) (A) (A) (A) (A) (A) (A) (A)
                 (A) (A) (A) (A) (A) (A) (A) (A) (A) (A) (A) (A)
                 (A) (A) (A) (A) (A) (A) (A) (A) (A) (A) (A) (A)
                 (A) (A) (A) (A) (A) (A) (A) (A) (A) (A) (A) (A)
                 (A) (A) (A) (A) (A) (A) (A) (A) (A) (A) (A) (A)
                 (A) (A) (A) (A) (A) (A) (A) (A) (A) (A) (A) (A)
                 (A) (A) (A) (A) (A) (A) (A) (A) (A) (A) (A) (A)
                 (A) (A) (A) (A) (A) (A) (A) (A) (A) (A) (A) (A)
                 (A) (A) (A) (A) (A) (A) (A) (A) (A) (A) (A) (A)
                 (A) (A) (A) (A) (A) (A) (A) (A) (A) (A) (A) (A)
                 (A) (A) (A) (A) (A) (A) (A) (A) (A) (A) (A) (A)
                 (A) (A) (A) (A) (A) (A) (A) (A) (A) (A) (A) (A)
                 (A) (A) (A) (A) (A) (A) (A) (A) (A) (A) (A) (A)
                 (A) (A) (A) (A) (A) (A) (A) (A) (A) (A) (A) (A)
                 (A) (A) (A) (A) (A) (A) (A) (A) (A) (A) (A) (A)
                 (A) (A) (A) (A) (A) (A) (A) (A) (A) (A) (A) (A)
                 (A) (A) (A) (A) (A) (A) (A) (A) (A) (A) (A) (A)
                 (A) (A) (A) (A) (A) (A) (A) (A) (A) (A) (A) (A)
                 (A) (A)
 The electronic state is 1-A.
 Alpha  occ. eigenvalues --  -19.19404 -19.11800 -14.36493 -10.33708 -10.26002
 Alpha  occ. eigenvalues --  -10.22502 -10.22331 -10.20114 -10.20076 -10.19508
 Alpha  occ. eigenvalues --  -10.19459 -10.19116 -10.19069 -10.19059 -10.18936
 Alpha  occ. eigenvalues --  -10.18740 -10.18704 -10.18687 -10.18626 -10.18574
 Alpha  occ. eigenvalues --  -10.18288 -10.17963  -1.08628  -1.00642  -0.93679
 Alpha  occ. eigenvalues --   -0.88255  -0.85164  -0.80052  -0.78181  -0.77382
 Alpha  occ. eigenvalues --   -0.74697  -0.74473  -0.74265  -0.69852  -0.66152
 Alpha  occ. eigenvalues --   -0.64475  -0.64214  -0.61536  -0.60513  -0.59262
 Alpha  occ. eigenvalues --   -0.55654  -0.53247  -0.53127  -0.52102  -0.49397
 Alpha  occ. eigenvalues --   -0.48820  -0.46552  -0.46357  -0.45975  -0.45332
 Alpha  occ. eigenvalues --   -0.44847  -0.44066  -0.43449  -0.42533  -0.41605
 Alpha  occ. eigenvalues --   -0.41447  -0.40943  -0.39882  -0.39464  -0.39210
 Alpha  occ. eigenvalues --   -0.38341  -0.37496  -0.37279  -0.37125  -0.36108
 Alpha  occ. eigenvalues --   -0.35644  -0.35096  -0.34758  -0.33799  -0.33358
 Alpha  occ. eigenvalues --   -0.31510  -0.29940  -0.27750  -0.26967  -0.24783
 Alpha  occ. eigenvalues --   -0.24523  -0.23783  -0.18170
 Alpha virt. eigenvalues --   -0.06733  -0.00567   0.00663   0.03619   0.05203
 Alpha virt. eigenvalues --    0.06985   0.07252   0.09331   0.09765   0.10512
 Alpha virt. eigenvalues --    0.11575   0.11702   0.13618   0.14112   0.14849
 Alpha virt. eigenvalues --    0.15530   0.15914   0.16086   0.16319   0.16640
 Alpha virt. eigenvalues --    0.16994   0.17866   0.18544   0.19121   0.19364
 Alpha virt. eigenvalues --    0.19517   0.20408   0.21864   0.22564   0.23392
 Alpha virt. eigenvalues --    0.24962   0.25451   0.25851   0.26207   0.26520
 Alpha virt. eigenvalues --    0.28684   0.30454   0.31290   0.32550   0.33904
 Alpha virt. eigenvalues --    0.35292   0.35921   0.37269   0.37811   0.39970
 Alpha virt. eigenvalues --    0.46594   0.47287   0.47899   0.48848   0.49894
 Alpha virt. eigenvalues --    0.50521   0.50741   0.51509   0.51845   0.53086
 Alpha virt. eigenvalues --    0.53833   0.54358   0.55103   0.55330   0.55814
 Alpha virt. eigenvalues --    0.56414   0.56505   0.56899   0.57683   0.58583
 Alpha virt. eigenvalues --    0.59146   0.59331   0.60004   0.60616   0.60753
 Alpha virt. eigenvalues --    0.61157   0.61738   0.62135   0.62423   0.62765
 Alpha virt. eigenvalues --    0.63127   0.63775   0.63862   0.64350   0.65210
 Alpha virt. eigenvalues --    0.66201   0.66928   0.68328   0.68514   0.70025
 Alpha virt. eigenvalues --    0.71891   0.73178   0.74155   0.75244   0.78789
 Alpha virt. eigenvalues --    0.79437   0.81278   0.81882   0.82103   0.82659
 Alpha virt. eigenvalues --    0.83471   0.83888   0.84066   0.84534   0.85632
 Alpha virt. eigenvalues --    0.86401   0.87059   0.88298   0.88745   0.89264
 Alpha virt. eigenvalues --    0.89549   0.91007   0.91385   0.91662   0.92307
 Alpha virt. eigenvalues --    0.93252   0.93692   0.94660   0.95547   0.96793
 Alpha virt. eigenvalues --    0.97331   0.97554   0.98823   1.00102   1.00870
 Alpha virt. eigenvalues --    1.01749   1.02489   1.04233   1.05361   1.06230
 Alpha virt. eigenvalues --    1.07821   1.10208   1.10343   1.10531   1.11763
 Alpha virt. eigenvalues --    1.13181   1.14779   1.15986   1.16458   1.17653
 Alpha virt. eigenvalues --    1.19913   1.20823   1.21488   1.23519   1.25018
 Alpha virt. eigenvalues --    1.25714   1.26608   1.27022   1.29697   1.32610
 Alpha virt. eigenvalues --    1.34296   1.35996   1.36950   1.38901   1.40732
 Alpha virt. eigenvalues --    1.41714   1.43716   1.44783   1.45969   1.46831
 Alpha virt. eigenvalues --    1.47898   1.48633   1.48870   1.49746   1.50066
 Alpha virt. eigenvalues --    1.50507   1.50758   1.51892   1.54955   1.57340
 Alpha virt. eigenvalues --    1.59511   1.62564   1.63921   1.68252   1.70806
 Alpha virt. eigenvalues --    1.73386   1.74189   1.75377   1.76509   1.76615
 Alpha virt. eigenvalues --    1.79995   1.80313   1.81236   1.82333   1.82907
 Alpha virt. eigenvalues --    1.84003   1.84826   1.86285   1.87536   1.88137
 Alpha virt. eigenvalues --    1.90813   1.91646   1.91989   1.92877   1.93519
 Alpha virt. eigenvalues --    1.93657   1.94702   1.95294   1.96073   1.97140
 Alpha virt. eigenvalues --    1.98039   2.00370   2.01441   2.02276   2.02799
 Alpha virt. eigenvalues --    2.04228   2.05374   2.06401   2.07235   2.08812
 Alpha virt. eigenvalues --    2.10171   2.12627   2.13994   2.15168   2.16045
 Alpha virt. eigenvalues --    2.16733   2.19321   2.19670   2.20926   2.24010
 Alpha virt. eigenvalues --    2.24137   2.27067   2.28357   2.29176   2.30122
 Alpha virt. eigenvalues --    2.30457   2.31258   2.32074   2.33086   2.33839
 Alpha virt. eigenvalues --    2.34865   2.35630   2.36398   2.37587   2.39865
 Alpha virt. eigenvalues --    2.40551   2.41598   2.45582   2.47352   2.49442
 Alpha virt. eigenvalues --    2.51741   2.57612   2.58787   2.59759   2.62315
 Alpha virt. eigenvalues --    2.63435   2.64621   2.66753   2.67005   2.67785
 Alpha virt. eigenvalues --    2.68339   2.69153   2.70599   2.73922   2.74417
 Alpha virt. eigenvalues --    2.74616   2.74967   2.81162   2.83273   2.84469
 Alpha virt. eigenvalues --    2.85257   2.88543   2.93388   2.94322   2.95020
 Alpha virt. eigenvalues --    2.99430   3.10728   3.11725   3.19301   3.24628
 Alpha virt. eigenvalues --    3.32193   3.47542   3.52672   4.02158   4.08966
 Alpha virt. eigenvalues --    4.09512   4.10532   4.11464   4.13046   4.13125
 Alpha virt. eigenvalues --    4.14761   4.16859   4.20744   4.24532   4.29130
 Alpha virt. eigenvalues --    4.34278   4.35715   4.42331   4.43192   4.45154
 Alpha virt. eigenvalues --    4.47375   4.54402   4.56598   4.66842   4.90780
          Condensed to atoms (all electrons):
              1          2          3          4          5          6
     1  C    5.107870   0.378433  -0.064129  -0.001751  -0.001661  -0.000082
     2  C    0.378433   4.882171   0.288488  -0.025688   0.001040   0.002612
     3  N   -0.064129   0.288488   6.992466   0.323473  -0.088145  -0.088275
     4  C   -0.001751  -0.025688   0.323473   4.176602   0.533461   0.241419
     5  O   -0.001661   0.001040  -0.088145   0.533461   8.105528  -0.071651
     6  O   -0.000082   0.002612  -0.088275   0.241419  -0.071651   8.390780
     7  C    0.000006  -0.000035   0.000799  -0.001539   0.008078   0.223087
     8  C    0.000000   0.000004  -0.000059  -0.000531  -0.000175  -0.077322
     9  C   -0.000000  -0.000000  -0.000103   0.000148   0.000054   0.002009
    10  C   -0.000000  -0.000000  -0.000001   0.000013   0.000000   0.000667
    11  C    0.000000   0.000000  -0.000000  -0.000000  -0.000000  -0.000007
    12  C   -0.000000   0.000000  -0.000000   0.000001   0.000000  -0.000051
    13  C   -0.000000  -0.000000   0.000002   0.000016  -0.000010   0.002825
    14  C    0.000000   0.000000  -0.000000  -0.000007   0.000003   0.000036
    15  C    0.000000  -0.000000   0.000003   0.000029  -0.000160   0.003394
    16  C   -0.000001  -0.000008   0.000328  -0.006298  -0.001347  -0.060607
    17  C   -0.000034   0.000002  -0.000389   0.001441  -0.002549  -0.002484
    18  C   -0.000000   0.000000  -0.000007   0.000002  -0.000252   0.000370
    19  C    0.000000  -0.000000   0.000000   0.000000   0.000004  -0.000007
    20  C   -0.000000   0.000000  -0.000000  -0.000008  -0.000002  -0.000040
    21  C   -0.002807  -0.041673   0.290804  -0.027995   0.002477  -0.001818
    22  C   -0.000032  -0.003225  -0.074598  -0.000359   0.000025  -0.001386
    23  H    0.358760  -0.028538   0.005114  -0.000070  -0.000036   0.000000
    24  H    0.376049  -0.035204  -0.001866   0.000082  -0.000002  -0.000005
    25  H    0.378371  -0.029730  -0.004843   0.002712   0.002308  -0.000036
    26  H   -0.048299   0.376876  -0.042955   0.003505   0.000496  -0.000048
    27  H   -0.043373   0.373837  -0.034865  -0.003360   0.012528   0.000189
    28  H   -0.000000  -0.000002  -0.000047  -0.000209  -0.000005   0.005485
    29  H   -0.000000   0.000000   0.000000   0.000000  -0.000000  -0.000001
    30  H   -0.000000   0.000000   0.000000  -0.000000  -0.000000   0.000000
    31  H    0.000000  -0.000000   0.000000   0.000000   0.000000   0.000000
    32  H    0.000000  -0.000000   0.000000   0.000000   0.000000   0.000002
    33  H    0.000100   0.000028  -0.000415   0.005162   0.005188   0.000729
    34  H   -0.000000   0.000000  -0.000000  -0.000000  -0.000011   0.000001
    35  H    0.000000   0.000000   0.000000   0.000000   0.000000  -0.000000
    36  H   -0.000000  -0.000000   0.000000   0.000000  -0.000000   0.000000
    37  H    0.000033   0.004434  -0.030147  -0.007151   0.000083   0.010511
    38  H    0.001690  -0.002141  -0.038663   0.002709  -0.000079   0.000377
    39  H   -0.000003  -0.000004  -0.004142   0.003683  -0.000183   0.001457
    40  H    0.000005   0.000016   0.005384  -0.000008  -0.000001  -0.000041
    41  H    0.000035   0.001849  -0.001185  -0.000194  -0.000005   0.000024
              7          8          9         10         11         12
     1  C    0.000006   0.000000  -0.000000  -0.000000   0.000000  -0.000000
     2  C   -0.000035   0.000004  -0.000000  -0.000000   0.000000   0.000000
     3  N    0.000799  -0.000059  -0.000103  -0.000001  -0.000000  -0.000000
     4  C   -0.001539  -0.000531   0.000148   0.000013  -0.000000   0.000001
     5  O    0.008078  -0.000175   0.000054   0.000000  -0.000000   0.000000
     6  O    0.223087  -0.077322   0.002009   0.000667  -0.000007  -0.000051
     7  C    5.250234   0.316521  -0.102036   0.007351  -0.000910   0.016010
     8  C    0.316521   4.933061   0.415585  -0.005277  -0.038404  -0.031970
     9  C   -0.102036   0.415585   5.166620   0.514639  -0.018031  -0.075405
    10  C    0.007351  -0.005277   0.514639   4.905912   0.490991  -0.022941
    11  C   -0.000910  -0.038404  -0.018031   0.490991   4.906119   0.519321
    12  C    0.016010  -0.031970  -0.075405  -0.022941   0.519321   5.114412
    13  C    0.028470   0.449711  -0.047455  -0.036608  -0.001498   0.439129
    14  C   -0.126559  -0.017003   0.018949  -0.000623   0.007898  -0.086380
    15  C    0.033615  -0.052068  -0.001806   0.000084  -0.000342   0.008590
    16  C    0.272118  -0.010666   0.014062  -0.000288   0.000028  -0.000297
    17  C   -0.096700   0.011586  -0.000058  -0.000001   0.000000  -0.000008
    18  C    0.007581  -0.000250  -0.000001   0.000000  -0.000000   0.000000
    19  C   -0.000985   0.000027   0.000000  -0.000000  -0.000000   0.000002
    20  C    0.015332   0.000172  -0.000006   0.000000   0.000003  -0.000362
    21  C    0.000424  -0.000135  -0.000071   0.000001   0.000000  -0.000000
    22  C    0.000073   0.000016  -0.001097   0.000003   0.000000  -0.000000
    23  H   -0.000000  -0.000000   0.000000   0.000000  -0.000000   0.000000
    24  H   -0.000000   0.000000   0.000000   0.000000   0.000000  -0.000000
    25  H   -0.000008  -0.000000  -0.000000   0.000000  -0.000000  -0.000000
    26  H   -0.000000  -0.000000   0.000000   0.000000  -0.000000   0.000000
    27  H   -0.000005  -0.000000   0.000000  -0.000000   0.000000   0.000000
    28  H   -0.011047  -0.033678   0.351628  -0.046867   0.004632   0.000659
    29  H   -0.000146   0.002570  -0.036482   0.359680  -0.042831   0.004425
    30  H    0.000016   0.001118   0.004122  -0.042058   0.356196  -0.035009
[...]
   129    C    9  pz     Val( 2p)     1.00656
   130    C    9  pz     Ryd( 3p)     0.00273
   131    C    9  dxy    Ryd( 3d)     0.00063
   132    C    9  dxz    Ryd( 3d)     0.00036
   133    C    9  dyz    Ryd( 3d)     0.00058
   134    C    9  dx2y2  Ryd( 3d)     0.00083
   135    C    9  dz2    Ryd( 3d)     0.00041

   136    C   10  S      Cor( 1S)     1.99910
   137    C   10  S      Val( 2S)     0.96293
   138    C   10  S      Ryd( 3S)     0.00062
   139    C   10  S      Ryd( 4S)     0.00003
   140    C   10  px     Val( 2p)     1.07886
   141    C   10  px     Ryd( 3p)     0.00456
   142    C   10  py     Val( 2p)     1.17291
   143    C   10  py     Ryd( 3p)     0.00503
   144    C   10  pz     Val( 2p)     0.99885
   145    C   10  pz     Ryd( 3p)     0.00165
   146    C   10  dxy    Ryd( 3d)     0.00081
   147    C   10  dxz    Ryd( 3d)     0.00053
   148    C   10  dyz    Ryd( 3d)     0.00046
   149    C   10  dx2y2  Ryd( 3d)     0.00069
   150    C   10  dz2    Ryd( 3d)     0.00046

   151    C   11  S      Cor( 1S)     1.99910
   152    C   11  S      Val( 2S)     0.96330
   153    C   11  S      Ryd( 3S)     0.00060
   154    C   11  S      Ryd( 4S)     0.00003
   155    C   11  px     Val( 2p)     1.09228
   156    C   11  px     Ryd( 3p)     0.00464
   157    C   11  py     Val( 2p)     1.15897
   158    C   11  py     Ryd( 3p)     0.00494
   159    C   11  pz     Val( 2p)     1.00089
   160    C   11  pz     Ryd( 3p)     0.00156
   161    C   11  dxy    Ryd( 3d)     0.00084
   162    C   11  dxz    Ryd( 3d)     0.00050
   163    C   11  dyz    Ryd( 3d)     0.00054
   164    C   11  dx2y2  Ryd( 3d)     0.00064
   165    C   11  dz2    Ryd( 3d)     0.00043

   166    C   12  S      Cor( 1S)     1.99906
   167    C   12  S      Val( 2S)     0.95043
   168    C   12  S      Ryd( 3S)     0.00069
   169    C   12  S      Ryd( 4S)     0.00004
   170    C   12  px     Val( 2p)     1.18371
   171    C   12  px     Ryd( 3p)     0.00465
   172    C   12  py     Val( 2p)     1.05411
   173    C   12  py     Ryd( 3p)     0.00409
   174    C   12  pz     Val( 2p)     1.00926
   175    C   12  pz     Ryd( 3p)     0.00226
   176    C   12  dxy    Ryd( 3d)     0.00064
   177    C   12  dxz    Ryd( 3d)     0.00033
   178    C   12  dyz    Ryd( 3d)     0.00062
   179    C   12  dx2y2  Ryd( 3d)     0.00084
   180    C   12  dz2    Ryd( 3d)     0.00040

   181    C   13  S      Cor( 1S)     1.99903
   182    C   13  S      Val( 2S)     0.86833
   183    C   13  S      Ryd( 3S)     0.00053
   184    C   13  S      Ryd( 4S)     0.00007
   185    C   13  px     Val( 2p)     1.07026
   186    C   13  px     Ryd( 3p)     0.00543
   187    C   13  py     Val( 2p)     1.09786
   188    C   13  py     Ryd( 3p)     0.00499
   189    C   13  pz     Val( 2p)     1.00088
   190    C   13  pz     Ryd( 3p)     0.00071
   191    C   13  dxy    Ryd( 3d)     0.00067
   192    C   13  dxz    Ryd( 3d)     0.00048
   193    C   13  dyz    Ryd( 3d)     0.00095
   194    C   13  dx2y2  Ryd( 3d)     0.00074
   195    C   13  dz2    Ryd( 3d)     0.00036

   196    C   14  S      Cor( 1S)     1.99901
   197    C   14  S      Val( 2S)     0.93640
   198    C   14  S      Ryd( 3S)     0.00058
   199    C   14  S      Ryd( 4S)     0.00005
   200    C   14  px     Val( 2p)     1.18482
   201    C   14  px     Ryd( 3p)     0.00449
   202    C   14  py     Val( 2p)     1.04523
   203    C   14  py     Ryd( 3p)     0.00323
   204    C   14  pz     Val( 2p)     0.99199
   205    C   14  pz     Ryd( 3p)     0.00236
   206    C   14  dxy    Ryd( 3d)     0.00065
   207    C   14  dxz    Ryd( 3d)     0.00035
   208    C   14  dyz    Ryd( 3d)     0.00062
   209    C   14  dx2y2  Ryd( 3d)     0.00085
   210    C   14  dz2    Ryd( 3d)     0.00041

   211    C   15  S      Cor( 1S)     1.99903
   212    C   15  S      Val( 2S)     0.86832
   213    C   15  S      Ryd( 3S)     0.00053
   214    C   15  S      Ryd( 4S)     0.00007
   215    C   15  px     Val( 2p)     1.07018
   216    C   15  px     Ryd( 3p)     0.00548
   217    C   15  py     Val( 2p)     1.09803
   218    C   15  py     Ryd( 3p)     0.00493
   219    C   15  pz     Val( 2p)     1.00014
   220    C   15  pz     Ryd( 3p)     0.00073
   221    C   15  dxy    Ryd( 3d)     0.00068
   222    C   15  dxz    Ryd( 3d)     0.00048
   223    C   15  dyz    Ryd( 3d)     0.00095
   224    C   15  dx2y2  Ryd( 3d)     0.00073
   225    C   15  dz2    Ryd( 3d)     0.00037

   226    C   16  S      Cor( 1S)     1.99894
   227    C   16  S      Val( 2S)     0.87131
   228    C   16  S      Ryd( 3S)     0.00065
   229    C   16  S      Ryd( 4S)     0.00007
   230    C   16  px     Val( 2p)     1.08198
   231    C   16  px     Ryd( 3p)     0.00536
   232    C   16  py     Val( 2p)     1.09962
   233    C   16  py     Ryd( 3p)     0.00463
   234    C   16  pz     Val( 2p)     1.01160
   235    C   16  pz     Ryd( 3p)     0.00088
   236    C   16  dxy    Ryd( 3d)     0.00065
   237    C   16  dxz    Ryd( 3d)     0.00047
   238    C   16  dyz    Ryd( 3d)     0.00097
   239    C   16  dx2y2  Ryd( 3d)     0.00071
   240    C   16  dz2    Ryd( 3d)     0.00037

   241    C   17  S      Cor( 1S)     1.99906
   242    C   17  S      Val( 2S)     0.94832
   243    C   17  S      Ryd( 3S)     0.00072
   244    C   17  S      Ryd( 4S)     0.00005
   245    C   17  px     Val( 2p)     1.18882
   246    C   17  px     Ryd( 3p)     0.00465
   247    C   17  py     Val( 2p)     1.05141
   248    C   17  py     Ryd( 3p)     0.00439
   249    C   17  pz     Val( 2p)     1.01117
   250    C   17  pz     Ryd( 3p)     0.00263
   251    C   17  dxy    Ryd( 3d)     0.00064
   252    C   17  dxz    Ryd( 3d)     0.00035
   253    C   17  dyz    Ryd( 3d)     0.00061
   254    C   17  dx2y2  Ryd( 3d)     0.00082
   255    C   17  dz2    Ryd( 3d)     0.00040

   256    C   18  S      Cor( 1S)     1.99910
   257    C   18  S      Val( 2S)     0.96264
   258    C   18  S      Ryd( 3S)     0.00062
   259    C   18  S      Ryd( 4S)     0.00003
   260    C   18  px     Val( 2p)     1.09021
   261    C   18  px     Ryd( 3p)     0.00461
   262    C   18  py     Val( 2p)     1.15835
   263    C   18  py     Ryd( 3p)     0.00496
   264    C   18  pz     Val( 2p)     1.00326
   265    C   18  pz     Ryd( 3p)     0.00169
   266    C   18  dxy    Ryd( 3d)     0.00083
   267    C   18  dxz    Ryd( 3d)     0.00051
   268    C   18  dyz    Ryd( 3d)     0.00053
   269    C   18  dx2y2  Ryd( 3d)     0.00065
   270    C   18  dz2    Ryd( 3d)     0.00042

   271    C   19  S      Cor( 1S)     1.99910
   272    C   19  S      Val( 2S)     0.96312
   273    C   19  S      Ryd( 3S)     0.00060
   274    C   19  S      Ryd( 4S)     0.00003
   275    C   19  px     Val( 2p)     1.08080
   276    C   19  px     Ryd( 3p)     0.00459
   277    C   19  py     Val( 2p)     1.17288
   278    C   19  py     Ryd( 3p)     0.00500
   279    C   19  pz     Val( 2p)     0.99875
   280    C   19  pz     Ryd( 3p)     0.00156
   281    C   19  dxy    Ryd( 3d)     0.00082
   282    C   19  dxz    Ryd( 3d)     0.00053
   283    C   19  dyz    Ryd( 3d)     0.00046
   284    C   19  dx2y2  Ryd( 3d)     0.00068
   285    C   19  dz2    Ryd( 3d)     0.00047

   286    C   20  S      Cor( 1S)     1.99906
   287    C   20  S      Val( 2S)     0.95009
   288    C   20  S      Ryd( 3S)     0.00069
   289    C   20  S      Ryd( 4S)     0.00004
   290    C   20  px     Val( 2p)     1.18710
   291    C   20  px     Ryd( 3p)     0.00464
   292    C   20  py     Val( 2p)     1.04976
   293    C   20  py     Ryd( 3p)     0.00410
   294    C   20  pz     Val( 2p)     1.01314
   295    C   20  pz     Ryd( 3p)     0.00229
   296    C   20  dxy    Ryd( 3d)     0.00063
   297    C   20  dxz    Ryd( 3d)     0.00035
   298    C   20  dyz    Ryd( 3d)     0.00058
   299    C   20  dx2y2  Ryd( 3d)     0.00085
   300    C   20  dz2    Ryd( 3d)     0.00042

   301    C   21  S      Cor( 1S)     1.99934
   302    C   21  S      Val( 2S)     1.01663
   303    C   21  S      Ryd( 3S)     0.00134
   304    C   21  S      Ryd( 4S)     0.00003
   305    C   21  px     Val( 2p)     1.22864
   306    C   21  px     Ryd( 3p)     0.00547
   307    C   21  py     Val( 2p)     1.12160
   308    C   21  py     Ryd( 3p)     0.00103
   309    C   21  pz     Val( 2p)     0.87765
   310    C   21  pz     Ryd( 3p)     0.00242
   311    C   21  dxy    Ryd( 3d)     0.00116
   312    C   21  dxz    Ryd( 3d)     0.00069
   313    C   21  dyz    Ryd( 3d)     0.00121
   314    C   21  dx2y2  Ryd( 3d)     0.00050
   315    C   21  dz2    Ryd( 3d)     0.00134

   316    C   22  S      Cor( 1S)     1.99945
   317    C   22  S      Val( 2S)     1.11097
   318    C   22  S      Ryd( 3S)     0.00045
   319    C   22  S      Ryd( 4S)     0.00001
   320    C   22  px     Val( 2p)     1.24577
   321    C   22  px     Ryd( 3p)     0.00148
   322    C   22  py     Val( 2p)     1.10757
   323    C   22  py     Ryd( 3p)     0.00096
   324    C   22  pz     Val( 2p)     1.21587
   325    C   22  pz     Ryd( 3p)     0.00137
   326    C   22  dxy    Ryd( 3d)     0.00094
   327    C   22  dxz    Ryd( 3d)     0.00050
   328    C   22  dyz    Ryd( 3d)     0.00042
   329    C   22  dx2y2  Ryd( 3d)     0.00047
   330    C   22  dz2    Ryd( 3d)     0.00090

   331    H   23  S      Val( 1S)     0.76402
   332    H   23  S      Ryd( 2S)     0.00087

   333    H   24  S      Val( 1S)     0.77574
   334    H   24  S      Ryd( 2S)     0.00094

   335    H   25  S      Val( 1S)     0.75461
   336    H   25  S      Ryd( 2S)     0.00127

   337    H   26  S      Val( 1S)     0.77217
   338    H   26  S      Ryd( 2S)     0.00135

   339    H   27  S      Val( 1S)     0.74003
   340    H   27  S      Ryd( 2S)     0.00196

   341    H   28  S      Val( 1S)     0.76101
   342    H   28  S      Ryd( 2S)     0.00118

   343    H   29  S      Val( 1S)     0.76323
   344    H   29  S      Ryd( 2S)     0.00081

   345    H   30  S      Val( 1S)     0.76278
   346    H   30  S      Ryd( 2S)     0.00082

   347    H   31  S      Val( 1S)     0.76606
   348    H   31  S      Ryd( 2S)     0.00110

   349    H   32  S      Val( 1S)     0.76594
   350    H   32  S      Ryd( 2S)     0.00133

   351    H   33  S      Val( 1S)     0.76115
   352    H   33  S      Ryd( 2S)     0.00128

   353    H   34  S      Val( 1S)     0.76357
   354    H   34  S      Ryd( 2S)     0.00081

   355    H   35  S      Val( 1S)     0.76298
   356    H   35  S      Ryd( 2S)     0.00082

   357    H   36  S      Val( 1S)     0.76624
   358    H   36  S      Ryd( 2S)     0.00110

   359    H   37  S      Val( 1S)     0.74567
   360    H   37  S      Ryd( 2S)     0.00156

   361    H   38  S      Val( 1S)     0.76784
   362    H   38  S      Ryd( 2S)     0.00147

   363    H   39  S      Val( 1S)     0.76250
   364    H   39  S      Ryd( 2S)     0.00141

   365    H   40  S      Val( 1S)     0.76333
   366    H   40  S      Ryd( 2S)     0.00093

   367    H   41  S      Val( 1S)     0.77142
   368    H   41  S      Ryd( 2S)     0.00092

 WARNING:  1 low occupancy (<1.9990e) core orbital  found on  C    7
           1 low occupancy (<1.9990e) core orbital  found on  C    8
           1 low occupancy (<1.9990e) core orbital  found on  C   16


 Summary of Natural Population Analysis:                  
                                                          
                                       Natural Population 
                Natural  -----------------------------------------------
    Atom  No    Charge         Core      Valence    Rydberg      Total
 -----------------------------------------------------------------------
      C    1   -0.68873      1.99945     4.68185    0.00743     6.68873
      C    2   -0.25426      1.99935     4.23951    0.01539     6.25426
      N    3   -0.50478      1.99929     5.49198    0.01352     7.50478
      C    4    0.93635      1.99936     3.01774    0.04655     5.06365
      O    5   -0.63421      1.99977     6.61520    0.01924     8.63421
      O    6   -0.57001      1.99970     6.56019    0.01013     8.57001
      C    7    0.36597      1.99861     3.61158    0.02384     5.63403
      C    8   -0.07810      1.99894     4.06433    0.01484     6.07810
      C    9   -0.20916      1.99906     4.19475    0.01535     6.20916
      C   10   -0.22749      1.99910     4.21355    0.01484     6.22749
      C   11   -0.22927      1.99910     4.21544    0.01473     6.22927
      C   12   -0.21113      1.99906     4.19750    0.01457     6.21113
      C   13   -0.05130      1.99903     4.03734    0.01492     6.05130
      C   14   -0.17103      1.99901     4.15844    0.01358     6.17103
      C   15   -0.05064      1.99903     4.03668    0.01493     6.05064
      C   16   -0.07822      1.99894     4.06452    0.01477     6.07822
      C   17   -0.21402      1.99906     4.19971    0.01525     6.21402
      C   18   -0.22843      1.99910     4.21446    0.01486     6.22843
      C   19   -0.22939      1.99910     4.21555    0.01473     6.22939
      C   20   -0.21374      1.99906     4.20009    0.01460     6.21374
      C   21   -0.25905      1.99934     4.24451    0.01519     6.25905
      C   22   -0.68712      1.99945     4.68018    0.00749     6.68712
      H   23    0.23511      0.00000     0.76402    0.00087     0.76489
      H   24    0.22332      0.00000     0.77574    0.00094     0.77668
      H   25    0.24412      0.00000     0.75461    0.00127     0.75588
      H   26    0.22648      0.00000     0.77217    0.00135     0.77352
      H   27    0.25801      0.00000     0.74003    0.00196     0.74199
      H   28    0.23782      0.00000     0.76101    0.00118     0.76218
      H   29    0.23596      0.00000     0.76323    0.00081     0.76404
      H   30    0.23640      0.00000     0.76278    0.00082     0.76360
      H   31    0.23284      0.00000     0.76606    0.00110     0.76716
      H   32    0.23272      0.00000     0.76594    0.00133     0.76728
      H   33    0.23757      0.00000     0.76115    0.00128     0.76243
      H   34    0.23561      0.00000     0.76357    0.00081     0.76439
      H   35    0.23620      0.00000     0.76298    0.00082     0.76380
      H   36    0.23266      0.00000     0.76624    0.00110     0.76734
      H   37    0.25277      0.00000     0.74567    0.00156     0.74723
      H   38    0.23069      0.00000     0.76784    0.00147     0.76931
      H   39    0.23608      0.00000     0.76250    0.00141     0.76392
      H   40    0.23574      0.00000     0.76333    0.00093     0.76426
      H   41    0.22765      0.00000     0.77142    0.00092     0.77235
 =======================================================================
   * Total *   -0.00000     43.98191   111.64539    0.37271   156.00000

                                 Natural Population      
 --------------------------------------------------------
   Core                      43.98191 ( 99.9589% of  44)
   Valence                  111.64539 ( 99.6834% of 112)
   Natural Minimal Basis    155.62729 ( 99.7611% of 156)
   Natural Rydberg Basis      0.37271 (  0.2389% of 156)
 --------------------------------------------------------

    Atom  No          Natural Electron Configuration
 ----------------------------------------------------------------------------
      C    1      [core]2S( 1.11)2p( 3.57)
      C    2      [core]2S( 1.02)2p( 3.22)3p( 0.01)
      N    3      [core]2S( 1.20)2p( 4.29)3p( 0.01)
      C    4      [core]2S( 0.70)2p( 2.32)3p( 0.03)3d( 0.01)
      O    5      [core]2S( 1.70)2p( 4.91)3d( 0.02)
      O    6      [core]2S( 1.60)2p( 4.96)3d( 0.01)
      C    7      [core]2S( 0.81)2p( 2.80)3p( 0.02)3d( 0.01)
      C    8      [core]2S( 0.87)2p( 3.19)3p( 0.01)
      C    9      [core]2S( 0.95)2p( 3.25)3p( 0.01)
      C   10      [core]2S( 0.96)2p( 3.25)3p( 0.01)
      C   11      [core]2S( 0.96)2p( 3.25)3p( 0.01)
      C   12      [core]2S( 0.95)2p( 3.25)3p( 0.01)
      C   13      [core]2S( 0.87)2p( 3.17)3p( 0.01)
      C   14      [core]2S( 0.94)2p( 3.22)3p( 0.01)
      C   15      [core]2S( 0.87)2p( 3.17)3p( 0.01)
      C   16      [core]2S( 0.87)2p( 3.19)3p( 0.01)
      C   17      [core]2S( 0.95)2p( 3.25)3p( 0.01)
      C   18      [core]2S( 0.96)2p( 3.25)3p( 0.01)
      C   19      [core]2S( 0.96)2p( 3.25)3p( 0.01)
      C   20      [core]2S( 0.95)2p( 3.25)3p( 0.01)
      C   21      [core]2S( 1.02)2p( 3.23)3p( 0.01)
      C   22      [core]2S( 1.11)2p( 3.57)
      H   23            1S( 0.76)
      H   24            1S( 0.78)
      H   25            1S( 0.75)
      H   26            1S( 0.77)
      H   27            1S( 0.74)
      H   28            1S( 0.76)
      H   29            1S( 0.76)
      H   30            1S( 0.76)
      H   31            1S( 0.77)
      H   32            1S( 0.77)
      H   33            1S( 0.76)
      H   34            1S( 0.76)
      H   35            1S( 0.76)
      H   36            1S( 0.77)
      H   37            1S( 0.75)
      H   38            1S( 0.77)
      H   39            1S( 0.76)
      H   40            1S( 0.76)
      H   41            1S( 0.77)


 NBO analysis skipped by request.
 Leave Link  607 at Thu Sep 30 06:54:35 2021, MaxMem= 1610612736 cpu:      29.3
 (Enter /sw/target/amd/app/gaussian/Gaussian09RevA.02_gcc-4.9.2/g09/l9999.exe)
 1\1\GINC-HERMITE\SP\RTD-B3LYP-FC\6-31G(d)\C19H19N1O2\JSCHLEINITZ\30-Se
 p-2021\0\\#p TD(NStates=10, Root=1) b3lyp/6-31G* volume pop=NPA densit
 y=current Geom=AllCheck Guess=Read\\CCN(C(=O)Oc1c2ccccc2cc2c1cccc2)CC_
 conf_0\\0,1\C,0,1.3310485907,-0.454920807,-0.0589214655\C,0,1.84907282
 31,0.4778638378,-1.1562208908\N,0,0.7819605298,0.999268032,-2.01728130
 59\C,0,0.1754261037,2.1557303956,-1.6291130124\O,0,0.4216085012,2.7839
 094889,-0.6193295425\O,0,-0.7801128982,2.5436461674,-2.5585275337\C,0,
 -1.5281485651,3.684453989,-2.2657369553\C,0,-1.0652000582,4.928513108,
 -2.7179542628\C,0,0.1754276884,5.0911749986,-3.4078064604\C,0,0.584904
 7232,6.3289814974,-3.8285295635\C,0,-0.218110619,7.4813503213,-3.58684
 65336\C,0,-1.4145995412,7.3637559634,-2.9315129252\C,0,-1.8848421617,6
 .0927847976,-2.4753033846\C,0,-3.1061093306,5.950065929,-1.8074054064\
 C,0,-3.562094891,4.7015234852,-1.3702388165\C,0,-2.7552973877,3.526941
 5041,-1.6050892455\C,0,-3.2388041504,2.2583396964,-1.1595988044\C,0,-4
 .4438500116,2.1556232084,-0.515871443\C,0,-5.2410239379,3.3126699625,-
 0.277325879\C,0,-4.8116011006,4.5447333236,-0.6929820027\C,0,0.4244132
 204,0.2550486645,-3.2293914329\C,0,1.2230736707,0.682715713,-4.4640375
 338\H,0,2.1644718608,-0.8354873992,0.5429685368\H,0,0.7983751989,-1.31
 50220874,-0.4812924107\H,0,0.6483695897,0.0862977081,0.6030396331\H,0,
 2.5658852837,-0.0437389057,-1.8006187001\H,0,2.3640662513,1.3305752671
 ,-0.7085496049\H,0,0.7884295222,4.216624907,-3.5957373939\H,0,1.531140
 6455,6.4380398929,-4.3515112053\H,0,0.1257974624,8.4542732569,-3.92715
 74891\H,0,-2.0325351011,8.238843963,-2.7451542364\H,0,-3.7176475209,6.
 8312671247,-1.6262302308\H,0,-2.6365530949,1.3753960229,-1.3437223003\
 H,0,-4.7992291469,1.1845294747,-0.1820327202\H,0,-6.1930522489,3.21005
 99258,0.2362743025\H,0,-5.4161146659,5.4309576807,-0.5153508098\H,0,-0
 .6445181069,0.3761294045,-3.4136144093\H,0,0.5962090779,-0.8065169567,
 -3.0167089563\H,0,1.0119811318,1.7270059783,-4.7142040068\H,0,0.951948
 3391,0.0629724385,-5.3267306115\H,0,2.3012420058,0.5785027992,-4.29759
 71811\\Version=AM64L-G09RevA.02\State=1-A\HF=-940.7052763\RMSD=9.264e-
 09\Dipole=0.1321155,-0.7584737,-0.6515944\Quadrupole=1.3194167,7.81145
 86,-9.1308752,-5.6127258,-6.2811061,-0.8693285\PG=C01 [X(C19H19N1O2)]\
 \@


 There ain't no surer way to find out whether you
 like people or hate them than to travel with them.
                                     -- Mark Twain
 Job cpu time:  0 days  8 hours 19 minutes 27.2 seconds.
 File lengths (MBytes):  RWF=    435 Int=      0 D2E=      0 Chk=     60 Scr=      1
 Normal termination of Gaussian 09 at Thu Sep 30 06:54:41 2021.
