 Entering Gaussian System, Link 0=g09
 Input=C19H17NO2_13b5_conf_0.com
 Output=C19H17NO2_13b5_conf_0.log
 Initial command:
 /sw/target/amd/app/gaussian/Gaussian09RevA.02_gcc-4.9.2/g09/l1.exe /home/jschleinitz/gaussian/Gau-1633153.inp -scrdir=/home/jschleinitz/gaussian/
 Entering Link 1 = /sw/target/amd/app/gaussian/Gaussian09RevA.02_gcc-4.9.2/g09/l1.exe PID=   1633155.
  
 Copyright (c) 1988,1990,1992,1993,1995,1998,2003,2009, Gaussian, Inc.
                  All Rights Reserved.
  
 This is part of the Gaussian(R) 09 program.  It is based on
 the Gaussian(R) 03 system (copyright 2003, Gaussian, Inc.),
 the Gaussian(R) 98 system (copyright 1998, Gaussian, Inc.),
 the Gaussian(R) 94 system (copyright 1995, Gaussian, Inc.),
 the Gaussian 92(TM) system (copyright 1992, Gaussian, Inc.),
 the Gaussian 90(TM) system (copyright 1990, Gaussian, Inc.),
 the Gaussian 88(TM) system (copyright 1988, Gaussian, Inc.),
 the Gaussian 86(TM) system (copyright 1986, Carnegie Mellon
 University), and the Gaussian 82(TM) system (copyright 1983,
 Carnegie Mellon University). Gaussian is a federally registered
 trademark of Gaussian, Inc.
  
 This software contains proprietary and confidential information,
 including trade secrets, belonging to Gaussian, Inc.
  
 This software is provided under written license and may be
 used, copied, transmitted, or stored only in accord with that
 written license.
  
 The following legend is applicable only to US Government
 contracts under FAR:
  
                    RESTRICTED RIGHTS LEGEND
  
 Use, reproduction and disclosure by the US Government is
 subject to restrictions as set forth in subparagraphs (a)
 and (c) of the Commercial Computer Software - Restricted
 Rights clause in FAR 52.227-19.
  
 Gaussian, Inc.
 340 Quinnipiac St., Bldg. 40, Wallingford CT 06492
  
  
 ---------------------------------------------------------------
 Warning -- This program may not be used in any manner that
 competes with the business of Gaussian, Inc. or will provide
 assistance to any competitor of Gaussian, Inc.  The licensee
 of this program is prohibited from giving any competitor of
 Gaussian, Inc. access to this program.  By using this program,
 the user acknowledges that Gaussian, Inc. is engaged in the
 business of creating and licensing software in the field of
 computational chemistry and represents and warrants to the
 licensee that it is not a competitor of Gaussian, Inc. and that
 it will not use this program in any manner prohibited above.
 ---------------------------------------------------------------
  

 Cite this work as:
 Gaussian 09, Revision A.02,
 M. J. Frisch, G. W. Trucks, H. B. Schlegel, G. E. Scuseria, 
 M. A. Robb, J. R. Cheeseman, G. Scalmani, V. Barone, B. Mennucci, 
 G. A. Petersson, H. Nakatsuji, M. Caricato, X. Li, H. P. Hratchian, 
 A. F. Izmaylov, J. Bloino, G. Zheng, J. L. Sonnenberg, M. Hada, 
 M. Ehara, K. Toyota, R. Fukuda, J. Hasegawa, M. Ishida, T. Nakajima, 
 Y. Honda, O. Kitao, H. Nakai, T. Vreven, J. A. Montgomery, Jr., 
 J. E. Peralta, F. Ogliaro, M. Bearpark, J. J. Heyd, E. Brothers, 
 K. N. Kudin, V. N. Staroverov, R. Kobayashi, J. Normand, 
 K. Raghavachari, A. Rendell, J. C. Burant, S. S. Iyengar, J. Tomasi, 
 M. Cossi, N. Rega, J. M. Millam, M. Klene, J. E. Knox, J. B. Cross, 
 V. Bakken, C. Adamo, J. Jaramillo, R. Gomperts, R. E. Stratmann, 
 O. Yazyev, A. J. Austin, R. Cammi, C. Pomelli, J. W. Ochterski, 
 R. L. Martin, K. Morokuma, V. G. Zakrzewski, G. A. Voth, 
 P. Salvador, J. J. Dannenberg, S. Dapprich, A. D. Daniels, 
 O. Farkas, J. B. Foresman, J. V. Ortiz, J. Cioslowski, 
 and D. J. Fox, Gaussian, Inc., Wallingford CT, 2009.
 
 ******************************************
 Gaussian 09:  AM64L-G09RevA.02 11-Jun-2009
                30-Sep-2021 
 ******************************************
 %nproc=6
 Will use up to    6 processors via shared memory.
 %mem=12gb
 %chk=C19H17NO2_13b5_conf_0.chk
 -----------------------------------
 #p opt b3lyp/6-31G* scf=(xqc,tight)
 -----------------------------------
 1/14=-1,18=20,19=15,26=3,38=1/1,3;
 2/9=110,12=2,17=6,18=5,40=1/2;
 3/5=1,6=6,7=1,11=2,16=1,25=1,30=1,71=1,74=-5/1,2,3;
 4//1;
 5/5=2,8=3,13=1,32=2,38=5/2,8;
 6/7=2,8=2,9=2,10=2,28=1/1;
 7//1,2,3,16;
 1/14=-1,18=20,19=15/3(2);
 2/9=110/2;
 99//99;
 2/9=110/2;
 3/5=1,6=6,7=1,11=2,16=1,25=1,30=1,71=1,74=-5/1,2,3;
 4/5=5,16=3/1;
 5/5=2,8=3,13=1,32=2,38=5/2,8;
 7//1,2,3,16;
 1/14=-1,18=20,19=15/3(-5);
 2/9=110/2;
 6/7=2,8=2,9=2,10=2,19=2,28=1/1;
 99/9=1/99;
 Leave Link    1 at Thu Sep 30 03:51:57 2021, MaxMem= 1610612736 cpu:       0.1
 (Enter /sw/target/amd/app/gaussian/Gaussian09RevA.02_gcc-4.9.2/g09/l101.exe)
 --------------------------------------------
 O=C(N(C)C)Oc1ccc2c(c1)ccc(c2)c1ccccc1_conf_0
 --------------------------------------------
 Symbolic Z-matrix:
 Charge =  0 Multiplicity = 1
 O                     3.70506  -0.63743   0.29112 
 C                     3.27152   0.44314  -0.08892 
 N                     1.93349   0.66149  -0.40424 
 C                     0.97235  -0.34419   0.00006 
 C                     1.42686   1.98491  -0.7168 
 O                     4.04656   1.59621  -0.23906 
 C                     5.42359   1.65007   0.06831 
 C                     6.1619    2.57161  -0.66961 
 C                     7.52334   2.72497  -0.41441 
 C                     8.15537   1.96278   0.5802 
 C                     7.39974   1.04226   1.33719 
 C                     6.02453   0.90264   1.08073 
 C                     8.04701   0.29022   2.32735 
 C                     9.41715   0.45273   2.57406 
 C                     10.19084   1.36523   1.8395 
 C                     9.5302    2.10398   0.83857 
 C                     11.63956   1.55283   2.09227 
 C                     12.47398   0.47937   2.45214 
 C                     13.84495   0.66141   2.66883 
 C                     14.41559   1.92179   2.521 
 C                     13.61481   3.00218   2.16911 
 C                     12.24342   2.81918   1.96684 
 H                     1.40509  -1.34707  -0.05661 
 H                     0.09445  -0.30316  -0.65112 
 H                     0.67577  -0.14592   1.03463 
 H                     2.14482   2.54188  -1.32538 
 H                     1.24811   2.52543   0.21624 
 H                     0.49325   1.89805  -1.28194 
 H                     5.68224   3.16891  -1.43868 
 H                     8.08996   3.44627  -0.9988 
 H                     5.43793   0.21099   1.6786 
 H                     7.48913  -0.43381   2.91835 
 H                     9.8686   -0.14334   3.36415 
 H                     10.10043   2.80342   0.22954 
 H                     12.0686  -0.52508   2.55247 
 H                     14.46651  -0.18625   2.94537 
 H                     15.4814   2.0619    2.67927 
 H                     14.05175   3.99026   2.05133 
 H                     11.64536   3.69176   1.71298 
 
 NAtoms=     39 NQM=     39 NQMF=      0 NMic=      0 NMicF=      0 NTot=     39.
                    Isotopes and Nuclear Properties:
 (Nuclear quadrupole moments (NQMom) in fm**2, nuclear magnetic moments (NMagM)
  in nuclear magnetons)

  Atom         1           2           3           4           5           6           7           8           9          10
 IAtWgt=          16          12          14          12          12          16          12          12          12          12
 AtmWgt=  15.9949146  12.0000000  14.0030740  12.0000000  12.0000000  15.9949146  12.0000000  12.0000000  12.0000000  12.0000000
 NucSpn=           0           0           2           0           0           0           0           0           0           0
 AtZEff=   0.0000000   0.0000000   0.0000000   0.0000000   0.0000000   0.0000000   0.0000000   0.0000000   0.0000000   0.0000000
 NQMom=    0.0000000   0.0000000   2.0440000   0.0000000   0.0000000   0.0000000   0.0000000   0.0000000   0.0000000   0.0000000
 NMagM=    0.0000000   0.0000000   0.4037610   0.0000000   0.0000000   0.0000000   0.0000000   0.0000000   0.0000000   0.0000000

  Atom        11          12          13          14          15          16          17          18          19          20
 IAtWgt=          12          12          12          12          12          12          12          12          12          12
 AtmWgt=  12.0000000  12.0000000  12.0000000  12.0000000  12.0000000  12.0000000  12.0000000  12.0000000  12.0000000  12.0000000
 NucSpn=           0           0           0           0           0           0           0           0           0           0
 AtZEff=   0.0000000   0.0000000   0.0000000   0.0000000   0.0000000   0.0000000   0.0000000   0.0000000   0.0000000   0.0000000
 NQMom=    0.0000000   0.0000000   0.0000000   0.0000000   0.0000000   0.0000000   0.0000000   0.0000000   0.0000000   0.0000000
 NMagM=    0.0000000   0.0000000   0.0000000   0.0000000   0.0000000   0.0000000   0.0000000   0.0000000   0.0000000   0.0000000

  Atom        21          22          23          24          25          26          27          28          29          30
 IAtWgt=          12          12           1           1           1           1           1           1           1           1
 AtmWgt=  12.0000000  12.0000000   1.0078250   1.0078250   1.0078250   1.0078250   1.0078250   1.0078250   1.0078250   1.0078250
 NucSpn=           0           0           1           1           1           1           1           1           1           1
 AtZEff=   0.0000000   0.0000000   0.0000000   0.0000000   0.0000000   0.0000000   0.0000000   0.0000000   0.0000000   0.0000000
 NQMom=    0.0000000   0.0000000   0.0000000   0.0000000   0.0000000   0.0000000   0.0000000   0.0000000   0.0000000   0.0000000
 NMagM=    0.0000000   0.0000000   2.7928460   2.7928460   2.7928460   2.7928460   2.7928460   2.7928460   2.7928460   2.7928460

  Atom        31          32          33          34          35          36          37          38          39
 IAtWgt=           1           1           1           1           1           1           1           1           1
 AtmWgt=   1.0078250   1.0078250   1.0078250   1.0078250   1.0078250   1.0078250   1.0078250   1.0078250   1.0078250
 NucSpn=           1           1           1           1           1           1           1           1           1
 AtZEff=   0.0000000   0.0000000   0.0000000   0.0000000   0.0000000   0.0000000   0.0000000   0.0000000   0.0000000
 NQMom=    0.0000000   0.0000000   0.0000000   0.0000000   0.0000000   0.0000000   0.0000000   0.0000000   0.0000000
 NMagM=    2.7928460   2.7928460   2.7928460   2.7928460   2.7928460   2.7928460   2.7928460   2.7928460   2.7928460
 Leave Link  101 at Thu Sep 30 03:51:57 2021, MaxMem= 1610612736 cpu:       0.2
 (Enter /sw/target/amd/app/gaussian/Gaussian09RevA.02_gcc-4.9.2/g09/l103.exe)

 GradGradGradGradGradGradGradGradGradGradGradGradGradGradGradGradGradGrad
 Berny optimization.
 Initialization pass.
                           ----------------------------
                           !    Initial Parameters    !
                           ! (Angstroms and Degrees)  !
 --------------------------                            --------------------------
 ! Name  Definition              Value          Derivative Info.                !
 --------------------------------------------------------------------------------
 ! R1    R(1,2)                  1.2247         estimate D2E/DX2                !
 ! R2    R(2,3)                  1.3919         estimate D2E/DX2                !
 ! R3    R(2,6)                  1.3974         estimate D2E/DX2                !
 ! R4    R(3,4)                  1.4487         estimate D2E/DX2                !
 ! R5    R(3,5)                  1.4511         estimate D2E/DX2                !
 ! R6    R(4,23)                 1.0937         estimate D2E/DX2                !
 ! R7    R(4,24)                 1.0938         estimate D2E/DX2                !
 ! R8    R(4,25)                 1.0944         estimate D2E/DX2                !
 ! R9    R(5,26)                 1.0936         estimate D2E/DX2                !
 ! R10   R(5,27)                 1.093          estimate D2E/DX2                !
 ! R11   R(5,28)                 1.0948         estimate D2E/DX2                !
 ! R12   R(6,7)                  1.4119         estimate D2E/DX2                !
 ! R13   R(7,8)                  1.3924         estimate D2E/DX2                !
 ! R14   R(7,12)                 1.3945         estimate D2E/DX2                !
 ! R15   R(8,9)                  1.3936         estimate D2E/DX2                !
 ! R16   R(8,29)                 1.0855         estimate D2E/DX2                !
 ! R17   R(9,10)                 1.4034         estimate D2E/DX2                !
 ! R18   R(9,30)                 1.0876         estimate D2E/DX2                !
 ! R19   R(10,11)                1.4112         estimate D2E/DX2                !
 ! R20   R(10,16)                1.406          estimate D2E/DX2                !
 ! R21   R(11,12)                1.4059         estimate D2E/DX2                !
 ! R22   R(11,13)                1.4018         estimate D2E/DX2                !
 ! R23   R(12,31)                1.0863         estimate D2E/DX2                !
 ! R24   R(13,14)                1.4016         estimate D2E/DX2                !
 ! R25   R(13,32)                1.0885         estimate D2E/DX2                !
 ! R26   R(14,15)                1.4039         estimate D2E/DX2                !
 ! R27   R(14,33)                1.0878         estimate D2E/DX2                !
 ! R28   R(15,16)                1.4086         estimate D2E/DX2                !
 ! R29   R(15,17)                1.4825         estimate D2E/DX2                !
 ! R30   R(16,34)                1.0887         estimate D2E/DX2                !
 ! R31   R(17,18)                1.4064         estimate D2E/DX2                !
 ! R32   R(17,22)                1.4086         estimate D2E/DX2                !
 ! R33   R(18,19)                1.3999         estimate D2E/DX2                !
 ! R34   R(18,35)                1.0878         estimate D2E/DX2                !
 ! R35   R(19,20)                1.3914         estimate D2E/DX2                !
 ! R36   R(19,36)                1.0869         estimate D2E/DX2                !
 ! R37   R(20,21)                1.3901         estimate D2E/DX2                !
 ! R38   R(20,37)                1.0866         estimate D2E/DX2                !
 ! R39   R(21,22)                1.3983         estimate D2E/DX2                !
 ! R40   R(21,38)                1.0868         estimate D2E/DX2                !
 ! R41   R(22,39)                1.0879         estimate D2E/DX2                !
 ! A1    A(1,2,3)              123.2965         estimate D2E/DX2                !
 ! A2    A(1,2,6)              124.4038         estimate D2E/DX2                !
 ! A3    A(3,2,6)              112.2944         estimate D2E/DX2                !
 ! A4    A(2,3,4)              117.7527         estimate D2E/DX2                !
 ! A5    A(2,3,5)              121.8345         estimate D2E/DX2                !
 ! A6    A(4,3,5)              117.4896         estimate D2E/DX2                !
 ! A7    A(3,4,23)             111.0744         estimate D2E/DX2                !
 ! A8    A(3,4,24)             109.8962         estimate D2E/DX2                !
 ! A9    A(3,4,25)             108.5337         estimate D2E/DX2                !
 ! A10   A(23,4,24)            108.7301         estimate D2E/DX2                !
 ! A11   A(23,4,25)            108.804          estimate D2E/DX2                !
 ! A12   A(24,4,25)            109.7855         estimate D2E/DX2                !
 ! A13   A(3,5,26)             110.8008         estimate D2E/DX2                !
 ! A14   A(3,5,27)             108.9191         estimate D2E/DX2                !
 ! A15   A(3,5,28)             109.6671         estimate D2E/DX2                !
 ! A16   A(26,5,27)            109.3019         estimate D2E/DX2                !
 ! A17   A(26,5,28)            108.2387         estimate D2E/DX2                !
 ! A18   A(27,5,28)            109.903          estimate D2E/DX2                !
 ! A19   A(2,6,7)              123.2974         estimate D2E/DX2                !
 ! A20   A(6,7,8)              115.2769         estimate D2E/DX2                !
 ! A21   A(6,7,12)             123.9081         estimate D2E/DX2                !
 ! A22   A(8,7,12)             120.728          estimate D2E/DX2                !
 ! A23   A(7,8,9)              119.5887         estimate D2E/DX2                !
 ! A24   A(7,8,29)             120.354          estimate D2E/DX2                !
 ! A25   A(9,8,29)             120.0573         estimate D2E/DX2                !
 ! A26   A(8,9,10)             120.6609         estimate D2E/DX2                !
 ! A27   A(8,9,30)             118.9174         estimate D2E/DX2                !
 ! A28   A(10,9,30)            120.4217         estimate D2E/DX2                !
 ! A29   A(9,10,11)            119.5569         estimate D2E/DX2                !
 ! A30   A(9,10,16)            121.0674         estimate D2E/DX2                !
 ! A31   A(11,10,16)           119.3755         estimate D2E/DX2                !
 ! A32   A(10,11,12)           119.3877         estimate D2E/DX2                !
 ! A33   A(10,11,13)           118.7916         estimate D2E/DX2                !
 ! A34   A(12,11,13)           121.8207         estimate D2E/DX2                !
 ! A35   A(7,12,11)            120.0483         estimate D2E/DX2                !
 ! A36   A(7,12,31)            120.5406         estimate D2E/DX2                !
 ! A37   A(11,12,31)           119.411          estimate D2E/DX2                !
 ! A38   A(11,13,14)           120.8977         estimate D2E/DX2                !
 ! A39   A(11,13,32)           120.2478         estimate D2E/DX2                !
 ! A40   A(14,13,32)           118.8545         estimate D2E/DX2                !
 ! A41   A(13,14,15)           121.4667         estimate D2E/DX2                !
 ! A42   A(13,14,33)           118.0335         estimate D2E/DX2                !
 ! A43   A(15,14,33)           120.4962         estimate D2E/DX2                !
 ! A44   A(14,15,16)           117.0155         estimate D2E/DX2                !
 ! A45   A(14,15,17)           122.1125         estimate D2E/DX2                !
 ! A46   A(16,15,17)           120.8719         estimate D2E/DX2                !
 ! A47   A(10,16,15)           122.4478         estimate D2E/DX2                !
 ! A48   A(10,16,34)           118.2859         estimate D2E/DX2                !
 ! A49   A(15,16,34)           119.2618         estimate D2E/DX2                !
 ! A50   A(15,17,18)           121.7897         estimate D2E/DX2                !
 ! A51   A(15,17,22)           121.1655         estimate D2E/DX2                !
 ! A52   A(18,17,22)           117.0413         estimate D2E/DX2                !
 ! A53   A(17,18,19)           121.4253         estimate D2E/DX2                !
 ! A54   A(17,18,35)           120.4817         estimate D2E/DX2                !
 ! A55   A(19,18,35)           118.0842         estimate D2E/DX2                !
 ! A56   A(18,19,20)           120.1982         estimate D2E/DX2                !
 ! A57   A(18,19,36)           119.8696         estimate D2E/DX2                !
 ! A58   A(20,19,36)           119.9302         estimate D2E/DX2                !
 ! A59   A(19,20,21)           119.6473         estimate D2E/DX2                !
 ! A60   A(19,20,37)           120.2392         estimate D2E/DX2                !
 ! A61   A(21,20,37)           120.1135         estimate D2E/DX2                !
 ! A62   A(20,21,22)           119.9937         estimate D2E/DX2                !
 ! A63   A(20,21,38)           120.1626         estimate D2E/DX2                !
 ! A64   A(22,21,38)           119.8437         estimate D2E/DX2                !
 ! A65   A(17,22,21)           121.6852         estimate D2E/DX2                !
 ! A66   A(17,22,39)           120.4116         estimate D2E/DX2                !
 ! A67   A(21,22,39)           117.9021         estimate D2E/DX2                !
 ! D1    D(1,2,3,4)             13.2955         estimate D2E/DX2                !
 ! D2    D(1,2,3,5)            173.4526         estimate D2E/DX2                !
 ! D3    D(6,2,3,4)           -165.894          estimate D2E/DX2                !
 ! D4    D(6,2,3,5)             -5.7368         estimate D2E/DX2                !
 ! D5    D(1,2,6,7)             -1.7343         estimate D2E/DX2                !
 ! D6    D(3,2,6,7)            177.4446         estimate D2E/DX2                !
 ! D7    D(2,3,4,23)           -34.5805         estimate D2E/DX2                !
 ! D8    D(2,3,4,24)          -154.941          estimate D2E/DX2                !
 ! D9    D(2,3,4,25)            84.9919         estimate D2E/DX2                !
 ! D10   D(5,3,4,23)           164.3903         estimate D2E/DX2                !
 ! D11   D(5,3,4,24)            44.0297         estimate D2E/DX2                !
 ! D12   D(5,3,4,25)           -76.0373         estimate D2E/DX2                !
 ! D13   D(2,3,5,26)            39.5454         estimate D2E/DX2                !
 ! D14   D(2,3,5,27)           -80.7189         estimate D2E/DX2                !
 ! D15   D(2,3,5,28)           158.9721         estimate D2E/DX2                !
 ! D16   D(4,3,5,26)          -160.2479         estimate D2E/DX2                !
 ! D17   D(4,3,5,27)            79.4878         estimate D2E/DX2                !
 ! D18   D(4,3,5,28)           -40.8212         estimate D2E/DX2                !
 ! D19   D(2,6,7,8)            151.2602         estimate D2E/DX2                !
 ! D20   D(2,6,7,12)           -32.1195         estimate D2E/DX2                !
 ! D21   D(6,7,8,9)            178.282          estimate D2E/DX2                !
 ! D22   D(6,7,8,29)            -1.6505         estimate D2E/DX2                !
 ! D23   D(12,7,8,9)             1.5449         estimate D2E/DX2                !
 ! D24   D(12,7,8,29)         -178.3876         estimate D2E/DX2                !
 ! D25   D(6,7,12,11)         -178.5539         estimate D2E/DX2                !
 ! D26   D(6,7,12,31)            1.3142         estimate D2E/DX2                !
 ! D27   D(8,7,12,11)           -2.1093         estimate D2E/DX2                !
 ! D28   D(8,7,12,31)          177.7587         estimate D2E/DX2                !
 ! D29   D(7,8,9,10)            -0.162          estimate D2E/DX2                !
 ! D30   D(7,8,9,30)           179.8619         estimate D2E/DX2                !
 ! D31   D(29,8,9,10)          179.7708         estimate D2E/DX2                !
 ! D32   D(29,8,9,30)           -0.2053         estimate D2E/DX2                !
 ! D33   D(8,9,10,11)           -0.6411         estimate D2E/DX2                !
 ! D34   D(8,9,10,16)          179.5603         estimate D2E/DX2                !
 ! D35   D(30,9,10,11)         179.3346         estimate D2E/DX2                !
 ! D36   D(30,9,10,16)          -0.464          estimate D2E/DX2                !
 ! D37   D(9,10,11,12)           0.0815         estimate D2E/DX2                !
 ! D38   D(9,10,11,13)        -179.9412         estimate D2E/DX2                !
 ! D39   D(16,10,11,12)        179.8835         estimate D2E/DX2                !
 ! D40   D(16,10,11,13)         -0.1392         estimate D2E/DX2                !
 ! D41   D(9,10,16,15)         179.2654         estimate D2E/DX2                !
 ! D42   D(9,10,16,34)          -1.5102         estimate D2E/DX2                !
 ! D43   D(11,10,16,15)         -0.5335         estimate D2E/DX2                !
 ! D44   D(11,10,16,34)        178.6908         estimate D2E/DX2                !
 ! D45   D(10,11,12,7)           1.2777         estimate D2E/DX2                !
 ! D46   D(10,11,12,31)       -178.5919         estimate D2E/DX2                !
 ! D47   D(13,11,12,7)        -178.6989         estimate D2E/DX2                !
 ! D48   D(13,11,12,31)          1.4315         estimate D2E/DX2                !
 ! D49   D(10,11,13,14)          0.5381         estimate D2E/DX2                !
 ! D50   D(10,11,13,32)       -179.3817         estimate D2E/DX2                !
 ! D51   D(12,11,13,14)       -179.4852         estimate D2E/DX2                !
 ! D52   D(12,11,13,32)          0.5951         estimate D2E/DX2                !
 ! D53   D(11,13,14,15)         -0.283          estimate D2E/DX2                !
 ! D54   D(11,13,14,33)        179.0322         estimate D2E/DX2                !
 ! D55   D(32,13,14,15)        179.6378         estimate D2E/DX2                !
 ! D56   D(32,13,14,33)         -1.047          estimate D2E/DX2                !
 ! D57   D(13,14,15,16)         -0.3658         estimate D2E/DX2                !
 ! D58   D(13,14,15,17)        179.7341         estimate D2E/DX2                !
 ! D59   D(33,14,15,16)       -179.6643         estimate D2E/DX2                !
 ! D60   D(33,14,15,17)          0.4356         estimate D2E/DX2                !
 ! D61   D(14,15,16,10)          0.7768         estimate D2E/DX2                !
 ! D62   D(14,15,16,34)       -178.4402         estimate D2E/DX2                !
 ! D63   D(17,15,16,10)       -179.3217         estimate D2E/DX2                !
 ! D64   D(17,15,16,34)          1.4612         estimate D2E/DX2                !
 ! D65   D(14,15,17,18)         35.9172         estimate D2E/DX2                !
 ! D66   D(14,15,17,22)       -144.7857         estimate D2E/DX2                !
 ! D67   D(16,15,17,18)       -143.9791         estimate D2E/DX2                !
 ! D68   D(16,15,17,22)         35.318          estimate D2E/DX2                !
 ! D69   D(15,17,18,19)        178.9948         estimate D2E/DX2                !
 ! D70   D(15,17,18,35)          0.0935         estimate D2E/DX2                !
 ! D71   D(22,17,18,19)         -0.3299         estimate D2E/DX2                !
 ! D72   D(22,17,18,35)       -179.2312         estimate D2E/DX2                !
 ! D73   D(15,17,22,21)       -178.3313         estimate D2E/DX2                !
 ! D74   D(15,17,22,39)          2.0609         estimate D2E/DX2                !
 ! D75   D(18,17,22,21)          0.9979         estimate D2E/DX2                !
 ! D76   D(18,17,22,39)       -178.6099         estimate D2E/DX2                !
 ! D77   D(17,18,19,20)         -0.4598         estimate D2E/DX2                !
 ! D78   D(17,18,19,36)       -179.9547         estimate D2E/DX2                !
 ! D79   D(35,18,19,20)        178.467          estimate D2E/DX2                !
 ! D80   D(35,18,19,36)         -1.0279         estimate D2E/DX2                !
 ! D81   D(18,19,20,21)          0.6013         estimate D2E/DX2                !
 ! D82   D(18,19,20,37)       -179.3839         estimate D2E/DX2                !
 ! D83   D(36,19,20,21)       -179.9041         estimate D2E/DX2                !
 ! D84   D(36,19,20,37)          0.1106         estimate D2E/DX2                !
 ! D85   D(19,20,21,22)          0.0543         estimate D2E/DX2                !
 ! D86   D(19,20,21,38)       -179.9964         estimate D2E/DX2                !
 ! D87   D(37,20,21,22)       -179.9604         estimate D2E/DX2                !
 ! D88   D(37,20,21,38)         -0.0111         estimate D2E/DX2                !
 ! D89   D(20,21,22,17)         -0.8785         estimate D2E/DX2                !
 ! D90   D(20,21,22,39)        178.7388         estimate D2E/DX2                !
 ! D91   D(38,21,22,17)        179.172          estimate D2E/DX2                !
 ! D92   D(38,21,22,39)         -1.2107         estimate D2E/DX2                !
 --------------------------------------------------------------------------------
 Trust Radius=3.00D-01 FncErr=1.00D-07 GrdErr=1.00D-06
 Number of steps in this run= 210 maximum allowed number of steps= 234.
 GradGradGradGradGradGradGradGradGradGradGradGradGradGradGradGradGradGrad

 Leave Link  103 at Thu Sep 30 03:51:57 2021, MaxMem= 1610612736 cpu:       0.0
 (Enter /sw/target/amd/app/gaussian/Gaussian09RevA.02_gcc-4.9.2/g09/l202.exe)
                          Input orientation:                          
 ---------------------------------------------------------------------
 Center     Atomic      Atomic             Coordinates (Angstroms)
 Number     Number       Type             X           Y           Z
 ---------------------------------------------------------------------
      1          8           0        3.705055   -0.637429    0.291117
      2          6           0        3.271523    0.443140   -0.088916
      3          7           0        1.933492    0.661492   -0.404241
      4          6           0        0.972346   -0.344190    0.000056
      5          6           0        1.426862    1.984913   -0.716795
      6          8           0        4.046559    1.596209   -0.239063
      7          6           0        5.423593    1.650066    0.068310
      8          6           0        6.161900    2.571612   -0.669609
      9          6           0        7.523338    2.724971   -0.414409
     10          6           0        8.155366    1.962777    0.580205
     11          6           0        7.399739    1.042260    1.337187
     12          6           0        6.024528    0.902644    1.080728
     13          6           0        8.047014    0.290216    2.327351
     14          6           0        9.417146    0.452734    2.574056
     15          6           0       10.190837    1.365234    1.839496
     16          6           0        9.530197    2.103978    0.838575
     17          6           0       11.639563    1.552830    2.092273
     18          6           0       12.473983    0.479366    2.452140
     19          6           0       13.844951    0.661407    2.668834
     20          6           0       14.415593    1.921787    2.520995
     21          6           0       13.614808    3.002176    2.169109
     22          6           0       12.243419    2.819180    1.966845
     23          1           0        1.405089   -1.347070   -0.056612
     24          1           0        0.094448   -0.303158   -0.651116
     25          1           0        0.675772   -0.145919    1.034632
     26          1           0        2.144818    2.541885   -1.325384
     27          1           0        1.248106    2.525429    0.216244
     28          1           0        0.493245    1.898052   -1.281944
     29          1           0        5.682242    3.168907   -1.438684
     30          1           0        8.089962    3.446267   -0.998805
     31          1           0        5.437933    0.210985    1.678603
     32          1           0        7.489135   -0.433808    2.918353
     33          1           0        9.868600   -0.143339    3.364154
     34          1           0       10.100425    2.803420    0.229544
     35          1           0       12.068599   -0.525076    2.552467
     36          1           0       14.466512   -0.186249    2.945375
     37          1           0       15.481400    2.061904    2.679274
     38          1           0       14.051748    3.990264    2.051329
     39          1           0       11.645362    3.691757    1.712984
 ---------------------------------------------------------------------
                    Distance matrix (angstroms):
                    1          2          3          4          5
     1  O    0.000000
     2  C    1.224747   0.000000
     3  N    2.304160   1.391918   0.000000
     4  C    2.763766   2.431876   1.448673   0.000000
     5  C    3.617005   2.484768   1.451140   2.478947   0.000000
     6  O    2.320960   1.397424   2.316470   3.643228   2.691120
     7  C    2.869781   2.472406   3.658058   4.878044   4.086853
     8  C    4.154158   3.636190   4.647410   5.990144   4.771481
     9  C    5.136417   4.836385   5.958559   7.246173   6.148670
    10  C    5.162354   5.158385   6.432277   7.566666   6.852405
    11  C    4.191217   4.408501   5.749558   6.709809   6.386133
    12  C    2.894004   3.026259   4.358883   5.314789   5.053803
    13  C    4.884606   5.354161   6.706310   7.474603   7.480991
    14  C    6.247259   6.697775   8.057227   8.864265   8.776212
    15  C    6.962292   7.241957   8.585649   9.554384   9.150185
    16  C    6.461215   6.541377   7.831685   8.940551   8.252114
    17  C    8.426020   8.718549  10.061555  11.034744  10.600794
    18  C    9.100074   9.546913  10.922181  11.788919  11.590846
    19  C   10.495618  10.929328  12.301490  13.184747  12.939207
    20  C   11.235549  11.540724  12.882088  13.864006  13.386351
    21  C   10.722722  10.891780  12.188276  13.256500  12.566196
    22  C    9.362684   9.506136  10.796864  11.870646  11.175680
    23  H    2.431944   2.586402   2.105796   1.093730   3.396826
    24  H    3.746469   3.311622   2.091310   1.093807   2.648567
    25  H    3.157681   2.889165   2.074638   1.094356   2.858684
    26  H    3.893000   2.683849   2.104529   3.385396   1.093645
    27  H    4.005731   2.919464   2.080629   2.890933   1.093011
    28  H    4.383937   3.355430   2.091352   2.626920   1.094796
    29  H    4.624897   3.881139   4.627130   6.049375   4.475626
    30  H    6.129264   5.750132   6.783112   8.125623   6.827297
    31  H    2.376507   2.805592   4.101500   4.802833   4.997343
    32  H    4.611191   5.253661   6.565400   7.140940   7.470988
    33  H    6.904851   7.469208   8.821252   9.513192   9.614912
    34  H    7.262506   7.232305   8.466897   9.658257   8.763344
    35  H    8.664594   9.235956  10.624051  11.387465  11.412041
    36  H   11.093132  11.615972  13.000584  13.812760  13.717066
    37  H   12.315518  12.623960  13.964779  14.949252  14.459227
    38  H   11.470306  11.548852  12.804791  13.930756  13.079437
    39  H    9.154891   9.160869  10.391611  11.538468  10.641188
                    6          7          8          9         10
     6  O    0.000000
     7  C    1.411950   0.000000
     8  C    2.368850   1.392433   0.000000
     9  C    3.659623   2.407772   1.393613   0.000000
    10  C    4.205694   2.796857   2.430354   1.403444   0.000000
    11  C    3.746364   2.425825   2.810408   2.432053   1.411150
    12  C    2.476942   1.394543   2.422397   2.793339   2.432052
    13  C    4.929071   3.719515   4.211910   3.703986   2.421099
    14  C    6.169634   4.864240   5.060398   4.204818   2.801385
    15  C    6.490448   5.093608   4.897274   3.747603   2.466985
    16  C    5.611543   4.202801   3.720043   2.446034   1.406006
    17  C    7.942967   6.537902   6.218577   4.959907   3.820215
    18  C    8.916916   7.534002   7.346101   6.145627   4.935089
    19  C   10.263441   8.869016   8.592052   7.329903   6.198977
    20  C   10.735026   9.324460   8.872749   7.534247   6.554296
    21  C    9.966314   8.563735   7.986835   6.622493   5.780180
    22  C    8.576141   7.175046   6.633027   5.287571   4.400952
    23  H    3.958983   5.014659   6.193472   7.358159   7.544989
    24  H    4.404153   5.721228   6.714062   8.025833   8.463392
    25  H    4.002438   5.167314   6.355077   7.565109   7.784434
    26  H    2.385584   3.672613   4.070365   5.458193   6.331928
    27  H    2.983638   4.268822   4.993220   6.309998   6.939689
    28  H    3.715474   5.117911   5.741279   7.131522   7.885422
    29  H    2.566696   2.155182   1.085500   2.153103   3.412770
    30  H    4.510990   3.387418   2.142618   1.087589   2.167554
    31  H    2.744487   2.159676   3.407461   3.879399   3.414630
    32  H    5.093288   4.090444   4.864933   4.591989   3.413857
    33  H    7.064373   5.816955   6.114068   5.291975   3.888607
    34  H    6.190819   4.819645   4.046503   2.657482   2.147766
    35  H    8.754749   7.420133   7.406777   6.326496   5.039109
    36  H   11.040526   9.665605   9.467866   8.244453   7.074101
    37  H   11.810553  10.399338   9.916042   8.563953   7.621463
    38  H   10.539507   9.157180   8.465564   7.092318   6.406421
    39  H    8.120568   6.751582   6.082748   4.738308   4.056185
                   11         12         13         14         15
    11  C    0.000000
    12  C    1.405870   0.000000
    13  C    1.401770   2.453485   0.000000
    14  C    2.438712   3.733940   1.401619   0.000000
    15  C    2.854270   4.260030   2.447375   1.403864   0.000000
    16  C    2.432018   3.713699   2.775971   2.398183   1.408557
    17  C    4.336698   5.742351   3.815215   2.526156   1.482530
    18  C    5.225698   6.607224   4.432765   3.059383   2.524450
    19  C    6.592351   7.983690   5.819834   4.433733   3.812574
    20  C    7.169182   8.574555   6.577106   5.210125   4.315408
    21  C    6.569661   7.950155   6.195167   4.927880   3.809435
    22  C    5.197610   6.567566   4.912783   3.735852   2.518584
    23  H    6.602076   5.262506   7.244250   8.622805   9.388355
    24  H    7.689654   6.294370   8.512736   9.893725  10.532035
    25  H    6.834840   5.450760   7.496435   8.896056   9.667877
    26  H    6.078844   4.850631   7.297150   8.512163   8.725789
    27  H    6.426422   5.118102   7.461776   8.751489   9.162612
    28  H    7.435851   6.096568   8.524762   9.828208  10.201499
    29  H    3.895880   3.405957   5.297360   6.117939   5.858936
    30  H    3.422355   3.880785   4.585391   4.846441   4.098820
    31  H    2.157838   1.086251   2.689694   4.085880   4.893698
    32  H    2.164914   2.703340   1.088450   2.149820   3.420480
    33  H    3.407273   4.591841   2.140352   1.087828   2.168919
    34  H    3.409144   4.577161   3.864387   3.389592   2.160671
    35  H    5.072642   6.382414   4.109565   2.826090   2.758186
    36  H    7.350835   8.713764   6.466755   5.103163   4.680968
    37  H    8.255551   9.660832   7.650675   6.275004   5.401910
    38  H    7.310947   8.655156   7.058567   5.853793   4.673573
    39  H    5.018603   6.306558   4.989593   4.024632   2.746699
                   16         17         18         19         20
    16  C    0.000000
    17  C    2.514945   0.000000
    18  C    3.729455   1.406444   0.000000
    19  C    4.903872   2.447610   1.399875   0.000000
    20  C    5.170186   2.833067   2.419745   1.391418   0.000000
    21  C    4.388750   2.451142   2.783192   2.404556   1.390080
    22  C    3.024249   1.408551   2.400708   2.777351   2.414692
    23  H    8.872907  10.852263  11.495657  12.892332  13.660260
    24  H    9.851236  12.010852  12.786533  14.178463  14.836033
    25  H    9.137905  11.144912  11.899499  13.294723  13.973809
    26  H    7.708326  10.139467  11.189965  12.505322  12.874434
    27  H    8.316126  10.604142  11.627808  12.968049  13.381292
    28  H    9.284691  11.650962  12.629098  13.978769  14.432417
    29  H    4.596383   7.111191   8.276466   9.475710   9.669839
    30  H    2.692950   5.073414   6.319111   7.370680   7.397745
    31  H    4.586469   6.358608   7.083530   8.477110   9.177955
    32  H    3.864165   4.674954   5.089200   6.454313   7.326837
    33  H    3.397573   2.762423   2.829762   4.116122   5.064663
    34  H    1.088714   2.720787   3.996866   4.955788   4.964745
    35  H    4.036439   2.171070   1.087799   2.139325   3.390650
    36  H    5.835319   3.426925   2.157891   1.086892   2.150932
    37  H    6.229508   3.919622   3.405961   2.153942   1.086568
    38  H    5.047105   3.429489   3.869934   3.391956   2.152107
    39  H    2.785598   2.172303   3.398885   3.864565   3.385241
                   21         22         23         24         25
    21  C    0.000000
    22  C    1.398251   0.000000
    23  H   13.150932  11.786493   0.000000
    24  H   14.201375  12.814063   1.777911   0.000000
    25  H   13.364736  11.977950   1.779179   1.790086   0.000000
    26  H   11.999333  10.625318   4.157036   3.571124   3.866789
    27  H   12.529018  11.137675   3.885273   3.175554   2.851916
    28  H   13.612651  12.225779   3.586602   2.324287   3.094779
    29  H    8.716052   7.400606   6.371673   6.625628   6.493851
    30  H    6.384106   5.141937   8.279574   8.837835   8.485804
    31  H    8.654053   7.293861   4.658577   5.851903   4.818739
    32  H    7.063372   5.838709   6.833746   8.212160   7.074828
    33  H    5.035521   4.045832   9.207694  10.567970   9.483394
    34  H    4.018993   2.758783   9.639364  10.514084   9.908120
    35  H    3.870301   3.399642  11.008789  12.397278  11.499743
    36  H    3.390287   3.864229  13.452145  14.815689  13.922538
    37  H    2.151406   3.400815  14.739360  15.919903  15.059414
    38  H    1.086787   2.156068  13.887712  14.850687  14.037749
    39  H    2.135951   1.087891  11.549219  12.448772  11.641298
                   26         27         28         29         30
    26  H    0.000000
    27  H    1.783530   0.000000
    28  H    1.773161   1.791084   0.000000
    29  H    3.594351   4.776444   5.344654   0.000000
    30  H    6.022400   7.009657   7.758044   2.463237   0.000000
    31  H    5.030073   5.004977   6.005078   4.304238   4.966772
    32  H    7.444848   7.416800   8.486609   5.935334   5.546179
    33  H    9.426505   9.557436  10.660712   7.180795   5.923194
    34  H    8.110356   8.856693   9.767404   4.736761   2.442141
    35  H   11.087173  11.482447  12.432340   8.388108   6.649259
    36  H   13.323146  13.766903  14.746752  10.374991   8.331393
    37  H   13.933129  14.452268  15.503641  10.686746   8.371265
    38  H   12.460937  13.017163  14.118111   9.105133   6.718790
    39  H   10.040628  10.568987  11.685747   6.764997   4.478273
                   31         32         33         34         35
    31  H    0.000000
    32  H    2.481969   0.000000
    33  H    4.753676   2.438230   0.000000
    34  H    5.528049   4.952593   4.308470   0.000000
    35  H    6.728385   4.594964   2.375828   4.510938   0.000000
    36  H    9.125664   6.981820   4.617143   5.947821   2.453398
    37  H   10.261505   8.376279   6.069241   5.958684   4.284362
    38  H    9.413803   7.961912   6.025687   4.510039   4.957046
    39  H    7.116820   5.978915   4.537753   2.318742   4.320364
                   36         37         38         39
    36  H    0.000000
    37  H    2.480928   0.000000
    38  H    4.291225   2.481288   0.000000
    39  H    4.951425   4.278472   2.448321   0.000000
 Stoichiometry    C19H17NO2
 Framework group  C1[X(C19H17NO2)]
 Deg. of freedom   111
 Full point group                 C1      NOp   1
 Largest Abelian subgroup         C1      NOp   1
 Largest concise Abelian subgroup C1      NOp   1
                         Standard orientation:                         
 ---------------------------------------------------------------------
 Center     Atomic      Atomic             Coordinates (Angstroms)
 Number     Number       Type             X           Y           Z
 ---------------------------------------------------------------------
      1          8           0       -4.072392   -1.515939   -0.576344
      2          6           0       -4.489411   -0.413261   -0.244379
      3          7           0       -5.840317   -0.129061   -0.066279
      4          6           0       -6.760961   -1.245362    0.003990
      5          6           0       -6.291332    1.145371    0.461182
      6          8           0       -3.676145    0.692905    0.015986
      7          6           0       -2.266076    0.649151   -0.042251
      8          6           0       -1.647235    1.850911   -0.376435
      9          6           0       -0.256088    1.918521   -0.424375
     10          6           0        0.525696    0.789202   -0.136091
     11          6           0       -0.105309   -0.422117    0.218711
     12          6           0       -1.508908   -0.477899    0.275880
     13          6           0        0.691048   -1.539721    0.504609
     14          6           0        2.089383   -1.459516    0.452049
     15          6           0        2.742490   -0.265577    0.107387
     16          6           0        1.929514    0.845367   -0.190786
     17          6           0        4.220474   -0.163112    0.052985
     18          6           0        5.021322   -1.230538   -0.391234
     19          6           0        6.415037   -1.118312   -0.459149
     20          6           0        7.040214    0.069509   -0.092705
     21          6           0        6.274400    1.140461    0.353289
     22          6           0        4.883610    1.020104    0.432807
     23          1           0       -6.441378   -2.060569   -0.651410
     24          1           0       -7.761171   -0.922611   -0.299038
     25          1           0       -6.786251   -1.611022    1.035139
     26          1           0       -5.692791    1.966663    0.057093
     27          1           0       -6.197327    1.131505    1.550055
     28          1           0       -7.336061    1.311825    0.179379
     29          1           0       -2.242302    2.731413   -0.597617
     30          1           0        0.215776    2.862056   -0.688826
     31          1           0       -1.994375   -1.403644    0.571273
     32          1           0        0.228976   -2.488531    0.771018
     33          1           0        2.662232   -2.350915    0.698262
     34          1           0        2.397168    1.782681   -0.487502
     35          1           0        4.566750   -2.165987   -0.709989
     36          1           0        7.009484   -1.959113   -0.807029
     37          1           0        8.121176    0.160687   -0.154655
     38          1           0        6.753984    2.072123    0.641581
     39          1           0        4.319409    1.872037    0.806164
 ---------------------------------------------------------------------
 Rotational constants (GHZ):      1.2322963      0.0928611      0.0874699
 Leave Link  202 at Thu Sep 30 03:51:58 2021, MaxMem= 1610612736 cpu:       0.1
 (Enter /sw/target/amd/app/gaussian/Gaussian09RevA.02_gcc-4.9.2/g09/l301.exe)
 Standard basis: 6-31G(d) (6D, 7F)
 Ernie: Thresh=  0.10000D-02 Tol=  0.10000D-05 Strict=F.
 There are   364 symmetry adapted basis functions of A   symmetry.
 Integral buffers will be    131072 words long.
 Raffenetti 2 integral format.
 Two-electron integral symmetry is turned on.
   364 basis functions,   684 primitive gaussians,   364 cartesian basis functions
    77 alpha electrons       77 beta electrons
       nuclear repulsion energy      1576.5293547542 Hartrees.
 IExCor=  402 DFT=T Ex+Corr=B3LYP ExCW=0 ScaHFX=  0.200000
 ScaDFX=  0.800000  0.720000  1.000000  0.810000 ScalE2=  1.000000  1.000000
 IRadAn=      0 IRanWt=     -1 IRanGd=            0 ICorTp=0
 NAtoms=   39 NActive=   39 NUniq=   39 SFac= 7.50D-01 NAtFMM=   80 NAOKFM=F Big=F
 Leave Link  301 at Thu Sep 30 03:51:58 2021, MaxMem= 1610612736 cpu:       0.1
 (Enter /sw/target/amd/app/gaussian/Gaussian09RevA.02_gcc-4.9.2/g09/l302.exe)
 NPDir=0 NMtPBC=     1 NCelOv=     1 NCel=       1 NClECP=     1 NCelD=      1
         NCelK=      1 NCelE2=     1 NClLst=     1 CellRange=     0.0.
 One-electron integrals computed using PRISM.
 NBasis=   364 RedAO= T  NBF=   364
 NBsUse=   364 1.00D-06 NBFU=   364
 Precomputing XC quadrature grid using
 IXCGrd= 2 IRadAn=           0 IRanWt=          -1 IRanGd=           0 AccXCQ= 1.00D-10.
 NRdTot=    2502 NPtTot=      319956 NUsed=      337990 NTot=      338022
 NSgBfM=   353   354   354   354   354 NAtAll=    39    39.
 Leave Link  302 at Thu Sep 30 03:52:04 2021, MaxMem= 1610612736 cpu:       4.0
 (Enter /sw/target/amd/app/gaussian/Gaussian09RevA.02_gcc-4.9.2/g09/l303.exe)
 DipDrv:  MaxL=1.
 Leave Link  303 at Thu Sep 30 03:52:06 2021, MaxMem= 1610612736 cpu:       0.3
 (Enter /sw/target/amd/app/gaussian/Gaussian09RevA.02_gcc-4.9.2/g09/l401.exe)
 Harris functional with IExCor=  402 diagonalized for initial guess.
 ExpMin= 1.61D-01 ExpMax= 5.48D+03 ExpMxC= 8.25D+02 IAcc=1 IRadAn=         1 AccDes= 0.00D+00
 HarFok:  IExCor=  402 AccDes= 0.00D+00 IRadAn=         1 IDoV= 1
 ScaDFX=  1.000000  1.000000  1.000000  1.000000
 FoFCou: FMM=F IPFlag=           0 FMFlag=      100000 FMFlg1=           0
         NFxFlg=           0 DoJE=T BraDBF=F KetDBF=T FulRan=T
         Omega=  0.000000  0.000000  1.000000  0.000000  0.000000 ICntrl=     500 IOpCl=  0
         NMat0=    1 NMatS0=    1 NMatT0=    0 NMatD0=    1 NMtDS0=    0 NMtDT0=    0
         I1Cent=           4 NGrid=           0.
 Petite list used in FoFCou.
 Harris En= -939.601448827117    
 Initial guess orbital symmetries:
       Occupied  (A) (A) (A) (A) (A) (A) (A) (A) (A) (A) (A) (A)
                 (A) (A) (A) (A) (A) (A) (A) (A) (A) (A) (A) (A)
                 (A) (A) (A) (A) (A) (A) (A) (A) (A) (A) (A) (A)
                 (A) (A) (A) (A) (A) (A) (A) (A) (A) (A) (A) (A)
                 (A) (A) (A) (A) (A) (A) (A) (A) (A) (A) (A) (A)
                 (A) (A) (A) (A) (A) (A) (A) (A) (A) (A) (A) (A)
                 (A) (A) (A) (A) (A)
       Virtual   (A) (A) (A) (A) (A) (A) (A) (A) (A) (A) (A) (A)
                 (A) (A) (A) (A) (A) (A) (A) (A) (A) (A) (A) (A)
                 (A) (A) (A) (A) (A) (A) (A) (A) (A) (A) (A) (A)
                 (A) (A) (A) (A) (A) (A) (A) (A) (A) (A) (A) (A)
                 (A) (A) (A) (A) (A) (A) (A) (A) (A) (A) (A) (A)
                 (A) (A) (A) (A) (A) (A) (A) (A) (A) (A) (A) (A)
                 (A) (A) (A) (A) (A) (A) (A) (A) (A) (A) (A) (A)
                 (A) (A) (A) (A) (A) (A) (A) (A) (A) (A) (A) (A)
                 (A) (A) (A) (A) (A) (A) (A) (A) (A) (A) (A) (A)
                 (A) (A) (A) (A) (A) (A) (A) (A) (A) (A) (A) (A)
                 (A) (A) (A) (A) (A) (A) (A) (A) (A) (A) (A) (A)
                 (A) (A) (A) (A) (A) (A) (A) (A) (A) (A) (A) (A)
                 (A) (A) (A) (A) (A) (A) (A) (A) (A) (A) (A) (A)
                 (A) (A) (A) (A) (A) (A) (A) (A) (A) (A) (A) (A)
                 (A) (A) (A) (A) (A) (A) (A) (A) (A) (A) (A) (A)
                 (A) (A) (A) (A) (A) (A) (A) (A) (A) (A) (A) (A)
                 (A) (A) (A) (A) (A) (A) (A) (A) (A) (A) (A) (A)
                 (A) (A) (A) (A) (A) (A) (A) (A) (A) (A) (A) (A)
                 (A) (A) (A) (A) (A) (A) (A) (A) (A) (A) (A) (A)
                 (A) (A) (A) (A) (A) (A) (A) (A) (A) (A) (A) (A)
                 (A) (A) (A) (A) (A) (A) (A) (A) (A) (A) (A) (A)
                 (A) (A) (A) (A) (A) (A) (A) (A) (A) (A) (A) (A)
                 (A) (A) (A) (A) (A) (A) (A) (A) (A) (A) (A) (A)
                 (A) (A) (A) (A) (A) (A) (A) (A) (A) (A) (A)
 The electronic state of the initial guess is 1-A.
 Leave Link  401 at Thu Sep 30 03:52:22 2021, MaxMem= 1610612736 cpu:      15.8
 (Enter /sw/target/amd/app/gaussian/Gaussian09RevA.02_gcc-4.9.2/g09/l502.exe)
 Closed shell SCF:
 Requested convergence on RMS density matrix=1.00D-08 within  64 cycles.
 Requested convergence on MAX density matrix=1.00D-06.
 Requested convergence on             energy=1.00D-06.
 No special actions if energy rises.
 Using DIIS extrapolation, IDIIS=  1040.
 Integral symmetry usage will be decided dynamically.
       337626 words used for storage of precomputed grid.
 IEnd=      745584 IEndB=      745584 NGot=  1610612736 MDV=  1610004237
 LenX=  1610004237 LenY=  1609871300
 Fock matrices will be formed incrementally for  20 cycles.
 Integral accuracy reduced to 1.0D-05 until final iterations.

 Cycle   1  Pass 0  IDiag  1:
 FoFCou: FMM=F IPFlag=           0 FMFlag=      100000 FMFlg1=           0
         NFxFlg=           0 DoJE=F BraDBF=F KetDBF=F FulRan=T
         Omega=  0.000000  0.000000  1.000000  0.000000  0.000000 ICntrl=       0 IOpCl=  0
         NMat0=    1 NMatS0=    1 NMatT0=    0 NMatD0=    1 NMtDS0=    0 NMtDT0=    0
         I1Cent=           0 NGrid=           0.
 Symmetry not used in FoFCou.
 E= -938.960491227082    
 DIIS: error= 3.50D-02 at cycle   1 NSaved=   1.
 NSaved= 1 IEnMin= 1 EnMin= -938.960491227082     IErMin= 1 ErrMin= 3.50D-02
 ErrMax= 3.50D-02 EMaxC= 1.00D-01 BMatC= 5.18D-01 BMatP= 5.18D-01
 IDIUse=3 WtCom= 6.50D-01 WtEn= 3.50D-01
 Coeff-Com:  0.100D+01
 Coeff-En:   0.100D+01
 Coeff:      0.100D+01
 Gap=     0.176 Goal=   None    Shift=    0.000
 GapD=    0.176 DampG=1.000 DampE=0.500 DampFc=0.5000 IDamp=-1.
 Damping current iteration by 5.00D-01
 RMSDP=4.67D-03 MaxDP=2.26D-01              OVMax= 2.13D-01

 Cycle   2  Pass 0  IDiag  1:
 RMSU=  1.62D-03    CP:  9.73D-01
 E= -939.154213232590     Delta-E=       -0.193722005508 Rises=F Damp=T
 DIIS: error= 9.67D-03 at cycle   2 NSaved=   2.
 NSaved= 2 IEnMin= 2 EnMin= -939.154213232590     IErMin= 2 ErrMin= 9.67D-03
 ErrMax= 9.67D-03 EMaxC= 1.00D-01 BMatC= 6.61D-02 BMatP= 5.18D-01
 IDIUse=3 WtCom= 9.03D-01 WtEn= 9.67D-02
 Coeff-Com:  0.155D+00 0.845D+00
 Coeff-En:   0.224D+00 0.776D+00
 Coeff:      0.162D+00 0.838D+00
 Gap=     0.158 Goal=   None    Shift=    0.000
 RMSDP=1.66D-03 MaxDP=8.37D-02 DE=-1.94D-01 OVMax= 1.81D-01

 Cycle   3  Pass 0  IDiag  1:
 RMSU=  1.14D-03    CP:  9.55D-01  8.96D-01
 E= -939.406131563368     Delta-E=       -0.251918330778 Rises=F Damp=F
 DIIS: error= 1.40D-02 at cycle   3 NSaved=   3.
 NSaved= 3 IEnMin= 3 EnMin= -939.406131563368     IErMin= 2 ErrMin= 9.67D-03
 ErrMax= 1.40D-02 EMaxC= 1.00D-01 BMatC= 9.56D-02 BMatP= 6.61D-02
 IDIUse=2 WtCom= 0.00D+00 WtEn= 1.00D+00
 Coeff-En:   0.000D+00 0.000D+00 0.100D+01
 Coeff:      0.000D+00 0.000D+00 0.100D+01
 Gap=     0.165 Goal=   None    Shift=    0.000
 RMSDP=2.58D-03 MaxDP=1.94D-01 DE=-2.52D-01 OVMax= 3.09D-01

 Cycle   4  Pass 0  IDiag  1:
 RMSU=  1.06D-03    CP:  9.63D-01  1.22D+00 -2.14D-01
 E= -938.984791434686     Delta-E=        0.421340128682 Rises=F Damp=F
 DIIS: error= 4.00D-02 at cycle   4 NSaved=   4.
 NSaved= 4 IEnMin= 3 EnMin= -939.406131563368     IErMin= 2 ErrMin= 9.67D-03
 ErrMax= 4.00D-02 EMaxC= 1.00D-01 BMatC= 6.22D-01 BMatP= 6.61D-02
 IDIUse=2 WtCom= 0.00D+00 WtEn= 1.00D+00
 Coeff-En:   0.000D+00 0.000D+00 0.807D+00 0.193D+00
 Coeff:      0.000D+00 0.000D+00 0.807D+00 0.193D+00
 Gap=     0.191 Goal=   None    Shift=    0.000
 RMSDP=1.39D-03 MaxDP=1.01D-01 DE= 4.21D-01 OVMax= 1.53D-01

 Cycle   5  Pass 0  IDiag  1:
 RMSU=  2.01D-04    CP:  9.61D-01  9.79D-01  3.89D-01  4.82D-01
 E= -939.449279475094     Delta-E=       -0.464488040408 Rises=F Damp=F
 DIIS: error= 1.06D-02 at cycle   5 NSaved=   5.
 NSaved= 5 IEnMin= 5 EnMin= -939.449279475094     IErMin= 2 ErrMin= 9.67D-03
 ErrMax= 1.06D-02 EMaxC= 1.00D-01 BMatC= 4.61D-02 BMatP= 6.61D-02
 IDIUse=3 WtCom= 8.94D-01 WtEn= 1.06D-01
 Coeff-Com: -0.268D-02 0.451D-01 0.330D+00-0.765D-01 0.704D+00
 Coeff-En:   0.000D+00 0.000D+00 0.360D+00 0.000D+00 0.640D+00
 Coeff:     -0.239D-02 0.403D-01 0.333D+00-0.683D-01 0.697D+00
 Gap=     0.156 Goal=   None    Shift=    0.000
 RMSDP=5.38D-04 MaxDP=3.54D-02 DE=-4.64D-01 OVMax= 4.01D-02

 Cycle   6  Pass 0  IDiag  1:
 RMSU=  7.91D-05    CP:  9.59D-01  9.32D-01  6.41D-01  2.83D-01  6.83D-01
 E= -939.486565773062     Delta-E=       -0.037286297968 Rises=F Damp=F
 DIIS: error= 1.06D-03 at cycle   6 NSaved=   6.
 NSaved= 6 IEnMin= 6 EnMin= -939.486565773062     IErMin= 6 ErrMin= 1.06D-03
 ErrMax= 1.06D-03 EMaxC= 1.00D-01 BMatC= 6.23D-04 BMatP= 4.61D-02
 IDIUse=3 WtCom= 9.89D-01 WtEn= 1.06D-02
 Coeff-Com: -0.456D-02 0.209D-01 0.175D+00-0.639D-01 0.465D+00 0.408D+00
 Coeff-En:   0.000D+00 0.000D+00 0.000D+00 0.000D+00 0.000D+00 0.100D+01
 Coeff:     -0.451D-02 0.207D-01 0.173D+00-0.632D-01 0.460D+00 0.414D+00
 Gap=     0.155 Goal=   None    Shift=    0.000
 RMSDP=7.57D-05 MaxDP=3.78D-03 DE=-3.73D-02 OVMax= 6.74D-03

 Cycle   7  Pass 0  IDiag  1:
 RMSU=  2.10D-05    CP:  9.59D-01  9.39D-01  6.25D-01  2.84D-01  7.80D-01
                    CP:  4.99D-01
 E= -939.487129977390     Delta-E=       -0.000564204328 Rises=F Damp=F
 DIIS: error= 2.14D-04 at cycle   7 NSaved=   7.
 NSaved= 7 IEnMin= 7 EnMin= -939.487129977390     IErMin= 7 ErrMin= 2.14D-04
 ErrMax= 2.14D-04 EMaxC= 1.00D-01 BMatC= 2.33D-05 BMatP= 6.23D-04
 IDIUse=3 WtCom= 9.98D-01 WtEn= 2.14D-03
 Coeff-Com: -0.393D-03 0.124D-02 0.362D-01-0.145D-01 0.927D-01 0.151D+00
 Coeff-Com:  0.734D+00
 Coeff-En:   0.000D+00 0.000D+00 0.000D+00 0.000D+00 0.000D+00 0.000D+00
 Coeff-En:   0.100D+01
 Coeff:     -0.392D-03 0.124D-02 0.361D-01-0.145D-01 0.925D-01 0.151D+00
 Coeff:      0.734D+00
 Gap=     0.155 Goal=   None    Shift=    0.000
 RMSDP=1.72D-05 MaxDP=6.86D-04 DE=-5.64D-04 OVMax= 1.61D-03

 Cycle   8  Pass 0  IDiag  1:
 RMSU=  6.81D-06    CP:  9.59D-01  9.37D-01  6.31D-01  2.82D-01  7.70D-01
                    CP:  5.43D-01  7.63D-01
 E= -939.487150972770     Delta-E=       -0.000020995380 Rises=F Damp=F
 DIIS: error= 5.31D-05 at cycle   8 NSaved=   8.
 NSaved= 8 IEnMin= 8 EnMin= -939.487150972770     IErMin= 8 ErrMin= 5.31D-05
 ErrMax= 5.31D-05 EMaxC= 1.00D-01 BMatC= 2.83D-06 BMatP= 2.33D-05
 IDIUse=1 WtCom= 1.00D+00 WtEn= 0.00D+00
 Coeff-Com:  0.214D-03-0.101D-02 0.110D-01-0.411D-02 0.241D-01 0.622D-01
 Coeff-Com:  0.441D+00 0.467D+00
 Coeff:      0.214D-03-0.101D-02 0.110D-01-0.411D-02 0.241D-01 0.622D-01
 Coeff:      0.441D+00 0.467D+00
 Gap=     0.155 Goal=   None    Shift=    0.000
 RMSDP=5.49D-06 MaxDP=3.01D-04 DE=-2.10D-05 OVMax= 6.02D-04

 Initial convergence to 1.0D-05 achieved.  Increase integral accuracy.
 Cycle   9  Pass 1  IDiag  1:
 E= -939.487139742038     Delta-E=        0.000011230732 Rises=F Damp=F
 DIIS: error= 6.42D-05 at cycle   1 NSaved=   1.
 NSaved= 1 IEnMin= 1 EnMin= -939.487139742038     IErMin= 1 ErrMin= 6.42D-05
 ErrMax= 6.42D-05 EMaxC= 1.00D-01 BMatC= 4.45D-07 BMatP= 4.45D-07
 IDIUse=1 WtCom= 1.00D+00 WtEn= 0.00D+00
 Coeff-Com:  0.100D+01
 Coeff:      0.100D+01
 Gap=     0.155 Goal=   None    Shift=    0.000
 RMSDP=5.49D-06 MaxDP=3.01D-04 DE= 1.12D-05 OVMax= 3.93D-04

 Cycle  10  Pass 1  IDiag  1:
 RMSU=  2.18D-05    CP:  1.00D+00
 E= -939.487139562043     Delta-E=        0.000000179994 Rises=F Damp=F
 DIIS: error= 3.22D-05 at cycle   2 NSaved=   2.
 NSaved= 2 IEnMin= 1 EnMin= -939.487139742038     IErMin= 2 ErrMin= 3.22D-05
 ErrMax= 3.22D-05 EMaxC= 1.00D-01 BMatC= 5.90D-07 BMatP= 4.45D-07
 IDIUse=1 WtCom= 1.00D+00 WtEn= 0.00D+00
 Coeff-Com:  0.545D+00 0.455D+00
 Coeff:      0.545D+00 0.455D+00
 Gap=     0.155 Goal=   None    Shift=    0.000
 RMSDP=3.29D-06 MaxDP=1.53D-04 DE= 1.80D-07 OVMax= 4.33D-04

 Cycle  11  Pass 1  IDiag  1:
 RMSU=  2.32D-06    CP:  1.00D+00  9.98D-01
 E= -939.487140058631     Delta-E=       -0.000000496588 Rises=F Damp=F
 DIIS: error= 1.54D-05 at cycle   3 NSaved=   3.
 NSaved= 3 IEnMin= 3 EnMin= -939.487140058631     IErMin= 3 ErrMin= 1.54D-05
 ErrMax= 1.54D-05 EMaxC= 1.00D-01 BMatC= 1.18D-07 BMatP= 4.45D-07
 IDIUse=1 WtCom= 1.00D+00 WtEn= 0.00D+00
 Coeff-Com:  0.334D-01 0.306D+00 0.661D+00
 Coeff:      0.334D-01 0.306D+00 0.661D+00
 Gap=     0.155 Goal=   None    Shift=    0.000
 RMSDP=1.25D-06 MaxDP=4.80D-05 DE=-4.97D-07 OVMax= 1.56D-04

 Cycle  12  Pass 1  IDiag  1:
 RMSU=  3.86D-07    CP:  1.00D+00  1.01D+00  6.67D-01
 E= -939.487140175488     Delta-E=       -0.000000116856 Rises=F Damp=F
 DIIS: error= 4.88D-06 at cycle   4 NSaved=   4.
 NSaved= 4 IEnMin= 4 EnMin= -939.487140175488     IErMin= 4 ErrMin= 4.88D-06
 ErrMax= 4.88D-06 EMaxC= 1.00D-01 BMatC= 1.35D-08 BMatP= 1.18D-07
 IDIUse=1 WtCom= 1.00D+00 WtEn= 0.00D+00
 Coeff-Com: -0.251D-02 0.178D+00 0.430D+00 0.395D+00
 Coeff:     -0.251D-02 0.178D+00 0.430D+00 0.395D+00
 Gap=     0.155 Goal=   None    Shift=    0.000
 RMSDP=3.36D-07 MaxDP=1.76D-05 DE=-1.17D-07 OVMax= 3.09D-05

 Cycle  13  Pass 1  IDiag  1:
 RMSU=  1.02D-07    CP:  1.00D+00  1.01D+00  6.91D-01  4.65D-01
 E= -939.487140187762     Delta-E=       -0.000000012274 Rises=F Damp=F
 DIIS: error= 4.30D-07 at cycle   5 NSaved=   5.
 NSaved= 5 IEnMin= 5 EnMin= -939.487140187762     IErMin= 5 ErrMin= 4.30D-07
 ErrMax= 4.30D-07 EMaxC= 1.00D-01 BMatC= 2.61D-10 BMatP= 1.35D-08
 IDIUse=1 WtCom= 1.00D+00 WtEn= 0.00D+00
 Coeff-Com: -0.323D-02 0.695D-01 0.176D+00 0.195D+00 0.563D+00
 Coeff:     -0.323D-02 0.695D-01 0.176D+00 0.195D+00 0.563D+00
 Gap=     0.155 Goal=   None    Shift=    0.000
 RMSDP=6.14D-08 MaxDP=2.29D-06 DE=-1.23D-08 OVMax= 4.79D-06

 Cycle  14  Pass 1  IDiag  1:
 RMSU=  2.97D-08    CP:  1.00D+00  1.01D+00  6.97D-01  4.83D-01  7.20D-01
 E= -939.487140188011     Delta-E=       -0.000000000249 Rises=F Damp=F
 DIIS: error= 1.59D-07 at cycle   6 NSaved=   6.
 NSaved= 6 IEnMin= 6 EnMin= -939.487140188011     IErMin= 6 ErrMin= 1.59D-07
 ErrMax= 1.59D-07 EMaxC= 1.00D-01 BMatC= 2.47D-11 BMatP= 2.61D-10
 IDIUse=1 WtCom= 1.00D+00 WtEn= 0.00D+00
 Coeff-Com: -0.166D-02 0.283D-01 0.725D-01 0.857D-01 0.316D+00 0.499D+00
 Coeff:     -0.166D-02 0.283D-01 0.725D-01 0.857D-01 0.316D+00 0.499D+00
 Gap=     0.155 Goal=   None    Shift=    0.000
 RMSDP=1.62D-08 MaxDP=8.86D-07 DE=-2.49D-10 OVMax= 1.18D-06

 Cycle  15  Pass 1  IDiag  1:
 RMSU=  9.37D-09    CP:  1.00D+00  1.01D+00  6.96D-01  4.81D-01  7.53D-01
                    CP:  8.22D-01
 E= -939.487140188020     Delta-E=       -0.000000000010 Rises=F Damp=F
 DIIS: error= 5.71D-08 at cycle   7 NSaved=   7.
 NSaved= 7 IEnMin= 7 EnMin= -939.487140188020     IErMin= 7 ErrMin= 5.71D-08
 ErrMax= 5.71D-08 EMaxC= 1.00D-01 BMatC= 2.10D-12 BMatP= 2.47D-11
 IDIUse=1 WtCom= 1.00D+00 WtEn= 0.00D+00
 Coeff-Com: -0.340D-03 0.406D-02 0.104D-01 0.144D-01 0.733D-01 0.243D+00
 Coeff-Com:  0.655D+00
 Coeff:     -0.340D-03 0.406D-02 0.104D-01 0.144D-01 0.733D-01 0.243D+00
 Coeff:      0.655D+00
 Gap=     0.155 Goal=   None    Shift=    0.000
 RMSDP=5.84D-09 MaxDP=3.79D-07 DE=-9.55D-12 OVMax= 5.96D-07

 SCF Done:  E(RB3LYP) =  -939.487140188     A.U. after   15 cycles
             Convg  =    0.5839D-08             -V/T =  2.0097
 KE= 9.304525309871D+02 PE=-5.335228161655D+03 EE= 1.888759135726D+03
 Leave Link  502 at Thu Sep 30 04:02:22 2021, MaxMem= 1610612736 cpu:     660.2
 (Enter /sw/target/amd/app/gaussian/Gaussian09RevA.02_gcc-4.9.2/g09/l508.exe)
 QCSCF skips out because SCF is already converged.
 Leave Link  508 at Thu Sep 30 04:02:22 2021, MaxMem= 1610612736 cpu:       0.0
 (Enter /sw/target/amd/app/gaussian/Gaussian09RevA.02_gcc-4.9.2/g09/l601.exe)
 Copying SCF densities to generalized density rwf, IOpCl= 0 IROHF=0.

 **********************************************************************

            Population analysis using the SCF density.

 **********************************************************************

 Orbital symmetries:
       Occupied  (A) (A) (A) (A) (A) (A) (A) (A) (A) (A) (A) (A)
                 (A) (A) (A) (A) (A) (A) (A) (A) (A) (A) (A) (A)
                 (A) (A) (A) (A) (A) (A) (A) (A) (A) (A) (A) (A)
                 (A) (A) (A) (A) (A) (A) (A) (A) (A) (A) (A) (A)
                 (A) (A) (A) (A) (A) (A) (A) (A) (A) (A) (A) (A)
                 (A) (A) (A) (A) (A) (A) (A) (A) (A) (A) (A) (A)
                 (A) (A) (A) (A) (A)
       Virtual   (A) (A) (A) (A) (A) (A) (A) (A) (A) (A) (A) (A)
                 (A) (A) (A) (A) (A) (A) (A) (A) (A) (A) (A) (A)
                 (A) (A) (A) (A) (A) (A) (A) (A) (A) (A) (A) (A)
                 (A) (A) (A) (A) (A) (A) (A) (A) (A) (A) (A) (A)
                 (A) (A) (A) (A) (A) (A) (A) (A) (A) (A) (A) (A)
                 (A) (A) (A) (A) (A) (A) (A) (A) (A) (A) (A) (A)
                 (A) (A) (A) (A) (A) (A) (A) (A) (A) (A) (A) (A)
                 (A) (A) (A) (A) (A) (A) (A) (A) (A) (A) (A) (A)
                 (A) (A) (A) (A) (A) (A) (A) (A) (A) (A) (A) (A)
                 (A) (A) (A) (A) (A) (A) (A) (A) (A) (A) (A) (A)
                 (A) (A) (A) (A) (A) (A) (A) (A) (A) (A) (A) (A)
                 (A) (A) (A) (A) (A) (A) (A) (A) (A) (A) (A) (A)
                 (A) (A) (A) (A) (A) (A) (A) (A) (A) (A) (A) (A)
                 (A) (A) (A) (A) (A) (A) (A) (A) (A) (A) (A) (A)
                 (A) (A) (A) (A) (A) (A) (A) (A) (A) (A) (A) (A)
                 (A) (A) (A) (A) (A) (A) (A) (A) (A) (A) (A) (A)
                 (A) (A) (A) (A) (A) (A) (A) (A) (A) (A) (A) (A)
                 (A) (A) (A) (A) (A) (A) (A) (A) (A) (A) (A) (A)
                 (A) (A) (A) (A) (A) (A) (A) (A) (A) (A) (A) (A)
                 (A) (A) (A) (A) (A) (A) (A) (A) (A) (A) (A) (A)
                 (A) (A) (A) (A) (A) (A) (A) (A) (A) (A) (A) (A)
                 (A) (A) (A) (A) (A) (A) (A) (A) (A) (A) (A) (A)
                 (A) (A) (A) (A) (A) (A) (A) (A) (A) (A) (A) (A)
                 (A) (A) (A) (A) (A) (A) (A) (A) (A) (A) (A)
 The electronic state is 1-A.
 Alpha  occ. eigenvalues --  -19.19837 -19.12025 -14.37026 -10.33819 -10.25416
 Alpha  occ. eigenvalues --  -10.22272 -10.21925 -10.19884 -10.19830 -10.19405
 Alpha  occ. eigenvalues --  -10.19345 -10.19341 -10.19186 -10.18946 -10.18857
 Alpha  occ. eigenvalues --  -10.18856 -10.18835 -10.18816 -10.18799 -10.18762
 Alpha  occ. eigenvalues --  -10.18668 -10.18643  -1.09499  -1.01165  -0.93965
 Alpha  occ. eigenvalues --   -0.87773  -0.85388  -0.82130  -0.77659  -0.76646
 Alpha  occ. eigenvalues --   -0.74099  -0.73366  -0.72749  -0.71419  -0.69238
 Alpha  occ. eigenvalues --   -0.64474  -0.62120  -0.60874  -0.59410  -0.58991
 Alpha  occ. eigenvalues --   -0.56160  -0.53186  -0.52228  -0.50924  -0.49605
 Alpha  occ. eigenvalues --   -0.48649  -0.47702  -0.47044  -0.45595  -0.44804
 Alpha  occ. eigenvalues --   -0.44191  -0.43789  -0.43143  -0.42531  -0.41755
 Alpha  occ. eigenvalues --   -0.41440  -0.41317  -0.40751  -0.40395  -0.39622
 Alpha  occ. eigenvalues --   -0.39026  -0.38191  -0.37588  -0.36511  -0.35591
 Alpha  occ. eigenvalues --   -0.34598  -0.34050  -0.33338  -0.32864  -0.30677
 Alpha  occ. eigenvalues --   -0.28430  -0.26992  -0.25580  -0.24684  -0.24180
 Alpha  occ. eigenvalues --   -0.22897  -0.20075
 Alpha virt. eigenvalues --   -0.04530  -0.01874   0.00059   0.01694   0.03594
 Alpha virt. eigenvalues --    0.04463   0.08813   0.09459   0.09742   0.10569
 Alpha virt. eigenvalues --    0.11661   0.12018   0.12804   0.14063   0.14540
 Alpha virt. eigenvalues --    0.14990   0.16129   0.16340   0.16585   0.16876
 Alpha virt. eigenvalues --    0.17120   0.17790   0.18738   0.19305   0.19741
 Alpha virt. eigenvalues --    0.20635   0.20919   0.22012   0.23252   0.24278
 Alpha virt. eigenvalues --    0.25549   0.26160   0.28000   0.30219   0.30626
 Alpha virt. eigenvalues --    0.31417   0.32714   0.33538   0.35007   0.35311
 Alpha virt. eigenvalues --    0.36351   0.37923   0.39347   0.40603   0.46782
 Alpha virt. eigenvalues --    0.47696   0.48481   0.49616   0.50188   0.50936
 Alpha virt. eigenvalues --    0.51635   0.51844   0.52720   0.53136   0.54343
 Alpha virt. eigenvalues --    0.54574   0.54736   0.55613   0.55896   0.56702
 Alpha virt. eigenvalues --    0.56903   0.57164   0.57838   0.58061   0.58657
 Alpha virt. eigenvalues --    0.59553   0.60117   0.60788   0.60940   0.61197
 Alpha virt. eigenvalues --    0.61418   0.61888   0.62336   0.62546   0.63249
 Alpha virt. eigenvalues --    0.64113   0.64520   0.65358   0.66431   0.67173
 Alpha virt. eigenvalues --    0.67586   0.68784   0.69670   0.69997   0.72725
 Alpha virt. eigenvalues --    0.73751   0.75061   0.78012   0.78843   0.79304
 Alpha virt. eigenvalues --    0.80517   0.81569   0.82000   0.82739   0.83005
 Alpha virt. eigenvalues --    0.83582   0.83853   0.84265   0.84372   0.84983
 Alpha virt. eigenvalues --    0.85545   0.86052   0.87116   0.88241   0.88756
 Alpha virt. eigenvalues --    0.90008   0.91183   0.91468   0.92192   0.93097
 Alpha virt. eigenvalues --    0.93679   0.94216   0.95607   0.96118   0.96350
 Alpha virt. eigenvalues --    0.98133   0.98826   0.99710   1.00157   1.00877
 Alpha virt. eigenvalues --    1.01546   1.03406   1.05264   1.05731   1.08419
 Alpha virt. eigenvalues --    1.09535   1.10132   1.11467   1.13144   1.14598
 Alpha virt. eigenvalues --    1.15302   1.17014   1.17533   1.19378   1.19790
 Alpha virt. eigenvalues --    1.20589   1.23314   1.24846   1.25732   1.26630
 Alpha virt. eigenvalues --    1.28591   1.30078   1.32912   1.34137   1.35955
 Alpha virt. eigenvalues --    1.37500   1.39541   1.39952   1.40562   1.42031
 Alpha virt. eigenvalues --    1.42869   1.43454   1.45046   1.45173   1.47194
 Alpha virt. eigenvalues --    1.48177   1.48798   1.49440   1.50012   1.50366
 Alpha virt. eigenvalues --    1.50687   1.51502   1.51907   1.53300   1.54315
 Alpha virt. eigenvalues --    1.60240   1.65867   1.67843   1.72360   1.75171
 Alpha virt. eigenvalues --    1.76604   1.77366   1.78419   1.79531   1.80324
 Alpha virt. eigenvalues --    1.81031   1.81838   1.83037   1.83563   1.85704
 Alpha virt. eigenvalues --    1.87321   1.89334   1.90112   1.90848   1.91744
 Alpha virt. eigenvalues --    1.92102   1.93005   1.93692   1.94654   1.96104
 Alpha virt. eigenvalues --    1.97277   1.97650   1.98129   1.98977   2.00677
 Alpha virt. eigenvalues --    2.02424   2.03210   2.04863   2.05624   2.06188
 Alpha virt. eigenvalues --    2.08216   2.09610   2.10518   2.11287   2.11780
 Alpha virt. eigenvalues --    2.13473   2.14122   2.15959   2.16646   2.18780
 Alpha virt. eigenvalues --    2.19099   2.20498   2.21456   2.23765   2.25235
 Alpha virt. eigenvalues --    2.26912   2.28049   2.30735   2.30903   2.31203
 Alpha virt. eigenvalues --    2.31811   2.33036   2.33802   2.34720   2.35304
 Alpha virt. eigenvalues --    2.37528   2.39436   2.42171   2.43540   2.47649
 Alpha virt. eigenvalues --    2.51395   2.53946   2.55982   2.57916   2.59222
 Alpha virt. eigenvalues --    2.60973   2.61521   2.62497   2.64216   2.65126
 Alpha virt. eigenvalues --    2.65620   2.68024   2.69990   2.71056   2.73512
 Alpha virt. eigenvalues --    2.74923   2.76276   2.77049   2.77576   2.78639
 Alpha virt. eigenvalues --    2.82798   2.86474   2.88115   2.89865   2.93116
 Alpha virt. eigenvalues --    2.95806   2.98366   2.99140   3.08703   3.16880
 Alpha virt. eigenvalues --    3.19939   3.25921   3.37279   3.43485   3.51551
 Alpha virt. eigenvalues --    3.98925   4.07460   4.08965   4.09796   4.10708
 Alpha virt. eigenvalues --    4.11835   4.12066   4.14023   4.14727   4.18440
 Alpha virt. eigenvalues --    4.23378   4.27351   4.29746   4.32247   4.33663
 Alpha virt. eigenvalues --    4.36193   4.41703   4.45979   4.49482   4.60319
 Alpha virt. eigenvalues --    4.72303   4.86259
          Condensed to atoms (all electrons):
              1          2          3          4          5          6
     1  O    8.091458   0.547991  -0.087987  -0.002559   0.002588  -0.069337
     2  C    0.547991   4.153897   0.331365  -0.032016  -0.029420   0.259569
     3  N   -0.087987   0.331365   6.940997   0.301410   0.285868  -0.089326
     4  C   -0.002559  -0.032016   0.301410   4.961007  -0.053747   0.002397
     5  C    0.002588  -0.029420   0.285868  -0.053747   4.968796  -0.000160
     6  O   -0.069337   0.259569  -0.089326   0.002397  -0.000160   8.344723
     7  C   -0.002802  -0.011142   0.002053  -0.000033   0.000084   0.204498
     8  C    0.000205   0.000903  -0.000272   0.000002   0.000014  -0.047065
     9  C   -0.000000  -0.000026   0.000001  -0.000000  -0.000000   0.003063
    10  C    0.000011   0.000025   0.000000   0.000000  -0.000000   0.000349
    11  C    0.000210   0.000312  -0.000004  -0.000000   0.000000   0.002537
    12  C   -0.002096  -0.001052   0.000207  -0.000004  -0.000038  -0.041550
    13  C   -0.000036  -0.000019  -0.000000   0.000000   0.000000  -0.000057
    14  C   -0.000000   0.000000   0.000000  -0.000000  -0.000000   0.000000
    15  C   -0.000000  -0.000000  -0.000000   0.000000  -0.000000  -0.000000
    16  C    0.000000   0.000000   0.000000  -0.000000  -0.000000   0.000001
    17  C    0.000000   0.000000  -0.000000   0.000000   0.000000  -0.000000
    18  C   -0.000000  -0.000000  -0.000000  -0.000000   0.000000  -0.000000
    19  C    0.000000  -0.000000   0.000000   0.000000   0.000000  -0.000000
    20  C    0.000000   0.000000   0.000000   0.000000   0.000000  -0.000000
    21  C    0.000000   0.000000   0.000000   0.000000   0.000000   0.000000
    22  C    0.000000   0.000000   0.000000   0.000000  -0.000000   0.000000
    23  H    0.012372  -0.002973  -0.030153   0.374443   0.004309   0.000205
    24  H    0.000484   0.003853  -0.038928   0.374533  -0.004160  -0.000036
    25  H    0.001391  -0.001982  -0.058065   0.383131   0.001089   0.000032
    26  H    0.000070  -0.005744  -0.028650   0.003979   0.377093   0.007915
    27  H    0.000054  -0.001636  -0.055611   0.001630   0.378601   0.001121
    28  H   -0.000064   0.002530  -0.035729  -0.005108   0.372709   0.000386
    29  H    0.000012   0.000083  -0.000018   0.000000  -0.000025  -0.000632
    30  H   -0.000000  -0.000000  -0.000000   0.000000   0.000000  -0.000058
    31  H    0.014623   0.000816  -0.000131   0.000019  -0.000015  -0.006283
    32  H   -0.000015  -0.000002  -0.000000   0.000000   0.000000  -0.000000
    33  H    0.000000  -0.000000  -0.000000   0.000000   0.000000  -0.000000
    34  H   -0.000000  -0.000000  -0.000000   0.000000   0.000000   0.000000
    35  H    0.000000   0.000000  -0.000000  -0.000000   0.000000  -0.000000
    36  H   -0.000000  -0.000000   0.000000   0.000000   0.000000   0.000000
    37  H    0.000000  -0.000000   0.000000   0.000000   0.000000   0.000000
    38  H    0.000000  -0.000000   0.000000   0.000000   0.000000   0.000000
    39  H    0.000000   0.000000  -0.000000   0.000000  -0.000000  -0.000000
              7          8          9         10         11         12
     1  O   -0.002802   0.000205  -0.000000   0.000011   0.000210  -0.002096
     2  C   -0.011142   0.000903  -0.000026   0.000025   0.000312  -0.001052
     3  N    0.002053  -0.000272   0.000001   0.000000  -0.000004   0.000207
     4  C   -0.000033   0.000002  -0.000000   0.000000  -0.000000  -0.000004
     5  C    0.000084   0.000014  -0.000000  -0.000000   0.000000  -0.000038
     6  O    0.204498  -0.047065   0.003063   0.000349   0.002537  -0.041550
     7  C    4.574367   0.494554  -0.003668  -0.035842   0.015263   0.464824
     8  C    0.494554   5.032233   0.485619  -0.008464  -0.037201  -0.058128
     9  C   -0.003668   0.485619   5.145891   0.438609  -0.027154  -0.076473
    10  C   -0.035842  -0.008464   0.438609   4.708901   0.486339  -0.035537
    11  C    0.015263  -0.037201  -0.027154   0.486339   4.716107   0.380414
    12  C    0.464824  -0.058128  -0.076473  -0.035537   0.380414   5.322468
    13  C    0.007388  -0.000473   0.017146  -0.023212   0.444924  -0.090089
    14  C   -0.000271   0.000042  -0.000374  -0.042357  -0.010574   0.008560
    15  C    0.000024  -0.000269   0.007893   0.001950  -0.029259  -0.000623
    16  C   -0.000803   0.008568  -0.091644   0.400329  -0.034058   0.017841
    17  C   -0.000000   0.000002  -0.000236   0.004639   0.001010  -0.000001
    18  C   -0.000000   0.000000   0.000001  -0.000175   0.000005   0.000000
    19  C    0.000000   0.000000   0.000000   0.000001   0.000000   0.000000
    20  C   -0.000000   0.000000  -0.000000  -0.000000   0.000000   0.000000
    21  C   -0.000000   0.000000  -0.000000  -0.000005  -0.000000   0.000000
    22  C    0.000000  -0.000000  -0.000011   0.000542  -0.000003   0.000000
    23  H    0.000001  -0.000000  -0.000000  -0.000000  -0.000000  -0.000000
    24  H    0.000001  -0.000000   0.000000   0.000000  -0.000000  -0.000000
    25  H   -0.000004   0.000000  -0.000000   0.000000   0.000000  -0.000000
    26  H    0.000244  -0.000009   0.000003   0.000000  -0.000001   0.000020
    27  H   -0.000028  -0.000003  -0.000000   0.000000   0.000000   0.000006
    28  H    0.000001  -0.000001   0.000000  -0.000000  -0.000000   0.000000
    29  H   -0.036139   0.345071  -0.035248   0.002990   0.000521   0.006451
    30  H    0.003633  -0.042260   0.353766  -0.037107   0.004854   0.000376
    31  H   -0.034482   0.005362   0.000136   0.004699  -0.038572   0.344433
    32  H    0.000207   0.000013  -0.000207   0.004502  -0.037564  -0.007643
    33  H    0.000003  -0.000000   0.000009   0.000780   0.002775  -0.000190
    34  H    0.000021   0.000161  -0.008719  -0.041458   0.004884  -0.000208
    35  H    0.000000  -0.000000   0.000000   0.000005  -0.000009  -0.000000
    36  H   -0.000000  -0.000000   0.000000  -0.000000  -0.000000  -0.000000
    37  H    0.000000   0.000000   0.000000   0.000000  -0.000000  -0.000000
    38  H    0.000000  -0.000000   0.000000   0.000000  -0.000000  -0.000000
    39  H    0.000000  -0.000000  -0.000011   0.000030   0.000000  -0.000000
             13         14         15         16         17         18
     1  O   -0.000036  -0.000000  -0.000000   0.000000   0.000000  -0.000000
     2  C   -0.000019   0.000000  -0.000000   0.000000   0.000000  -0.000000
     3  N   -0.000000   0.000000  -0.000000   0.000000  -0.000000  -0.000000
     4  C    0.000000  -0.000000   0.000000  -0.000000   0.000000  -0.000000
     5  C    0.000000  -0.000000  -0.000000  -0.000000   0.000000   0.000000
     6  O   -0.000057   0.000000  -0.000000   0.000001  -0.000000  -0.000000
     7  C    0.007388  -0.000271   0.000024  -0.000803  -0.000000  -0.000000
     8  C   -0.000473   0.000042  -0.000269   0.008568   0.000002   0.000000
     9  C    0.017146  -0.000374   0.007893  -0.091644  -0.000236   0.000001
    10  C   -0.023212  -0.042357   0.001950   0.400329   0.004639  -0.000175
    11  C    0.444924  -0.010574  -0.029259  -0.034058   0.001010   0.000005
    12  C   -0.090089   0.008560  -0.000623   0.017841  -0.000001   0.000000
    13  C    5.153551   0.475217  -0.006116  -0.082658   0.005533   0.000288
    14  C    0.475217   5.055668   0.480449  -0.046083  -0.047916  -0.011994
    15  C   -0.006116   0.480449   4.815049   0.472548   0.338992  -0.047483
    16  C   -0.082658  -0.046083   0.472548   5.326316  -0.037594   0.005517
    17  C    0.005533  -0.047916   0.338992  -0.037594   4.757754   0.519470
    18  C    0.000288  -0.011994  -0.047483   0.005517   0.519470   5.008377
    19  C   -0.000002   0.000267   0.005759  -0.000160  -0.014340   0.516054
    20  C   -0.000000   0.000002   0.000648   0.000005  -0.032883  -0.036488
    21  C    0.000001  -0.000166   0.005810   0.000333  -0.016014  -0.043504
    22  C   -0.000159   0.006008  -0.045830  -0.014002   0.520745  -0.059264
    23  H    0.000000   0.000000  -0.000000  -0.000000  -0.000000   0.000000
    24  H    0.000000   0.000000  -0.000000   0.000000  -0.000000   0.000000
    25  H   -0.000000  -0.000000   0.000000  -0.000000   0.000000  -0.000000
    26  H    0.000000  -0.000000   0.000000  -0.000000  -0.000000   0.000000
    27  H   -0.000000  -0.000000   0.000000   0.000000   0.000000  -0.000000
    28  H    0.000000  -0.000000  -0.000000  -0.000000  -0.000000   0.000000
    29  H    0.000009  -0.000000   0.000003  -0.000169  -0.000000   0.000000
    30  H   -0.000204   0.000014   0.000143  -0.008854   0.000000   0.000000
    31  H   -0.008438   0.000150   0.000014  -0.000153   0.000000  -0.000000
    32  H    0.352329  -0.039811   0.002904   0.000799  -0.000166  -0.000002
    33  H   -0.037368   0.348131  -0.039411   0.005876  -0.008345   0.005116
    34  H    0.000320   0.006091  -0.042596   0.343351  -0.008988  -0.000016
    35  H    0.000013   0.005036  -0.009906  -0.000048  -0.041242   0.351106
    36  H   -0.000000  -0.000001  -0.000173   0.000001   0.003328  -0.038690
    37  H    0.000000  -0.000000   0.000005   0.000000   0.000642   0.004893
    38  H   -0.000000   0.000001  -0.000173  -0.000002   0.003401   0.000780
    39  H   -0.000008  -0.000052  -0.009615   0.005495  -0.041563   0.006230
             19         20         21         22         23         24
     1  O    0.000000   0.000000   0.000000   0.000000   0.012372   0.000484
     2  C   -0.000000   0.000000   0.000000   0.000000  -0.002973   0.003853
     3  N    0.000000   0.000000   0.000000   0.000000  -0.030153  -0.038928
     4  C    0.000000   0.000000   0.000000   0.000000   0.374443   0.374533
     5  C    0.000000   0.000000   0.000000  -0.000000   0.004309  -0.004160
     6  O   -0.000000  -0.000000   0.000000   0.000000   0.000205  -0.000036
[...]
   116    C    8  dxy    Ryd( 3d)     0.00078
   117    C    8  dxz    Ryd( 3d)     0.00067
   118    C    8  dyz    Ryd( 3d)     0.00043
   119    C    8  dx2y2  Ryd( 3d)     0.00054
   120    C    8  dz2    Ryd( 3d)     0.00044

   121    C    9  S      Cor( 1S)     1.99907
   122    C    9  S      Val( 2S)     0.94339
   123    C    9  S      Ryd( 3S)     0.00061
   124    C    9  S      Ryd( 4S)     0.00005
   125    C    9  px     Val( 2p)     1.08004
   126    C    9  px     Ryd( 3p)     0.00419
   127    C    9  py     Val( 2p)     1.14192
   128    C    9  py     Ryd( 3p)     0.00446
   129    C    9  pz     Val( 2p)     1.05459
   130    C    9  pz     Ryd( 3p)     0.00324
   131    C    9  dxy    Ryd( 3d)     0.00076
   132    C    9  dxz    Ryd( 3d)     0.00067
   133    C    9  dyz    Ryd( 3d)     0.00041
   134    C    9  dx2y2  Ryd( 3d)     0.00063
   135    C    9  dz2    Ryd( 3d)     0.00038

   136    C   10  S      Cor( 1S)     1.99903
   137    C   10  S      Val( 2S)     0.86980
   138    C   10  S      Ryd( 3S)     0.00051
   139    C   10  S      Ryd( 4S)     0.00007
   140    C   10  px     Val( 2p)     1.09181
   141    C   10  px     Ryd( 3p)     0.00491
   142    C   10  py     Val( 2p)     1.07362
   143    C   10  py     Ryd( 3p)     0.00506
   144    C   10  pz     Val( 2p)     0.99113
   145    C   10  pz     Ryd( 3p)     0.00126
   146    C   10  dxy    Ryd( 3d)     0.00074
   147    C   10  dxz    Ryd( 3d)     0.00085
   148    C   10  dyz    Ryd( 3d)     0.00056
   149    C   10  dx2y2  Ryd( 3d)     0.00070
   150    C   10  dz2    Ryd( 3d)     0.00041

   151    C   11  S      Cor( 1S)     1.99903
   152    C   11  S      Val( 2S)     0.87129
   153    C   11  S      Ryd( 3S)     0.00051
   154    C   11  S      Ryd( 4S)     0.00007
   155    C   11  px     Val( 2p)     1.08494
   156    C   11  px     Ryd( 3p)     0.00496
   157    C   11  py     Val( 2p)     1.07359
   158    C   11  py     Ryd( 3p)     0.00491
   159    C   11  pz     Val( 2p)     0.98254
   160    C   11  pz     Ryd( 3p)     0.00121
   161    C   11  dxy    Ryd( 3d)     0.00074
   162    C   11  dxz    Ryd( 3d)     0.00088
   163    C   11  dyz    Ryd( 3d)     0.00056
   164    C   11  dx2y2  Ryd( 3d)     0.00071
   165    C   11  dz2    Ryd( 3d)     0.00040

   166    C   12  S      Cor( 1S)     1.99896
   167    C   12  S      Val( 2S)     0.95174
   168    C   12  S      Ryd( 3S)     0.00076
   169    C   12  S      Ryd( 4S)     0.00006
   170    C   12  px     Val( 2p)     1.07762
   171    C   12  px     Ryd( 3p)     0.00387
   172    C   12  py     Val( 2p)     1.17049
   173    C   12  py     Ryd( 3p)     0.00397
   174    C   12  pz     Val( 2p)     1.06335
   175    C   12  pz     Ryd( 3p)     0.00307
   176    C   12  dxy    Ryd( 3d)     0.00075
   177    C   12  dxz    Ryd( 3d)     0.00049
   178    C   12  dyz    Ryd( 3d)     0.00055
   179    C   12  dx2y2  Ryd( 3d)     0.00057
   180    C   12  dz2    Ryd( 3d)     0.00043

   181    C   13  S      Cor( 1S)     1.99906
   182    C   13  S      Val( 2S)     0.94356
   183    C   13  S      Ryd( 3S)     0.00071
   184    C   13  S      Ryd( 4S)     0.00004
   185    C   13  px     Val( 2p)     1.08386
   186    C   13  px     Ryd( 3p)     0.00431
   187    C   13  py     Val( 2p)     1.14124
   188    C   13  py     Ryd( 3p)     0.00459
   189    C   13  pz     Val( 2p)     1.04831
   190    C   13  pz     Ryd( 3p)     0.00326
   191    C   13  dxy    Ryd( 3d)     0.00078
   192    C   13  dxz    Ryd( 3d)     0.00064
   193    C   13  dyz    Ryd( 3d)     0.00041
   194    C   13  dx2y2  Ryd( 3d)     0.00062
   195    C   13  dz2    Ryd( 3d)     0.00036

   196    C   14  S      Cor( 1S)     1.99907
   197    C   14  S      Val( 2S)     0.94519
   198    C   14  S      Ryd( 3S)     0.00070
   199    C   14  S      Ryd( 4S)     0.00005
   200    C   14  px     Val( 2p)     1.11197
   201    C   14  px     Ryd( 3p)     0.00385
   202    C   14  py     Val( 2p)     1.12330
   203    C   14  py     Ryd( 3p)     0.00447
   204    C   14  pz     Val( 2p)     1.06504
   205    C   14  pz     Ryd( 3p)     0.00255
   206    C   14  dxy    Ryd( 3d)     0.00081
   207    C   14  dxz    Ryd( 3d)     0.00071
   208    C   14  dyz    Ryd( 3d)     0.00040
   209    C   14  dx2y2  Ryd( 3d)     0.00059
   210    C   14  dz2    Ryd( 3d)     0.00039

   211    C   15  S      Cor( 1S)     1.99901
   212    C   15  S      Val( 2S)     0.87417
   213    C   15  S      Ryd( 3S)     0.00060
   214    C   15  S      Ryd( 4S)     0.00007
   215    C   15  px     Val( 2p)     1.05867
   216    C   15  px     Ryd( 3p)     0.00474
   217    C   15  py     Val( 2p)     1.08776
   218    C   15  py     Ryd( 3p)     0.00544
   219    C   15  pz     Val( 2p)     0.97651
   220    C   15  pz     Ryd( 3p)     0.00189
   221    C   15  dxy    Ryd( 3d)     0.00070
   222    C   15  dxz    Ryd( 3d)     0.00058
   223    C   15  dyz    Ryd( 3d)     0.00074
   224    C   15  dx2y2  Ryd( 3d)     0.00077
   225    C   15  dz2    Ryd( 3d)     0.00051

   226    C   16  S      Cor( 1S)     1.99901
   227    C   16  S      Val( 2S)     0.93571
   228    C   16  S      Ryd( 3S)     0.00066
   229    C   16  S      Ryd( 4S)     0.00006
   230    C   16  px     Val( 2p)     1.07086
   231    C   16  px     Ryd( 3p)     0.00319
   232    C   16  py     Val( 2p)     1.15079
   233    C   16  py     Ryd( 3p)     0.00433
   234    C   16  pz     Val( 2p)     1.05415
   235    C   16  pz     Ryd( 3p)     0.00350
   236    C   16  dxy    Ryd( 3d)     0.00073
   237    C   16  dxz    Ryd( 3d)     0.00052
   238    C   16  dyz    Ryd( 3d)     0.00048
   239    C   16  dx2y2  Ryd( 3d)     0.00066
   240    C   16  dz2    Ryd( 3d)     0.00037

   241    C   17  S      Cor( 1S)     1.99901
   242    C   17  S      Val( 2S)     0.87862
   243    C   17  S      Ryd( 3S)     0.00071
   244    C   17  S      Ryd( 4S)     0.00007
   245    C   17  px     Val( 2p)     1.07330
   246    C   17  px     Ryd( 3p)     0.00518
   247    C   17  py     Val( 2p)     1.08194
   248    C   17  py     Ryd( 3p)     0.00525
   249    C   17  pz     Val( 2p)     0.98158
   250    C   17  pz     Ryd( 3p)     0.00149
   251    C   17  dxy    Ryd( 3d)     0.00074
   252    C   17  dxz    Ryd( 3d)     0.00066
   253    C   17  dyz    Ryd( 3d)     0.00049
   254    C   17  dx2y2  Ryd( 3d)     0.00071
   255    C   17  dz2    Ryd( 3d)     0.00041

   256    C   18  S      Cor( 1S)     1.99905
   257    C   18  S      Val( 2S)     0.95547
   258    C   18  S      Ryd( 3S)     0.00066
   259    C   18  S      Ryd( 4S)     0.00005
   260    C   18  px     Val( 2p)     1.09047
   261    C   18  px     Ryd( 3p)     0.00365
   262    C   18  py     Val( 2p)     1.14306
   263    C   18  py     Ryd( 3p)     0.00447
   264    C   18  pz     Val( 2p)     1.00080
   265    C   18  pz     Ryd( 3p)     0.00116
   266    C   18  dxy    Ryd( 3d)     0.00079
   267    C   18  dxz    Ryd( 3d)     0.00054
   268    C   18  dyz    Ryd( 3d)     0.00043
   269    C   18  dx2y2  Ryd( 3d)     0.00063
   270    C   18  dz2    Ryd( 3d)     0.00038

   271    C   19  S      Cor( 1S)     1.99910
   272    C   19  S      Val( 2S)     0.96334
   273    C   19  S      Ryd( 3S)     0.00061
   274    C   19  S      Ryd( 4S)     0.00004
   275    C   19  px     Val( 2p)     1.09977
   276    C   19  px     Ryd( 3p)     0.00478
   277    C   19  py     Val( 2p)     1.13964
   278    C   19  py     Ryd( 3p)     0.00462
   279    C   19  pz     Val( 2p)     1.01664
   280    C   19  pz     Ryd( 3p)     0.00124
   281    C   19  dxy    Ryd( 3d)     0.00078
   282    C   19  dxz    Ryd( 3d)     0.00054
   283    C   19  dyz    Ryd( 3d)     0.00048
   284    C   19  dx2y2  Ryd( 3d)     0.00063
   285    C   19  dz2    Ryd( 3d)     0.00038

   286    C   20  S      Cor( 1S)     1.99909
   287    C   20  S      Val( 2S)     0.96678
   288    C   20  S      Ryd( 3S)     0.00052
   289    C   20  S      Ryd( 4S)     0.00003
   290    C   20  px     Val( 2p)     1.19610
   291    C   20  px     Ryd( 3p)     0.00501
   292    C   20  py     Val( 2p)     1.05258
   293    C   20  py     Ryd( 3p)     0.00403
   294    C   20  pz     Val( 2p)     0.98273
   295    C   20  pz     Ryd( 3p)     0.00142
   296    C   20  dxy    Ryd( 3d)     0.00060
   297    C   20  dxz    Ryd( 3d)     0.00037
   298    C   20  dyz    Ryd( 3d)     0.00048
   299    C   20  dx2y2  Ryd( 3d)     0.00089
   300    C   20  dz2    Ryd( 3d)     0.00049

   301    C   21  S      Cor( 1S)     1.99910
   302    C   21  S      Val( 2S)     0.96329
   303    C   21  S      Ryd( 3S)     0.00061
   304    C   21  S      Ryd( 4S)     0.00003
   305    C   21  px     Val( 2p)     1.09240
   306    C   21  px     Ryd( 3p)     0.00473
   307    C   21  py     Val( 2p)     1.15216
   308    C   21  py     Ryd( 3p)     0.00469
   309    C   21  pz     Val( 2p)     1.00946
   310    C   21  pz     Ryd( 3p)     0.00115
   311    C   21  dxy    Ryd( 3d)     0.00078
   312    C   21  dxz    Ryd( 3d)     0.00053
   313    C   21  dyz    Ryd( 3d)     0.00045
   314    C   21  dx2y2  Ryd( 3d)     0.00065
   315    C   21  dz2    Ryd( 3d)     0.00041

   316    C   22  S      Cor( 1S)     1.99904
   317    C   22  S      Val( 2S)     0.95432
   318    C   22  S      Ryd( 3S)     0.00063
   319    C   22  S      Ryd( 4S)     0.00005
   320    C   22  px     Val( 2p)     1.10116
   321    C   22  px     Ryd( 3p)     0.00373
   322    C   22  py     Val( 2p)     1.13144
   323    C   22  py     Ryd( 3p)     0.00446
   324    C   22  pz     Val( 2p)     1.00970
   325    C   22  pz     Ryd( 3p)     0.00145
   326    C   22  dxy    Ryd( 3d)     0.00080
   327    C   22  dxz    Ryd( 3d)     0.00054
   328    C   22  dyz    Ryd( 3d)     0.00047
   329    C   22  dx2y2  Ryd( 3d)     0.00060
   330    C   22  dz2    Ryd( 3d)     0.00035

   331    H   23  S      Val( 1S)     0.73442
   332    H   23  S      Ryd( 2S)     0.00151

   333    H   24  S      Val( 1S)     0.77838
   334    H   24  S      Ryd( 2S)     0.00142

   335    H   25  S      Val( 1S)     0.77715
   336    H   25  S      Ryd( 2S)     0.00127

   337    H   26  S      Val( 1S)     0.74135
   338    H   26  S      Ryd( 2S)     0.00082

   339    H   27  S      Val( 1S)     0.77479
   340    H   27  S      Ryd( 2S)     0.00143

   341    H   28  S      Val( 1S)     0.77741
   342    H   28  S      Ryd( 2S)     0.00162

   343    H   29  S      Val( 1S)     0.75863
   344    H   29  S      Ryd( 2S)     0.00109

   345    H   30  S      Val( 1S)     0.76829
   346    H   30  S      Ryd( 2S)     0.00110

   347    H   31  S      Val( 1S)     0.74113
   348    H   31  S      Ryd( 2S)     0.00147

   349    H   32  S      Val( 1S)     0.76593
   350    H   32  S      Ryd( 2S)     0.00107

   351    H   33  S      Val( 1S)     0.76673
   352    H   33  S      Ryd( 2S)     0.00095

   353    H   34  S      Val( 1S)     0.76954
   354    H   34  S      Ryd( 2S)     0.00140

   355    H   35  S      Val( 1S)     0.75506
   356    H   35  S      Ryd( 2S)     0.00134

   357    H   36  S      Val( 1S)     0.75870
   358    H   36  S      Ryd( 2S)     0.00083

   359    H   37  S      Val( 1S)     0.76073
   360    H   37  S      Ryd( 2S)     0.00085

   361    H   38  S      Val( 1S)     0.75893
   362    H   38  S      Ryd( 2S)     0.00085

   363    H   39  S      Val( 1S)     0.75683
   364    H   39  S      Ryd( 2S)     0.00136

 WARNING:  1 low occupancy (<1.9990e) core orbital  found on  C    7
           1 low occupancy (<1.9990e) core orbital  found on  C   12


 Summary of Natural Population Analysis:                  
                                                          
                                       Natural Population 
                Natural  -----------------------------------------------
    Atom  No    Charge         Core      Valence    Rydberg      Total
 -----------------------------------------------------------------------
      O    1   -0.64254      1.99978     6.62363    0.01914     8.64254
      C    2    0.94138      1.99937     3.01449    0.04476     5.05862
      N    3   -0.48174      1.99932     5.47143    0.01098     7.48174
      C    4   -0.46966      1.99947     4.45830    0.01190     6.46966
      C    5   -0.47105      1.99946     4.46010    0.01149     6.47105
      O    6   -0.53644      1.99969     6.52647    0.01028     8.53644
      C    7    0.35442      1.99871     3.62491    0.02196     5.64558
      C    8   -0.30940      1.99903     4.29452    0.01585     6.30940
      C    9   -0.23439      1.99907     4.21994    0.01539     6.23439
      C   10   -0.04045      1.99903     4.02636    0.01506     6.04045
      C   11   -0.02634      1.99903     4.01236    0.01495     6.02634
      C   12   -0.27670      1.99896     4.26321    0.01453     6.27670
      C   13   -0.23177      1.99906     4.21697    0.01574     6.23177
      C   14   -0.25907      1.99907     4.24549    0.01452     6.25907
      C   15   -0.01216      1.99901     3.99710    0.01604     6.01216
      C   16   -0.22501      1.99901     4.21150    0.01450     6.22501
      C   17   -0.03015      1.99901     4.01544    0.01570     6.03015
      C   18   -0.20162      1.99905     4.18980    0.01277     6.20162
      C   19   -0.23258      1.99910     4.21939    0.01409     6.23258
      C   20   -0.21112      1.99909     4.19819    0.01383     6.21112
      C   21   -0.23043      1.99910     4.21730    0.01402     6.23043
      C   22   -0.20875      1.99904     4.19663    0.01307     6.20875
      H   23    0.26407      0.00000     0.73442    0.00151     0.73593
      H   24    0.22019      0.00000     0.77838    0.00142     0.77981
      H   25    0.22158      0.00000     0.77715    0.00127     0.77842
      H   26    0.25782      0.00000     0.74135    0.00082     0.74218
      H   27    0.22377      0.00000     0.77479    0.00143     0.77623
      H   28    0.22098      0.00000     0.77741    0.00162     0.77902
      H   29    0.24028      0.00000     0.75863    0.00109     0.75972
      H   30    0.23061      0.00000     0.76829    0.00110     0.76939
      H   31    0.25740      0.00000     0.74113    0.00147     0.74260
      H   32    0.23299      0.00000     0.76593    0.00107     0.76701
      H   33    0.23232      0.00000     0.76673    0.00095     0.76768
      H   34    0.22906      0.00000     0.76954    0.00140     0.77094
      H   35    0.24360      0.00000     0.75506    0.00134     0.75640
      H   36    0.24046      0.00000     0.75870    0.00083     0.75954
      H   37    0.23842      0.00000     0.76073    0.00085     0.76158
      H   38    0.24022      0.00000     0.75893    0.00085     0.75978
      H   39    0.24181      0.00000     0.75683    0.00136     0.75819
 =======================================================================
   * Total *    0.00000     43.98147   109.64755    0.37098   154.00000

                                 Natural Population      
 --------------------------------------------------------
   Core                      43.98147 ( 99.9579% of  44)
   Valence                  109.64755 ( 99.6796% of 110)
   Natural Minimal Basis    153.62902 ( 99.7591% of 154)
   Natural Rydberg Basis      0.37098 (  0.2409% of 154)
 --------------------------------------------------------

    Atom  No          Natural Electron Configuration
 ----------------------------------------------------------------------------
      O    1      [core]2S( 1.70)2p( 4.92)3d( 0.02)
      C    2      [core]2S( 0.69)2p( 2.32)3p( 0.03)3d( 0.01)
      N    3      [core]2S( 1.21)2p( 4.26)3p( 0.01)
      C    4      [core]2S( 1.09)2p( 3.37)3p( 0.01)
      C    5      [core]2S( 1.09)2p( 3.37)3p( 0.01)
      O    6      [core]2S( 1.59)2p( 4.93)3d( 0.01)
      C    7      [core]2S( 0.84)2p( 2.78)3p( 0.01)3d( 0.01)
      C    8      [core]2S( 0.96)2p( 3.34)3p( 0.01)
      C    9      [core]2S( 0.94)2p( 3.28)3p( 0.01)
      C   10      [core]2S( 0.87)2p( 3.16)3p( 0.01)
      C   11      [core]2S( 0.87)2p( 3.14)3p( 0.01)
      C   12      [core]2S( 0.95)2p( 3.31)3p( 0.01)
      C   13      [core]2S( 0.94)2p( 3.27)3p( 0.01)
      C   14      [core]2S( 0.95)2p( 3.30)3p( 0.01)
      C   15      [core]2S( 0.87)2p( 3.12)3p( 0.01)
      C   16      [core]2S( 0.94)2p( 3.28)3p( 0.01)
      C   17      [core]2S( 0.88)2p( 3.14)3p( 0.01)
      C   18      [core]2S( 0.96)2p( 3.23)3p( 0.01)
      C   19      [core]2S( 0.96)2p( 3.26)3p( 0.01)
      C   20      [core]2S( 0.97)2p( 3.23)3p( 0.01)
      C   21      [core]2S( 0.96)2p( 3.25)3p( 0.01)
      C   22      [core]2S( 0.95)2p( 3.24)3p( 0.01)
      H   23            1S( 0.73)
      H   24            1S( 0.78)
      H   25            1S( 0.78)
      H   26            1S( 0.74)
      H   27            1S( 0.77)
      H   28            1S( 0.78)
      H   29            1S( 0.76)
      H   30            1S( 0.77)
      H   31            1S( 0.74)
      H   32            1S( 0.77)
      H   33            1S( 0.77)
      H   34            1S( 0.77)
      H   35            1S( 0.76)
      H   36            1S( 0.76)
      H   37            1S( 0.76)
      H   38            1S( 0.76)
      H   39            1S( 0.76)


 NBO analysis skipped by request.
 Leave Link  607 at Thu Sep 30 17:45:35 2021, MaxMem= 1610612736 cpu:      29.9
 (Enter /sw/target/amd/app/gaussian/Gaussian09RevA.02_gcc-4.9.2/g09/l9999.exe)
 1\1\GINC-HERMITE\SP\RTD-B3LYP-FC\6-31G(d)\C19H17N1O2\JSCHLEINITZ\30-Se
 p-2021\0\\#p TD(NStates=10, Root=1) b3lyp/6-31G* volume pop=NPA densit
 y=current Geom=AllCheck Guess=Read\\O=C(N(C)C)Oc1ccc2c(c1)ccc(c2)c1ccc
 cc1_conf_0\\0,1\O,0,3.7483108678,-0.6123033485,0.320700257\C,0,3.27963
 3384,0.475403373,0.0440043092\N,0,1.9590519039,0.7261316554,-0.1977101
 436\C,0,1.0271779314,-0.3903796804,-0.1767857163\C,0,1.4106524329,2.01
 85138967,-0.5797130367\O,0,4.0188514816,1.6339098441,-0.0668239421\C,0
 ,5.3866998459,1.6445402994,0.1843119095\C,0,6.1252087033,2.5199272584,
 -0.6480095135\C,0,7.4754664483,2.6801155341,-0.4494403174\C,0,8.150409
 406,1.9739415583,0.5829873255\C,0,7.390342655,1.0875282702,1.411810603
 1\C,0,5.9942572434,0.942956028,1.2003539275\C,0,8.0719159215,0.3792773
 146,2.4380968344\C,0,9.4231280785,0.5368598417,2.6320636336\C,0,10.193
 3040434,1.4161710638,1.8150983812\C,0,9.5427453681,2.113142418,0.81018
 69198\C,0,11.6526961188,1.5703519285,2.0413478949\C,0,12.4486744568,0.
 4690836826,2.4007606336\C,0,13.8201127698,0.611755024,2.6068367279\C,0
 ,14.427891426,1.8598087847,2.4594302967\C,0,13.6503212319,2.9638872039
 ,2.1048626352\C,0,12.2789283816,2.8207516403,1.9005345464\H,0,1.556808
 4279,-1.2857885734,0.1443159696\H,0,0.6014031409,-0.5594077779,-1.1753
 360033\H,0,0.2036354142,-0.1820451288,0.5181105013\H,0,2.1714694991,2.
 7905485869,-0.4986824844\H,0,0.5714395562,2.2745498932,0.0797475906\H,
 0,1.0360059476,1.9908923721,-1.6125568299\H,0,5.6009274574,3.053697333
 9,-1.4344475726\H,0,8.0433202046,3.3534117825,-1.0867481568\H,0,5.4230
 75026,0.2668830914,1.8229196096\H,0,7.5026870006,-0.2901372172,3.07839
 74404\H,0,9.915264598,0.0027824676,3.4397991634\H,0,10.1096347592,2.76
 79675987,0.1528618603\H,0,11.992221876,-0.5125677816,2.4930368947\H,0,
 14.4162271354,-0.2565200619,2.875602524\H,0,15.4966295183,1.9714215635
 ,2.6212552589\H,0,14.1105350604,3.9427601249,1.997387054\H,0,11.678142
 7706,3.6918040193,1.6540916704\\Version=AM64L-G09RevA.02\State=1-A\HF=
 -939.4954916\RMSD=6.116e-09\Dipole=-0.2637148,0.6308881,-0.0696905\Qua
 drupole=23.3777271,-11.8679706,-11.5097565,-1.0322159,7.6988643,-4.300
 2428\PG=C01 [X(C19H17N1O2)]\\@


 A SCIENTIST IS SOMEONE WHOSE CURIOSITY SURVIVES
 EDUCATION'S ASSAULTS ON IT.
                          - SIR HERMANN BONDI
 Job cpu time:  0 days  7 hours 30 minutes 33.3 seconds.
 File lengths (MBytes):  RWF=    425 Int=      0 D2E=      0 Chk=     59 Scr=      1
 Normal termination of Gaussian 09 at Thu Sep 30 17:45:40 2021.
