 Entering Gaussian System, Link 0=g09
 Input=C19H16O3_5b54_conf_0.com
 Output=C19H16O3_5b54_conf_0.log
 Initial command:
 /sw/target/amd/app/gaussian/Gaussian09RevA.02_gcc-4.9.2/g09/l1.exe /home/jschleinitz/gaussian/Gau-629581.inp -scrdir=/home/jschleinitz/gaussian/
 Entering Link 1 = /sw/target/amd/app/gaussian/Gaussian09RevA.02_gcc-4.9.2/g09/l1.exe PID=    629583.
  
 Copyright (c) 1988,1990,1992,1993,1995,1998,2003,2009, Gaussian, Inc.
                  All Rights Reserved.
  
 This is part of the Gaussian(R) 09 program.  It is based on
 the Gaussian(R) 03 system (copyright 2003, Gaussian, Inc.),
 the Gaussian(R) 98 system (copyright 1998, Gaussian, Inc.),
 the Gaussian(R) 94 system (copyright 1995, Gaussian, Inc.),
 the Gaussian 92(TM) system (copyright 1992, Gaussian, Inc.),
 the Gaussian 90(TM) system (copyright 1990, Gaussian, Inc.),
 the Gaussian 88(TM) system (copyright 1988, Gaussian, Inc.),
 the Gaussian 86(TM) system (copyright 1986, Carnegie Mellon
 University), and the Gaussian 82(TM) system (copyright 1983,
 Carnegie Mellon University). Gaussian is a federally registered
 trademark of Gaussian, Inc.
  
 This software contains proprietary and confidential information,
 including trade secrets, belonging to Gaussian, Inc.
  
 This software is provided under written license and may be
 used, copied, transmitted, or stored only in accord with that
 written license.
  
 The following legend is applicable only to US Government
 contracts under FAR:
  
                    RESTRICTED RIGHTS LEGEND
  
 Use, reproduction and disclosure by the US Government is
 subject to restrictions as set forth in subparagraphs (a)
 and (c) of the Commercial Computer Software - Restricted
 Rights clause in FAR 52.227-19.
  
 Gaussian, Inc.
 340 Quinnipiac St., Bldg. 40, Wallingford CT 06492
  
  
 ---------------------------------------------------------------
 Warning -- This program may not be used in any manner that
 competes with the business of Gaussian, Inc. or will provide
 assistance to any competitor of Gaussian, Inc.  The licensee
 of this program is prohibited from giving any competitor of
 Gaussian, Inc. access to this program.  By using this program,
 the user acknowledges that Gaussian, Inc. is engaged in the
 business of creating and licensing software in the field of
 computational chemistry and represents and warrants to the
 licensee that it is not a competitor of Gaussian, Inc. and that
 it will not use this program in any manner prohibited above.
 ---------------------------------------------------------------
  

 Cite this work as:
 Gaussian 09, Revision A.02,
 M. J. Frisch, G. W. Trucks, H. B. Schlegel, G. E. Scuseria, 
 M. A. Robb, J. R. Cheeseman, G. Scalmani, V. Barone, B. Mennucci, 
 G. A. Petersson, H. Nakatsuji, M. Caricato, X. Li, H. P. Hratchian, 
 A. F. Izmaylov, J. Bloino, G. Zheng, J. L. Sonnenberg, M. Hada, 
 M. Ehara, K. Toyota, R. Fukuda, J. Hasegawa, M. Ishida, T. Nakajima, 
 Y. Honda, O. Kitao, H. Nakai, T. Vreven, J. A. Montgomery, Jr., 
 J. E. Peralta, F. Ogliaro, M. Bearpark, J. J. Heyd, E. Brothers, 
 K. N. Kudin, V. N. Staroverov, R. Kobayashi, J. Normand, 
 K. Raghavachari, A. Rendell, J. C. Burant, S. S. Iyengar, J. Tomasi, 
 M. Cossi, N. Rega, J. M. Millam, M. Klene, J. E. Knox, J. B. Cross, 
 V. Bakken, C. Adamo, J. Jaramillo, R. Gomperts, R. E. Stratmann, 
 O. Yazyev, A. J. Austin, R. Cammi, C. Pomelli, J. W. Ochterski, 
 R. L. Martin, K. Morokuma, V. G. Zakrzewski, G. A. Voth, 
 P. Salvador, J. J. Dannenberg, S. Dapprich, A. D. Daniels, 
 O. Farkas, J. B. Foresman, J. V. Ortiz, J. Cioslowski, 
 and D. J. Fox, Gaussian, Inc., Wallingford CT, 2009.
 
 ******************************************
 Gaussian 09:  AM64L-G09RevA.02 11-Jun-2009
                29-Sep-2021 
 ******************************************
 %nproc=6
 Will use up to    6 processors via shared memory.
 %mem=12gb
 %chk=C19H16O3_5b54_conf_0.chk
 -----------------------------------
 #p opt b3lyp/6-31G* scf=(xqc,tight)
 -----------------------------------
 1/14=-1,18=20,19=15,26=3,38=1/1,3;
 2/9=110,12=2,17=6,18=5,40=1/2;
 3/5=1,6=6,7=1,11=2,16=1,25=1,30=1,71=1,74=-5/1,2,3;
 4//1;
 5/5=2,8=3,13=1,32=2,38=5/2,8;
 6/7=2,8=2,9=2,10=2,28=1/1;
 7//1,2,3,16;
 1/14=-1,18=20,19=15/3(2);
 2/9=110/2;
 99//99;
 2/9=110/2;
 3/5=1,6=6,7=1,11=2,16=1,25=1,30=1,71=1,74=-5/1,2,3;
 4/5=5,16=3/1;
 5/5=2,8=3,13=1,32=2,38=5/2,8;
 7//1,2,3,16;
 1/14=-1,18=20,19=15/3(-5);
 2/9=110/2;
 6/7=2,8=2,9=2,10=2,19=2,28=1/1;
 99/9=1/99;
 Leave Link    1 at Wed Sep 29 02:04:55 2021, MaxMem= 1610612736 cpu:       0.1
 (Enter /sw/target/amd/app/gaussian/Gaussian09RevA.02_gcc-4.9.2/g09/l101.exe)
 --------------------------------------------
 COc1ccc(cc1)c1ccc2c(c1)ccc(c2)OC(=O)C_conf_0
 --------------------------------------------
 Symbolic Z-matrix:
 Charge =  0 Multiplicity = 1
 C                     1.63273  -0.00734   0.40443 
 O                     2.53958   1.05674   0.66639 
 C                     3.04875   1.71121  -0.42021 
 C                     2.76362   1.43129  -1.75239 
 C                     3.35956   2.18329  -2.77469 
 C                     4.26814   3.22295  -2.50261 
 C                     4.53771   3.48773  -1.14935 
 C                     3.93273   2.74718  -0.12514 
 C                     4.90649   3.99696  -3.59654 
 C                     5.23545   5.35448  -3.44832 
 C                     5.82453   6.08454  -4.4883 
 C                     6.08761   5.48418  -5.72568 
 C                     5.77387   4.12085  -5.90391 
 C                     5.2027    3.40068  -4.83839 
 C                     6.0351    3.51016  -7.14269 
 C                     6.58562   4.23708  -8.2001 
 C                     6.86318   5.58722  -8.02526 
 C                     6.6441    6.20695  -6.79298 
 O                     7.41947   6.40522  -9.0296 
 C                     7.06704   6.25416  -10.3708 
 O                     6.33341   5.40047  -10.85232 
 C                     7.74969   7.32404  -11.16877 
 H                     1.33775  -0.4409    1.36462 
 H                     2.10887  -0.79893  -0.18429 
 H                     0.72684   0.36126  -0.08837 
 H                     2.08152   0.63835  -2.03916 
 H                     3.08728   1.94317  -3.80045 
 H                     5.23746   4.27     -0.86461 
 H                     4.16121   2.98009   0.91208 
 H                     5.02091   5.87755  -2.51898 
 H                     6.06127   7.13329  -4.32345 
 H                     4.98894   2.34425  -4.98929 
 H                     5.80113   2.4592   -7.29751 
 H                     6.77823   3.73407  -9.14292 
 H                     6.89471   7.25776  -6.67322 
 H                     7.61455   8.29376  -10.68181 
 H                     7.29267   7.38035  -12.16085 
 H                     8.81186   7.09081  -11.2718 
 
 NAtoms=     38 NQM=     38 NQMF=      0 NMic=      0 NMicF=      0 NTot=     38.
                    Isotopes and Nuclear Properties:
 (Nuclear quadrupole moments (NQMom) in fm**2, nuclear magnetic moments (NMagM)
  in nuclear magnetons)

  Atom         1           2           3           4           5           6           7           8           9          10
 IAtWgt=          12          16          12          12          12          12          12          12          12          12
 AtmWgt=  12.0000000  15.9949146  12.0000000  12.0000000  12.0000000  12.0000000  12.0000000  12.0000000  12.0000000  12.0000000
 NucSpn=           0           0           0           0           0           0           0           0           0           0
 AtZEff=   0.0000000   0.0000000   0.0000000   0.0000000   0.0000000   0.0000000   0.0000000   0.0000000   0.0000000   0.0000000
 NQMom=    0.0000000   0.0000000   0.0000000   0.0000000   0.0000000   0.0000000   0.0000000   0.0000000   0.0000000   0.0000000
 NMagM=    0.0000000   0.0000000   0.0000000   0.0000000   0.0000000   0.0000000   0.0000000   0.0000000   0.0000000   0.0000000

  Atom        11          12          13          14          15          16          17          18          19          20
 IAtWgt=          12          12          12          12          12          12          12          12          16          12
 AtmWgt=  12.0000000  12.0000000  12.0000000  12.0000000  12.0000000  12.0000000  12.0000000  12.0000000  15.9949146  12.0000000
 NucSpn=           0           0           0           0           0           0           0           0           0           0
 AtZEff=   0.0000000   0.0000000   0.0000000   0.0000000   0.0000000   0.0000000   0.0000000   0.0000000   0.0000000   0.0000000
 NQMom=    0.0000000   0.0000000   0.0000000   0.0000000   0.0000000   0.0000000   0.0000000   0.0000000   0.0000000   0.0000000
 NMagM=    0.0000000   0.0000000   0.0000000   0.0000000   0.0000000   0.0000000   0.0000000   0.0000000   0.0000000   0.0000000

  Atom        21          22          23          24          25          26          27          28          29          30
 IAtWgt=          16          12           1           1           1           1           1           1           1           1
 AtmWgt=  15.9949146  12.0000000   1.0078250   1.0078250   1.0078250   1.0078250   1.0078250   1.0078250   1.0078250   1.0078250
 NucSpn=           0           0           1           1           1           1           1           1           1           1
 AtZEff=   0.0000000   0.0000000   0.0000000   0.0000000   0.0000000   0.0000000   0.0000000   0.0000000   0.0000000   0.0000000
 NQMom=    0.0000000   0.0000000   0.0000000   0.0000000   0.0000000   0.0000000   0.0000000   0.0000000   0.0000000   0.0000000
 NMagM=    0.0000000   0.0000000   2.7928460   2.7928460   2.7928460   2.7928460   2.7928460   2.7928460   2.7928460   2.7928460

  Atom        31          32          33          34          35          36          37          38
 IAtWgt=           1           1           1           1           1           1           1           1
 AtmWgt=   1.0078250   1.0078250   1.0078250   1.0078250   1.0078250   1.0078250   1.0078250   1.0078250
 NucSpn=           1           1           1           1           1           1           1           1
 AtZEff=   0.0000000   0.0000000   0.0000000   0.0000000   0.0000000   0.0000000   0.0000000   0.0000000
 NQMom=    0.0000000   0.0000000   0.0000000   0.0000000   0.0000000   0.0000000   0.0000000   0.0000000
 NMagM=    2.7928460   2.7928460   2.7928460   2.7928460   2.7928460   2.7928460   2.7928460   2.7928460
 Leave Link  101 at Wed Sep 29 02:04:56 2021, MaxMem= 1610612736 cpu:       0.2
 (Enter /sw/target/amd/app/gaussian/Gaussian09RevA.02_gcc-4.9.2/g09/l103.exe)

 GradGradGradGradGradGradGradGradGradGradGradGradGradGradGradGradGradGrad
 Berny optimization.
 Initialization pass.
                           ----------------------------
                           !    Initial Parameters    !
                           ! (Angstroms and Degrees)  !
 --------------------------                            --------------------------
 ! Name  Definition              Value          Derivative Info.                !
 --------------------------------------------------------------------------------
 ! R1    R(1,2)                  1.4224         estimate D2E/DX2                !
 ! R2    R(1,23)                 1.0941         estimate D2E/DX2                !
 ! R3    R(1,24)                 1.0954         estimate D2E/DX2                !
 ! R4    R(1,25)                 1.0951         estimate D2E/DX2                !
 ! R5    R(2,3)                  1.3668         estimate D2E/DX2                !
 ! R6    R(3,4)                  1.3908         estimate D2E/DX2                !
 ! R7    R(3,8)                  1.3935         estimate D2E/DX2                !
 ! R8    R(4,5)                  1.402          estimate D2E/DX2                !
 ! R9    R(4,26)                 1.0846         estimate D2E/DX2                !
 ! R10   R(5,6)                  1.4073         estimate D2E/DX2                !
 ! R11   R(5,27)                 1.0881         estimate D2E/DX2                !
 ! R12   R(6,7)                  1.405          estimate D2E/DX2                !
 ! R13   R(6,9)                  1.4843         estimate D2E/DX2                !
 ! R14   R(7,8)                  1.4012         estimate D2E/DX2                !
 ! R15   R(7,28)                 1.0875         estimate D2E/DX2                !
 ! R16   R(8,29)                 1.0873         estimate D2E/DX2                !
 ! R17   R(9,10)                 1.4047         estimate D2E/DX2                !
 ! R18   R(9,14)                 1.4091         estimate D2E/DX2                !
 ! R19   R(10,11)                1.4006         estimate D2E/DX2                !
 ! R20   R(10,30)                1.0878         estimate D2E/DX2                !
 ! R21   R(11,12)                1.4003         estimate D2E/DX2                !
 ! R22   R(11,31)                1.0877         estimate D2E/DX2                !
 ! R23   R(12,13)                1.4103         estimate D2E/DX2                !
 ! R24   R(12,18)                1.404          estimate D2E/DX2                !
 ! R25   R(13,14)                1.4072         estimate D2E/DX2                !
 ! R26   R(13,15)                1.4056         estimate D2E/DX2                !
 ! R27   R(14,32)                1.0884         estimate D2E/DX2                !
 ! R28   R(15,16)                1.3963         estimate D2E/DX2                !
 ! R29   R(15,33)                1.0878         estimate D2E/DX2                !
 ! R30   R(16,17)                1.3894         estimate D2E/DX2                !
 ! R31   R(16,34)                1.0858         estimate D2E/DX2                !
 ! R32   R(17,18)                1.3966         estimate D2E/DX2                !
 ! R33   R(17,19)                1.4097         estimate D2E/DX2                !
 ! R34   R(18,35)                1.0869         estimate D2E/DX2                !
 ! R35   R(19,20)                1.3949         estimate D2E/DX2                !
 ! R36   R(20,21)                1.2243         estimate D2E/DX2                !
 ! R37   R(20,22)                1.4991         estimate D2E/DX2                !
 ! R38   R(22,36)                1.0935         estimate D2E/DX2                !
 ! R39   R(22,37)                1.0937         estimate D2E/DX2                !
 ! R40   R(22,38)                1.0923         estimate D2E/DX2                !
 ! A1    A(2,1,23)             107.8618         estimate D2E/DX2                !
 ! A2    A(2,1,24)             111.2509         estimate D2E/DX2                !
 ! A3    A(2,1,25)             111.0053         estimate D2E/DX2                !
 ! A4    A(23,1,24)            107.608          estimate D2E/DX2                !
 ! A5    A(23,1,25)            107.7749         estimate D2E/DX2                !
 ! A6    A(24,1,25)            111.1575         estimate D2E/DX2                !
 ! A7    A(1,2,3)              116.697          estimate D2E/DX2                !
 ! A8    A(2,3,4)              126.0665         estimate D2E/DX2                !
 ! A9    A(2,3,8)              115.084          estimate D2E/DX2                !
 ! A10   A(4,3,8)              118.8494         estimate D2E/DX2                !
 ! A11   A(3,4,5)              120.2201         estimate D2E/DX2                !
 ! A12   A(3,4,26)             121.9611         estimate D2E/DX2                !
 ! A13   A(5,4,26)             117.8185         estimate D2E/DX2                !
 ! A14   A(4,5,6)              121.985          estimate D2E/DX2                !
 ! A15   A(4,5,27)             117.5584         estimate D2E/DX2                !
 ! A16   A(6,5,27)             120.4536         estimate D2E/DX2                !
 ! A17   A(5,6,7)              116.6994         estimate D2E/DX2                !
 ! A18   A(5,6,9)              121.3595         estimate D2E/DX2                !
 ! A19   A(7,6,9)              121.9411         estimate D2E/DX2                !
 ! A20   A(6,7,8)              121.438          estimate D2E/DX2                !
 ! A21   A(6,7,28)             120.7438         estimate D2E/DX2                !
 ! A22   A(8,7,28)             117.813          estimate D2E/DX2                !
 ! A23   A(3,8,7)              120.7993         estimate D2E/DX2                !
 ! A24   A(3,8,29)             119.6402         estimate D2E/DX2                !
 ! A25   A(7,8,29)             119.5593         estimate D2E/DX2                !
 ! A26   A(6,9,10)             121.7965         estimate D2E/DX2                !
 ! A27   A(6,9,14)             121.2826         estimate D2E/DX2                !
 ! A28   A(10,9,14)            116.9197         estimate D2E/DX2                !
 ! A29   A(9,10,11)            121.596          estimate D2E/DX2                !
 ! A30   A(9,10,30)            120.5757         estimate D2E/DX2                !
 ! A31   A(11,10,30)           117.8192         estimate D2E/DX2                !
 ! A32   A(10,11,12)           120.7769         estimate D2E/DX2                !
 ! A33   A(10,11,31)           118.7906         estimate D2E/DX2                !
 ! A34   A(12,11,31)           120.426          estimate D2E/DX2                !
 ! A35   A(11,12,13)           118.9702         estimate D2E/DX2                !
 ! A36   A(11,12,18)           121.7022         estimate D2E/DX2                !
 ! A37   A(13,12,18)           119.3254         estimate D2E/DX2                !
 ! A38   A(12,13,14)           119.2978         estimate D2E/DX2                !
 ! A39   A(12,13,15)           119.3429         estimate D2E/DX2                !
 ! A40   A(14,13,15)           121.3591         estimate D2E/DX2                !
 ! A41   A(9,14,13)            122.4174         estimate D2E/DX2                !
 ! A42   A(9,14,32)            119.4508         estimate D2E/DX2                !
 ! A43   A(13,14,32)           118.1316         estimate D2E/DX2                !
 ! A44   A(13,15,16)           120.9644         estimate D2E/DX2                !
 ! A45   A(13,15,33)           120.3461         estimate D2E/DX2                !
 ! A46   A(16,15,33)           118.6867         estimate D2E/DX2                !
 ! A47   A(15,16,17)           119.2987         estimate D2E/DX2                !
 ! A48   A(15,16,34)           119.0996         estimate D2E/DX2                !
 ! A49   A(17,16,34)           121.5994         estimate D2E/DX2                !
 ! A50   A(16,17,18)           120.7224         estimate D2E/DX2                !
 ! A51   A(16,17,19)           123.5759         estimate D2E/DX2                !
 ! A52   A(18,17,19)           115.6595         estimate D2E/DX2                !
 ! A53   A(12,18,17)           120.2962         estimate D2E/DX2                !
 ! A54   A(12,18,35)           120.3533         estimate D2E/DX2                !
 ! A55   A(17,18,35)           119.3441         estimate D2E/DX2                !
 ! A56   A(17,19,20)           121.4975         estimate D2E/DX2                !
 ! A57   A(19,20,21)           127.2339         estimate D2E/DX2                !
 ! A58   A(19,20,22)           108.6298         estimate D2E/DX2                !
 ! A59   A(21,20,22)           124.1352         estimate D2E/DX2                !
 ! A60   A(20,22,36)           109.8508         estimate D2E/DX2                !
 ! A61   A(20,22,37)           109.2256         estimate D2E/DX2                !
 ! A62   A(20,22,38)           109.9143         estimate D2E/DX2                !
 ! A63   A(36,22,37)           107.8561         estimate D2E/DX2                !
 ! A64   A(36,22,38)           110.5798         estimate D2E/DX2                !
 ! A65   A(37,22,38)           109.3747         estimate D2E/DX2                !
 ! D1    D(23,1,2,3)           178.6135         estimate D2E/DX2                !
 ! D2    D(24,1,2,3)            60.8169         estimate D2E/DX2                !
 ! D3    D(25,1,2,3)           -63.527          estimate D2E/DX2                !
 ! D4    D(1,2,3,4)             -0.1027         estimate D2E/DX2                !
 ! D5    D(1,2,3,8)            179.9836         estimate D2E/DX2                !
 ! D6    D(2,3,4,5)           -179.9126         estimate D2E/DX2                !
 ! D7    D(2,3,4,26)             0.2435         estimate D2E/DX2                !
 ! D8    D(8,3,4,5)             -0.0019         estimate D2E/DX2                !
 ! D9    D(8,3,4,26)          -179.8457         estimate D2E/DX2                !
 ! D10   D(2,3,8,7)            179.2398         estimate D2E/DX2                !
 ! D11   D(2,3,8,29)            -0.3641         estimate D2E/DX2                !
 ! D12   D(4,3,8,7)             -0.6805         estimate D2E/DX2                !
 ! D13   D(4,3,8,29)           179.7156         estimate D2E/DX2                !
 ! D14   D(3,4,5,6)              0.8213         estimate D2E/DX2                !
 ! D15   D(3,4,5,27)          -178.5459         estimate D2E/DX2                !
 ! D16   D(26,4,5,6)          -179.3285         estimate D2E/DX2                !
 ! D17   D(26,4,5,27)            1.3043         estimate D2E/DX2                !
 ! D18   D(4,5,6,7)             -0.9102         estimate D2E/DX2                !
 ! D19   D(4,5,6,9)            179.0732         estimate D2E/DX2                !
 ! D20   D(27,5,6,7)           178.439          estimate D2E/DX2                !
 ! D21   D(27,5,6,9)            -1.5777         estimate D2E/DX2                !
 ! D22   D(5,6,7,8)              0.2169         estimate D2E/DX2                !
 ! D23   D(5,6,7,28)           179.3641         estimate D2E/DX2                !
 ! D24   D(9,6,7,8)           -179.7664         estimate D2E/DX2                !
 ! D25   D(9,6,7,28)            -0.6192         estimate D2E/DX2                !
 ! D26   D(5,6,9,10)           147.3942         estimate D2E/DX2                !
 ! D27   D(5,6,9,14)           -32.2003         estimate D2E/DX2                !
 ! D28   D(7,6,9,10)           -32.6233         estimate D2E/DX2                !
 ! D29   D(7,6,9,14)           147.7821         estimate D2E/DX2                !
 ! D30   D(6,7,8,3)              0.5752         estimate D2E/DX2                !
 ! D31   D(6,7,8,29)          -179.8206         estimate D2E/DX2                !
 ! D32   D(28,7,8,3)          -178.5961         estimate D2E/DX2                !
 ! D33   D(28,7,8,29)            1.0081         estimate D2E/DX2                !
 ! D34   D(6,9,10,11)         -179.2996         estimate D2E/DX2                !
 ! D35   D(6,9,10,30)           -0.4214         estimate D2E/DX2                !
 ! D36   D(14,9,10,11)           0.3118         estimate D2E/DX2                !
 ! D37   D(14,9,10,30)         179.19           estimate D2E/DX2                !
 ! D38   D(6,9,14,13)          178.2229         estimate D2E/DX2                !
 ! D39   D(6,9,14,32)           -1.9694         estimate D2E/DX2                !
 ! D40   D(10,9,14,13)          -1.3906         estimate D2E/DX2                !
 ! D41   D(10,9,14,32)         178.4171         estimate D2E/DX2                !
 ! D42   D(9,10,11,12)           0.9852         estimate D2E/DX2                !
 ! D43   D(9,10,11,31)        -179.9379         estimate D2E/DX2                !
 ! D44   D(30,10,11,12)       -177.9228         estimate D2E/DX2                !
 ! D45   D(30,10,11,31)          1.1541         estimate D2E/DX2                !
 ! D46   D(10,11,12,13)         -1.2179         estimate D2E/DX2                !
 ! D47   D(10,11,12,18)        178.2528         estimate D2E/DX2                !
 ! D48   D(31,11,12,13)        179.7202         estimate D2E/DX2                !
 ! D49   D(31,11,12,18)         -0.809          estimate D2E/DX2                !
 ! D50   D(11,12,13,14)          0.1681         estimate D2E/DX2                !
 ! D51   D(11,12,13,15)       -179.9782         estimate D2E/DX2                !
 ! D52   D(18,12,13,14)       -179.3154         estimate D2E/DX2                !
 ! D53   D(18,12,13,15)          0.5382         estimate D2E/DX2                !
 ! D54   D(11,12,18,17)       -178.3812         estimate D2E/DX2                !
 ! D55   D(11,12,18,35)          0.6923         estimate D2E/DX2                !
 ! D56   D(13,12,18,17)          1.0877         estimate D2E/DX2                !
 ! D57   D(13,12,18,35)       -179.8388         estimate D2E/DX2                !
 ! D58   D(12,13,14,9)           1.1668         estimate D2E/DX2                !
 ! D59   D(12,13,14,32)       -178.6433         estimate D2E/DX2                !
 ! D60   D(15,13,14,9)        -178.6838         estimate D2E/DX2                !
 ! D61   D(15,13,14,32)          1.5061         estimate D2E/DX2                !
 ! D62   D(12,13,15,16)         -0.7115         estimate D2E/DX2                !
 ! D63   D(12,13,15,33)        179.8974         estimate D2E/DX2                !
 ! D64   D(14,13,15,16)        179.139          estimate D2E/DX2                !
 ! D65   D(14,13,15,33)         -0.252          estimate D2E/DX2                !
 ! D66   D(13,15,16,17)         -0.7499         estimate D2E/DX2                !
 ! D67   D(13,15,16,34)        179.788          estimate D2E/DX2                !
 ! D68   D(33,15,16,17)        178.651          estimate D2E/DX2                !
 ! D69   D(33,15,16,34)         -0.8111         estimate D2E/DX2                !
 ! D70   D(15,16,17,18)          2.4036         estimate D2E/DX2                !
 ! D71   D(15,16,17,19)        179.9365         estimate D2E/DX2                !
 ! D72   D(34,16,17,18)       -178.1483         estimate D2E/DX2                !
 ! D73   D(34,16,17,19)         -0.6153         estimate D2E/DX2                !
 ! D74   D(16,17,18,12)         -2.5912         estimate D2E/DX2                !
 ! D75   D(16,17,18,35)        178.326          estimate D2E/DX2                !
 ! D76   D(19,17,18,12)        179.689          estimate D2E/DX2                !
 ! D77   D(19,17,18,35)          0.6063         estimate D2E/DX2                !
 ! D78   D(16,17,19,20)         37.2301         estimate D2E/DX2                !
 ! D79   D(18,17,19,20)       -145.1227         estimate D2E/DX2                !
 ! D80   D(17,19,20,21)         -4.2559         estimate D2E/DX2                !
 ! D81   D(17,19,20,22)        176.1141         estimate D2E/DX2                !
 ! D82   D(19,20,22,36)        -47.5612         estimate D2E/DX2                !
 ! D83   D(19,20,22,37)       -165.6705         estimate D2E/DX2                !
 ! D84   D(19,20,22,38)         74.3279         estimate D2E/DX2                !
 ! D85   D(21,20,22,36)        132.7947         estimate D2E/DX2                !
 ! D86   D(21,20,22,37)         14.6853         estimate D2E/DX2                !
 ! D87   D(21,20,22,38)       -105.3162         estimate D2E/DX2                !
 --------------------------------------------------------------------------------
 Trust Radius=3.00D-01 FncErr=1.00D-07 GrdErr=1.00D-06
 Number of steps in this run= 202 maximum allowed number of steps= 228.
 GradGradGradGradGradGradGradGradGradGradGradGradGradGradGradGradGradGrad

 Leave Link  103 at Wed Sep 29 02:04:56 2021, MaxMem= 1610612736 cpu:       0.0
 (Enter /sw/target/amd/app/gaussian/Gaussian09RevA.02_gcc-4.9.2/g09/l202.exe)
                          Input orientation:                          
 ---------------------------------------------------------------------
 Center     Atomic      Atomic             Coordinates (Angstroms)
 Number     Number       Type             X           Y           Z
 ---------------------------------------------------------------------
      1          6           0        1.632730   -0.007336    0.404430
      2          8           0        2.539584    1.056744    0.666390
      3          6           0        3.048746    1.711206   -0.420213
      4          6           0        2.763620    1.431288   -1.752390
      5          6           0        3.359557    2.183285   -2.774692
      6          6           0        4.268138    3.222952   -2.502613
      7          6           0        4.537711    3.487733   -1.149354
      8          6           0        3.932733    2.747178   -0.125142
      9          6           0        4.906493    3.996959   -3.596542
     10          6           0        5.235453    5.354480   -3.448324
     11          6           0        5.824531    6.084543   -4.488297
     12          6           0        6.087608    5.484180   -5.725683
     13          6           0        5.773872    4.120853   -5.903907
     14          6           0        5.202704    3.400677   -4.838386
     15          6           0        6.035098    3.510161   -7.142690
     16          6           0        6.585622    4.237078   -8.200096
     17          6           0        6.863176    5.587222   -8.025264
     18          6           0        6.644105    6.206952   -6.792981
     19          8           0        7.419466    6.405225   -9.029602
     20          6           0        7.067039    6.254162  -10.370795
     21          8           0        6.333415    5.400474  -10.852320
     22          6           0        7.749688    7.324038  -11.168767
     23          1           0        1.337745   -0.440904    1.364624
     24          1           0        2.108874   -0.798931   -0.184295
     25          1           0        0.726843    0.361261   -0.088368
     26          1           0        2.081517    0.638345   -2.039155
     27          1           0        3.087277    1.943174   -3.800454
     28          1           0        5.237455    4.270004   -0.864608
     29          1           0        4.161210    2.980093    0.912076
     30          1           0        5.020914    5.877548   -2.518978
     31          1           0        6.061274    7.133287   -4.323451
     32          1           0        4.988944    2.344246   -4.989292
     33          1           0        5.801126    2.459205   -7.297506
     34          1           0        6.778230    3.734070   -9.142916
     35          1           0        6.894711    7.257759   -6.673218
     36          1           0        7.614553    8.293764  -10.681815
     37          1           0        7.292673    7.380353  -12.160851
     38          1           0        8.811860    7.090810  -11.271797
 ---------------------------------------------------------------------
                    Distance matrix (angstroms):
                    1          2          3          4          5
     1  C    0.000000
     2  O    1.422418   0.000000
     3  C    2.374557   1.366847   0.000000
     4  C    2.828502   2.457839   1.390808   0.000000
     5  C    4.229370   3.712478   2.421370   1.402049   0.000000
     6  C    5.082423   4.209861   2.847575   2.456922   1.407285
     7  C    4.802985   3.633062   2.429962   2.782089   2.394024
     8  C    3.627369   2.329152   1.393462   2.397150   2.768866
     9  C    6.539088   5.693831   4.331854   3.817783   2.521479
    10  C    7.521462   6.532160   5.217719   4.937367   3.745563
    11  C    8.866846   7.914571   6.586378   6.205413   4.922636
    12  C    9.358471   8.546886   7.184569   6.577377   5.200627
    13  C    8.601518   7.938399   6.580548   5.790550   4.401712
    14  C    7.200443   6.548953   5.197509   4.398976   3.022923
    15  C    9.418740   8.900540   7.572730   6.639248   5.291364
    16  C   10.797410  10.251806   8.911572   8.003316   6.637814
    17  C   11.389310  10.712774   9.349341   8.568961   7.171516
    18  C   10.748673   9.950575   8.587812   7.954413   6.566947
    19  O   12.790942  12.100898  10.735855   9.968689   8.569220
    20  C   13.595718  13.012704  11.653292  10.772949   9.381804
    21  O   13.343734  12.881840  11.542469  10.550194   9.189244
    22  C   15.003503  14.369937  13.005159  12.175941  10.777805
    23  H    1.094061   2.043256   3.277917   3.905637   5.301700
    24  H    1.095415   2.086315   2.690688   2.803835   4.143426
    25  H    1.095146   2.083120   2.706234   2.839435   4.179389
    26  H    2.566987   2.775763   2.169686   1.084554   2.135706
    27  H    4.858111   4.586766   3.388410   2.135730   1.088107
    28  H    5.735864   4.466263   3.396378   3.868634   3.395485
    29  H    3.946600   2.527707   2.150034   3.383997   3.856139
    30  H    7.393103   6.288380   5.064847   5.045024   4.058704
    31  H    9.641232   8.615404   7.328681   7.070904   5.848115
    32  H    6.773946   6.296329   5.004158   4.032752   2.754136
    33  H    9.098306   8.719415   7.445285   6.405573   5.147158
    34  H   11.472841  11.016200   9.699823   8.720078   7.392329
    35  H   11.426423  10.549387   9.200858   8.673421   7.310684
    36  H   15.086261  14.384419  13.018339  12.262127  10.861194
    37  H   15.636469  15.070434  13.711044  12.815606  11.427112
    38  H   15.435603  14.774021  13.413072  12.618657  11.225515
                    6          7          8          9         10
     6  C    0.000000
     7  C    1.405023   0.000000
     8  C    2.447698   1.401225   0.000000
     9  C    1.484340   2.526666   3.815859   0.000000
    10  C    2.524576   3.042507   4.420254   1.404653   0.000000
    11  C    3.814971   4.421297   5.809822   2.448679   1.400553
    12  C    4.337258   5.227884   6.595509   2.853087   2.435027
    13  C    3.826521   4.953253   6.218594   2.468123   2.800290
    14  C    2.522070   3.749500   4.924892   1.409067   2.398060
    15  C    4.973425   6.177601   7.365329   3.753117   4.205864
    16  C    6.233819   7.380273   8.629166   4.906103   5.064670
    17  C    6.543980   7.556043   8.891866   5.096187   4.863336
    18  C    5.740796   6.609204   7.986342   4.256828   3.727967
    19  O    7.915764   8.883387  10.238556   6.452357   6.084787
    20  C    8.884277   9.954176  11.273696   7.460123   7.216976
    21  O    8.872687  10.051401  11.308209   7.526770   7.485104
    22  C   10.200114  11.199226  12.549042   8.745960   8.354985
    23  H    6.080013   5.656328   4.372325   7.552731   8.481926
    24  H    5.119820   5.020566   3.988088   6.516952   7.635041
    25  H    5.153506   5.042146   3.996458   6.557062   7.519914
    26  H    3.417059   3.865701   3.396708   4.656847   5.845939
    27  H    2.171786   3.393781   3.856052   2.751210   4.046686
    28  H    2.172316   1.087506   2.137314   2.765421   2.802085
    29  H    3.424984   2.156141   1.087324   4.681570   5.079842
    30  H    2.759316   2.796529   4.088253   2.170450   1.087801
    31  H    4.671351   5.068156   6.433851   3.420303   2.147553
    32  H    2.734092   4.031910   4.993786   2.162871   3.390702
    33  H    5.091598   6.360335   7.417320   4.106360   4.849620
    34  H    7.117263   8.305278   9.507421   5.859588   6.118355
    35  H    6.369655   7.090954   8.485044   4.904260   4.095797
    36  H   10.188767  11.110027  12.480535   8.717638   8.162285
    37  H   10.941360  11.999807  13.327183   9.512549   9.178477
    38  H   10.606806  11.563493  12.919789   9.150593   8.775663
                   11         12         13         14         15
    11  C    0.000000
    12  C    1.400275   0.000000
    13  C    2.421280   1.410267   0.000000
    14  C    2.777115   2.431324   1.407204   0.000000
    15  C    3.703726   2.430517   1.405620   2.452486   0.000000
    16  C    4.215429   2.815315   2.438223   3.730030   1.396278
    17  C    3.719711   2.429031   2.799460   4.206464   2.403919
    18  C    2.449133   1.403999   2.428903   3.711235   2.786730
    19  O    4.823910   3.679408   4.206697   5.613166   3.722673
    20  C    6.014681   4.809285   5.116286   6.498129   4.360631
    21  O    6.420880   5.133208   5.141722   6.437786   4.174161
    22  C    7.061959   5.981199   6.471707   7.871062   5.804719
    23  H    9.847303  10.389431   9.660248   8.256693  10.490493
    24  H    8.928200   9.274416   8.387518   6.990640   9.077598
    25  H    8.837520   9.314582   8.568987   7.199587   9.373186
    26  H    7.047661   7.288441   6.379471   5.020755   7.065706
    27  H    5.011649   5.024661   4.047789   2.770677   4.723944
    28  H    4.094915   5.082031   5.069963   4.067905   6.374003
    29  H    6.447346   7.351279   7.096453   5.859131   8.286838
    30  H    2.137022   3.402284   3.887245   3.398175   5.292618
    31  H    1.087698   2.164834   3.413972   3.864542   4.590843
    32  H    3.865103   3.407128   2.146850   1.088353   2.662879
    33  H    4.586424   3.420990   2.168856   2.700324   1.087760
    34  H    5.300919   3.900938   3.413138   4.595912   2.145526
    35  H    2.701037   2.166754   3.418816   4.594190   3.873477
    36  H    6.815020   5.898183   6.605278   7.994059   6.156536
    37  H    7.918500   6.816086   7.216678   8.592106   6.460790
    38  H    7.480146   6.384527   6.845747   8.248143   6.130332
                   16         17         18         19         20
    16  C    0.000000
    17  C    1.389421   0.000000
    18  C    2.421528   1.396632   0.000000
    19  O    2.466624   1.409710   2.375494   0.000000
    20  C    3.002053   2.447016   3.603035   1.394928   0.000000
    21  O    2.907127   2.882319   4.150321   2.347623   1.224277
    22  C    4.438173   3.699195   4.649484   2.351445   1.499134
    23  H   11.870451  12.451453  11.785498  13.852679  14.675448
    24  H   10.471664  11.174396  10.645443  12.583390  13.345198
    25  H   10.730675  11.311922  10.683536  12.699069  13.440710
    26  H    8.437715   9.120808   8.627019  10.517459  11.216464
    27  H    6.071019   6.736878   6.307619   8.125377   8.808662
    28  H    7.458420   7.460095   6.393437   8.717079   9.881895
    29  H    9.512595   9.694008   8.714659  11.008393  12.102337
    30  H    6.116744   5.813554   4.583705   6.958428   8.122777
    31  H    4.867376   4.091062   2.701179   4.952032   6.193125
    32  H    4.054807   4.821490   4.573112   6.222788   6.968967
    33  H    2.142647   3.382613   3.874374   4.603287   5.044734
    34  H    1.085829   2.165764   3.413991   2.749380   2.818149
    35  H    3.398736   2.149353   1.086895   2.560220   3.835228
    36  H    4.865627   3.866161   4.518803   2.516833   2.134591
    37  H    5.105651   4.528009   5.532770   3.282023   2.126856
    38  H    4.747132   4.074079   5.053727   2.726945   2.134521
                   21         22         23         24         25
    21  O    0.000000
    22  C    2.409579   0.000000
    23  H   14.433715  16.077725   0.000000
    24  H   13.041707  14.780394   1.766911   0.000000
    25  H   13.141156  14.851797   1.768574   1.807002   0.000000
    26  H   10.882480  12.656084   3.647422   2.346704   2.391127
    27  H    8.498185  10.246161   5.951699   4.642523   4.674792
    28  H   10.111057  11.036944   6.509214   5.995411   6.018841
    29  H   12.205643  13.330184   4.458696   4.437921   4.433289
    30  H    8.449547   9.184628   8.280757   7.648928   7.401104
    31  H    6.760387   7.053048  10.584625   9.781318   9.604813
    32  H    6.747090   8.402735   7.839679   6.423579   6.790935
    33  H    4.644469   6.515379  10.166853   8.651355   9.062085
    34  H    2.428338   4.235054  12.547417  11.072844  11.400875
    35  H    4.607542   4.576607  12.440104  11.398273  11.356255
    36  H    3.168835   1.093505  16.149595  14.939462  14.919326
    37  H    2.559756   1.093739  16.720397  15.401635  15.431222
    38  H    3.029173   1.092346  16.500552  15.169401  15.353287
                   26         27         28         29         30
    26  H    0.000000
    27  H    2.411701   0.000000
    28  H    4.952621   4.319328   0.000000
    29  H    4.303333   4.943326   2.445154   0.000000
    30  H    6.026569   4.567323   2.316901   4.572359   0.000000
    31  H    7.952405   6.004620   4.565157   6.947662   2.432150
    32  H    4.479569   2.278274   4.558873   5.992962   4.311346
    33  H    6.693376   4.456528   6.706631   8.387961   5.926899
    34  H    9.061238   6.735899   8.437511  10.417300   7.180474
    35  H    9.405212   7.141019   6.738927   9.127275   4.761702
    36  H   12.802949  10.400931  10.872846  13.212834   8.899268
    37  H   13.231007  10.823332  11.895516  14.144602  10.019233
    38  H   13.121490  10.728000  11.359705  13.673818   9.615358
                   31         32         33         34         35
    31  H    0.000000
    32  H    4.952591   0.000000
    33  H    5.546146   2.449634   0.000000
    34  H    5.941039   4.731357   2.446538   0.000000
    35  H    2.496301   5.532646   4.961027   4.304574   0.000000
    36  H    6.647419   8.642650   6.984565   4.884512   4.202419
    37  H    7.937394   9.060949   7.077749   4.761089   5.503409
    38  H    7.473088   8.752966   6.805238   4.464918   4.985003
                   36         37         38
    36  H    0.000000
    37  H    1.767901   0.000000
    38  H    1.796865   1.783867   0.000000
 Stoichiometry    C19H16O3
 Framework group  C1[X(C19H16O3)]
 Deg. of freedom   108
 Full point group                 C1      NOp   1
 Largest Abelian subgroup         C1      NOp   1
 Largest concise Abelian subgroup C1      NOp   1
                         Standard orientation:                         
 ---------------------------------------------------------------------
 Center     Atomic      Atomic             Coordinates (Angstroms)
 Number     Number       Type             X           Y           Z
 ---------------------------------------------------------------------
      1          6           0        7.398090   -1.455614    0.295686
      2          8           0        6.835170   -0.190543   -0.029877
      3          6           0        5.472205   -0.096046    0.010971
      4          6           0        4.589886   -1.120077    0.338417
      5          6           0        3.207369   -0.886868    0.339833
      6          6           0        2.662250    0.365155   -0.000367
      7          6           0        3.574156    1.383602   -0.324837
      8          6           0        4.956952    1.157385   -0.313318
      9          6           0        1.195256    0.591011   -0.013912
     10          6           0        0.634921    1.835500    0.318231
     11          6           0       -0.750633    2.039921    0.318055
     12          6           0       -1.628941    0.995606    0.003808
     13          6           0       -1.096845   -0.264502   -0.339490
     14          6           0        0.299079   -0.441708   -0.354247
     15          6           0       -1.971359   -1.318217   -0.656786
     16          6           0       -3.355545   -1.138146   -0.622243
     17          6           0       -3.871385    0.098078   -0.253259
     18          6           0       -3.021877    1.169102    0.032794
     19          8           0       -5.251249    0.379414   -0.189169
     20          6           0       -6.168766   -0.570963    0.258904
     21          8           0       -5.939966   -1.733105    0.568632
     22          6           0       -7.528838    0.058293    0.299465
     23          1           0        8.484451   -1.375795    0.193607
     24          1           0        7.056357   -2.232356   -0.397007
     25          1           0        7.178900   -1.727408    1.333678
     26          1           0        4.935803   -2.113854    0.601104
     27          1           0        2.557998   -1.711706    0.626080
     28          1           0        3.224311    2.373733   -0.607536
     29          1           0        5.635303    1.968467   -0.566812
     30          1           0        1.271240    2.670549    0.603018
     31          1           0       -1.135199    3.022615    0.581701
     32          1           0        0.689712   -1.415438   -0.643672
     33          1           0       -1.578605   -2.296364   -0.925479
     34          1           0       -4.003038   -1.971922   -0.876396
     35          1           0       -3.449918    2.133794    0.292585
     36          1           0       -7.473462    1.030556    0.796849
     37          1           0       -8.202760   -0.577738    0.880463
     38          1           0       -7.918604    0.167661   -0.715099
 ---------------------------------------------------------------------
 Rotational constants (GHZ):      1.2431527      0.0860930      0.0815044
 Leave Link  202 at Wed Sep 29 02:04:57 2021, MaxMem= 1610612736 cpu:       0.1
 (Enter /sw/target/amd/app/gaussian/Gaussian09RevA.02_gcc-4.9.2/g09/l301.exe)
 Standard basis: 6-31G(d) (6D, 7F)
 Ernie: Thresh=  0.10000D-02 Tol=  0.10000D-05 Strict=F.
 There are   362 symmetry adapted basis functions of A   symmetry.
 Integral buffers will be    131072 words long.
 Raffenetti 2 integral format.
 Two-electron integral symmetry is turned on.
   362 basis functions,   680 primitive gaussians,   362 cartesian basis functions
    77 alpha electrons       77 beta electrons
       nuclear repulsion energy      1556.1726692174 Hartrees.
 IExCor=  402 DFT=T Ex+Corr=B3LYP ExCW=0 ScaHFX=  0.200000
 ScaDFX=  0.800000  0.720000  1.000000  0.810000 ScalE2=  1.000000  1.000000
 IRadAn=      0 IRanWt=     -1 IRanGd=            0 ICorTp=0
 NAtoms=   38 NActive=   38 NUniq=   38 SFac= 7.50D-01 NAtFMM=   80 NAOKFM=F Big=F
 Leave Link  301 at Wed Sep 29 02:04:57 2021, MaxMem= 1610612736 cpu:       0.1
 (Enter /sw/target/amd/app/gaussian/Gaussian09RevA.02_gcc-4.9.2/g09/l302.exe)
 NPDir=0 NMtPBC=     1 NCelOv=     1 NCel=       1 NClECP=     1 NCelD=      1
         NCelK=      1 NCelE2=     1 NClLst=     1 CellRange=     0.0.
 One-electron integrals computed using PRISM.
 NBasis=   362 RedAO= T  NBF=   362
 NBsUse=   362 1.00D-06 NBFU=   362
 Precomputing XC quadrature grid using
 IXCGrd= 2 IRadAn=           0 IRanWt=          -1 IRanGd=           0 AccXCQ= 1.00D-10.
 NRdTot=    2449 NPtTot=      313102 NUsed=      330752 NTot=      330784
 NSgBfM=   346   347   347   347   347 NAtAll=    38    38.
 Leave Link  302 at Wed Sep 29 02:05:03 2021, MaxMem= 1610612736 cpu:       3.7
 (Enter /sw/target/amd/app/gaussian/Gaussian09RevA.02_gcc-4.9.2/g09/l303.exe)
 DipDrv:  MaxL=1.
 Leave Link  303 at Wed Sep 29 02:05:04 2021, MaxMem= 1610612736 cpu:       0.3
 (Enter /sw/target/amd/app/gaussian/Gaussian09RevA.02_gcc-4.9.2/g09/l401.exe)
 Harris functional with IExCor=  402 diagonalized for initial guess.
 ExpMin= 1.61D-01 ExpMax= 5.48D+03 ExpMxC= 8.25D+02 IAcc=1 IRadAn=         1 AccDes= 0.00D+00
 HarFok:  IExCor=  402 AccDes= 0.00D+00 IRadAn=         1 IDoV= 1
 ScaDFX=  1.000000  1.000000  1.000000  1.000000
 FoFCou: FMM=F IPFlag=           0 FMFlag=      100000 FMFlg1=           0
         NFxFlg=           0 DoJE=T BraDBF=F KetDBF=T FulRan=T
         Omega=  0.000000  0.000000  1.000000  0.000000  0.000000 ICntrl=     500 IOpCl=  0
         NMat0=    1 NMatS0=    1 NMatT0=    0 NMatD0=    1 NMtDS0=    0 NMtDT0=    0
         I1Cent=           4 NGrid=           0.
 Petite list used in FoFCou.
 Harris En= -959.447907007845    
 Initial guess orbital symmetries:
       Occupied  (A) (A) (A) (A) (A) (A) (A) (A) (A) (A) (A) (A)
                 (A) (A) (A) (A) (A) (A) (A) (A) (A) (A) (A) (A)
                 (A) (A) (A) (A) (A) (A) (A) (A) (A) (A) (A) (A)
                 (A) (A) (A) (A) (A) (A) (A) (A) (A) (A) (A) (A)
                 (A) (A) (A) (A) (A) (A) (A) (A) (A) (A) (A) (A)
                 (A) (A) (A) (A) (A) (A) (A) (A) (A) (A) (A) (A)
                 (A) (A) (A) (A) (A)
       Virtual   (A) (A) (A) (A) (A) (A) (A) (A) (A) (A) (A) (A)
                 (A) (A) (A) (A) (A) (A) (A) (A) (A) (A) (A) (A)
                 (A) (A) (A) (A) (A) (A) (A) (A) (A) (A) (A) (A)
                 (A) (A) (A) (A) (A) (A) (A) (A) (A) (A) (A) (A)
                 (A) (A) (A) (A) (A) (A) (A) (A) (A) (A) (A) (A)
                 (A) (A) (A) (A) (A) (A) (A) (A) (A) (A) (A) (A)
                 (A) (A) (A) (A) (A) (A) (A) (A) (A) (A) (A) (A)
                 (A) (A) (A) (A) (A) (A) (A) (A) (A) (A) (A) (A)
                 (A) (A) (A) (A) (A) (A) (A) (A) (A) (A) (A) (A)
                 (A) (A) (A) (A) (A) (A) (A) (A) (A) (A) (A) (A)
                 (A) (A) (A) (A) (A) (A) (A) (A) (A) (A) (A) (A)
                 (A) (A) (A) (A) (A) (A) (A) (A) (A) (A) (A) (A)
                 (A) (A) (A) (A) (A) (A) (A) (A) (A) (A) (A) (A)
                 (A) (A) (A) (A) (A) (A) (A) (A) (A) (A) (A) (A)
                 (A) (A) (A) (A) (A) (A) (A) (A) (A) (A) (A) (A)
                 (A) (A) (A) (A) (A) (A) (A) (A) (A) (A) (A) (A)
                 (A) (A) (A) (A) (A) (A) (A) (A) (A) (A) (A) (A)
                 (A) (A) (A) (A) (A) (A) (A) (A) (A) (A) (A) (A)
                 (A) (A) (A) (A) (A) (A) (A) (A) (A) (A) (A) (A)
                 (A) (A) (A) (A) (A) (A) (A) (A) (A) (A) (A) (A)
                 (A) (A) (A) (A) (A) (A) (A) (A) (A) (A) (A) (A)
                 (A) (A) (A) (A) (A) (A) (A) (A) (A) (A) (A) (A)
                 (A) (A) (A) (A) (A) (A) (A) (A) (A) (A) (A) (A)
                 (A) (A) (A) (A) (A) (A) (A) (A) (A)
 The electronic state of the initial guess is 1-A.
 Leave Link  401 at Wed Sep 29 02:05:16 2021, MaxMem= 1610612736 cpu:      14.5
 (Enter /sw/target/amd/app/gaussian/Gaussian09RevA.02_gcc-4.9.2/g09/l502.exe)
 Closed shell SCF:
 Requested convergence on RMS density matrix=1.00D-08 within  64 cycles.
 Requested convergence on MAX density matrix=1.00D-06.
 Requested convergence on             energy=1.00D-06.
 No special actions if energy rises.
 Using DIIS extrapolation, IDIIS=  1040.
 Integral symmetry usage will be decided dynamically.
       330397 words used for storage of precomputed grid.
 IEnd=      733969 IEndB=      733969 NGot=  1610612736 MDV=  1610014398
 LenX=  1610014398 LenY=  1609882913
 Fock matrices will be formed incrementally for  20 cycles.
 Integral accuracy reduced to 1.0D-05 until final iterations.

 Cycle   1  Pass 0  IDiag  1:
 FoFCou: FMM=F IPFlag=           0 FMFlag=      100000 FMFlg1=           0
         NFxFlg=           0 DoJE=F BraDBF=F KetDBF=F FulRan=T
         Omega=  0.000000  0.000000  1.000000  0.000000  0.000000 ICntrl=       0 IOpCl=  0
         NMat0=    1 NMatS0=    1 NMatT0=    0 NMatD0=    1 NMtDS0=    0 NMtDT0=    0
         I1Cent=           0 NGrid=           0.
 Symmetry not used in FoFCou.
 E= -958.834696926007    
 DIIS: error= 2.40D-02 at cycle   1 NSaved=   1.
 NSaved= 1 IEnMin= 1 EnMin= -958.834696926007     IErMin= 1 ErrMin= 2.40D-02
 ErrMax= 2.40D-02 EMaxC= 1.00D-01 BMatC= 5.02D-01 BMatP= 5.02D-01
 IDIUse=3 WtCom= 7.60D-01 WtEn= 2.40D-01
 Coeff-Com:  0.100D+01
 Coeff-En:   0.100D+01
 Coeff:      0.100D+01
 Gap=     0.165 Goal=   None    Shift=    0.000
 GapD=    0.165 DampG=1.000 DampE=0.500 DampFc=0.5000 IDamp=-1.
 Damping current iteration by 5.00D-01
 RMSDP=4.55D-03 MaxDP=2.16D-01              OVMax= 1.95D-01

 Cycle   2  Pass 0  IDiag  1:
 RMSU=  1.57D-03    CP:  9.74D-01
 E= -959.025900268369     Delta-E=       -0.191203342362 Rises=F Damp=T
 DIIS: error= 1.07D-02 at cycle   2 NSaved=   2.
 NSaved= 2 IEnMin= 2 EnMin= -959.025900268369     IErMin= 2 ErrMin= 1.07D-02
 ErrMax= 1.07D-02 EMaxC= 1.00D-01 BMatC= 6.31D-02 BMatP= 5.02D-01
 IDIUse=3 WtCom= 8.93D-01 WtEn= 1.07D-01
 Coeff-Com:  0.144D+00 0.856D+00
 Coeff-En:   0.210D+00 0.790D+00
 Coeff:      0.151D+00 0.849D+00
 Gap=     0.156 Goal=   None    Shift=    0.000
 RMSDP=1.67D-03 MaxDP=8.93D-02 DE=-1.91D-01 OVMax= 1.90D-01

 Cycle   3  Pass 0  IDiag  1:
 RMSU=  1.15D-03    CP:  9.56D-01  9.16D-01
 E= -959.250586945263     Delta-E=       -0.224686676894 Rises=F Damp=F
 DIIS: error= 1.64D-02 at cycle   3 NSaved=   3.
 NSaved= 3 IEnMin= 3 EnMin= -959.250586945263     IErMin= 2 ErrMin= 1.07D-02
 ErrMax= 1.64D-02 EMaxC= 1.00D-01 BMatC= 1.08D-01 BMatP= 6.31D-02
 IDIUse=2 WtCom= 0.00D+00 WtEn= 1.00D+00
 Coeff-En:   0.000D+00 0.000D+00 0.100D+01
 Coeff:      0.000D+00 0.000D+00 0.100D+01
 Gap=     0.160 Goal=   None    Shift=    0.000
 RMSDP=2.67D-03 MaxDP=2.10D-01 DE=-2.25D-01 OVMax= 3.53D-01

 Cycle   4  Pass 0  IDiag  1:
 RMSU=  1.08D-03    CP:  9.64D-01  1.26D+00 -2.62D-01
 E= -958.750788802639     Delta-E=        0.499798142624 Rises=F Damp=F
 DIIS: error= 4.63D-02 at cycle   4 NSaved=   4.
 NSaved= 4 IEnMin= 3 EnMin= -959.250586945263     IErMin= 2 ErrMin= 1.07D-02
 ErrMax= 4.63D-02 EMaxC= 1.00D-01 BMatC= 7.31D-01 BMatP= 6.31D-02
 IDIUse=2 WtCom= 0.00D+00 WtEn= 1.00D+00
 Coeff-En:   0.000D+00 0.000D+00 0.810D+00 0.190D+00
 Coeff:      0.000D+00 0.000D+00 0.810D+00 0.190D+00
 Gap=     0.193 Goal=   None    Shift=    0.000
 RMSDP=1.45D-03 MaxDP=1.04D-01 DE= 5.00D-01 OVMax= 1.35D-01

 Cycle   5  Pass 0  IDiag  1:
 RMSU=  2.15D-04    CP:  9.62D-01  1.01D+00  3.61D-01  4.68D-01
 E= -959.294694270976     Delta-E=       -0.543905468337 Rises=F Damp=F
 DIIS: error= 1.20D-02 at cycle   5 NSaved=   5.
 NSaved= 5 IEnMin= 5 EnMin= -959.294694270976     IErMin= 2 ErrMin= 1.07D-02
 ErrMax= 1.20D-02 EMaxC= 1.00D-01 BMatC= 5.79D-02 BMatP= 6.31D-02
 IDIUse=3 WtCom= 8.80D-01 WtEn= 1.20D-01
 Coeff-Com: -0.242D-02 0.518D-01 0.340D+00-0.781D-01 0.689D+00
 Coeff-En:   0.000D+00 0.000D+00 0.380D+00 0.000D+00 0.620D+00
 Coeff:     -0.213D-02 0.456D-01 0.345D+00-0.687D-01 0.681D+00
 Gap=     0.151 Goal=   None    Shift=    0.000
 RMSDP=5.72D-04 MaxDP=4.11D-02 DE=-5.44D-01 OVMax= 4.16D-02

 Cycle   6  Pass 0  IDiag  1:
 RMSU=  7.93D-05    CP:  9.60D-01  9.50D-01  6.33D-01  2.66D-01  6.82D-01
 E= -959.341434477920     Delta-E=       -0.046740206943 Rises=F Damp=F
 DIIS: error= 8.06D-04 at cycle   6 NSaved=   6.
 NSaved= 6 IEnMin= 6 EnMin= -959.341434477920     IErMin= 6 ErrMin= 8.06D-04
 ErrMax= 8.06D-04 EMaxC= 1.00D-01 BMatC= 6.04D-04 BMatP= 5.79D-02
 IDIUse=3 WtCom= 9.92D-01 WtEn= 8.06D-03
 Coeff-Com: -0.407D-02 0.222D-01 0.176D+00-0.618D-01 0.437D+00 0.431D+00
 Coeff-En:   0.000D+00 0.000D+00 0.000D+00 0.000D+00 0.000D+00 0.100D+01
 Coeff:     -0.404D-02 0.220D-01 0.175D+00-0.613D-01 0.433D+00 0.436D+00
 Gap=     0.150 Goal=   None    Shift=    0.000
 RMSDP=8.17D-05 MaxDP=4.00D-03 DE=-4.67D-02 OVMax= 7.73D-03

 Cycle   7  Pass 0  IDiag  1:
 RMSU=  2.23D-05    CP:  9.60D-01  9.59D-01  6.14D-01  2.65D-01  7.74D-01
                    CP:  4.68D-01
 E= -959.341998874271     Delta-E=       -0.000564396351 Rises=F Damp=F
 DIIS: error= 2.82D-04 at cycle   7 NSaved=   7.
 NSaved= 7 IEnMin= 7 EnMin= -959.341998874271     IErMin= 7 ErrMin= 2.82D-04
 ErrMax= 2.82D-04 EMaxC= 1.00D-01 BMatC= 4.21D-05 BMatP= 6.04D-04
 IDIUse=3 WtCom= 9.97D-01 WtEn= 2.82D-03
 Coeff-Com: -0.161D-03 0.683D-03 0.423D-01-0.156D-01 0.990D-01 0.187D+00
 Coeff-Com:  0.687D+00
 Coeff-En:   0.000D+00 0.000D+00 0.000D+00 0.000D+00 0.000D+00 0.587D-02
 Coeff-En:   0.994D+00
 Coeff:     -0.161D-03 0.681D-03 0.422D-01-0.156D-01 0.987D-01 0.186D+00
 Coeff:      0.688D+00
 Gap=     0.150 Goal=   None    Shift=    0.000
 RMSDP=2.29D-05 MaxDP=9.47D-04 DE=-5.64D-04 OVMax= 2.30D-03

 Cycle   8  Pass 0  IDiag  1:
 RMSU=  8.79D-06    CP:  9.60D-01  9.56D-01  6.21D-01  2.64D-01  7.56D-01
                    CP:  5.42D-01  7.12D-01
 E= -959.342037236439     Delta-E=       -0.000038362168 Rises=F Damp=F
 DIIS: error= 9.50D-05 at cycle   8 NSaved=   8.
 NSaved= 8 IEnMin= 8 EnMin= -959.342037236439     IErMin= 8 ErrMin= 9.50D-05
 ErrMax= 9.50D-05 EMaxC= 1.00D-01 BMatC= 6.19D-06 BMatP= 4.21D-05
 IDIUse=1 WtCom= 1.00D+00 WtEn= 0.00D+00
 Coeff-Com:  0.447D-03-0.168D-02 0.122D-01-0.421D-02 0.230D-01 0.795D-01
 Coeff-Com:  0.438D+00 0.453D+00
 Coeff:      0.447D-03-0.168D-02 0.122D-01-0.421D-02 0.230D-01 0.795D-01
 Coeff:      0.438D+00 0.453D+00
 Gap=     0.150 Goal=   None    Shift=    0.000
 RMSDP=8.76D-06 MaxDP=3.31D-04 DE=-3.84D-05 OVMax= 8.07D-04

 Initial convergence to 1.0D-05 achieved.  Increase integral accuracy.
 Cycle   9  Pass 1  IDiag  1:
 E= -959.342116966620     Delta-E=       -0.000079730181 Rises=F Damp=F
 DIIS: error= 2.93D-05 at cycle   1 NSaved=   1.
 NSaved= 1 IEnMin= 1 EnMin= -959.342116966620     IErMin= 1 ErrMin= 2.93D-05
 ErrMax= 2.93D-05 EMaxC= 1.00D-01 BMatC= 6.88D-07 BMatP= 6.88D-07
 IDIUse=1 WtCom= 1.00D+00 WtEn= 0.00D+00
 Coeff-Com:  0.100D+01
 Coeff:      0.100D+01
 Gap=     0.150 Goal=   None    Shift=    0.000
 RMSDP=8.76D-06 MaxDP=3.31D-04 DE=-7.97D-05 OVMax= 7.30D-04

 Cycle  10  Pass 1  IDiag  1:
 RMSU=  1.37D-05    CP:  1.00D+00
 E= -959.342115148233     Delta-E=        0.000001818387 Rises=F Damp=F
 DIIS: error= 7.00D-05 at cycle   2 NSaved=   2.
 NSaved= 2 IEnMin= 1 EnMin= -959.342116966620     IErMin= 1 ErrMin= 2.93D-05
 ErrMax= 7.00D-05 EMaxC= 1.00D-01 BMatC= 2.31D-06 BMatP= 6.88D-07
 IDIUse=1 WtCom= 1.00D+00 WtEn= 0.00D+00
 Coeff-Com:  0.660D+00 0.340D+00
 Coeff:      0.660D+00 0.340D+00
 Gap=     0.150 Goal=   None    Shift=    0.000
 RMSDP=5.30D-06 MaxDP=1.95D-04 DE= 1.82D-06 OVMax= 5.66D-04

 Cycle  11  Pass 1  IDiag  1:
 RMSU=  3.52D-06    CP:  1.00D+00  9.05D-01
 E= -959.342117646516     Delta-E=       -0.000002498283 Rises=F Damp=F
 DIIS: error= 9.89D-06 at cycle   3 NSaved=   3.
 NSaved= 3 IEnMin= 3 EnMin= -959.342117646516     IErMin= 3 ErrMin= 9.89D-06
 ErrMax= 9.89D-06 EMaxC= 1.00D-01 BMatC= 4.73D-08 BMatP= 6.88D-07
 IDIUse=1 WtCom= 1.00D+00 WtEn= 0.00D+00
 Coeff-Com:  0.125D+00 0.141D+00 0.734D+00
 Coeff:      0.125D+00 0.141D+00 0.734D+00
 Gap=     0.150 Goal=   None    Shift=    0.000
 RMSDP=9.80D-07 MaxDP=3.77D-05 DE=-2.50D-06 OVMax= 8.54D-05

 Cycle  12  Pass 1  IDiag  1:
 RMSU=  5.11D-07    CP:  1.00D+00  9.22D-01  8.84D-01
 E= -959.342117684398     Delta-E=       -0.000000037883 Rises=F Damp=F
 DIIS: error= 6.36D-06 at cycle   4 NSaved=   4.
 NSaved= 4 IEnMin= 4 EnMin= -959.342117684398     IErMin= 4 ErrMin= 6.36D-06
 ErrMax= 6.36D-06 EMaxC= 1.00D-01 BMatC= 1.67D-08 BMatP= 4.73D-08
 IDIUse=1 WtCom= 1.00D+00 WtEn= 0.00D+00
 Coeff-Com:  0.275D-02 0.480D-01 0.457D+00 0.492D+00
 Coeff:      0.275D-02 0.480D-01 0.457D+00 0.492D+00
 Gap=     0.150 Goal=   None    Shift=    0.000
 RMSDP=3.97D-07 MaxDP=2.65D-05 DE=-3.79D-08 OVMax= 2.96D-05

 Cycle  13  Pass 1  IDiag  1:
 RMSU=  1.21D-07    CP:  1.00D+00  9.23D-01  9.04D-01  5.24D-01
 E= -959.342117698318     Delta-E=       -0.000000013919 Rises=F Damp=F
 DIIS: error= 1.70D-06 at cycle   5 NSaved=   5.
 NSaved= 5 IEnMin= 5 EnMin= -959.342117698318     IErMin= 5 ErrMin= 1.70D-06
 ErrMax= 1.70D-06 EMaxC= 1.00D-01 BMatC= 1.21D-09 BMatP= 1.67D-08
 IDIUse=1 WtCom= 1.00D+00 WtEn= 0.00D+00
 Coeff-Com: -0.493D-02 0.228D-01 0.251D+00 0.310D+00 0.421D+00
 Coeff:     -0.493D-02 0.228D-01 0.251D+00 0.310D+00 0.421D+00
 Gap=     0.150 Goal=   None    Shift=    0.000
 RMSDP=1.00D-07 MaxDP=5.08D-06 DE=-1.39D-08 OVMax= 8.73D-06

 Cycle  14  Pass 1  IDiag  1:
 RMSU=  4.22D-08    CP:  1.00D+00  9.23D-01  9.06D-01  5.48D-01  5.43D-01
 E= -959.342117699357     Delta-E=       -0.000000001039 Rises=F Damp=F
 DIIS: error= 3.13D-07 at cycle   6 NSaved=   6.
 NSaved= 6 IEnMin= 6 EnMin= -959.342117699357     IErMin= 6 ErrMin= 3.13D-07
 ErrMax= 3.13D-07 EMaxC= 1.00D-01 BMatC= 5.24D-11 BMatP= 1.21D-09
 IDIUse=1 WtCom= 1.00D+00 WtEn= 0.00D+00
 Coeff-Com: -0.297D-02 0.990D-02 0.113D+00 0.146D+00 0.244D+00 0.490D+00
 Coeff:     -0.297D-02 0.990D-02 0.113D+00 0.146D+00 0.244D+00 0.490D+00
 Gap=     0.150 Goal=   None    Shift=    0.000
 RMSDP=2.60D-08 MaxDP=1.62D-06 DE=-1.04D-09 OVMax= 1.67D-06

 Cycle  15  Pass 1  IDiag  1:
 RMSU=  1.38D-08    CP:  1.00D+00  9.23D-01  9.05D-01  5.44D-01  5.86D-01
                    CP:  7.72D-01
 E= -959.342117699425     Delta-E=       -0.000000000068 Rises=F Damp=F
 DIIS: error= 1.44D-07 at cycle   7 NSaved=   7.
 NSaved= 7 IEnMin= 7 EnMin= -959.342117699425     IErMin= 7 ErrMin= 1.44D-07
 ErrMax= 1.44D-07 EMaxC= 1.00D-01 BMatC= 8.94D-12 BMatP= 5.24D-11
 IDIUse=1 WtCom= 1.00D+00 WtEn= 0.00D+00
 Coeff-Com: -0.103D-02 0.253D-02 0.302D-01 0.407D-01 0.820D-01 0.310D+00
 Coeff-Com:  0.535D+00
 Coeff:     -0.103D-02 0.253D-02 0.302D-01 0.407D-01 0.820D-01 0.310D+00
 Coeff:      0.535D+00
 Gap=     0.150 Goal=   None    Shift=    0.000
 RMSDP=7.73D-09 MaxDP=5.78D-07 DE=-6.82D-11 OVMax= 5.45D-07

 SCF Done:  E(RB3LYP) =  -959.342117699     A.U. after   15 cycles
             Convg  =    0.7728D-08             -V/T =  2.0095
 KE= 9.502798241069D+02 PE=-5.342807118387D+03 EE= 1.877012507363D+03
 Leave Link  502 at Wed Sep 29 02:13:30 2021, MaxMem= 1610612736 cpu:     670.0
 (Enter /sw/target/amd/app/gaussian/Gaussian09RevA.02_gcc-4.9.2/g09/l508.exe)
 QCSCF skips out because SCF is already converged.
 Leave Link  508 at Wed Sep 29 02:13:30 2021, MaxMem= 1610612736 cpu:       0.0
 (Enter /sw/target/amd/app/gaussian/Gaussian09RevA.02_gcc-4.9.2/g09/l601.exe)
 Copying SCF densities to generalized density rwf, IOpCl= 0 IROHF=0.

 **********************************************************************

            Population analysis using the SCF density.

 **********************************************************************

 Orbital symmetries:
       Occupied  (A) (A) (A) (A) (A) (A) (A) (A) (A) (A) (A) (A)
                 (A) (A) (A) (A) (A) (A) (A) (A) (A) (A) (A) (A)
                 (A) (A) (A) (A) (A) (A) (A) (A) (A) (A) (A) (A)
                 (A) (A) (A) (A) (A) (A) (A) (A) (A) (A) (A) (A)
                 (A) (A) (A) (A) (A) (A) (A) (A) (A) (A) (A) (A)
                 (A) (A) (A) (A) (A) (A) (A) (A) (A) (A) (A) (A)
                 (A) (A) (A) (A) (A)
       Virtual   (A) (A) (A) (A) (A) (A) (A) (A) (A) (A) (A) (A)
                 (A) (A) (A) (A) (A) (A) (A) (A) (A) (A) (A) (A)
                 (A) (A) (A) (A) (A) (A) (A) (A) (A) (A) (A) (A)
                 (A) (A) (A) (A) (A) (A) (A) (A) (A) (A) (A) (A)
                 (A) (A) (A) (A) (A) (A) (A) (A) (A) (A) (A) (A)
                 (A) (A) (A) (A) (A) (A) (A) (A) (A) (A) (A) (A)
                 (A) (A) (A) (A) (A) (A) (A) (A) (A) (A) (A) (A)
                 (A) (A) (A) (A) (A) (A) (A) (A) (A) (A) (A) (A)
                 (A) (A) (A) (A) (A) (A) (A) (A) (A) (A) (A) (A)
                 (A) (A) (A) (A) (A) (A) (A) (A) (A) (A) (A) (A)
                 (A) (A) (A) (A) (A) (A) (A) (A) (A) (A) (A) (A)
                 (A) (A) (A) (A) (A) (A) (A) (A) (A) (A) (A) (A)
                 (A) (A) (A) (A) (A) (A) (A) (A) (A) (A) (A) (A)
                 (A) (A) (A) (A) (A) (A) (A) (A) (A) (A) (A) (A)
                 (A) (A) (A) (A) (A) (A) (A) (A) (A) (A) (A) (A)
                 (A) (A) (A) (A) (A) (A) (A) (A) (A) (A) (A) (A)
                 (A) (A) (A) (A) (A) (A) (A) (A) (A) (A) (A) (A)
                 (A) (A) (A) (A) (A) (A) (A) (A) (A) (A) (A) (A)
                 (A) (A) (A) (A) (A) (A) (A) (A) (A) (A) (A) (A)
                 (A) (A) (A) (A) (A) (A) (A) (A) (A) (A) (A) (A)
                 (A) (A) (A) (A) (A) (A) (A) (A) (A) (A) (A) (A)
                 (A) (A) (A) (A) (A) (A) (A) (A) (A) (A) (A) (A)
                 (A) (A) (A) (A) (A) (A) (A) (A) (A) (A) (A) (A)
                 (A) (A) (A) (A) (A) (A) (A) (A) (A)
 The electronic state is 1-A.
 Alpha  occ. eigenvalues --  -19.20498 -19.17995 -19.14666 -10.32956 -10.25382
 Alpha  occ. eigenvalues --  -10.24688 -10.24216 -10.19997 -10.19997 -10.19570
 Alpha  occ. eigenvalues --  -10.19472 -10.19417 -10.19359 -10.19280 -10.19255
 Alpha  occ. eigenvalues --  -10.19208 -10.19151 -10.19095 -10.19041 -10.18944
 Alpha  occ. eigenvalues --  -10.18899 -10.18491  -1.09691  -1.06460  -1.02218
 Alpha  occ. eigenvalues --   -0.87965  -0.85498  -0.82368  -0.77892  -0.77739
 Alpha  occ. eigenvalues --   -0.75379  -0.74774  -0.73197  -0.71767  -0.69117
 Alpha  occ. eigenvalues --   -0.64092  -0.63269  -0.61205  -0.59677  -0.59481
 Alpha  occ. eigenvalues --   -0.56587  -0.53595  -0.51400  -0.50933  -0.49503
 Alpha  occ. eigenvalues --   -0.48050  -0.47707  -0.47194  -0.47126  -0.46757
 Alpha  occ. eigenvalues --   -0.45158  -0.44508  -0.44476  -0.42377  -0.41939
 Alpha  occ. eigenvalues --   -0.41683  -0.41303  -0.40830  -0.40526  -0.38975
 Alpha  occ. eigenvalues --   -0.38805  -0.38340  -0.37770  -0.36832  -0.35746
 Alpha  occ. eigenvalues --   -0.34661  -0.34111  -0.33545  -0.32617  -0.32502
 Alpha  occ. eigenvalues --   -0.30431  -0.28342  -0.27553  -0.25109  -0.24621
 Alpha  occ. eigenvalues --   -0.22127  -0.19785
 Alpha virt. eigenvalues --   -0.04750  -0.01867  -0.00395  -0.00131   0.02790
 Alpha virt. eigenvalues --    0.03803   0.09170   0.09487   0.10451   0.10740
 Alpha virt. eigenvalues --    0.10880   0.11620   0.12640   0.13570   0.14266
 Alpha virt. eigenvalues --    0.14815   0.15171   0.16536   0.16847   0.17025
 Alpha virt. eigenvalues --    0.17357   0.17761   0.18051   0.18925   0.20313
 Alpha virt. eigenvalues --    0.20942   0.22731   0.22882   0.24095   0.24861
 Alpha virt. eigenvalues --    0.25772   0.27382   0.27584   0.30353   0.31513
 Alpha virt. eigenvalues --    0.32277   0.33856   0.34706   0.35289   0.35838
 Alpha virt. eigenvalues --    0.37959   0.38816   0.40461   0.47547   0.48689
 Alpha virt. eigenvalues --    0.49447   0.49808   0.50966   0.51021   0.52248
 Alpha virt. eigenvalues --    0.52386   0.52987   0.53568   0.54315   0.54409
 Alpha virt. eigenvalues --    0.55387   0.55622   0.56042   0.56397   0.56817
 Alpha virt. eigenvalues --    0.57224   0.57817   0.58118   0.58373   0.58907
 Alpha virt. eigenvalues --    0.59645   0.59929   0.60345   0.60757   0.61158
 Alpha virt. eigenvalues --    0.61455   0.62098   0.62593   0.62987   0.64002
 Alpha virt. eigenvalues --    0.65454   0.66219   0.66787   0.67252   0.67756
 Alpha virt. eigenvalues --    0.68537   0.69815   0.71179   0.74268   0.74519
 Alpha virt. eigenvalues --    0.75091   0.78231   0.79299   0.81105   0.82050
 Alpha virt. eigenvalues --    0.82423   0.82700   0.83551   0.83732   0.83854
 Alpha virt. eigenvalues --    0.84726   0.85412   0.85637   0.86133   0.86392
 Alpha virt. eigenvalues --    0.87300   0.88302   0.89049   0.89159   0.90732
 Alpha virt. eigenvalues --    0.91528   0.92547   0.93261   0.93755   0.94281
 Alpha virt. eigenvalues --    0.94899   0.95585   0.96704   0.97966   0.98376
 Alpha virt. eigenvalues --    1.00827   1.01649   1.02856   1.03241   1.03975
 Alpha virt. eigenvalues --    1.04974   1.06345   1.07489   1.09001   1.09514
 Alpha virt. eigenvalues --    1.12118   1.13133   1.13246   1.16290   1.17470
 Alpha virt. eigenvalues --    1.18114   1.19537   1.19660   1.21464   1.23285
 Alpha virt. eigenvalues --    1.24558   1.26294   1.27266   1.27968   1.28938
 Alpha virt. eigenvalues --    1.31926   1.33133   1.37202   1.38319   1.39474
 Alpha virt. eigenvalues --    1.40750   1.41134   1.42219   1.43032   1.44395
 Alpha virt. eigenvalues --    1.45006   1.45739   1.46789   1.48660   1.49145
 Alpha virt. eigenvalues --    1.49731   1.50264   1.50555   1.51600   1.52183
 Alpha virt. eigenvalues --    1.52592   1.53842   1.55329   1.64675   1.66442
 Alpha virt. eigenvalues --    1.68926   1.69771   1.72579   1.74984   1.76729
 Alpha virt. eigenvalues --    1.77917   1.78995   1.79649   1.80709   1.80930
 Alpha virt. eigenvalues --    1.82124   1.83268   1.83898   1.84098   1.86516
 Alpha virt. eigenvalues --    1.87990   1.88910   1.90933   1.92675   1.92875
 Alpha virt. eigenvalues --    1.93674   1.94368   1.94838   1.96098   1.97151
 Alpha virt. eigenvalues --    1.97625   1.97867   1.98680   2.01405   2.02937
 Alpha virt. eigenvalues --    2.03011   2.04970   2.06325   2.06623   2.09163
 Alpha virt. eigenvalues --    2.09894   2.11511   2.12827   2.13398   2.14021
 Alpha virt. eigenvalues --    2.15862   2.16583   2.18664   2.19619   2.20666
 Alpha virt. eigenvalues --    2.22021   2.24911   2.25384   2.26836   2.29188
 Alpha virt. eigenvalues --    2.30261   2.31013   2.32343   2.33513   2.34357
 Alpha virt. eigenvalues --    2.35632   2.36376   2.36467   2.38184   2.39414
 Alpha virt. eigenvalues --    2.40761   2.42302   2.43197   2.49743   2.51799
 Alpha virt. eigenvalues --    2.53800   2.58459   2.59489   2.60489   2.62036
 Alpha virt. eigenvalues --    2.63352   2.65603   2.67325   2.67467   2.68741
 Alpha virt. eigenvalues --    2.70226   2.71288   2.72629   2.75464   2.77116
 Alpha virt. eigenvalues --    2.78830   2.80930   2.82224   2.85854   2.86868
 Alpha virt. eigenvalues --    2.91602   2.92561   2.94512   2.98224   3.00203
 Alpha virt. eigenvalues --    3.03443   3.06844   3.11497   3.21553   3.22899
 Alpha virt. eigenvalues --    3.37500   3.43998   3.51308   4.00690   4.05292
 Alpha virt. eigenvalues --    4.08735   4.09140   4.10077   4.10940   4.11491
 Alpha virt. eigenvalues --    4.13397   4.13601   4.16602   4.21835   4.27105
 Alpha virt. eigenvalues --    4.29792   4.31270   4.34586   4.39324   4.40574
 Alpha virt. eigenvalues --    4.42998   4.50362   4.62501   4.77273   4.86210
          Condensed to atoms (all electrons):
              1          2          3          4          5          6
     1  C    4.897062   0.248232  -0.043802  -0.006425   0.000346  -0.000007
     2  O    0.248232   8.199368   0.281850  -0.063192   0.003713   0.000129
     3  C   -0.043802   0.281850   4.500383   0.466286  -0.003570  -0.030944
     4  C   -0.006425  -0.063192   0.466286   5.127125   0.468774  -0.019447
     5  C    0.000346   0.003713  -0.003570   0.468774   5.019110   0.523803
     6  C   -0.000007   0.000129  -0.030944  -0.019447   0.523803   4.761672
     7  C   -0.000135   0.003196  -0.018631  -0.042786  -0.058259   0.512597
     8  C    0.004336  -0.055427   0.544049  -0.065950  -0.040871  -0.019401
     9  C   -0.000000  -0.000000   0.000499   0.006259  -0.044575   0.343112
    10  C   -0.000000   0.000000   0.000002  -0.000162   0.006249  -0.047823
    11  C   -0.000000   0.000000   0.000000   0.000001  -0.000155   0.005596
    12  C   -0.000000  -0.000000   0.000000  -0.000000  -0.000001   0.001034
    13  C    0.000000   0.000000  -0.000000  -0.000006   0.000521   0.004559
    14  C    0.000000  -0.000000   0.000002   0.000350  -0.014889  -0.038026
    15  C   -0.000000  -0.000000  -0.000000  -0.000000  -0.000009  -0.000224
    16  C   -0.000000  -0.000000   0.000000   0.000000  -0.000000   0.000002
    17  C    0.000000   0.000000  -0.000000  -0.000000   0.000000  -0.000000
    18  C   -0.000000  -0.000000  -0.000000   0.000000   0.000000  -0.000001
    19  O    0.000000   0.000000  -0.000000  -0.000000   0.000000  -0.000000
    20  C    0.000000   0.000000  -0.000000  -0.000000   0.000000  -0.000000
    21  O    0.000000   0.000000   0.000000   0.000000   0.000000   0.000000
    22  C    0.000000   0.000000   0.000000   0.000000   0.000000  -0.000000
    23  H    0.383937  -0.030910   0.003202   0.000161   0.000001  -0.000000
    24  H    0.363741  -0.035499  -0.005326   0.005222  -0.000136  -0.000000
    25  H    0.365083  -0.036147  -0.004647   0.004884  -0.000134  -0.000004
    26  H    0.005852  -0.007291  -0.046252   0.351818  -0.035386   0.003224
    27  H   -0.000008  -0.000048   0.003202  -0.040288   0.347432  -0.037139
    28  H    0.000003  -0.000060   0.004293   0.000199   0.006484  -0.040050
    29  H   -0.000182  -0.000333  -0.036077   0.007590   0.000222   0.003686
    30  H    0.000000  -0.000000  -0.000005  -0.000005  -0.000074  -0.009149
    31  H    0.000000  -0.000000  -0.000000  -0.000000   0.000001  -0.000171
    32  H    0.000000  -0.000000  -0.000006  -0.000010   0.005906  -0.009544
    33  H    0.000000   0.000000   0.000000  -0.000000  -0.000003  -0.000001
    34  H   -0.000000  -0.000000  -0.000000  -0.000000  -0.000000  -0.000000
    35  H    0.000000   0.000000   0.000000  -0.000000   0.000000   0.000000
    36  H    0.000000   0.000000   0.000000   0.000000   0.000000  -0.000000
    37  H    0.000000   0.000000   0.000000   0.000000   0.000000  -0.000000
    38  H    0.000000   0.000000   0.000000  -0.000000  -0.000000  -0.000000
              7          8          9         10         11         12
     1  C   -0.000135   0.004336  -0.000000  -0.000000  -0.000000  -0.000000
     2  O    0.003196  -0.055427  -0.000000   0.000000   0.000000  -0.000000
     3  C   -0.018631   0.544049   0.000499   0.000002   0.000000   0.000000
     4  C   -0.042786  -0.065950   0.006259  -0.000162   0.000001  -0.000000
     5  C   -0.058259  -0.040871  -0.044575   0.006249  -0.000155  -0.000001
     6  C    0.512597  -0.019401   0.343112  -0.047823   0.005596   0.001034
     7  C    5.010308   0.506669  -0.047723  -0.012945   0.000309   0.000001
     8  C    0.506669   4.995020   0.005542   0.000299  -0.000003  -0.000000
     9  C   -0.047723   0.005542   4.805726   0.478836  -0.006397  -0.029024
    10  C   -0.012945   0.000299   0.478836   5.061529   0.475992  -0.009456
    11  C    0.000309  -0.000003  -0.006397   0.475992   5.158587   0.447520
    12  C    0.000001  -0.000000  -0.029024  -0.009456   0.447520   4.681765
    13  C   -0.000158   0.000001   0.001873  -0.041706  -0.023665   0.489851
    14  C    0.006032  -0.000147   0.472091  -0.049059  -0.082139  -0.035170
    15  C    0.000000  -0.000000   0.007784  -0.000455   0.017424  -0.024534
    16  C   -0.000000   0.000000  -0.000265   0.000056  -0.000745  -0.039790
    17  C   -0.000000   0.000000   0.000023  -0.000292   0.007736   0.008976
    18  C    0.000000   0.000000  -0.000610   0.008599  -0.096709   0.409679
    19  O   -0.000000   0.000000  -0.000000   0.000000  -0.000085   0.002149
    20  C    0.000000   0.000000  -0.000000  -0.000000   0.000001   0.000007
    21  O    0.000000   0.000000   0.000000  -0.000000  -0.000000   0.000000
    22  C   -0.000000   0.000000  -0.000000   0.000000  -0.000000   0.000000
    23  H    0.000004  -0.000106  -0.000000   0.000000  -0.000000  -0.000000
    24  H    0.000002   0.000061   0.000000   0.000000   0.000000  -0.000000
    25  H   -0.000002   0.000055   0.000000   0.000000  -0.000000   0.000000
    26  H    0.000759   0.004553  -0.000175   0.000001  -0.000000  -0.000000
    27  H    0.006254   0.000482  -0.010136  -0.000108  -0.000006   0.000002
    28  H    0.350310  -0.041703  -0.010670   0.005265   0.000039  -0.000009
    29  H   -0.039152   0.344581  -0.000138  -0.000002  -0.000000  -0.000000
    30  H    0.005321   0.000004  -0.038005   0.347071  -0.037719   0.002713
    31  H   -0.000001  -0.000000   0.002881  -0.039395   0.352192  -0.038890
    32  H   -0.000065  -0.000007  -0.041542   0.006136   0.000317   0.004867
    33  H    0.000000  -0.000000   0.000139   0.000016  -0.000210   0.004461
    34  H    0.000000  -0.000000   0.000003  -0.000000   0.000006   0.000615
    35  H   -0.000000  -0.000000   0.000014   0.000192  -0.008777  -0.040206
    36  H   -0.000000  -0.000000   0.000000   0.000000  -0.000000  -0.000000
    37  H    0.000000   0.000000   0.000000  -0.000000   0.000000  -0.000000
    38  H    0.000000   0.000000  -0.000000  -0.000000   0.000000   0.000000
             13         14         15         16         17         18
     1  C    0.000000   0.000000  -0.000000  -0.000000   0.000000  -0.000000
     2  O    0.000000  -0.000000  -0.000000  -0.000000   0.000000  -0.000000
     3  C   -0.000000   0.000002  -0.000000   0.000000  -0.000000  -0.000000
     4  C   -0.000006   0.000350  -0.000000   0.000000  -0.000000   0.000000
     5  C    0.000521  -0.014889  -0.000009  -0.000000   0.000000   0.000000
     6  C    0.004559  -0.038026  -0.000224   0.000002  -0.000000  -0.000001
     7  C   -0.000158   0.006032   0.000000  -0.000000  -0.000000   0.000000
     8  C    0.000001  -0.000147  -0.000000   0.000000   0.000000   0.000000
     9  C    0.001873   0.472091   0.007784  -0.000265   0.000023  -0.000610
    10  C   -0.041706  -0.049059  -0.000455   0.000056  -0.000292   0.008599
    11  C   -0.023665  -0.082139   0.017424  -0.000745   0.007736  -0.096709
    12  C    0.489851  -0.035170  -0.024534  -0.039790   0.008976   0.409679
    13  C    4.701009   0.402266   0.435980  -0.006910  -0.035389  -0.034860
    14  C    0.402266   5.332205  -0.091674   0.008650  -0.000825   0.017835
    15  C    0.435980  -0.091674   5.168780   0.465666   0.003844  -0.077772
    16  C   -0.006910   0.008650   0.465666   5.042285   0.465964  -0.054804
    17  C   -0.035389  -0.000825   0.003844   0.465964   4.592838   0.494533
    18  C   -0.034860   0.017835  -0.077772  -0.054804   0.494533   5.292976
    19  O    0.000346   0.000001   0.003235  -0.046460   0.193414  -0.042207
    20  C    0.000002  -0.000000   0.000407  -0.002110  -0.011229   0.000675
    21  O    0.000003   0.000000   0.000103  -0.000781  -0.001743   0.000248
    22  C    0.000000   0.000000   0.000003   0.000478   0.003939  -0.000425
    23  H    0.000000   0.000000  -0.000000  -0.000000   0.000000  -0.000000
    24  H   -0.000000  -0.000000   0.000000   0.000000  -0.000000   0.000000
    25  H    0.000000   0.000000  -0.000000   0.000000   0.000000   0.000000
    26  H    0.000000  -0.000002   0.000000  -0.000000   0.000000  -0.000000
    27  H    0.000050   0.005898  -0.000011  -0.000000   0.000000  -0.000000
    28  H    0.000008  -0.000107   0.000000  -0.000000   0.000000  -0.000000
    29  H   -0.000000   0.000001   0.000000  -0.000000  -0.000000   0.000000
    30  H    0.000804   0.005894   0.000010  -0.000001   0.000003  -0.000199
    31  H    0.004424   0.000812  -0.000205   0.000009   0.000145  -0.008236
    32  H   -0.041476   0.342792  -0.008562   0.000160   0.000017  -0.000207
    33  H   -0.037499  -0.008329   0.353240  -0.039841   0.003083   0.000700
    34  H    0.002760  -0.000154  -0.034559   0.351186  -0.032266   0.004987
    35  H    0.004861  -0.000159   0.000000   0.006664  -0.040605   0.345244
    36  H    0.000000   0.000000   0.000000  -0.000004  -0.000142   0.000040
    37  H   -0.000000  -0.000000  -0.000000   0.000006  -0.000084   0.000004
    38  H    0.000000  -0.000000  -0.000001  -0.000020  -0.000008   0.000005
             19         20         21         22         23         24
     1  C    0.000000   0.000000   0.000000   0.000000   0.383937   0.363741
     2  O    0.000000   0.000000   0.000000   0.000000  -0.030910  -0.035499
     3  C   -0.000000  -0.000000   0.000000   0.000000   0.003202  -0.005326
     4  C   -0.000000  -0.000000   0.000000   0.000000   0.000161   0.005222
     5  C    0.000000   0.000000   0.000000   0.000000   0.000001  -0.000136
     6  C   -0.000000  -0.000000   0.000000  -0.000000  -0.000000  -0.000000
     7  C   -0.000000   0.000000   0.000000  -0.000000   0.000004   0.000002
     8  C    0.000000   0.000000   0.000000   0.000000  -0.000106   0.000061
     9  C   -0.000000  -0.000000   0.000000  -0.000000  -0.000000   0.000000
    10  C    0.000000  -0.000000  -0.000000   0.000000   0.000000   0.000000
    11  C   -0.000085   0.000001  -0.000000  -0.000000  -0.000000   0.000000
    12  C    0.002149   0.000007   0.000000   0.000000  -0.000000  -0.000000
    13  C    0.000346   0.000002   0.000003   0.000000   0.000000  -0.000000
    14  C    0.000001  -0.000000   0.000000   0.000000   0.000000  -0.000000
    15  C    0.003235   0.000407   0.000103   0.000003  -0.000000   0.000000
    16  C   -0.046460  -0.002110  -0.000781   0.000478  -0.000000   0.000000
    17  C    0.193414  -0.011229  -0.001743   0.003939   0.000000  -0.000000
    18  C   -0.042207   0.000675   0.000248  -0.000425  -0.000000   0.000000
    19  O    8.353123   0.224560  -0.063607  -0.098745   0.000000   0.000000
    20  C    0.224560   4.333244   0.556375   0.363429   0.000000   0.000000
    21  O   -0.063607   0.556375   8.016068  -0.073598   0.000000   0.000000
    22  C   -0.098745   0.363429  -0.073598   5.253773   0.000000   0.000000
    23  H    0.000000   0.000000   0.000000   0.000000   0.542144  -0.033639
    24  H    0.000000   0.000000   0.000000   0.000000  -0.033639   0.596241
    25  H    0.000000   0.000000   0.000000   0.000000  -0.033945  -0.046227
    26  H    0.000000   0.000000  -0.000000   0.000000  -0.000123   0.001876
    27  H   -0.000000  -0.000000   0.000000   0.000000  -0.000000   0.000001
    28  H   -0.000000   0.000000   0.000000  -0.000000  -0.000000  -0.000000
    29  H   -0.000000  -0.000000   0.000000   0.000000  -0.000026   0.000029
[...]
   111    C    8  px     Ryd( 3p)     0.00538
   112    C    8  py     Val( 2p)     1.12076
   113    C    8  py     Ryd( 3p)     0.00425
   114    C    8  pz     Val( 2p)     1.01741
   115    C    8  pz     Ryd( 3p)     0.00122
   116    C    8  dxy    Ryd( 3d)     0.00081
   117    C    8  dxz    Ryd( 3d)     0.00055
   118    C    8  dyz    Ryd( 3d)     0.00046
   119    C    8  dx2y2  Ryd( 3d)     0.00055
   120    C    8  dz2    Ryd( 3d)     0.00042

   121    C    9  S      Cor( 1S)     1.99901
   122    C    9  S      Val( 2S)     0.86639
   123    C    9  S      Ryd( 3S)     0.00055
   124    C    9  S      Ryd( 4S)     0.00007
   125    C    9  px     Val( 2p)     1.04619
   126    C    9  px     Ryd( 3p)     0.00446
   127    C    9  py     Val( 2p)     1.10458
   128    C    9  py     Ryd( 3p)     0.00559
   129    C    9  pz     Val( 2p)     1.04229
   130    C    9  pz     Ryd( 3p)     0.00195
   131    C    9  dxy    Ryd( 3d)     0.00064
   132    C    9  dxz    Ryd( 3d)     0.00040
   133    C    9  dyz    Ryd( 3d)     0.00078
   134    C    9  dx2y2  Ryd( 3d)     0.00077
   135    C    9  dz2    Ryd( 3d)     0.00053

   136    C   10  S      Cor( 1S)     1.99907
   137    C   10  S      Val( 2S)     0.93934
   138    C   10  S      Ryd( 3S)     0.00064
   139    C   10  S      Ryd( 4S)     0.00004
   140    C   10  px     Val( 2p)     1.12368
   141    C   10  px     Ryd( 3p)     0.00382
   142    C   10  py     Val( 2p)     1.10709
   143    C   10  py     Ryd( 3p)     0.00429
   144    C   10  pz     Val( 2p)     1.07875
   145    C   10  pz     Ryd( 3p)     0.00245
   146    C   10  dxy    Ryd( 3d)     0.00082
   147    C   10  dxz    Ryd( 3d)     0.00073
   148    C   10  dyz    Ryd( 3d)     0.00043
   149    C   10  dx2y2  Ryd( 3d)     0.00056
   150    C   10  dz2    Ryd( 3d)     0.00038

   151    C   11  S      Cor( 1S)     1.99906
   152    C   11  S      Val( 2S)     0.93847
   153    C   11  S      Ryd( 3S)     0.00073
   154    C   11  S      Ryd( 4S)     0.00004
   155    C   11  px     Val( 2p)     1.07565
   156    C   11  px     Ryd( 3p)     0.00424
   157    C   11  py     Val( 2p)     1.15348
   158    C   11  py     Ryd( 3p)     0.00465
   159    C   11  pz     Val( 2p)     1.07780
   160    C   11  pz     Ryd( 3p)     0.00320
   161    C   11  dxy    Ryd( 3d)     0.00074
   162    C   11  dxz    Ryd( 3d)     0.00059
   163    C   11  dyz    Ryd( 3d)     0.00039
   164    C   11  dx2y2  Ryd( 3d)     0.00065
   165    C   11  dz2    Ryd( 3d)     0.00037

   166    C   12  S      Cor( 1S)     1.99902
   167    C   12  S      Val( 2S)     0.86929
   168    C   12  S      Ryd( 3S)     0.00044
   169    C   12  S      Ryd( 4S)     0.00007
   170    C   12  px     Val( 2p)     1.08949
   171    C   12  px     Ryd( 3p)     0.00496
   172    C   12  py     Val( 2p)     1.07068
   173    C   12  py     Ryd( 3p)     0.00496
   174    C   12  pz     Val( 2p)     0.96860
   175    C   12  pz     Ryd( 3p)     0.00102
   176    C   12  dxy    Ryd( 3d)     0.00074
   177    C   12  dxz    Ryd( 3d)     0.00097
   178    C   12  dyz    Ryd( 3d)     0.00050
   179    C   12  dx2y2  Ryd( 3d)     0.00070
   180    C   12  dz2    Ryd( 3d)     0.00040

   181    C   13  S      Cor( 1S)     1.99902
   182    C   13  S      Val( 2S)     0.86693
   183    C   13  S      Ryd( 3S)     0.00049
   184    C   13  S      Ryd( 4S)     0.00006
   185    C   13  px     Val( 2p)     1.08872
   186    C   13  px     Ryd( 3p)     0.00487
   187    C   13  py     Val( 2p)     1.07737
   188    C   13  py     Ryd( 3p)     0.00517
   189    C   13  pz     Val( 2p)     1.00001
   190    C   13  pz     Ryd( 3p)     0.00111
   191    C   13  dxy    Ryd( 3d)     0.00071
   192    C   13  dxz    Ryd( 3d)     0.00082
   193    C   13  dyz    Ryd( 3d)     0.00053
   194    C   13  dx2y2  Ryd( 3d)     0.00071
   195    C   13  dz2    Ryd( 3d)     0.00042

   196    C   14  S      Cor( 1S)     1.99901
   197    C   14  S      Val( 2S)     0.93135
   198    C   14  S      Ryd( 3S)     0.00062
   199    C   14  S      Ryd( 4S)     0.00006
   200    C   14  px     Val( 2p)     1.06922
   201    C   14  px     Ryd( 3p)     0.00310
   202    C   14  py     Val( 2p)     1.15026
   203    C   14  py     Ryd( 3p)     0.00423
   204    C   14  pz     Val( 2p)     1.06089
   205    C   14  pz     Ryd( 3p)     0.00340
   206    C   14  dxy    Ryd( 3d)     0.00073
   207    C   14  dxz    Ryd( 3d)     0.00056
   208    C   14  dyz    Ryd( 3d)     0.00045
   209    C   14  dx2y2  Ryd( 3d)     0.00066
   210    C   14  dz2    Ryd( 3d)     0.00037

   211    C   15  S      Cor( 1S)     1.99907
   212    C   15  S      Val( 2S)     0.93803
   213    C   15  S      Ryd( 3S)     0.00065
   214    C   15  S      Ryd( 4S)     0.00005
   215    C   15  px     Val( 2p)     1.07465
   216    C   15  px     Ryd( 3p)     0.00422
   217    C   15  py     Val( 2p)     1.14949
   218    C   15  py     Ryd( 3p)     0.00441
   219    C   15  pz     Val( 2p)     1.08321
   220    C   15  pz     Ryd( 3p)     0.00301
   221    C   15  dxy    Ryd( 3d)     0.00074
   222    C   15  dxz    Ryd( 3d)     0.00063
   223    C   15  dyz    Ryd( 3d)     0.00038
   224    C   15  dx2y2  Ryd( 3d)     0.00063
   225    C   15  dz2    Ryd( 3d)     0.00037

   226    C   16  S      Cor( 1S)     1.99901
   227    C   16  S      Val( 2S)     0.95566
   228    C   16  S      Ryd( 3S)     0.00073
   229    C   16  S      Ryd( 4S)     0.00005
   230    C   16  px     Val( 2p)     1.12742
   231    C   16  px     Ryd( 3p)     0.00429
   232    C   16  py     Val( 2p)     1.12885
   233    C   16  py     Ryd( 3p)     0.00417
   234    C   16  pz     Val( 2p)     1.06923
   235    C   16  pz     Ryd( 3p)     0.00240
   236    C   16  dxy    Ryd( 3d)     0.00074
   237    C   16  dxz    Ryd( 3d)     0.00071
   238    C   16  dyz    Ryd( 3d)     0.00049
   239    C   16  dx2y2  Ryd( 3d)     0.00058
   240    C   16  dz2    Ryd( 3d)     0.00042

   241    C   17  S      Cor( 1S)     1.99870
   242    C   17  S      Val( 2S)     0.83951
   243    C   17  S      Ryd( 3S)     0.00135
   244    C   17  S      Ryd( 4S)     0.00012
   245    C   17  px     Val( 2p)     0.73727
   246    C   17  px     Ryd( 3p)     0.00638
   247    C   17  py     Val( 2p)     1.07525
   248    C   17  py     Ryd( 3p)     0.00607
   249    C   17  pz     Val( 2p)     1.00660
   250    C   17  pz     Ryd( 3p)     0.00234
   251    C   17  dxy    Ryd( 3d)     0.00132
   252    C   17  dxz    Ryd( 3d)     0.00135
   253    C   17  dyz    Ryd( 3d)     0.00086
   254    C   17  dx2y2  Ryd( 3d)     0.00165
   255    C   17  dz2    Ryd( 3d)     0.00074

   256    C   18  S      Cor( 1S)     1.99896
   257    C   18  S      Val( 2S)     0.94258
   258    C   18  S      Ryd( 3S)     0.00080
   259    C   18  S      Ryd( 4S)     0.00005
   260    C   18  px     Val( 2p)     1.06995
   261    C   18  px     Ryd( 3p)     0.00442
   262    C   18  py     Val( 2p)     1.17391
   263    C   18  py     Ryd( 3p)     0.00405
   264    C   18  pz     Val( 2p)     1.11379
   265    C   18  pz     Ryd( 3p)     0.00337
   266    C   18  dxy    Ryd( 3d)     0.00072
   267    C   18  dxz    Ryd( 3d)     0.00043
   268    C   18  dyz    Ryd( 3d)     0.00047
   269    C   18  dx2y2  Ryd( 3d)     0.00056
   270    C   18  dz2    Ryd( 3d)     0.00044

   271    O   19  S      Cor( 1S)     1.99970
   272    O   19  S      Val( 2S)     1.60072
   273    O   19  S      Ryd( 3S)     0.00145
   274    O   19  S      Ryd( 4S)     0.00009
   275    O   19  px     Val( 2p)     1.43681
   276    O   19  px     Ryd( 3p)     0.00110
   277    O   19  py     Val( 2p)     1.76009
   278    O   19  py     Ryd( 3p)     0.00209
   279    O   19  pz     Val( 2p)     1.73357
   280    O   19  pz     Ryd( 3p)     0.00133
   281    O   19  dxy    Ryd( 3d)     0.00105
   282    O   19  dxz    Ryd( 3d)     0.00069
   283    O   19  dyz    Ryd( 3d)     0.00121
   284    O   19  dx2y2  Ryd( 3d)     0.00118
   285    O   19  dz2    Ryd( 3d)     0.00116

   286    C   20  S      Cor( 1S)     1.99945
   287    C   20  S      Val( 2S)     0.78587
   288    C   20  S      Ryd( 3S)     0.00359
   289    C   20  S      Ryd( 4S)     0.00035
   290    C   20  px     Val( 2p)     0.86620
   291    C   20  px     Ryd( 3p)     0.00478
   292    C   20  py     Val( 2p)     0.73709
   293    C   20  py     Ryd( 3p)     0.01717
   294    C   20  pz     Val( 2p)     0.74616
   295    C   20  pz     Ryd( 3p)     0.00780
   296    C   20  dxy    Ryd( 3d)     0.00296
   297    C   20  dxz    Ryd( 3d)     0.00178
   298    C   20  dyz    Ryd( 3d)     0.00130
   299    C   20  dx2y2  Ryd( 3d)     0.00197
   300    C   20  dz2    Ryd( 3d)     0.00175

   301    O   21  S      Cor( 1S)     1.99978
   302    O   21  S      Val( 2S)     1.69886
   303    O   21  S      Ryd( 3S)     0.00060
   304    O   21  S      Ryd( 4S)     0.00008
   305    O   21  px     Val( 2p)     1.81920
   306    O   21  px     Ryd( 3p)     0.00157
   307    O   21  py     Val( 2p)     1.55393
   308    O   21  py     Ryd( 3p)     0.00051
   309    O   21  pz     Val( 2p)     1.48506
   310    O   21  pz     Ryd( 3p)     0.00065
   311    O   21  dxy    Ryd( 3d)     0.00365
   312    O   21  dxz    Ryd( 3d)     0.00167
   313    O   21  dyz    Ryd( 3d)     0.00452
   314    O   21  dx2y2  Ryd( 3d)     0.00379
   315    O   21  dz2    Ryd( 3d)     0.00298

   316    C   22  S      Cor( 1S)     1.99934
   317    C   22  S      Val( 2S)     1.13708
   318    C   22  S      Ryd( 3S)     0.00032
   319    C   22  S      Ryd( 4S)     0.00001
   320    C   22  px     Val( 2p)     1.12850
   321    C   22  px     Ryd( 3p)     0.00116
   322    C   22  py     Val( 2p)     1.24683
   323    C   22  py     Ryd( 3p)     0.00124
   324    C   22  pz     Val( 2p)     1.25577
   325    C   22  pz     Ryd( 3p)     0.00075
   326    C   22  dxy    Ryd( 3d)     0.00062
   327    C   22  dxz    Ryd( 3d)     0.00034
   328    C   22  dyz    Ryd( 3d)     0.00050
   329    C   22  dx2y2  Ryd( 3d)     0.00077
   330    C   22  dz2    Ryd( 3d)     0.00092

   331    H   23  S      Val( 1S)     0.76034
   332    H   23  S      Ryd( 2S)     0.00045

   333    H   24  S      Val( 1S)     0.78361
   334    H   24  S      Ryd( 2S)     0.00155

   335    H   25  S      Val( 1S)     0.78371
   336    H   25  S      Ryd( 2S)     0.00151

   337    H   26  S      Val( 1S)     0.75076
   338    H   26  S      Ryd( 2S)     0.00082

   339    H   27  S      Val( 1S)     0.74301
   340    H   27  S      Ryd( 2S)     0.00126

   341    H   28  S      Val( 1S)     0.74150
   342    H   28  S      Ryd( 2S)     0.00121

   343    H   29  S      Val( 1S)     0.74102
   344    H   29  S      Ryd( 2S)     0.00107

   345    H   30  S      Val( 1S)     0.77653
   346    H   30  S      Ryd( 2S)     0.00091

   347    H   31  S      Val( 1S)     0.77092
   348    H   31  S      Ryd( 2S)     0.00105

   349    H   32  S      Val( 1S)     0.77746
   350    H   32  S      Ryd( 2S)     0.00142

   351    H   33  S      Val( 1S)     0.77513
   352    H   33  S      Ryd( 2S)     0.00107

   353    H   34  S      Val( 1S)     0.75516
   354    H   34  S      Ryd( 2S)     0.00093

   355    H   35  S      Val( 1S)     0.76316
   356    H   35  S      Ryd( 2S)     0.00140

   357    H   36  S      Val( 1S)     0.74282
   358    H   36  S      Ryd( 2S)     0.00092

   359    H   37  S      Val( 1S)     0.74478
   360    H   37  S      Ryd( 2S)     0.00098

   361    H   38  S      Val( 1S)     0.74290
   362    H   38  S      Ryd( 2S)     0.00090

 WARNING:  1 low occupancy (<1.9990e) core orbital  found on  C    3
           1 low occupancy (<1.9990e) core orbital  found on  C   17
           1 low occupancy (<1.9990e) core orbital  found on  C   18


 Summary of Natural Population Analysis:                  
                                                          
                                       Natural Population 
                Natural  -----------------------------------------------
    Atom  No    Charge         Core      Valence    Rydberg      Total
 -----------------------------------------------------------------------
      C    1   -0.32559      1.99942     4.31196    0.01421     6.32559
      O    2   -0.47082      1.99975     6.45936    0.01171     8.47082
      C    3    0.35644      1.99879     3.62315    0.02162     5.64356
      C    4   -0.29670      1.99903     4.28544    0.01223     6.29670
      C    5   -0.18425      1.99906     4.17133    0.01386     6.18425
      C    6    0.03075      1.99901     3.95463    0.01561     5.96925
      C    7   -0.19431      1.99906     4.18228    0.01297     6.19431
      C    8   -0.24549      1.99904     4.23192    0.01453     6.24549
      C    9   -0.07417      1.99901     4.05944    0.01573     6.07417
      C   10   -0.26209      1.99907     4.24886    0.01416     6.26209
      C   11   -0.26005      1.99906     4.24540    0.01559     6.26005
      C   12   -0.01185      1.99902     3.99805    0.01477     6.01185
      C   13   -0.04697      1.99902     4.03303    0.01491     6.04697
      C   14   -0.22490      1.99901     4.21172    0.01418     6.22490
      C   15   -0.25954      1.99907     4.24538    0.01509     6.25954
      C   16   -0.29474      1.99901     4.28115    0.01458     6.29474
      C   17    0.32050      1.99870     3.65862    0.02218     5.67950
      C   18   -0.31450      1.99896     4.30023    0.01531     6.31450
      O   19   -0.54224      1.99970     6.53119    0.01134     8.54224
      C   20    0.82179      1.99945     3.13533    0.04344     5.17821
      O   21   -0.57684      1.99978     6.55705    0.02001     8.57684
      C   22   -0.77415      1.99934     4.76818    0.00664     6.77415
      H   23    0.23921      0.00000     0.76034    0.00045     0.76079
      H   24    0.21484      0.00000     0.78361    0.00155     0.78516
      H   25    0.21478      0.00000     0.78371    0.00151     0.78522
      H   26    0.24842      0.00000     0.75076    0.00082     0.75158
      H   27    0.25573      0.00000     0.74301    0.00126     0.74427
      H   28    0.25729      0.00000     0.74150    0.00121     0.74271
      H   29    0.25791      0.00000     0.74102    0.00107     0.74209
      H   30    0.22256      0.00000     0.77653    0.00091     0.77744
      H   31    0.22804      0.00000     0.77092    0.00105     0.77196
      H   32    0.22112      0.00000     0.77746    0.00142     0.77888
      H   33    0.22379      0.00000     0.77513    0.00107     0.77621
      H   34    0.24391      0.00000     0.75516    0.00093     0.75609
      H   35    0.23544      0.00000     0.76316    0.00140     0.76456
      H   36    0.25626      0.00000     0.74282    0.00092     0.74374
      H   37    0.25424      0.00000     0.74478    0.00098     0.74576
      H   38    0.25620      0.00000     0.74290    0.00090     0.74380
 =======================================================================
   * Total *   -0.00000     43.98137   109.64651    0.37212   154.00000

                                 Natural Population      
 --------------------------------------------------------
   Core                      43.98137 ( 99.9577% of  44)
   Valence                  109.64651 ( 99.6786% of 110)
   Natural Minimal Basis    153.62788 ( 99.7584% of 154)
   Natural Rydberg Basis      0.37212 (  0.2416% of 154)
 --------------------------------------------------------

    Atom  No          Natural Electron Configuration
 ----------------------------------------------------------------------------
      C    1      [core]2S( 1.10)2p( 3.21)3p( 0.01)3d( 0.01)
      O    2      [core]2S( 1.59)2p( 4.86)3p( 0.01)3d( 0.01)
      C    3      [core]2S( 0.84)2p( 2.78)3p( 0.01)3d( 0.01)
      C    4      [core]2S( 0.96)2p( 3.32)3p( 0.01)
      C    5      [core]2S( 0.96)2p( 3.21)3p( 0.01)
      C    6      [core]2S( 0.88)2p( 3.07)3p( 0.01)
      C    7      [core]2S( 0.96)2p( 3.22)3p( 0.01)
      C    8      [core]2S( 0.97)2p( 3.26)3p( 0.01)
      C    9      [core]2S( 0.87)2p( 3.19)3p( 0.01)
      C   10      [core]2S( 0.94)2p( 3.31)3p( 0.01)
      C   11      [core]2S( 0.94)2p( 3.31)3p( 0.01)
      C   12      [core]2S( 0.87)2p( 3.13)3p( 0.01)
      C   13      [core]2S( 0.87)2p( 3.17)3p( 0.01)
      C   14      [core]2S( 0.93)2p( 3.28)3p( 0.01)
      C   15      [core]2S( 0.94)2p( 3.31)3p( 0.01)
      C   16      [core]2S( 0.96)2p( 3.33)3p( 0.01)
      C   17      [core]2S( 0.84)2p( 2.82)3p( 0.01)3d( 0.01)
      C   18      [core]2S( 0.94)2p( 3.36)3p( 0.01)
      O   19      [core]2S( 1.60)2p( 4.93)3d( 0.01)
      C   20      [core]2S( 0.79)2p( 2.35)3p( 0.03)3d( 0.01)
      O   21      [core]2S( 1.70)2p( 4.86)3d( 0.02)
      C   22      [core]2S( 1.14)2p( 3.63)
      H   23            1S( 0.76)
      H   24            1S( 0.78)
      H   25            1S( 0.78)
      H   26            1S( 0.75)
      H   27            1S( 0.74)
      H   28            1S( 0.74)
      H   29            1S( 0.74)
      H   30            1S( 0.78)
      H   31            1S( 0.77)
      H   32            1S( 0.78)
      H   33            1S( 0.78)
      H   34            1S( 0.76)
      H   35            1S( 0.76)
      H   36            1S( 0.74)
      H   37            1S( 0.74)
      H   38            1S( 0.74)


 NBO analysis skipped by request.
 Leave Link  607 at Wed Sep 29 15:13:18 2021, MaxMem= 1610612736 cpu:      27.1
 (Enter /sw/target/amd/app/gaussian/Gaussian09RevA.02_gcc-4.9.2/g09/l9999.exe)
 1\1\GINC-HERMITE\SP\RTD-B3LYP-FC\6-31G(d)\C19H16O3\JSCHLEINITZ\29-Sep-
 2021\0\\#p TD(NStates=10, Root=1) b3lyp/6-31G* volume pop=NPA density=
 current Geom=AllCheck Guess=Read\\COc1ccc(cc1)c1ccc2c(c1)ccc(c2)OC(=O)
 C_conf_0\\0,1\C,0,1.68267255,0.0038676282,0.4674852964\O,0,2.620465903
 1,1.047732422,0.6753971874\C,0,3.1075361729,1.7049261996,-0.4170958599
 \C,0,2.742083301,1.4355360374,-1.7409632208\C,0,3.3078852575,2.1776552
 683,-2.7789803947\C,0,4.2435087658,3.1933360403,-2.5389802536\C,0,4.59
 25332457,3.4476405751,-1.1982411627\C,0,4.0391905921,2.7201363158,-0.1
 545698777\C,0,4.8437808148,3.969150295,-3.651391958\C,0,5.1201677566,5
 .3601916177,-3.4964980448\C,0,5.6740438355,6.0991205236,-4.5140967511\
 C,0,5.9902986286,5.5020670062,-5.7634708611\C,0,5.7195473024,4.1066743
 915,-5.9370067835\C,0,5.1520719346,3.3740088186,-4.8643519624\C,0,6.04
 45324906,3.5007524819,-7.1816403371\C,0,6.5991436127,4.2262071472,-8.2
 097917041\C,0,6.8482386539,5.6069891981,-8.0235873835\C,0,6.5583075039
 ,6.2349783378,-6.8366325751\O,0,7.4897123047,6.3706199822,-9.003255851
 6\C,0,7.0216264708,6.3762499617,-10.2919909693\O,0,6.0579980531,5.7571
 790761,-10.6689955802\C,0,7.8919454314,7.2701345023,-11.1415866746\H,0
 ,1.4387953277,-0.3814859779,1.4591989499\H,0,2.107410087,-0.8052165882
 ,-0.1415004928\H,0,0.7667420635,0.3729893041,-0.012819207\H,0,2.014618
 2425,0.6665683195,-1.9749494436\H,0,2.9903245667,1.975214389,-3.798074
 2288\H,0,5.3311669362,4.2118393691,-0.9727766495\H,0,4.3198076554,2.91
 26376132,0.876329898\H,0,4.8603436379,5.8469780005,-2.5608568438\H,0,5
 .8658475054,7.1605768859,-4.3758418583\H,0,4.9824787948,2.3088515249,-
 5.0012200599\H,0,5.8468658267,2.4401012777,-7.3153440756\H,0,6.8382448
 171,3.75875633,-9.1569996683\H,0,6.7727770522,7.2936413722,-6.72368461
 5\H,0,7.8812509451,8.2911728372,-10.7462551122\H,0,7.5228662226,7.2649
 826082,-12.1675322431\H,0,8.9294629544,6.9213753736,-11.1146682628\\Ve
 rsion=AM64L-G09RevA.02\State=1-A\HF=-959.34964\RMSD=9.903e-10\Dipole=-
 1.3339819,-1.7858718,3.0479735\Quadrupole=-3.6902416,4.5605225,-0.8702
 809,15.3967365,-17.1809074,-14.7342534\PG=C01 [X(C19H16O3)]\\@


 SUCCESS IS NEVER CERTAIN,
 FAILURE IS NEVER FINAL.
 Job cpu time:  0 days  7 hours 25 minutes 15.3 seconds.
 File lengths (MBytes):  RWF=    421 Int=      0 D2E=      0 Chk=     58 Scr=      1
 Normal termination of Gaussian 09 at Wed Sep 29 15:13:24 2021.
