 Entering Gaussian System, Link 0=g09
 Input=C20H18O4_5bd6_conf_0.com
 Output=C20H18O4_5bd6_conf_0.log
 Initial command:
 /sw/target/amd/app/gaussian/Gaussian09RevA.02_gcc-4.9.2/g09/l1.exe /home/jschleinitz/gaussian/Gau-743303.inp -scrdir=/home/jschleinitz/gaussian/
 Entering Link 1 = /sw/target/amd/app/gaussian/Gaussian09RevA.02_gcc-4.9.2/g09/l1.exe PID=    743305.
  
 Copyright (c) 1988,1990,1992,1993,1995,1998,2003,2009, Gaussian, Inc.
                  All Rights Reserved.
  
 This is part of the Gaussian(R) 09 program.  It is based on
 the Gaussian(R) 03 system (copyright 2003, Gaussian, Inc.),
 the Gaussian(R) 98 system (copyright 1998, Gaussian, Inc.),
 the Gaussian(R) 94 system (copyright 1995, Gaussian, Inc.),
 the Gaussian 92(TM) system (copyright 1992, Gaussian, Inc.),
 the Gaussian 90(TM) system (copyright 1990, Gaussian, Inc.),
 the Gaussian 88(TM) system (copyright 1988, Gaussian, Inc.),
 the Gaussian 86(TM) system (copyright 1986, Carnegie Mellon
 University), and the Gaussian 82(TM) system (copyright 1983,
 Carnegie Mellon University). Gaussian is a federally registered
 trademark of Gaussian, Inc.
  
 This software contains proprietary and confidential information,
 including trade secrets, belonging to Gaussian, Inc.
  
 This software is provided under written license and may be
 used, copied, transmitted, or stored only in accord with that
 written license.
  
 The following legend is applicable only to US Government
 contracts under FAR:
  
                    RESTRICTED RIGHTS LEGEND
  
 Use, reproduction and disclosure by the US Government is
 subject to restrictions as set forth in subparagraphs (a)
 and (c) of the Commercial Computer Software - Restricted
 Rights clause in FAR 52.227-19.
  
 Gaussian, Inc.
 340 Quinnipiac St., Bldg. 40, Wallingford CT 06492
  
  
 ---------------------------------------------------------------
 Warning -- This program may not be used in any manner that
 competes with the business of Gaussian, Inc. or will provide
 assistance to any competitor of Gaussian, Inc.  The licensee
 of this program is prohibited from giving any competitor of
 Gaussian, Inc. access to this program.  By using this program,
 the user acknowledges that Gaussian, Inc. is engaged in the
 business of creating and licensing software in the field of
 computational chemistry and represents and warrants to the
 licensee that it is not a competitor of Gaussian, Inc. and that
 it will not use this program in any manner prohibited above.
 ---------------------------------------------------------------
  

 Cite this work as:
 Gaussian 09, Revision A.02,
 M. J. Frisch, G. W. Trucks, H. B. Schlegel, G. E. Scuseria, 
 M. A. Robb, J. R. Cheeseman, G. Scalmani, V. Barone, B. Mennucci, 
 G. A. Petersson, H. Nakatsuji, M. Caricato, X. Li, H. P. Hratchian, 
 A. F. Izmaylov, J. Bloino, G. Zheng, J. L. Sonnenberg, M. Hada, 
 M. Ehara, K. Toyota, R. Fukuda, J. Hasegawa, M. Ishida, T. Nakajima, 
 Y. Honda, O. Kitao, H. Nakai, T. Vreven, J. A. Montgomery, Jr., 
 J. E. Peralta, F. Ogliaro, M. Bearpark, J. J. Heyd, E. Brothers, 
 K. N. Kudin, V. N. Staroverov, R. Kobayashi, J. Normand, 
 K. Raghavachari, A. Rendell, J. C. Burant, S. S. Iyengar, J. Tomasi, 
 M. Cossi, N. Rega, J. M. Millam, M. Klene, J. E. Knox, J. B. Cross, 
 V. Bakken, C. Adamo, J. Jaramillo, R. Gomperts, R. E. Stratmann, 
 O. Yazyev, A. J. Austin, R. Cammi, C. Pomelli, J. W. Ochterski, 
 R. L. Martin, K. Morokuma, V. G. Zakrzewski, G. A. Voth, 
 P. Salvador, J. J. Dannenberg, S. Dapprich, A. D. Daniels, 
 O. Farkas, J. B. Foresman, J. V. Ortiz, J. Cioslowski, 
 and D. J. Fox, Gaussian, Inc., Wallingford CT, 2009.
 
 ******************************************
 Gaussian 09:  AM64L-G09RevA.02 11-Jun-2009
                29-Sep-2021 
 ******************************************
 %nproc=7
 Will use up to    7 processors via shared memory.
 %mem=14gb
 %chk=C20H18O4_5bd6_conf_0.chk
 -----------------------------------
 #p opt b3lyp/6-31G* scf=(xqc,tight)
 -----------------------------------
 1/14=-1,18=20,19=15,26=3,38=1/1,3;
 2/9=110,12=2,17=6,18=5,40=1/2;
 3/5=1,6=6,7=1,11=2,16=1,25=1,30=1,71=1,74=-5/1,2,3;
 4//1;
 5/5=2,8=3,13=1,32=2,38=5/2,8;
 6/7=2,8=2,9=2,10=2,28=1/1;
 7//1,2,3,16;
 1/14=-1,18=20,19=15/3(2);
 2/9=110/2;
 99//99;
 2/9=110/2;
 3/5=1,6=6,7=1,11=2,16=1,25=1,30=1,71=1,74=-5/1,2,3;
 4/5=5,16=3/1;
 5/5=2,8=3,13=1,32=2,38=5/2,8;
 7//1,2,3,16;
 1/14=-1,18=20,19=15/3(-5);
 2/9=110/2;
 6/7=2,8=2,9=2,10=2,19=2,28=1/1;
 99/9=1/99;
 Leave Link    1 at Wed Sep 29 02:49:38 2021, MaxMem= 1879048192 cpu:       0.1
 (Enter /sw/target/amd/app/gaussian/Gaussian09RevA.02_gcc-4.9.2/g09/l101.exe)
 -------------------------------------------------
 O=C(C(C)(C)C)Oc1ccc2c(c1)oc(cc2=O)c1ccccc1_conf_0
 -------------------------------------------------
 Symbolic Z-matrix:
 Charge =  0 Multiplicity = 1
 O                     2.97791  -0.05926  -1.48876 
 C                     2.65019   0.96144  -0.89409 
 C                     1.20125   1.38588  -0.64113 
 C                     0.78174   0.77373   0.70125 
 C                     1.05082   2.91393  -0.59733 
 C                     0.30997   0.83591  -1.76443 
 O                     3.51966   1.84818  -0.25451 
 C                     4.90754   1.62655  -0.16483 
 C                     5.65417   0.99525  -1.15821 
 C                     7.023     0.80972  -0.96678 
 C                     7.63034   1.28663   0.20036 
 C                     6.88582   1.95174   1.17158 
 C                     5.51603   2.12554   0.99072 
 O                     7.44109   2.45609   2.32108 
 C                     8.81293   2.33301   2.50353 
 C                     9.62668   1.7139    1.63426 
 C                     9.06865   1.10601   0.41819 
 O                     9.78163   0.49182  -0.36355 
 C                     9.3322    2.97297   3.73475 
 C                     8.68563   4.09421   4.27918 
 C                     9.1754    4.71924   5.43033 
 C                     10.31834   4.23103   6.05801 
 C                     10.96503   3.11187   5.54331 
 C                     10.47124   2.48368   4.39728 
 H                     1.35709   1.20388   1.52937 
 H                     0.96013  -0.30821   0.71535 
 H                    -0.28073   0.94363   0.90386 
 H                     1.61463   3.35545   0.23271 
 H                     0.00318   3.20589  -0.46591 
 H                     1.41876   3.3723   -1.52242 
 H                     0.32944  -0.25969  -1.79183 
 H                     0.64504   1.19337  -2.74494 
 H                    -0.73291   1.14463  -1.63065 
 H                     5.19654   0.63721  -2.07587 
 H                     7.61354   0.29729  -1.72363 
 H                     4.92441   2.63887   1.7435 
 H                     10.698    1.63052   1.75157 
 H                     7.79547   4.50386   3.8056 
 H                     8.66533   5.59036   5.83347 
 H                     10.70311   4.71961   6.94925 
 H                     11.85476   2.72304   6.03215 
 H                     10.99283   1.6007    4.03584 
 
 NAtoms=     42 NQM=     42 NQMF=      0 NMic=      0 NMicF=      0 NTot=     42.
                    Isotopes and Nuclear Properties:
 (Nuclear quadrupole moments (NQMom) in fm**2, nuclear magnetic moments (NMagM)
  in nuclear magnetons)

  Atom         1           2           3           4           5           6           7           8           9          10
 IAtWgt=          16          12          12          12          12          12          16          12          12          12
 AtmWgt=  15.9949146  12.0000000  12.0000000  12.0000000  12.0000000  12.0000000  15.9949146  12.0000000  12.0000000  12.0000000
 NucSpn=           0           0           0           0           0           0           0           0           0           0
 AtZEff=   0.0000000   0.0000000   0.0000000   0.0000000   0.0000000   0.0000000   0.0000000   0.0000000   0.0000000   0.0000000
 NQMom=    0.0000000   0.0000000   0.0000000   0.0000000   0.0000000   0.0000000   0.0000000   0.0000000   0.0000000   0.0000000
 NMagM=    0.0000000   0.0000000   0.0000000   0.0000000   0.0000000   0.0000000   0.0000000   0.0000000   0.0000000   0.0000000

  Atom        11          12          13          14          15          16          17          18          19          20
 IAtWgt=          12          12          12          16          12          12          12          16          12          12
 AtmWgt=  12.0000000  12.0000000  12.0000000  15.9949146  12.0000000  12.0000000  12.0000000  15.9949146  12.0000000  12.0000000
 NucSpn=           0           0           0           0           0           0           0           0           0           0
 AtZEff=   0.0000000   0.0000000   0.0000000   0.0000000   0.0000000   0.0000000   0.0000000   0.0000000   0.0000000   0.0000000
 NQMom=    0.0000000   0.0000000   0.0000000   0.0000000   0.0000000   0.0000000   0.0000000   0.0000000   0.0000000   0.0000000
 NMagM=    0.0000000   0.0000000   0.0000000   0.0000000   0.0000000   0.0000000   0.0000000   0.0000000   0.0000000   0.0000000

  Atom        21          22          23          24          25          26          27          28          29          30
 IAtWgt=          12          12          12          12           1           1           1           1           1           1
 AtmWgt=  12.0000000  12.0000000  12.0000000  12.0000000   1.0078250   1.0078250   1.0078250   1.0078250   1.0078250   1.0078250
 NucSpn=           0           0           0           0           1           1           1           1           1           1
 AtZEff=   0.0000000   0.0000000   0.0000000   0.0000000   0.0000000   0.0000000   0.0000000   0.0000000   0.0000000   0.0000000
 NQMom=    0.0000000   0.0000000   0.0000000   0.0000000   0.0000000   0.0000000   0.0000000   0.0000000   0.0000000   0.0000000
 NMagM=    0.0000000   0.0000000   0.0000000   0.0000000   2.7928460   2.7928460   2.7928460   2.7928460   2.7928460   2.7928460

  Atom        31          32          33          34          35          36          37          38          39          40
 IAtWgt=           1           1           1           1           1           1           1           1           1           1
 AtmWgt=   1.0078250   1.0078250   1.0078250   1.0078250   1.0078250   1.0078250   1.0078250   1.0078250   1.0078250   1.0078250
 NucSpn=           1           1           1           1           1           1           1           1           1           1
 AtZEff=   0.0000000   0.0000000   0.0000000   0.0000000   0.0000000   0.0000000   0.0000000   0.0000000   0.0000000   0.0000000
 NQMom=    0.0000000   0.0000000   0.0000000   0.0000000   0.0000000   0.0000000   0.0000000   0.0000000   0.0000000   0.0000000
 NMagM=    2.7928460   2.7928460   2.7928460   2.7928460   2.7928460   2.7928460   2.7928460   2.7928460   2.7928460   2.7928460

  Atom        41          42
 IAtWgt=           1           1
 AtmWgt=   1.0078250   1.0078250
 NucSpn=           1           1
 AtZEff=   0.0000000   0.0000000
 NQMom=    0.0000000   0.0000000
 NMagM=    2.7928460   2.7928460
 Leave Link  101 at Wed Sep 29 02:49:39 2021, MaxMem= 1879048192 cpu:       0.2
 (Enter /sw/target/amd/app/gaussian/Gaussian09RevA.02_gcc-4.9.2/g09/l103.exe)

 GradGradGradGradGradGradGradGradGradGradGradGradGradGradGradGradGradGrad
 Berny optimization.
 Initialization pass.
                           ----------------------------
                           !    Initial Parameters    !
                           ! (Angstroms and Degrees)  !
 --------------------------                            --------------------------
 ! Name  Definition              Value          Derivative Info.                !
 --------------------------------------------------------------------------------
 ! R1    R(1,2)                  1.2259         estimate D2E/DX2                !
 ! R2    R(2,3)                  1.5309         estimate D2E/DX2                !
 ! R3    R(2,7)                  1.3969         estimate D2E/DX2                !
 ! R4    R(3,4)                  1.5338         estimate D2E/DX2                !
 ! R5    R(3,5)                  1.5361         estimate D2E/DX2                !
 ! R6    R(3,6)                  1.5358         estimate D2E/DX2                !
 ! R7    R(4,25)                 1.0963         estimate D2E/DX2                !
 ! R8    R(4,26)                 1.0966         estimate D2E/DX2                !
 ! R9    R(4,27)                 1.0949         estimate D2E/DX2                !
 ! R10   R(5,28)                 1.0963         estimate D2E/DX2                !
 ! R11   R(5,29)                 1.0955         estimate D2E/DX2                !
 ! R12   R(5,30)                 1.096          estimate D2E/DX2                !
 ! R13   R(6,31)                 1.0961         estimate D2E/DX2                !
 ! R14   R(6,32)                 1.0961         estimate D2E/DX2                !
 ! R15   R(6,33)                 1.0958         estimate D2E/DX2                !
 ! R16   R(7,8)                  1.4083         estimate D2E/DX2                !
 ! R17   R(8,9)                  1.3938         estimate D2E/DX2                !
 ! R18   R(8,13)                 1.398          estimate D2E/DX2                !
 ! R19   R(9,10)                 1.3946         estimate D2E/DX2                !
 ! R20   R(9,34)                 1.0861         estimate D2E/DX2                !
 ! R21   R(10,11)                1.3995         estimate D2E/DX2                !
 ! R22   R(10,35)                1.0882         estimate D2E/DX2                !
 ! R23   R(11,12)                1.3928         estimate D2E/DX2                !
 ! R24   R(11,17)                1.4659         estimate D2E/DX2                !
 ! R25   R(12,13)                1.3926         estimate D2E/DX2                !
 ! R26   R(12,14)                1.3726         estimate D2E/DX2                !
 ! R27   R(13,36)                1.0864         estimate D2E/DX2                !
 ! R28   R(14,15)                1.3894         estimate D2E/DX2                !
 ! R29   R(15,16)                1.3421         estimate D2E/DX2                !
 ! R30   R(15,19)                1.4816         estimate D2E/DX2                !
 ! R31   R(16,17)                1.4696         estimate D2E/DX2                !
 ! R32   R(16,37)                1.0809         estimate D2E/DX2                !
 ! R33   R(17,18)                1.2234         estimate D2E/DX2                !
 ! R34   R(19,20)                1.4041         estimate D2E/DX2                !
 ! R35   R(19,24)                1.4056         estimate D2E/DX2                !
 ! R36   R(20,21)                1.3985         estimate D2E/DX2                !
 ! R37   R(20,38)                1.0883         estimate D2E/DX2                !
 ! R38   R(21,22)                1.3924         estimate D2E/DX2                !
 ! R39   R(21,39)                1.087          estimate D2E/DX2                !
 ! R40   R(22,23)                1.3913         estimate D2E/DX2                !
 ! R41   R(22,40)                1.0868         estimate D2E/DX2                !
 ! R42   R(23,24)                1.3971         estimate D2E/DX2                !
 ! R43   R(23,41)                1.0871         estimate D2E/DX2                !
 ! R44   R(24,42)                1.0874         estimate D2E/DX2                !
 ! A1    A(1,2,3)              124.3341         estimate D2E/DX2                !
 ! A2    A(1,2,7)              125.7488         estimate D2E/DX2                !
 ! A3    A(3,2,7)              109.7223         estimate D2E/DX2                !
 ! A4    A(2,3,4)              107.0268         estimate D2E/DX2                !
 ! A5    A(2,3,5)              111.9139         estimate D2E/DX2                !
 ! A6    A(2,3,6)              109.2165         estimate D2E/DX2                !
 ! A7    A(4,3,5)              110.1984         estimate D2E/DX2                !
 ! A8    A(4,3,6)              109.784          estimate D2E/DX2                !
 ! A9    A(5,3,6)              108.6785         estimate D2E/DX2                !
 ! A10   A(3,4,25)             111.1596         estimate D2E/DX2                !
 ! A11   A(3,4,26)             111.1317         estimate D2E/DX2                !
 ! A12   A(3,4,27)             111.434          estimate D2E/DX2                !
 ! A13   A(25,4,26)            106.9792         estimate D2E/DX2                !
 ! A14   A(25,4,27)            107.9753         estimate D2E/DX2                !
 ! A15   A(26,4,27)            107.9726         estimate D2E/DX2                !
 ! A16   A(3,5,28)             111.8315         estimate D2E/DX2                !
 ! A17   A(3,5,29)             111.2353         estimate D2E/DX2                !
 ! A18   A(3,5,30)             111.0438         estimate D2E/DX2                !
 ! A19   A(28,5,29)            107.0782         estimate D2E/DX2                !
 ! A20   A(28,5,30)            107.3362         estimate D2E/DX2                !
 ! A21   A(29,5,30)            108.1101         estimate D2E/DX2                !
 ! A22   A(3,6,31)             111.4632         estimate D2E/DX2                !
 ! A23   A(3,6,32)             111.1059         estimate D2E/DX2                !
 ! A24   A(3,6,33)             111.2309         estimate D2E/DX2                !
 ! A25   A(31,6,32)            107.3479         estimate D2E/DX2                !
 ! A26   A(31,6,33)            107.5508         estimate D2E/DX2                !
 ! A27   A(32,6,33)            107.9545         estimate D2E/DX2                !
 ! A28   A(2,7,8)              122.8642         estimate D2E/DX2                !
 ! A29   A(7,8,9)              123.6267         estimate D2E/DX2                !
 ! A30   A(7,8,13)             115.175          estimate D2E/DX2                !
 ! A31   A(9,8,13)             121.1706         estimate D2E/DX2                !
 ! A32   A(8,9,10)             119.2226         estimate D2E/DX2                !
 ! A33   A(8,9,34)             121.7186         estimate D2E/DX2                !
 ! A34   A(10,9,34)            119.0574         estimate D2E/DX2                !
 ! A35   A(9,10,11)            119.6776         estimate D2E/DX2                !
 ! A36   A(9,10,35)            119.9897         estimate D2E/DX2                !
 ! A37   A(11,10,35)           120.3326         estimate D2E/DX2                !
 ! A38   A(10,11,12)           120.8171         estimate D2E/DX2                !
 ! A39   A(10,11,17)           120.5143         estimate D2E/DX2                !
 ! A40   A(12,11,17)           118.6662         estimate D2E/DX2                !
 ! A41   A(11,12,13)           119.6585         estimate D2E/DX2                !
 ! A42   A(11,12,14)           122.9009         estimate D2E/DX2                !
 ! A43   A(13,12,14)           117.4406         estimate D2E/DX2                !
 ! A44   A(8,13,12)            119.4015         estimate D2E/DX2                !
 ! A45   A(8,13,36)            120.2895         estimate D2E/DX2                !
 ! A46   A(12,13,36)           120.308          estimate D2E/DX2                !
 ! A47   A(12,14,15)           118.4796         estimate D2E/DX2                !
 ! A48   A(14,15,16)           123.6771         estimate D2E/DX2                !
 ! A49   A(14,15,19)           114.64           estimate D2E/DX2                !
 ! A50   A(16,15,19)           121.6684         estimate D2E/DX2                !
 ! A51   A(15,16,17)           119.7715         estimate D2E/DX2                !
 ! A52   A(15,16,37)           124.4889         estimate D2E/DX2                !
 ! A53   A(17,16,37)           115.7361         estimate D2E/DX2                !
 ! A54   A(11,17,16)           116.3957         estimate D2E/DX2                !
 ! A55   A(11,17,18)           122.5974         estimate D2E/DX2                !
 ! A56   A(16,17,18)           121.0057         estimate D2E/DX2                !
 ! A57   A(15,19,20)           120.3805         estimate D2E/DX2                !
 ! A58   A(15,19,24)           121.6918         estimate D2E/DX2                !
 ! A59   A(20,19,24)           117.9269         estimate D2E/DX2                !
 ! A60   A(19,20,21)           120.9837         estimate D2E/DX2                !
 ! A61   A(19,20,38)           120.562          estimate D2E/DX2                !
 ! A62   A(21,20,38)           118.4506         estimate D2E/DX2                !
 ! A63   A(20,21,22)           120.1221         estimate D2E/DX2                !
 ! A64   A(20,21,39)           119.9429         estimate D2E/DX2                !
 ! A65   A(22,21,39)           119.9345         estimate D2E/DX2                !
 ! A66   A(21,22,23)           119.7915         estimate D2E/DX2                !
 ! A67   A(21,22,40)           120.1778         estimate D2E/DX2                !
 ! A68   A(23,22,40)           120.0304         estimate D2E/DX2                !
 ! A69   A(22,23,24)           120.0583         estimate D2E/DX2                !
 ! A70   A(22,23,41)           120.1188         estimate D2E/DX2                !
 ! A71   A(24,23,41)           119.8229         estimate D2E/DX2                !
 ! A72   A(19,24,23)           121.1006         estimate D2E/DX2                !
 ! A73   A(19,24,42)           120.9778         estimate D2E/DX2                !
 ! A74   A(23,24,42)           117.921          estimate D2E/DX2                !
 ! D1    D(1,2,3,4)             90.0145         estimate D2E/DX2                !
 ! D2    D(1,2,3,5)           -149.1605         estimate D2E/DX2                !
 ! D3    D(1,2,3,6)            -28.7769         estimate D2E/DX2                !
 ! D4    D(7,2,3,4)            -85.1601         estimate D2E/DX2                !
 ! D5    D(7,2,3,5)             35.6649         estimate D2E/DX2                !
 ! D6    D(7,2,3,6)            156.0485         estimate D2E/DX2                !
 ! D7    D(1,2,7,8)             -3.2256         estimate D2E/DX2                !
 ! D8    D(3,2,7,8)            171.8645         estimate D2E/DX2                !
 ! D9    D(2,3,4,25)            65.5678         estimate D2E/DX2                !
 ! D10   D(2,3,4,26)           -53.4653         estimate D2E/DX2                !
 ! D11   D(2,3,4,27)          -173.9375         estimate D2E/DX2                !
 ! D12   D(5,3,4,25)           -56.3406         estimate D2E/DX2                !
 ! D13   D(5,3,4,26)          -175.3737         estimate D2E/DX2                !
 ! D14   D(5,3,4,27)            64.1541         estimate D2E/DX2                !
 ! D15   D(6,3,4,25)          -176.0093         estimate D2E/DX2                !
 ! D16   D(6,3,4,26)            64.9577         estimate D2E/DX2                !
 ! D17   D(6,3,4,27)           -55.5146         estimate D2E/DX2                !
 ! D18   D(2,3,5,28)           -63.1632         estimate D2E/DX2                !
 ! D19   D(2,3,5,29)           177.1616         estimate D2E/DX2                !
 ! D20   D(2,3,5,30)            56.7092         estimate D2E/DX2                !
 ! D21   D(4,3,5,28)            55.8035         estimate D2E/DX2                !
 ! D22   D(4,3,5,29)           -63.8716         estimate D2E/DX2                !
 ! D23   D(4,3,5,30)           175.676          estimate D2E/DX2                !
 ! D24   D(6,3,5,28)           176.1401         estimate D2E/DX2                !
 ! D25   D(6,3,5,29)            56.4649         estimate D2E/DX2                !
 ! D26   D(6,3,5,30)           -63.9875         estimate D2E/DX2                !
 ! D27   D(2,3,6,31)            61.5611         estimate D2E/DX2                !
 ! D28   D(2,3,6,32)           -58.1211         estimate D2E/DX2                !
 ! D29   D(2,3,6,33)          -178.4153         estimate D2E/DX2                !
 ! D30   D(4,3,6,31)           -55.4992         estimate D2E/DX2                !
 ! D31   D(4,3,6,32)          -175.1814         estimate D2E/DX2                !
 ! D32   D(4,3,6,33)            64.5244         estimate D2E/DX2                !
 ! D33   D(5,3,6,31)          -176.092          estimate D2E/DX2                !
 ! D34   D(5,3,6,32)            64.2258         estimate D2E/DX2                !
 ! D35   D(5,3,6,33)           -56.0684         estimate D2E/DX2                !
 ! D36   D(2,7,8,9)             33.8406         estimate D2E/DX2                !
 ! D37   D(2,7,8,13)          -148.058          estimate D2E/DX2                !
 ! D38   D(7,8,9,10)          -179.2683         estimate D2E/DX2                !
 ! D39   D(7,8,9,34)             0.3001         estimate D2E/DX2                !
 ! D40   D(13,8,9,10)            2.74           estimate D2E/DX2                !
 ! D41   D(13,8,9,34)         -177.6916         estimate D2E/DX2                !
 ! D42   D(7,8,13,12)          179.8203         estimate D2E/DX2                !
 ! D43   D(7,8,13,36)            0.1908         estimate D2E/DX2                !
 ! D44   D(9,8,13,12)           -2.0274         estimate D2E/DX2                !
 ! D45   D(9,8,13,36)          178.3432         estimate D2E/DX2                !
 ! D46   D(8,9,10,11)           -1.5299         estimate D2E/DX2                !
 ! D47   D(8,9,10,35)          178.5434         estimate D2E/DX2                !
 ! D48   D(34,9,10,11)         178.89           estimate D2E/DX2                !
 ! D49   D(34,9,10,35)          -1.0366         estimate D2E/DX2                !
 ! D50   D(9,10,11,12)          -0.3568         estimate D2E/DX2                !
 ! D51   D(9,10,11,17)        -179.774          estimate D2E/DX2                !
 ! D52   D(35,10,11,12)        179.5696         estimate D2E/DX2                !
 ! D53   D(35,10,11,17)          0.1524         estimate D2E/DX2                !
 ! D54   D(10,11,12,13)          1.077          estimate D2E/DX2                !
 ! D55   D(10,11,12,14)       -178.8978         estimate D2E/DX2                !
 ! D56   D(17,11,12,13)       -179.4952         estimate D2E/DX2                !
 ! D57   D(17,11,12,14)          0.5299         estimate D2E/DX2                !
 ! D58   D(10,11,17,16)        176.3499         estimate D2E/DX2                !
 ! D59   D(10,11,17,18)         -3.2552         estimate D2E/DX2                !
 ! D60   D(12,11,17,16)         -3.0797         estimate D2E/DX2                !
 ! D61   D(12,11,17,18)        177.3153         estimate D2E/DX2                !
 ! D62   D(11,12,13,8)           0.1021         estimate D2E/DX2                !
 ! D63   D(11,12,13,36)        179.7314         estimate D2E/DX2                !
 ! D64   D(14,12,13,8)        -179.9217         estimate D2E/DX2                !
 ! D65   D(14,12,13,36)         -0.2923         estimate D2E/DX2                !
 ! D66   D(11,12,14,15)          2.0253         estimate D2E/DX2                !
 ! D67   D(13,12,14,15)       -177.9501         estimate D2E/DX2                !
 ! D68   D(12,14,15,16)         -1.9201         estimate D2E/DX2                !
 ! D69   D(12,14,15,19)        176.7089         estimate D2E/DX2                !
 ! D70   D(14,15,16,17)         -0.7778         estimate D2E/DX2                !
 ! D71   D(14,15,16,37)        178.5104         estimate D2E/DX2                !
 ! D72   D(19,15,16,17)       -179.3136         estimate D2E/DX2                !
 ! D73   D(19,15,16,37)         -0.0254         estimate D2E/DX2                !
 ! D74   D(14,15,19,20)        -29.0736         estimate D2E/DX2                !
 ! D75   D(14,15,19,24)        150.6026         estimate D2E/DX2                !
 ! D76   D(16,15,19,20)        149.5859         estimate D2E/DX2                !
 ! D77   D(16,15,19,24)        -30.738          estimate D2E/DX2                !
 ! D78   D(15,16,17,11)          3.2269         estimate D2E/DX2                !
 ! D79   D(15,16,17,18)       -177.1613         estimate D2E/DX2                !
 ! D80   D(37,16,17,11)       -176.1218         estimate D2E/DX2                !
 ! D81   D(37,16,17,18)          3.49           estimate D2E/DX2                !
 ! D82   D(15,19,20,21)       -179.1165         estimate D2E/DX2                !
 ! D83   D(15,19,20,38)          0.1742         estimate D2E/DX2                !
 ! D84   D(24,19,20,21)          1.1954         estimate D2E/DX2                !
 ! D85   D(24,19,20,38)       -179.514          estimate D2E/DX2                !
 ! D86   D(15,19,24,23)        178.7806         estimate D2E/DX2                !
 ! D87   D(15,19,24,42)         -1.5211         estimate D2E/DX2                !
 ! D88   D(20,19,24,23)         -1.5356         estimate D2E/DX2                !
 ! D89   D(20,19,24,42)        178.1627         estimate D2E/DX2                !
 ! D90   D(19,20,21,22)         -0.1583         estimate D2E/DX2                !
 ! D91   D(19,20,21,39)        179.5824         estimate D2E/DX2                !
 ! D92   D(38,20,21,22)       -179.4635         estimate D2E/DX2                !
 ! D93   D(38,20,21,39)          0.2771         estimate D2E/DX2                !
 ! D94   D(20,21,22,23)         -0.5786         estimate D2E/DX2                !
 ! D95   D(20,21,22,40)        179.6362         estimate D2E/DX2                !
 ! D96   D(39,21,22,23)        179.6807         estimate D2E/DX2                !
 ! D97   D(39,21,22,40)         -0.1044         estimate D2E/DX2                !
 ! D98   D(21,22,23,24)          0.2433         estimate D2E/DX2                !
 ! D99   D(21,22,23,41)       -179.6766         estimate D2E/DX2                !
 ! D100  D(40,22,23,24)       -179.9712         estimate D2E/DX2                !
 ! D101  D(40,22,23,41)          0.1089         estimate D2E/DX2                !
 ! D102  D(22,23,24,19)          0.8376         estimate D2E/DX2                !
 ! D103  D(22,23,24,42)       -178.8697         estimate D2E/DX2                !
 ! D104  D(41,23,24,19)       -179.2423         estimate D2E/DX2                !
 ! D105  D(41,23,24,42)          1.0504         estimate D2E/DX2                !
 --------------------------------------------------------------------------------
 Trust Radius=3.00D-01 FncErr=1.00D-07 GrdErr=1.00D-06
 Number of steps in this run= 233 maximum allowed number of steps= 252.
 GradGradGradGradGradGradGradGradGradGradGradGradGradGradGradGradGradGrad

 Leave Link  103 at Wed Sep 29 02:49:39 2021, MaxMem= 1879048192 cpu:       0.0
 (Enter /sw/target/amd/app/gaussian/Gaussian09RevA.02_gcc-4.9.2/g09/l202.exe)
                          Input orientation:                          
 ---------------------------------------------------------------------
 Center     Atomic      Atomic             Coordinates (Angstroms)
 Number     Number       Type             X           Y           Z
 ---------------------------------------------------------------------
      1          8           0        2.977909   -0.059264   -1.488755
      2          6           0        2.650188    0.961439   -0.894086
      3          6           0        1.201248    1.385883   -0.641132
      4          6           0        0.781742    0.773734    0.701246
      5          6           0        1.050820    2.913930   -0.597329
      6          6           0        0.309968    0.835915   -1.764435
      7          8           0        3.519662    1.848180   -0.254507
      8          6           0        4.907545    1.626552   -0.164831
      9          6           0        5.654170    0.995251   -1.158211
     10          6           0        7.023004    0.809723   -0.966776
     11          6           0        7.630336    1.286629    0.200360
     12          6           0        6.885819    1.951744    1.171579
     13          6           0        5.516029    2.125535    0.990719
     14          8           0        7.441087    2.456088    2.321084
     15          6           0        8.812927    2.333005    2.503526
     16          6           0        9.626684    1.713900    1.634263
     17          6           0        9.068650    1.106005    0.418191
     18          8           0        9.781630    0.491816   -0.363550
     19          6           0        9.332197    2.972970    3.734746
     20          6           0        8.685634    4.094209    4.279176
     21          6           0        9.175396    4.719243    5.430335
     22          6           0       10.318340    4.231025    6.058009
     23          6           0       10.965027    3.111865    5.543314
     24          6           0       10.471240    2.483682    4.397278
     25          1           0        1.357093    1.203883    1.529374
     26          1           0        0.960126   -0.308207    0.715350
     27          1           0       -0.280731    0.943630    0.903859
     28          1           0        1.614631    3.355455    0.232711
     29          1           0        0.003178    3.205887   -0.465913
     30          1           0        1.418763    3.372297   -1.522420
     31          1           0        0.329441   -0.259686   -1.791829
     32          1           0        0.645037    1.193368   -2.744938
     33          1           0       -0.732915    1.144633   -1.630654
     34          1           0        5.196540    0.637205   -2.075868
     35          1           0        7.613542    0.297287   -1.723630
     36          1           0        4.924412    2.638874    1.743504
     37          1           0       10.697996    1.630521    1.751568
     38          1           0        7.795471    4.503863    3.805600
     39          1           0        8.665327    5.590360    5.833474
     40          1           0       10.703112    4.719608    6.949255
     41          1           0       11.854760    2.723043    6.032149
     42          1           0       10.992834    1.600703    4.035838
 ---------------------------------------------------------------------
                    Distance matrix (angstroms):
                    1          2          3          4          5
     1  O    0.000000
     2  C    1.225915   0.000000
     3  C    2.442015   1.530871   0.000000
     4  C    3.211407   2.464022   1.533848   0.000000
     5  C    3.653519   2.541312   1.536058   2.517765   0.000000
     6  C    2.827588   2.499979   1.535791   2.511178   2.495826
     7  O    2.335639   1.396909   2.395462   3.092588   2.710817
     8  C    2.884138   2.463706   3.744519   4.301120   4.088854
     9  C    2.895451   3.015761   4.499831   5.219885   5.018640
    10  C    4.170179   4.376051   5.859253   6.460413   6.342804
    11  C    5.129290   5.109347   6.484684   6.886013   6.824547
    12  C    5.137440   4.815417   5.993368   6.234474   6.172686
    13  C    4.166917   3.622244   4.671976   4.932001   4.804327
    14  O    6.384499   5.960202   6.989682   7.056987   7.040048
    15  C    7.463826   7.169680   8.289968   8.377318   8.378728
    16  C    7.556690   7.458568   8.733441   8.943569   8.942344
    17  C    6.487790   6.552833   7.943331   8.298395   8.281635
    18  O    6.918121   7.166552   8.631301   9.067041   9.063572
    19  C    8.766778   8.373863   9.369071   9.335365   9.346206
    20  C    9.115838   8.544208   9.357376   9.289706   9.135849
    21  C   10.445898   9.833500  10.562246  10.410800  10.276217
    22  C   11.368472  10.854601  11.665963  11.471463  11.485434
    23  C   11.104059  10.733172  11.685793  11.515718  11.663541
    24  C    9.862149   9.564758  10.607709  10.510516  10.671248
    25  H    3.651258   2.757541   2.183692   1.096291   2.746076
    26  H    2.998583   2.656802   2.183604   1.096638   3.480448
    27  H    4.165229   3.438490   2.186058   1.094882   2.812237
    28  H    4.059838   2.841366   2.194015   2.752910   1.096263
    29  H    4.533922   3.496790   2.185975   2.807809   1.095474
    30  H    3.769308   2.779110   2.183992   3.478939   1.096027
    31  H    2.673276   2.771815   2.189075   2.736413   3.466851
    32  H    2.930763   2.738627   2.184590   3.474329   2.781586
    33  H    3.903808   3.467201   2.185942   2.805264   2.716594
    34  H    2.398353   2.825889   4.310608   5.217417   4.955457
    35  H    4.655254   5.075837   6.593509   7.265020   7.154348
    36  H    4.638570   3.865587   4.595479   4.661197   4.534299
    37  H    8.541359   8.497903   9.796585  10.008464  10.011616
    38  H    8.488889   7.817272   8.542775   8.528966   8.209993
    39  H   10.857257  10.142429  10.738278  10.568376  10.319846
    40  H   12.398242  11.852907  12.610040  12.370979  12.384593
    41  H   11.962597  11.653331  12.641914  12.443073  12.677206
    42  H    9.875002   9.711465  10.853357  10.773569  11.046921
                    6          7          8          9         10
     6  C    0.000000
     7  O    3.688726   0.000000
     8  C    4.931689   1.408325   0.000000
     9  C    5.380836   2.469878   1.393842   0.000000
    10  C    6.760311   3.722785   2.405306   1.394552   0.000000
    11  C    7.592848   4.173714   2.768122   2.415750   1.399464
    12  C    7.287459   3.657248   2.409421   2.803526   2.428084
    13  C    6.029682   2.369176   1.398046   2.431980   2.798950
    14  O    8.376711   4.730835   3.645098   4.175238   3.700721
    15  C    9.631048   5.988360   4.782385   5.017534   4.191326
    16  C    9.956064   6.393841   5.051202   4.908690   3.789735
    17  C    9.030577   5.638671   4.233873   3.762444   2.488089
    18  O    9.580880   6.408109   5.008375   4.233303   2.841648
    19  C   10.780010   7.138968   6.049553   6.432751   5.667127
    20  C   10.830212   7.230919   6.333441   6.954027   6.408760
    21  C   12.059882   8.517497   7.686687   8.347220   7.800011
    22  C   13.148571   9.578509   8.647758   9.181424   8.480104
    23  C   13.119201   9.520772   8.454712   8.808842   7.951144
    24  C   11.997220   8.388528   7.245841   7.502203   6.592841
    25  H    3.475780   2.876465   3.956600   5.072623   6.203924
    26  H    2.807321   3.484516   4.483317   5.219510   6.390447
    27  H    2.735017   4.074679   5.341038   6.283140   7.540673
    28  H    3.469700   2.477579   3.740378   4.880892   6.096722
    29  H    2.719752   3.775410   5.161178   6.107365   7.434408
    30  H    2.778711   2.888652   4.130651   4.870490   6.187329
    31  H    1.096116   4.121162   5.211915   5.507185   6.828480
    32  H    1.096098   3.859338   5.001357   5.258171   6.632307
    33  H    1.095815   4.524729   5.847707   6.406276   7.791481
    34  H    4.900517   2.756037   2.171265   1.086148   2.143786
    35  H    7.323522   4.617732   3.393998   2.155456   1.088189
    36  H    6.070370   2.567210   2.160283   3.413795   3.885294
    37  H   10.995672   7.456554   6.099338   5.857522   4.644208
    38  H   10.025562   6.466812   5.690637   6.444761   6.084320
    39  H   12.253367   8.805980   8.112481   8.891893   8.473200
    40  H   14.107761  10.570773   9.683275  10.251519   9.565247
    41  H   14.058101  10.476702   9.373828   9.650589   8.717317
    42  H   12.179971   8.620708   7.394392   7.473022   6.435166
                   11         12         13         14         15
    11  C    0.000000
    12  C    1.392820   0.000000
    13  C    2.408054   1.392565   0.000000
    14  O    2.429181   1.372606   2.363257   0.000000
    15  C    2.792490   2.373434   3.633340   1.389381   0.000000
    16  C    2.494804   2.789801   4.181038   2.408195   1.342055
    17  C    1.465886   2.459190   3.740099   2.844764   2.433011
    18  O    2.361734   3.587998   4.764287   4.067402   3.542384
    19  C    4.269890   3.687478   4.776083   2.417003   1.481587
    20  C    5.062894   4.181705   4.973532   2.840152   2.504191
    21  C    6.443810   5.571196   6.310980   4.218665   3.793642
    22  C    7.085682   6.391755   7.291962   5.039206   4.301523
    23  C    6.557348   6.090804   7.168720   4.819851   3.805059
    24  C    5.207475   4.852148   6.023871   3.673305   2.521706
    25  H    6.413010   5.590539   4.293756   6.261773   7.603508
    26  H    6.877530   6.358409   5.172542   7.226519   8.475852
    27  H    7.949688   7.242058   5.916661   7.995157   9.337232
    28  H    6.361587   5.535097   4.160311   6.254419   7.616920
    29  H    7.893099   7.185054   5.803487   7.978223   9.337621
    30  H    6.775073   6.258139   4.965670   7.202802   8.483044
    31  H    7.724181   7.527171   6.350792   8.652572   9.856047
    32  H    7.581416   7.406861   6.208915   8.570025   9.775457
    33  H    8.562519   8.157760   6.847121   9.173356  10.470280
    34  H    3.395044   3.889420   3.423617   5.261132   6.076581
    35  H    2.163520   3.413070   3.887126   4.588015   4.842678
    36  H    3.395863   2.155543   1.086377   2.588564   3.973882
    37  H    3.454714   3.869401   5.260866   3.407839   2.147652
    38  H    4.834834   3.778736   4.333111   2.553969   2.728229
    39  H    7.164167   6.175714   6.736124   4.864084   4.660547
    40  H    8.171590   7.457502   8.314998   6.097893   5.388244
    41  H    7.342943   6.993599   8.121117   5.772675   4.675047
    42  H    5.110375   5.019441   6.288370   4.035712   2.763375
                   16         17         18         19         20
    16  C    0.000000
    17  C    1.469615   0.000000
    18  O    2.347073   1.223392   0.000000
    19  C    2.466578   3.815042   4.811875   0.000000
    20  C    3.680626   4.897271   5.977737   1.404146   0.000000
    21  C    4.862706   6.179681   7.197760   2.439073   1.398464
    22  C    5.136520   6.567726   7.450246   2.820059   2.418407
    23  C    4.361898   5.821220   6.569333   2.440562   2.785440
    24  C    2.989998   4.438286   5.206589   1.405620   2.407516
    25  H    8.285967   7.791817   8.663891   8.461419   8.344034
    26  H    8.946651   8.236290   8.923172   9.485487   9.579436
    27  H    9.964120   9.363395  10.151924  10.224506  10.085366
    28  H    8.297713   7.788249   8.675012   8.483595   8.180386
    29  H    9.962361   9.347402  10.148634  10.233787   9.934285
    30  H    8.949017   8.211140   8.920633   9.508928   9.326687
    31  H   10.103063   9.117186   9.588984  11.047295  11.208902
    32  H   10.005915   8.998348   9.467867  10.982715  11.063646
    33  H   10.876812  10.013488  10.610720  11.551486  11.503702
    34  H    5.877969   4.629615   4.896552   7.504845   8.031889
    35  H    4.163530   2.712704   2.566762   6.317193   7.183292
    36  H    4.793629   4.613117   5.713327   4.848220   4.763866
    37  H    1.080935   2.169742   2.571012   2.756913   4.063023
    38  H    3.981449   4.963966   6.117447   2.170295   1.088338
    39  H    5.795216   7.042542   8.102123   3.420542   2.157481
    40  H    6.200170   7.640967   8.497086   3.906817   3.404506
    41  H    5.032305   6.472538   7.083870   3.421089   3.872515
    42  H    2.765275   4.127297   4.695877   2.175198   3.405871
                   21         22         23         24         25
    21  C    0.000000
    22  C    1.392355   0.000000
    23  C    2.408154   1.391271   0.000000
    24  C    2.782831   2.415495   1.397082   0.000000
    25  H    9.418127  10.486947  10.586052   9.640043   0.000000
    26  H   10.723666  11.692938  11.623432  10.574145   1.762565
    27  H   11.142826  12.235707  12.356895  11.409672   1.772419
    28  H    9.275796  10.509770  10.756010   9.825636   2.525257
    29  H   11.008432  12.248062  12.501271  11.565143   3.134051
    30  H   10.503353  11.721894  11.879545  10.852640   3.744232
    31  H   12.457942  13.474589  13.352430  12.193737   3.772068
    32  H   12.330203  13.427287  13.374526  12.215990   4.333230
    33  H   12.681089  13.812009  13.862816  12.793049   3.789119
    34  H    9.425360  10.261985   9.871744   8.551816   5.297192
    35  H    8.554081   9.129301   8.483088   7.100161   7.109649
    36  H    5.999294   7.088325   7.152014   6.150927   3.851079
    37  H    5.039031   5.045017   4.079586   2.789100   9.353280
    38  H    2.142509   3.393030   3.873421   3.404549   7.584443
    39  H    1.086986   2.151897   3.393486   3.869810   9.548651
    40  H    2.154306   1.086776   2.151768   3.400840  11.361492
    41  H    3.394994   2.152967   1.087092   2.155047  11.523187
    42  H    3.869495   3.385662   2.134682   1.087359   9.964303
                   26         27         28         29         30
    26  H    0.000000
    27  H    1.772670   0.000000
    28  H    3.752831   3.140021   0.000000
    29  H    3.828837   2.659828   1.762733   0.000000
    30  H    4.331752   3.830605   1.766107   1.774199   0.000000
    31  H    2.585743   3.014468   4.338170   3.724876   3.801382
    32  H    3.785182   3.772683   3.805408   3.107439   2.615518
    33  H    3.237417   2.582369   3.724357   2.479359   3.099019
    34  H    5.160612   6.242850   5.054552   6.013410   4.696662
    35  H    7.112187   8.345119   7.011890   8.243752   6.918921
    36  H    5.045588   5.538264   3.708184   5.424165   4.847035
    37  H    9.982912  11.032809   9.369623  11.035313   9.992845
    38  H    8.912217   9.290877   7.230986   8.980556   8.386337
    39  H   10.970798  11.221637   9.277697  10.972730  10.561329
    40  H   12.612148  13.093878  11.383030  13.105902  12.640557
    41  H   12.495995  13.294202  11.785316  13.524716  12.899732
    42  H   10.738940  11.718972  10.271009  11.983944  11.211406
                   31         32         33         34         35
    31  H    0.000000
    32  H    1.766177   0.000000
    33  H    1.768245   1.772782   0.000000
    34  H    4.957192   4.633913   5.967758   0.000000
    35  H    7.305683   7.099725   8.389874   2.466072   0.000000
    36  H    6.481820   6.367782   6.754483   4.320687   4.973478
    37  H   11.119150  11.021418  11.930685   6.775099   4.834085
    38  H   10.476842  10.246835  10.656953   7.503143   6.949876
    39  H   12.722236  12.539846  12.798619   9.956100   9.286157
    40  H   14.450363  14.407520  14.736960  11.333190  10.213780
    41  H   14.245852  14.319045  14.820914  10.696848   9.166479
    42  H   12.293524  12.378277  13.031129   8.478108   6.803675
                   36         37         38         39         40
    36  H    0.000000
    37  H    5.860983   0.000000
    38  H    3.996674   4.571629   0.000000
    39  H    6.279615   6.039373   2.459553   0.000000
    40  H    8.051253   6.046356   4.287597   2.481078   0.000000
    41  H    8.150417   4.566736   4.960511   4.293421   2.480655
    42  H    6.569501   2.303412   4.324867   4.956425   4.277791
                   41         42
    41  H    0.000000
    42  H    2.447002   0.000000
 Stoichiometry    C20H18O4
 Framework group  C1[X(C20H18O4)]
 Deg. of freedom   120
 Full point group                 C1      NOp   1
 Largest Abelian subgroup         C1      NOp   1
 Largest concise Abelian subgroup C1      NOp   1
                         Standard orientation:                         
 ---------------------------------------------------------------------
 Center     Atomic      Atomic             Coordinates (Angstroms)
 Number     Number       Type             X           Y           Z
 ---------------------------------------------------------------------
      1          8           0        4.480051    1.118886    0.669279
      2          6           0        4.247041    0.028597    0.159530
      3          6           0        5.242911   -1.133126    0.112572
      4          6           0        5.022860   -1.964946    1.382352
      5          6           0        5.045559   -2.007316   -1.134953
      6          6           0        6.672828   -0.572931    0.099421
      7          8           0        3.017962   -0.382754   -0.361537
      8          6           0        1.856930    0.411904   -0.299048
      9          6           0        1.868838    1.803463   -0.377885
     10          6           0        0.664263    2.500675   -0.290311
     11          6           0       -0.536828    1.794802   -0.157564
     12          6           0       -0.545743    0.402542   -0.119093
     13          6           0        0.656497   -0.296507   -0.191122
     14          8           0       -1.699701   -0.333000   -0.012279
     15          6           0       -2.914434    0.340730    0.017548
     16          6           0       -3.024807    1.677843   -0.014995
     17          6           0       -1.813942    2.508906   -0.068908
     18          8           0       -1.886185    3.729974   -0.047411
     19          6           0       -4.107041   -0.537463    0.057112
     20          6           0       -4.067832   -1.814961   -0.524342
     21          6           0       -5.191687   -2.647100   -0.510385
     22          6           0       -6.372620   -2.216421    0.088417
     23          6           0       -6.427638   -0.960112    0.683643
     24          6           0       -5.302439   -0.132041    0.675517
     25          1           0        4.032047   -2.434141    1.381303
     26          1           0        5.079394   -1.338074    2.280378
     27          1           0        5.772080   -2.757819    1.476098
     28          1           0        4.061160   -2.489689   -1.143175
     29          1           0        5.795032   -2.804828   -1.183216
     30          1           0        5.124219   -1.410005   -2.050545
     31          1           0        6.886038    0.003697    1.006897
     32          1           0        6.827271    0.094844   -0.755948
     33          1           0        7.413817   -1.377873    0.037668
     34          1           0        2.793270    2.360668   -0.498985
     35          1           0        0.661417    3.588257   -0.326526
     36          1           0        0.662160   -1.382353   -0.157662
     37          1           0       -3.962987    2.214723   -0.015603
     38          1           0       -3.161722   -2.175475   -1.007535
     39          1           0       -5.144558   -3.630283   -0.971544
     40          1           0       -7.248312   -2.860011    0.094592
     41          1           0       -7.345333   -0.620613    1.157293
     42          1           0       -5.378307    0.834905    1.167055
 ---------------------------------------------------------------------
 Rotational constants (GHZ):      0.5025973      0.0962855      0.0833004
 Leave Link  202 at Wed Sep 29 02:49:39 2021, MaxMem= 1879048192 cpu:       0.1
 (Enter /sw/target/amd/app/gaussian/Gaussian09RevA.02_gcc-4.9.2/g09/l301.exe)
 Standard basis: 6-31G(d) (6D, 7F)
 Ernie: Thresh=  0.10000D-02 Tol=  0.10000D-05 Strict=F.
 There are   396 symmetry adapted basis functions of A   symmetry.
 Integral buffers will be    131072 words long.
 Raffenetti 2 integral format.
 Two-electron integral symmetry is turned on.
   396 basis functions,   744 primitive gaussians,   396 cartesian basis functions
    85 alpha electrons       85 beta electrons
       nuclear repulsion energy      1876.6653527279 Hartrees.
 IExCor=  402 DFT=T Ex+Corr=B3LYP ExCW=0 ScaHFX=  0.200000
 ScaDFX=  0.800000  0.720000  1.000000  0.810000 ScalE2=  1.000000  1.000000
 IRadAn=      0 IRanWt=     -1 IRanGd=            0 ICorTp=0
 NAtoms=   42 NActive=   42 NUniq=   42 SFac= 7.50D-01 NAtFMM=   80 NAOKFM=F Big=F
 Leave Link  301 at Wed Sep 29 02:49:40 2021, MaxMem= 1879048192 cpu:       0.1
 (Enter /sw/target/amd/app/gaussian/Gaussian09RevA.02_gcc-4.9.2/g09/l302.exe)
 NPDir=0 NMtPBC=     1 NCelOv=     1 NCel=       1 NClECP=     1 NCelD=      1
         NCelK=      1 NCelE2=     1 NClLst=     1 CellRange=     0.0.
 One-electron integrals computed using PRISM.
 NBasis=   396 RedAO= T  NBF=   396
 NBsUse=   396 1.00D-06 NBFU=   396
 Precomputing XC quadrature grid using
 IXCGrd= 2 IRadAn=           0 IRanWt=          -1 IRanGd=           0 AccXCQ= 1.00D-10.
 NRdTot=    2699 NPtTot=      345092 NUsed=      364544 NTot=      364576
 NSgBfM=   387   387   387   388   388 NAtAll=    42    42.
 Leave Link  302 at Wed Sep 29 02:49:45 2021, MaxMem= 1879048192 cpu:       4.8
 (Enter /sw/target/amd/app/gaussian/Gaussian09RevA.02_gcc-4.9.2/g09/l303.exe)
 DipDrv:  MaxL=1.
 Leave Link  303 at Wed Sep 29 02:49:46 2021, MaxMem= 1879048192 cpu:       0.3
 (Enter /sw/target/amd/app/gaussian/Gaussian09RevA.02_gcc-4.9.2/g09/l401.exe)
 Harris functional with IExCor=  402 diagonalized for initial guess.
 ExpMin= 1.61D-01 ExpMax= 5.48D+03 ExpMxC= 8.25D+02 IAcc=1 IRadAn=         1 AccDes= 0.00D+00
 HarFok:  IExCor=  402 AccDes= 0.00D+00 IRadAn=         1 IDoV= 1
 ScaDFX=  1.000000  1.000000  1.000000  1.000000
 FoFCou: FMM=F IPFlag=           0 FMFlag=      100000 FMFlg1=           0
         NFxFlg=           0 DoJE=T BraDBF=F KetDBF=T FulRan=T
         Omega=  0.000000  0.000000  1.000000  0.000000  0.000000 ICntrl=     500 IOpCl=  0
         NMat0=    1 NMatS0=    1 NMatT0=    0 NMatD0=    1 NMtDS0=    0 NMtDT0=    0
         I1Cent=           4 NGrid=           0.
 Petite list used in FoFCou.
 Harris En= -1074.02418338600    
 Initial guess orbital symmetries:
       Occupied  (A) (A) (A) (A) (A) (A) (A) (A) (A) (A) (A) (A)
                 (A) (A) (A) (A) (A) (A) (A) (A) (A) (A) (A) (A)
                 (A) (A) (A) (A) (A) (A) (A) (A) (A) (A) (A) (A)
                 (A) (A) (A) (A) (A) (A) (A) (A) (A) (A) (A) (A)
                 (A) (A) (A) (A) (A) (A) (A) (A) (A) (A) (A) (A)
                 (A) (A) (A) (A) (A) (A) (A) (A) (A) (A) (A) (A)
                 (A) (A) (A) (A) (A) (A) (A) (A) (A) (A) (A) (A)
                 (A)
       Virtual   (A) (A) (A) (A) (A) (A) (A) (A) (A) (A) (A) (A)
                 (A) (A) (A) (A) (A) (A) (A) (A) (A) (A) (A) (A)
                 (A) (A) (A) (A) (A) (A) (A) (A) (A) (A) (A) (A)
                 (A) (A) (A) (A) (A) (A) (A) (A) (A) (A) (A) (A)
                 (A) (A) (A) (A) (A) (A) (A) (A) (A) (A) (A) (A)
                 (A) (A) (A) (A) (A) (A) (A) (A) (A) (A) (A) (A)
                 (A) (A) (A) (A) (A) (A) (A) (A) (A) (A) (A) (A)
                 (A) (A) (A) (A) (A) (A) (A) (A) (A) (A) (A) (A)
                 (A) (A) (A) (A) (A) (A) (A) (A) (A) (A) (A) (A)
                 (A) (A) (A) (A) (A) (A) (A) (A) (A) (A) (A) (A)
                 (A) (A) (A) (A) (A) (A) (A) (A) (A) (A) (A) (A)
                 (A) (A) (A) (A) (A) (A) (A) (A) (A) (A) (A) (A)
                 (A) (A) (A) (A) (A) (A) (A) (A) (A) (A) (A) (A)
                 (A) (A) (A) (A) (A) (A) (A) (A) (A) (A) (A) (A)
                 (A) (A) (A) (A) (A) (A) (A) (A) (A) (A) (A) (A)
                 (A) (A) (A) (A) (A) (A) (A) (A) (A) (A) (A) (A)
                 (A) (A) (A) (A) (A) (A) (A) (A) (A) (A) (A) (A)
                 (A) (A) (A) (A) (A) (A) (A) (A) (A) (A) (A) (A)
                 (A) (A) (A) (A) (A) (A) (A) (A) (A) (A) (A) (A)
                 (A) (A) (A) (A) (A) (A) (A) (A) (A) (A) (A) (A)
                 (A) (A) (A) (A) (A) (A) (A) (A) (A) (A) (A) (A)
                 (A) (A) (A) (A) (A) (A) (A) (A) (A) (A) (A) (A)
                 (A) (A) (A) (A) (A) (A) (A) (A) (A) (A) (A) (A)
                 (A) (A) (A) (A) (A) (A) (A) (A) (A) (A) (A) (A)
                 (A) (A) (A) (A) (A) (A) (A) (A) (A) (A) (A) (A)
                 (A) (A) (A) (A) (A) (A) (A) (A) (A) (A) (A)
 The electronic state of the initial guess is 1-A.
 Leave Link  401 at Wed Sep 29 02:49:59 2021, MaxMem= 1879048192 cpu:      18.4
 (Enter /sw/target/amd/app/gaussian/Gaussian09RevA.02_gcc-4.9.2/g09/l502.exe)
 Closed shell SCF:
 Requested convergence on RMS density matrix=1.00D-08 within  64 cycles.
 Requested convergence on MAX density matrix=1.00D-06.
 Requested convergence on             energy=1.00D-06.
 No special actions if energy rises.
 Using DIIS extrapolation, IDIIS=  1040.
 Integral symmetry usage will be decided dynamically.
       364153 words used for storage of precomputed grid.
 IEnd=      845899 IEndB=      845899 NGot=  1879048192 MDV=  1878363730
 LenX=  1878363730 LenY=  1878206473
 Fock matrices will be formed incrementally for  20 cycles.
 Integral accuracy reduced to 1.0D-05 until final iterations.

 Cycle   1  Pass 0  IDiag  1:
 FoFCou: FMM=F IPFlag=           0 FMFlag=      100000 FMFlg1=           0
         NFxFlg=           0 DoJE=F BraDBF=F KetDBF=F FulRan=T
         Omega=  0.000000  0.000000  1.000000  0.000000  0.000000 ICntrl=       0 IOpCl=  0
         NMat0=    1 NMatS0=    1 NMatT0=    0 NMatD0=    1 NMtDS0=    0 NMtDT0=    0
         I1Cent=           0 NGrid=           0.
 Symmetry not used in FoFCou.
 E= -1073.22798094477    
 DIIS: error= 3.52D-02 at cycle   1 NSaved=   1.
 NSaved= 1 IEnMin= 1 EnMin= -1073.22798094477     IErMin= 1 ErrMin= 3.52D-02
 ErrMax= 3.52D-02 EMaxC= 1.00D-01 BMatC= 6.67D-01 BMatP= 6.67D-01
 IDIUse=3 WtCom= 6.48D-01 WtEn= 3.52D-01
 Coeff-Com:  0.100D+01
 Coeff-En:   0.100D+01
 Coeff:      0.100D+01
 Gap=     0.182 Goal=   None    Shift=    0.000
 GapD=    0.182 DampG=1.000 DampE=0.500 DampFc=0.5000 IDamp=-1.
 Damping current iteration by 5.00D-01
 RMSDP=5.45D-03 MaxDP=2.58D-01              OVMax= 4.10D-01

 Cycle   2  Pass 0  IDiag  1:
 RMSU=  1.91D-03    CP:  9.79D-01
 E= -1073.39041385381     Delta-E=       -0.162432909037 Rises=F Damp=T
 DIIS: error= 1.19D-02 at cycle   2 NSaved=   2.
 NSaved= 2 IEnMin= 2 EnMin= -1073.39041385381     IErMin= 2 ErrMin= 1.19D-02
 ErrMax= 1.19D-02 EMaxC= 1.00D-01 BMatC= 1.30D-01 BMatP= 6.67D-01
 IDIUse=3 WtCom= 8.81D-01 WtEn= 1.19D-01
 Coeff-Com:  0.234D+00 0.766D+00
 Coeff-En:   0.360D+00 0.640D+00
 Coeff:      0.249D+00 0.751D+00
 Gap=     0.221 Goal=   None    Shift=    0.000
 RMSDP=2.07D-03 MaxDP=1.03D-01 DE=-1.62D-01 OVMax= 2.69D-01

 Cycle   3  Pass 0  IDiag  1:
 RMSU=  1.25D-03    CP:  9.67D-01  6.03D-01
 E= -1073.73408340833     Delta-E=       -0.343669554521 Rises=F Damp=F
 DIIS: error= 2.40D-02 at cycle   3 NSaved=   3.
 NSaved= 3 IEnMin= 3 EnMin= -1073.73408340833     IErMin= 2 ErrMin= 1.19D-02
 ErrMax= 2.40D-02 EMaxC= 1.00D-01 BMatC= 1.55D-01 BMatP= 1.30D-01
 IDIUse=2 WtCom= 0.00D+00 WtEn= 1.00D+00
 Coeff-En:   0.000D+00 0.000D+00 0.100D+01
 Coeff:      0.000D+00 0.000D+00 0.100D+01
 Gap=     0.202 Goal=   None    Shift=    0.000
 RMSDP=3.97D-03 MaxDP=2.32D-01 DE=-3.44D-01 OVMax= 5.09D-01

 Cycle   4  Pass 0  IDiag  1:
 RMSU=  1.24D-03    CP:  9.76D-01  1.39D+00 -6.24D-01
 E= -1072.79537057147     Delta-E=        0.938712836856 Rises=F Damp=F
 DIIS: error= 4.19D-02 at cycle   4 NSaved=   4.
 NSaved= 4 IEnMin= 3 EnMin= -1073.73408340833     IErMin= 2 ErrMin= 1.19D-02
 ErrMax= 4.19D-02 EMaxC= 1.00D-01 BMatC= 1.18D+00 BMatP= 1.30D-01
 IDIUse=2 WtCom= 0.00D+00 WtEn= 1.00D+00
 Coeff-En:   0.000D+00 0.000D+00 0.828D+00 0.172D+00
 Coeff:      0.000D+00 0.000D+00 0.828D+00 0.172D+00
 Gap=     0.115 Goal=   None    Shift=    0.000
 RMSDP=2.39D-03 MaxDP=1.47D-01 DE= 9.39D-01 OVMax= 2.76D-01

 Cycle   5  Pass 0  IDiag  1:
 RMSU=  4.61D-04    CP:  9.74D-01  8.74D-01  1.83D-01  3.41D-01
 E= -1073.78849699164     Delta-E=       -0.993126420170 Rises=F Damp=F
 DIIS: error= 1.25D-02 at cycle   5 NSaved=   5.
 NSaved= 5 IEnMin= 5 EnMin= -1073.78849699164     IErMin= 2 ErrMin= 1.19D-02
 ErrMax= 1.25D-02 EMaxC= 1.00D-01 BMatC= 1.03D-01 BMatP= 1.30D-01
 IDIUse=3 WtCom= 8.75D-01 WtEn= 1.25D-01
 Coeff-Com:  0.108D-01 0.458D-01 0.399D+00-0.413D-01 0.585D+00
 Coeff-En:   0.000D+00 0.000D+00 0.415D+00 0.000D+00 0.585D+00
 Coeff:      0.944D-02 0.400D-01 0.401D+00-0.361D-01 0.585D+00
 Gap=     0.164 Goal=   None    Shift=    0.000
 RMSDP=7.91D-04 MaxDP=4.25D-02 DE=-9.93D-01 OVMax= 8.30D-02

 Cycle   6  Pass 0  IDiag  1:
 RMSU=  1.48D-04    CP:  9.72D-01  7.56D-01  5.20D-01  1.91D-01  6.31D-01
 E= -1073.87790003749     Delta-E=       -0.089403045846 Rises=F Damp=F
 DIIS: error= 2.33D-03 at cycle   6 NSaved=   6.
 NSaved= 6 IEnMin= 6 EnMin= -1073.87790003749     IErMin= 6 ErrMin= 2.33D-03
 ErrMax= 2.33D-03 EMaxC= 1.00D-01 BMatC= 2.90D-03 BMatP= 1.03D-01
 IDIUse=3 WtCom= 9.77D-01 WtEn= 2.33D-02
 Coeff-Com:  0.144D-02 0.168D-01 0.234D+00-0.428D-01 0.410D+00 0.380D+00
 Coeff-En:   0.000D+00 0.000D+00 0.000D+00 0.000D+00 0.000D+00 0.100D+01
 Coeff:      0.141D-02 0.164D-01 0.228D+00-0.418D-01 0.401D+00 0.395D+00
 Gap=     0.172 Goal=   None    Shift=    0.000
 RMSDP=1.51D-04 MaxDP=9.99D-03 DE=-8.94D-02 OVMax= 1.22D-02

 Cycle   7  Pass 0  IDiag  1:
 RMSU=  4.87D-05    CP:  9.72D-01  7.44D-01  5.32D-01  1.83D-01  6.77D-01
                    CP:  4.09D-01
 E= -1073.88012977678     Delta-E=       -0.002229739292 Rises=F Damp=F
 DIIS: error= 6.44D-04 at cycle   7 NSaved=   7.
 NSaved= 7 IEnMin= 7 EnMin= -1073.88012977678     IErMin= 7 ErrMin= 6.44D-04
 ErrMax= 6.44D-04 EMaxC= 1.00D-01 BMatC= 1.59D-04 BMatP= 2.90D-03
 IDIUse=3 WtCom= 9.94D-01 WtEn= 6.44D-03
 Coeff-Com:  0.134D-02-0.346D-02 0.492D-01-0.936D-02 0.776D-01 0.166D+00
 Coeff-Com:  0.718D+00
 Coeff-En:   0.000D+00 0.000D+00 0.000D+00 0.000D+00 0.000D+00 0.000D+00
 Coeff-En:   0.100D+01
 Coeff:      0.133D-02-0.344D-02 0.489D-01-0.930D-02 0.771D-01 0.165D+00
 Coeff:      0.720D+00
 Gap=     0.172 Goal=   None    Shift=    0.000
 RMSDP=4.04D-05 MaxDP=2.65D-03 DE=-2.23D-03 OVMax= 3.53D-03

 Cycle   8  Pass 0  IDiag  1:
 RMSU=  2.37D-05    CP:  9.72D-01  7.42D-01  5.38D-01  1.81D-01  6.72D-01
                    CP:  4.47D-01  7.41D-01
 E= -1073.88021405221     Delta-E=       -0.000084275428 Rises=F Damp=F
 DIIS: error= 3.89D-04 at cycle   8 NSaved=   8.
 NSaved= 8 IEnMin= 8 EnMin= -1073.88021405221     IErMin= 8 ErrMin= 3.89D-04
 ErrMax= 3.89D-04 EMaxC= 1.00D-01 BMatC= 5.33D-05 BMatP= 1.59D-04
 IDIUse=3 WtCom= 9.96D-01 WtEn= 3.89D-03
 Coeff-Com:  0.959D-03-0.419D-02 0.723D-02-0.105D-02 0.338D-02 0.617D-01
 Coeff-Com:  0.485D+00 0.447D+00
 Coeff-En:   0.000D+00 0.000D+00 0.000D+00 0.000D+00 0.000D+00 0.000D+00
 Coeff-En:   0.253D+00 0.747D+00
 Coeff:      0.955D-03-0.417D-02 0.720D-02-0.105D-02 0.336D-02 0.615D-01
 Coeff:      0.484D+00 0.448D+00
 Gap=     0.171 Goal=   None    Shift=    0.000
 RMSDP=2.11D-05 MaxDP=1.13D-03 DE=-8.43D-05 OVMax= 1.95D-03

 Cycle   9  Pass 0  IDiag  1:
 RMSU=  6.42D-06    CP:  9.72D-01  7.41D-01  5.40D-01  1.81D-01  6.68D-01
                    CP:  4.51D-01  8.24D-01  5.00D-01
 E= -1073.88026255121     Delta-E=       -0.000048498996 Rises=F Damp=F
 DIIS: error= 5.46D-05 at cycle   9 NSaved=   9.
 NSaved= 9 IEnMin= 9 EnMin= -1073.88026255121     IErMin= 9 ErrMin= 5.46D-05
 ErrMax= 5.46D-05 EMaxC= 1.00D-01 BMatC= 1.92D-06 BMatP= 5.33D-05
 IDIUse=1 WtCom= 1.00D+00 WtEn= 0.00D+00
 Coeff-Com:  0.424D-03-0.175D-02 0.117D-02-0.441D-04-0.249D-02 0.255D-01
 Coeff-Com:  0.214D+00 0.242D+00 0.522D+00
 Coeff:      0.424D-03-0.175D-02 0.117D-02-0.441D-04-0.249D-02 0.255D-01
 Coeff:      0.214D+00 0.242D+00 0.522D+00
 Gap=     0.171 Goal=   None    Shift=    0.000
 RMSDP=5.08D-06 MaxDP=2.12D-04 DE=-4.85D-05 OVMax= 4.93D-04

 Initial convergence to 1.0D-05 achieved.  Increase integral accuracy.
 Cycle  10  Pass 1  IDiag  1:
 E= -1073.88036760511     Delta-E=       -0.000105053906 Rises=F Damp=F
 DIIS: error= 4.97D-05 at cycle   1 NSaved=   1.
 NSaved= 1 IEnMin= 1 EnMin= -1073.88036760511     IErMin= 1 ErrMin= 4.97D-05
 ErrMax= 4.97D-05 EMaxC= 1.00D-01 BMatC= 7.17D-07 BMatP= 7.17D-07
 IDIUse=1 WtCom= 1.00D+00 WtEn= 0.00D+00
 Coeff-Com:  0.100D+01
 Coeff:      0.100D+01
 Gap=     0.171 Goal=   None    Shift=    0.000
 RMSDP=5.08D-06 MaxDP=2.12D-04 DE=-1.05D-04 OVMax= 3.96D-04

 Cycle  11  Pass 1  IDiag  1:
 RMSU=  1.38D-05    CP:  1.00D+00
 E= -1073.88036731932     Delta-E=        0.000000285795 Rises=F Damp=F
 DIIS: error= 3.97D-05 at cycle   2 NSaved=   2.
 NSaved= 2 IEnMin= 1 EnMin= -1073.88036760511     IErMin= 2 ErrMin= 3.97D-05
 ErrMax= 3.97D-05 EMaxC= 1.00D-01 BMatC= 1.05D-06 BMatP= 7.17D-07
 IDIUse=1 WtCom= 1.00D+00 WtEn= 0.00D+00
 Coeff-Com:  0.559D+00 0.441D+00
 Coeff:      0.559D+00 0.441D+00
 Gap=     0.171 Goal=   None    Shift=    0.000
 RMSDP=3.65D-06 MaxDP=1.42D-04 DE= 2.86D-07 OVMax= 3.33D-04

 Cycle  12  Pass 1  IDiag  1:
 RMSU=  2.54D-06    CP:  1.00D+00  9.68D-01
 E= -1073.88036824600     Delta-E=       -0.000000926688 Rises=F Damp=F
 DIIS: error= 1.65D-05 at cycle   3 NSaved=   3.
 NSaved= 3 IEnMin= 3 EnMin= -1073.88036824600     IErMin= 3 ErrMin= 1.65D-05
 ErrMax= 1.65D-05 EMaxC= 1.00D-01 BMatC= 1.33D-07 BMatP= 7.17D-07
 IDIUse=1 WtCom= 1.00D+00 WtEn= 0.00D+00
 Coeff-Com:  0.372D-01 0.260D+00 0.703D+00
 Coeff:      0.372D-01 0.260D+00 0.703D+00
 Gap=     0.171 Goal=   None    Shift=    0.000
 RMSDP=1.20D-06 MaxDP=5.59D-05 DE=-9.27D-07 OVMax= 1.02D-04

 Cycle  13  Pass 1  IDiag  1:
 RMSU=  4.65D-07    CP:  1.00D+00  9.85D-01  7.37D-01
 E= -1073.88036835991     Delta-E=       -0.000000113905 Rises=F Damp=F
 DIIS: error= 6.78D-06 at cycle   4 NSaved=   4.
 NSaved= 4 IEnMin= 4 EnMin= -1073.88036835991     IErMin= 4 ErrMin= 6.78D-06
 ErrMax= 6.78D-06 EMaxC= 1.00D-01 BMatC= 1.98D-08 BMatP= 1.33D-07
 IDIUse=1 WtCom= 1.00D+00 WtEn= 0.00D+00
 Coeff-Com: -0.809D-02 0.141D+00 0.443D+00 0.424D+00
 Coeff:     -0.809D-02 0.141D+00 0.443D+00 0.424D+00
 Gap=     0.171 Goal=   None    Shift=    0.000
 RMSDP=3.87D-07 MaxDP=2.36D-05 DE=-1.14D-07 OVMax= 3.14D-05

 Cycle  14  Pass 1  IDiag  1:
 RMSU=  1.17D-07    CP:  1.00D+00  9.86D-01  7.51D-01  4.75D-01
 E= -1073.88036837732     Delta-E=       -0.000000017415 Rises=F Damp=F
 DIIS: error= 1.43D-06 at cycle   5 NSaved=   5.
 NSaved= 5 IEnMin= 5 EnMin= -1073.88036837732     IErMin= 5 ErrMin= 1.43D-06
 ErrMax= 1.43D-06 EMaxC= 1.00D-01 BMatC= 8.72D-10 BMatP= 1.98D-08
 IDIUse=1 WtCom= 1.00D+00 WtEn= 0.00D+00
 Coeff-Com: -0.693D-02 0.737D-01 0.238D+00 0.257D+00 0.438D+00
 Coeff:     -0.693D-02 0.737D-01 0.238D+00 0.257D+00 0.438D+00
 Gap=     0.171 Goal=   None    Shift=    0.000
 RMSDP=1.08D-07 MaxDP=8.20D-06 DE=-1.74D-08 OVMax= 1.20D-05

 Cycle  15  Pass 1  IDiag  1:
 RMSU=  5.80D-08    CP:  1.00D+00  9.86D-01  7.51D-01  4.90D-01  5.85D-01
 E= -1073.88036837803     Delta-E=       -0.000000000703 Rises=F Damp=F
 DIIS: error= 5.74D-07 at cycle   6 NSaved=   6.
 NSaved= 6 IEnMin= 6 EnMin= -1073.88036837803     IErMin= 6 ErrMin= 5.74D-07
 ErrMax= 5.74D-07 EMaxC= 1.00D-01 BMatC= 9.23D-11 BMatP= 8.72D-10
 IDIUse=1 WtCom= 1.00D+00 WtEn= 0.00D+00
 Coeff-Com: -0.250D-02 0.206D-01 0.682D-01 0.827D-01 0.276D+00 0.555D+00
 Coeff:     -0.250D-02 0.206D-01 0.682D-01 0.827D-01 0.276D+00 0.555D+00
 Gap=     0.171 Goal=   None    Shift=    0.000
 RMSDP=3.63D-08 MaxDP=2.68D-06 DE=-7.03D-10 OVMax= 3.82D-06

 Cycle  16  Pass 1  IDiag  1:
 RMSU=  1.42D-08    CP:  1.00D+00  9.86D-01  7.52D-01  4.85D-01  6.90D-01
                    CP:  7.05D-01
 E= -1073.88036837813     Delta-E=       -0.000000000108 Rises=F Damp=F
 DIIS: error= 1.57D-07 at cycle   7 NSaved=   7.
 NSaved= 7 IEnMin= 7 EnMin= -1073.88036837813     IErMin= 7 ErrMin= 1.57D-07
 ErrMax= 1.57D-07 EMaxC= 1.00D-01 BMatC= 1.08D-11 BMatP= 9.23D-11
 IDIUse=1 WtCom= 1.00D+00 WtEn= 0.00D+00
 Coeff-Com: -0.780D-03 0.469D-02 0.162D-01 0.235D-01 0.122D+00 0.341D+00
 Coeff-Com:  0.494D+00
 Coeff:     -0.780D-03 0.469D-02 0.162D-01 0.235D-01 0.122D+00 0.341D+00
 Coeff:      0.494D+00
 Gap=     0.171 Goal=   None    Shift=    0.000
 RMSDP=1.14D-08 MaxDP=5.85D-07 DE=-1.08D-10 OVMax= 9.80D-07

 Cycle  17  Pass 1  IDiag  1:
 RMSU=  5.61D-09    CP:  1.00D+00  9.86D-01  7.52D-01  4.89D-01  6.92D-01
                    CP:  7.23D-01  6.27D-01
 E= -1073.88036837815     Delta-E=       -0.000000000014 Rises=F Damp=F
 DIIS: error= 3.97D-08 at cycle   8 NSaved=   8.
 NSaved= 8 IEnMin= 8 EnMin= -1073.88036837815     IErMin= 8 ErrMin= 3.97D-08
 ErrMax= 3.97D-08 EMaxC= 1.00D-01 BMatC= 1.20D-12 BMatP= 1.08D-11
 IDIUse=1 WtCom= 1.00D+00 WtEn= 0.00D+00
 Coeff-Com: -0.653D-04-0.535D-03-0.140D-02 0.901D-03 0.256D-01 0.112D+00
 Coeff-Com:  0.286D+00 0.577D+00
 Coeff:     -0.653D-04-0.535D-03-0.140D-02 0.901D-03 0.256D-01 0.112D+00
 Coeff:      0.286D+00 0.577D+00
 Gap=     0.171 Goal=   None    Shift=    0.000
 RMSDP=3.69D-09 MaxDP=2.06D-07 DE=-1.41D-11 OVMax= 4.84D-07

 SCF Done:  E(RB3LYP) =  -1073.88036838     A.U. after   17 cycles
             Convg  =    0.3690D-08             -V/T =  2.0095
 KE= 1.063765086834D+03 PE=-6.250901589954D+03 EE= 2.236590782014D+03
 Leave Link  502 at Wed Sep 29 03:00:17 2021, MaxMem= 1879048192 cpu:    1012.9
 (Enter /sw/target/amd/app/gaussian/Gaussian09RevA.02_gcc-4.9.2/g09/l508.exe)
 QCSCF skips out because SCF is already converged.
 Leave Link  508 at Wed Sep 29 03:00:17 2021, MaxMem= 1879048192 cpu:       0.0
 (Enter /sw/target/amd/app/gaussian/Gaussian09RevA.02_gcc-4.9.2/g09/l601.exe)
 Copying SCF densities to generalized density rwf, IOpCl= 0 IROHF=0.

 **********************************************************************

            Population analysis using the SCF density.

 **********************************************************************

 Orbital symmetries:
       Occupied  (A) (A) (A) (A) (A) (A) (A) (A) (A) (A) (A) (A)
                 (A) (A) (A) (A) (A) (A) (A) (A) (A) (A) (A) (A)
                 (A) (A) (A) (A) (A) (A) (A) (A) (A) (A) (A) (A)
                 (A) (A) (A) (A) (A) (A) (A) (A) (A) (A) (A) (A)
                 (A) (A) (A) (A) (A) (A) (A) (A) (A) (A) (A) (A)
                 (A) (A) (A) (A) (A) (A) (A) (A) (A) (A) (A) (A)
                 (A) (A) (A) (A) (A) (A) (A) (A) (A) (A) (A) (A)
                 (A)
       Virtual   (A) (A) (A) (A) (A) (A) (A) (A) (A) (A) (A) (A)
                 (A) (A) (A) (A) (A) (A) (A) (A) (A) (A) (A) (A)
                 (A) (A) (A) (A) (A) (A) (A) (A) (A) (A) (A) (A)
                 (A) (A) (A) (A) (A) (A) (A) (A) (A) (A) (A) (A)
                 (A) (A) (A) (A) (A) (A) (A) (A) (A) (A) (A) (A)
                 (A) (A) (A) (A) (A) (A) (A) (A) (A) (A) (A) (A)
                 (A) (A) (A) (A) (A) (A) (A) (A) (A) (A) (A) (A)
                 (A) (A) (A) (A) (A) (A) (A) (A) (A) (A) (A) (A)
                 (A) (A) (A) (A) (A) (A) (A) (A) (A) (A) (A) (A)
                 (A) (A) (A) (A) (A) (A) (A) (A) (A) (A) (A) (A)
                 (A) (A) (A) (A) (A) (A) (A) (A) (A) (A) (A) (A)
                 (A) (A) (A) (A) (A) (A) (A) (A) (A) (A) (A) (A)
                 (A) (A) (A) (A) (A) (A) (A) (A) (A) (A) (A) (A)
                 (A) (A) (A) (A) (A) (A) (A) (A) (A) (A) (A) (A)
                 (A) (A) (A) (A) (A) (A) (A) (A) (A) (A) (A) (A)
                 (A) (A) (A) (A) (A) (A) (A) (A) (A) (A) (A) (A)
                 (A) (A) (A) (A) (A) (A) (A) (A) (A) (A) (A) (A)
                 (A) (A) (A) (A) (A) (A) (A) (A) (A) (A) (A) (A)
                 (A) (A) (A) (A) (A) (A) (A) (A) (A) (A) (A) (A)
                 (A) (A) (A) (A) (A) (A) (A) (A) (A) (A) (A) (A)
                 (A) (A) (A) (A) (A) (A) (A) (A) (A) (A) (A) (A)
                 (A) (A) (A) (A) (A) (A) (A) (A) (A) (A) (A) (A)
                 (A) (A) (A) (A) (A) (A) (A) (A) (A) (A) (A) (A)
                 (A) (A) (A) (A) (A) (A) (A) (A) (A) (A) (A) (A)
                 (A) (A) (A) (A) (A) (A) (A) (A) (A) (A) (A) (A)
                 (A) (A) (A) (A) (A) (A) (A) (A) (A) (A) (A)
 The electronic state is 1-A.
 Alpha  occ. eigenvalues --  -19.23156 -19.21628 -19.15490 -19.11201 -10.33297
 Alpha  occ. eigenvalues --  -10.28214 -10.27527 -10.27485 -10.26078 -10.22142
 Alpha  occ. eigenvalues --  -10.21897 -10.20978 -10.20750 -10.20719 -10.20548
 Alpha  occ. eigenvalues --  -10.20375 -10.20323 -10.20300 -10.20279 -10.20181
 Alpha  occ. eigenvalues --  -10.19428 -10.18969 -10.18430 -10.18118  -1.11471
 Alpha  occ. eigenvalues --   -1.10713  -1.03020  -1.01733  -0.88008  -0.86917
 Alpha  occ. eigenvalues --   -0.83333  -0.81880  -0.78450  -0.76678  -0.75669
 Alpha  occ. eigenvalues --   -0.75013  -0.69916  -0.69455  -0.68096  -0.67189
 Alpha  occ. eigenvalues --   -0.63164  -0.62155  -0.61310  -0.59502  -0.57297
 Alpha  occ. eigenvalues --   -0.54357  -0.53593  -0.52673  -0.50633  -0.49058
 Alpha  occ. eigenvalues --   -0.48573  -0.47825  -0.47277  -0.46725  -0.45956
 Alpha  occ. eigenvalues --   -0.45367  -0.44714  -0.44432  -0.43935  -0.43693
 Alpha  occ. eigenvalues --   -0.43110  -0.41779  -0.41066  -0.40130  -0.39565
 Alpha  occ. eigenvalues --   -0.39219  -0.38900  -0.38490  -0.38120  -0.37315
 Alpha  occ. eigenvalues --   -0.37009  -0.36865  -0.36155  -0.35689  -0.35114
 Alpha  occ. eigenvalues --   -0.34292  -0.33851  -0.33057  -0.29585  -0.28126
 Alpha  occ. eigenvalues --   -0.26290  -0.25766  -0.24978  -0.23836  -0.23530
 Alpha virt. eigenvalues --   -0.06399  -0.03496  -0.01411  -0.01139  -0.00350
 Alpha virt. eigenvalues --    0.02293   0.07771   0.08019   0.08398   0.09322
 Alpha virt. eigenvalues --    0.10822   0.11982   0.12906   0.13287   0.14327
 Alpha virt. eigenvalues --    0.14668   0.14971   0.15148   0.15453   0.15556
 Alpha virt. eigenvalues --    0.16185   0.17031   0.18011   0.18068   0.18543
 Alpha virt. eigenvalues --    0.18776   0.18988   0.20279   0.21016   0.21629
 Alpha virt. eigenvalues --    0.22361   0.23065   0.23783   0.24666   0.24895
 Alpha virt. eigenvalues --    0.26431   0.27095   0.29381   0.29896   0.30744
 Alpha virt. eigenvalues --    0.31454   0.31535   0.33611   0.34238   0.36450
 Alpha virt. eigenvalues --    0.37988   0.39952   0.41435   0.44615   0.45513
 Alpha virt. eigenvalues --    0.47364   0.48044   0.48988   0.49587   0.49948
 Alpha virt. eigenvalues --    0.50608   0.50691   0.52132   0.52504   0.52964
 Alpha virt. eigenvalues --    0.53814   0.54414   0.54922   0.55508   0.56250
 Alpha virt. eigenvalues --    0.56486   0.57137   0.58087   0.58258   0.58607
 Alpha virt. eigenvalues --    0.59057   0.59698   0.59891   0.60212   0.60309
 Alpha virt. eigenvalues --    0.60897   0.61719   0.62634   0.62842   0.63333
 Alpha virt. eigenvalues --    0.63971   0.64953   0.65544   0.66196   0.67542
 Alpha virt. eigenvalues --    0.68701   0.69482   0.70076   0.70845   0.72023
 Alpha virt. eigenvalues --    0.72194   0.73167   0.76187   0.77177   0.78596
 Alpha virt. eigenvalues --    0.79074   0.79818   0.80824   0.81484   0.81973
 Alpha virt. eigenvalues --    0.82614   0.82765   0.83411   0.84028   0.84296
 Alpha virt. eigenvalues --    0.85160   0.85602   0.87380   0.87816   0.87972
 Alpha virt. eigenvalues --    0.88175   0.88945   0.89687   0.90194   0.90374
 Alpha virt. eigenvalues --    0.90481   0.91789   0.92449   0.92805   0.93547
 Alpha virt. eigenvalues --    0.94230   0.95239   0.95870   0.97197   0.97601
 Alpha virt. eigenvalues --    0.98457   0.98633   0.99419   1.00529   1.02197
 Alpha virt. eigenvalues --    1.03947   1.05316   1.05606   1.06605   1.08273
 Alpha virt. eigenvalues --    1.09992   1.11109   1.11612   1.12704   1.13567
 Alpha virt. eigenvalues --    1.15082   1.16235   1.18612   1.19183   1.19558
 Alpha virt. eigenvalues --    1.20345   1.22259   1.23455   1.24659   1.26345
 Alpha virt. eigenvalues --    1.28114   1.29652   1.31515   1.33694   1.34822
 Alpha virt. eigenvalues --    1.35304   1.37416   1.38356   1.39956   1.40347
 Alpha virt. eigenvalues --    1.41845   1.42677   1.43801   1.44372   1.44861
 Alpha virt. eigenvalues --    1.46912   1.47474   1.48088   1.49096   1.49854
 Alpha virt. eigenvalues --    1.50190   1.50530   1.51368   1.51903   1.59330
 Alpha virt. eigenvalues --    1.60155   1.62478   1.64481   1.66368   1.68489
 Alpha virt. eigenvalues --    1.69629   1.71137   1.72431   1.74141   1.75909
 Alpha virt. eigenvalues --    1.76310   1.77429   1.78496   1.78835   1.80652
 Alpha virt. eigenvalues --    1.81185   1.81957   1.83117   1.84990   1.85178
 Alpha virt. eigenvalues --    1.85797   1.86696   1.87246   1.88474   1.89520
 Alpha virt. eigenvalues --    1.90070   1.90323   1.91285   1.93129   1.93419
 Alpha virt. eigenvalues --    1.94125   1.95967   1.96415   1.97534   1.98199
 Alpha virt. eigenvalues --    1.98626   2.00056   2.01289   2.03700   2.04526
 Alpha virt. eigenvalues --    2.05418   2.07489   2.07771   2.09121   2.10727
 Alpha virt. eigenvalues --    2.11580   2.12283   2.13295   2.14046   2.14459
 Alpha virt. eigenvalues --    2.15200   2.15769   2.18989   2.20021   2.23631
 Alpha virt. eigenvalues --    2.23921   2.25604   2.26030   2.26651   2.26884
 Alpha virt. eigenvalues --    2.27143   2.28414   2.29067   2.29352   2.30268
 Alpha virt. eigenvalues --    2.31253   2.33785   2.34276   2.35936   2.37630
 Alpha virt. eigenvalues --    2.39428   2.41617   2.43736   2.48193   2.49195
 Alpha virt. eigenvalues --    2.52920   2.53738   2.54665   2.56436   2.56960
 Alpha virt. eigenvalues --    2.60484   2.62222   2.63310   2.64034   2.66005
 Alpha virt. eigenvalues --    2.67026   2.68597   2.69490   2.69997   2.71030
 Alpha virt. eigenvalues --    2.72390   2.73306   2.74537   2.76669   2.77429
 Alpha virt. eigenvalues --    2.78075   2.79523   2.83139   2.85382   2.88990
 Alpha virt. eigenvalues --    2.91224   2.94669   2.96335   3.00794   3.03134
 Alpha virt. eigenvalues --    3.06034   3.13002   3.21010   3.24081   3.36471
 Alpha virt. eigenvalues --    3.45775   3.47610   3.96837   4.06115   4.07461
 Alpha virt. eigenvalues --    4.09457   4.10086   4.10454   4.11789   4.15553
 Alpha virt. eigenvalues --    4.17033   4.18086   4.29265   4.30060   4.30908
 Alpha virt. eigenvalues --    4.31661   4.32614   4.32863   4.42256   4.44557
 Alpha virt. eigenvalues --    4.48350   4.62504   4.68146   4.70141   4.73426
 Alpha virt. eigenvalues --    4.85703
          Condensed to atoms (all electrons):
              1          2          3          4          5          6
     1  O    8.058355   0.525265  -0.073284  -0.003565   0.002481   0.000778
     2  C    0.525265   4.406227   0.360243  -0.040571  -0.042925  -0.047024
     3  C   -0.073284   0.360243   4.966610   0.372199   0.353402   0.370261
     4  C   -0.003565  -0.040571   0.372199   5.133455  -0.055005  -0.053423
     5  C    0.002481  -0.042925   0.353402  -0.055005   5.159435  -0.066232
     6  C    0.000778  -0.047024   0.370261  -0.053423  -0.066232   5.134308
     7  O   -0.064725   0.221212  -0.091188  -0.000589  -0.000925   0.002974
     8  C   -0.002086  -0.008261   0.004146  -0.000213   0.000006  -0.000063
     9  C   -0.000947  -0.002457   0.000422  -0.000006  -0.000063  -0.000006
    10  C    0.000181   0.000291   0.000006   0.000000  -0.000000  -0.000000
    11  C   -0.000003   0.000023  -0.000000   0.000000   0.000000   0.000000
    12  C    0.000004  -0.000057   0.000002  -0.000000  -0.000000  -0.000000
    13  C    0.000227   0.001268  -0.000476   0.000024   0.000006   0.000002
    14  O   -0.000000   0.000000  -0.000000   0.000000   0.000000   0.000000
    15  C    0.000000  -0.000000  -0.000000  -0.000000  -0.000000  -0.000000
    16  C   -0.000000   0.000000   0.000000   0.000000  -0.000000  -0.000000
    17  C    0.000000   0.000000  -0.000000   0.000000   0.000000   0.000000
    18  O    0.000000   0.000000   0.000000  -0.000000  -0.000000  -0.000000
    19  C   -0.000000  -0.000000  -0.000000  -0.000000  -0.000000   0.000000
    20  C    0.000000   0.000000  -0.000000   0.000000   0.000000  -0.000000
    21  C    0.000000   0.000000  -0.000000  -0.000000  -0.000000   0.000000
    22  C    0.000000  -0.000000  -0.000000  -0.000000  -0.000000   0.000000
    23  C    0.000000  -0.000000  -0.000000   0.000000   0.000000   0.000000
    24  C    0.000000   0.000000   0.000000   0.000000  -0.000000   0.000000
    25  H   -0.000048  -0.004767  -0.031315   0.367254  -0.005714   0.005778
    26  H    0.002947  -0.003255  -0.031857   0.367500   0.005909  -0.004369
    27  H   -0.000040   0.004481  -0.029911   0.373398  -0.004519  -0.005322
    28  H    0.000009  -0.007278  -0.023430  -0.004562   0.364233   0.005519
    29  H   -0.000054   0.003945  -0.026270  -0.004583   0.364688  -0.005555
    30  H    0.000089  -0.003010  -0.032745   0.005270   0.371939  -0.003055
    31  H    0.005859  -0.005958  -0.025740  -0.004320   0.005698   0.367533
    32  H    0.001002  -0.003902  -0.030614   0.005311  -0.003341   0.371388
    33  H    0.000361   0.005040  -0.028443  -0.004810  -0.005260   0.365401
    34  H    0.010741   0.001610   0.000054   0.000005  -0.000020   0.000006
    35  H   -0.000007  -0.000007  -0.000000  -0.000000   0.000000   0.000000
[...]
   171    C   12  px     Ryd( 3p)     0.00509
   172    C   12  py     Val( 2p)     0.98480
   173    C   12  py     Ryd( 3p)     0.00816
   174    C   12  pz     Val( 2p)     0.97434
   175    C   12  pz     Ryd( 3p)     0.00039
   176    C   12  dxy    Ryd( 3d)     0.00163
   177    C   12  dxz    Ryd( 3d)     0.00180
   178    C   12  dyz    Ryd( 3d)     0.00094
   179    C   12  dx2y2  Ryd( 3d)     0.00139
   180    C   12  dz2    Ryd( 3d)     0.00050

   181    C   13  S      Cor( 1S)     1.99893
   182    C   13  S      Val( 2S)     0.96066
   183    C   13  S      Ryd( 3S)     0.00104
   184    C   13  S      Ryd( 4S)     0.00006
   185    C   13  px     Val( 2p)     1.05036
   186    C   13  px     Ryd( 3p)     0.00510
   187    C   13  py     Val( 2p)     1.21214
   188    C   13  py     Ryd( 3p)     0.00438
   189    C   13  pz     Val( 2p)     1.07503
   190    C   13  pz     Ryd( 3p)     0.00151
   191    C   13  dxy    Ryd( 3d)     0.00067
   192    C   13  dxz    Ryd( 3d)     0.00050
   193    C   13  dyz    Ryd( 3d)     0.00048
   194    C   13  dx2y2  Ryd( 3d)     0.00058
   195    C   13  dz2    Ryd( 3d)     0.00047

   196    O   14  S      Cor( 1S)     1.99969
   197    O   14  S      Val( 2S)     1.56387
   198    O   14  S      Ryd( 3S)     0.00048
   199    O   14  S      Ryd( 4S)     0.00007
   200    O   14  px     Val( 2p)     1.38484
   201    O   14  px     Ryd( 3p)     0.00056
   202    O   14  py     Val( 2p)     1.75398
   203    O   14  py     Ryd( 3p)     0.00303
   204    O   14  pz     Val( 2p)     1.75924
   205    O   14  pz     Ryd( 3p)     0.00184
   206    O   14  dxy    Ryd( 3d)     0.00130
   207    O   14  dxz    Ryd( 3d)     0.00045
   208    O   14  dyz    Ryd( 3d)     0.00190
   209    O   14  dx2y2  Ryd( 3d)     0.00131
   210    O   14  dz2    Ryd( 3d)     0.00072

   211    C   15  S      Cor( 1S)     1.99877
   212    C   15  S      Val( 2S)     0.82395
   213    C   15  S      Ryd( 3S)     0.00104
   214    C   15  S      Ryd( 4S)     0.00015
   215    C   15  px     Val( 2p)     0.78725
   216    C   15  px     Ryd( 3p)     0.00600
   217    C   15  py     Val( 2p)     1.01284
   218    C   15  py     Ryd( 3p)     0.00746
   219    C   15  pz     Val( 2p)     1.02075
   220    C   15  pz     Ryd( 3p)     0.00148
   221    C   15  dxy    Ryd( 3d)     0.00160
   222    C   15  dxz    Ryd( 3d)     0.00143
   223    C   15  dyz    Ryd( 3d)     0.00120
   224    C   15  dx2y2  Ryd( 3d)     0.00145
   225    C   15  dz2    Ryd( 3d)     0.00053

   226    C   16  S      Cor( 1S)     1.99889
   227    C   16  S      Val( 2S)     0.96251
   228    C   16  S      Ryd( 3S)     0.00059
   229    C   16  S      Ryd( 4S)     0.00004
   230    C   16  px     Val( 2p)     1.13856
   231    C   16  px     Ryd( 3p)     0.00267
   232    C   16  py     Val( 2p)     1.09748
   233    C   16  py     Ryd( 3p)     0.00372
   234    C   16  pz     Val( 2p)     1.17090
   235    C   16  pz     Ryd( 3p)     0.00132
   236    C   16  dxy    Ryd( 3d)     0.00063
   237    C   16  dxz    Ryd( 3d)     0.00048
   238    C   16  dyz    Ryd( 3d)     0.00073
   239    C   16  dx2y2  Ryd( 3d)     0.00060
   240    C   16  dz2    Ryd( 3d)     0.00051

   241    C   17  S      Cor( 1S)     1.99913
   242    C   17  S      Val( 2S)     0.81855
   243    C   17  S      Ryd( 3S)     0.00433
   244    C   17  S      Ryd( 4S)     0.00018
   245    C   17  px     Val( 2p)     1.03432
   246    C   17  px     Ryd( 3p)     0.00303
   247    C   17  py     Val( 2p)     0.80477
   248    C   17  py     Ryd( 3p)     0.01699
   249    C   17  pz     Val( 2p)     0.93649
   250    C   17  pz     Ryd( 3p)     0.00143
   251    C   17  dxy    Ryd( 3d)     0.00119
   252    C   17  dxz    Ryd( 3d)     0.00059
   253    C   17  dyz    Ryd( 3d)     0.00272
   254    C   17  dx2y2  Ryd( 3d)     0.00118
   255    C   17  dz2    Ryd( 3d)     0.00033

   256    O   18  S      Cor( 1S)     1.99982
   257    O   18  S      Val( 2S)     1.70551
   258    O   18  S      Ryd( 3S)     0.00009
   259    O   18  S      Ryd( 4S)     0.00004
   260    O   18  px     Val( 2p)     1.11352
   261    O   18  px     Ryd( 3p)     0.00159
   262    O   18  py     Val( 2p)     1.58627
   263    O   18  py     Ryd( 3p)     0.00004
   264    O   18  pz     Val( 2p)     1.83103
   265    O   18  pz     Ryd( 3p)     0.00292
   266    O   18  dxy    Ryd( 3d)     0.00253
   267    O   18  dxz    Ryd( 3d)     0.00010
   268    O   18  dyz    Ryd( 3d)     0.00475
   269    O   18  dx2y2  Ryd( 3d)     0.00392
   270    O   18  dz2    Ryd( 3d)     0.00125

   271    C   19  S      Cor( 1S)     1.99898
   272    C   19  S      Val( 2S)     0.87667
   273    C   19  S      Ryd( 3S)     0.00060
   274    C   19  S      Ryd( 4S)     0.00006
   275    C   19  px     Val( 2p)     1.07721
   276    C   19  px     Ryd( 3p)     0.00550
   277    C   19  py     Val( 2p)     1.08590
   278    C   19  py     Ryd( 3p)     0.00513
   279    C   19  pz     Val( 2p)     1.05919
   280    C   19  pz     Ryd( 3p)     0.00117
   281    C   19  dxy    Ryd( 3d)     0.00079
   282    C   19  dxz    Ryd( 3d)     0.00061
   283    C   19  dyz    Ryd( 3d)     0.00063
   284    C   19  dx2y2  Ryd( 3d)     0.00051
   285    C   19  dz2    Ryd( 3d)     0.00044

   286    C   20  S      Cor( 1S)     1.99905
   287    C   20  S      Val( 2S)     0.94854
   288    C   20  S      Ryd( 3S)     0.00059
   289    C   20  S      Ryd( 4S)     0.00005
   290    C   20  px     Val( 2p)     1.17625
   291    C   20  px     Ryd( 3p)     0.00458
   292    C   20  py     Val( 2p)     1.06094
   293    C   20  py     Ryd( 3p)     0.00388
   294    C   20  pz     Val( 2p)     1.02362
   295    C   20  pz     Ryd( 3p)     0.00160
   296    C   20  dxy    Ryd( 3d)     0.00061
   297    C   20  dxz    Ryd( 3d)     0.00048
   298    C   20  dyz    Ryd( 3d)     0.00051
   299    C   20  dx2y2  Ryd( 3d)     0.00077
   300    C   20  dz2    Ryd( 3d)     0.00037

   301    C   21  S      Cor( 1S)     1.99910
   302    C   21  S      Val( 2S)     0.95969
   303    C   21  S      Ryd( 3S)     0.00059
   304    C   21  S      Ryd( 4S)     0.00003
   305    C   21  px     Val( 2p)     1.06289
   306    C   21  px     Ryd( 3p)     0.00431
   307    C   21  py     Val( 2p)     1.17811
   308    C   21  py     Ryd( 3p)     0.00492
   309    C   21  pz     Val( 2p)     1.01465
   310    C   21  pz     Ryd( 3p)     0.00112
   311    C   21  dxy    Ryd( 3d)     0.00061
   312    C   21  dxz    Ryd( 3d)     0.00057
   313    C   21  dyz    Ryd( 3d)     0.00046
   314    C   21  dx2y2  Ryd( 3d)     0.00081
   315    C   21  dz2    Ryd( 3d)     0.00041

   316    C   22  S      Cor( 1S)     1.99910
   317    C   22  S      Val( 2S)     0.96071
   318    C   22  S      Ryd( 3S)     0.00052
   319    C   22  S      Ryd( 4S)     0.00003
   320    C   22  px     Val( 2p)     1.13841
   321    C   22  px     Ryd( 3p)     0.00458
   322    C   22  py     Val( 2p)     1.11263
   323    C   22  py     Ryd( 3p)     0.00449
   324    C   22  pz     Val( 2p)     1.02312
   325    C   22  pz     Ryd( 3p)     0.00166
   326    C   22  dxy    Ryd( 3d)     0.00086
   327    C   22  dxz    Ryd( 3d)     0.00039
   328    C   22  dyz    Ryd( 3d)     0.00041
   329    C   22  dx2y2  Ryd( 3d)     0.00059
   330    C   22  dz2    Ryd( 3d)     0.00048

   331    C   23  S      Cor( 1S)     1.99910
   332    C   23  S      Val( 2S)     0.95898
   333    C   23  S      Ryd( 3S)     0.00061
   334    C   23  S      Ryd( 4S)     0.00003
   335    C   23  px     Val( 2p)     1.16389
   336    C   23  px     Ryd( 3p)     0.00487
   337    C   23  py     Val( 2p)     1.07395
   338    C   23  py     Ryd( 3p)     0.00441
   339    C   23  pz     Val( 2p)     1.01982
   340    C   23  pz     Ryd( 3p)     0.00124
   341    C   23  dxy    Ryd( 3d)     0.00067
   342    C   23  dxz    Ryd( 3d)     0.00050
   343    C   23  dyz    Ryd( 3d)     0.00057
   344    C   23  dx2y2  Ryd( 3d)     0.00073
   345    C   23  dz2    Ryd( 3d)     0.00039

   346    C   24  S      Cor( 1S)     1.99905
   347    C   24  S      Val( 2S)     0.94558
   348    C   24  S      Ryd( 3S)     0.00058
   349    C   24  S      Ryd( 4S)     0.00005
   350    C   24  px     Val( 2p)     1.05493
   351    C   24  px     Ryd( 3p)     0.00340
   352    C   24  py     Val( 2p)     1.17807
   353    C   24  py     Ryd( 3p)     0.00432
   354    C   24  pz     Val( 2p)     1.03228
   355    C   24  pz     Ryd( 3p)     0.00133
   356    C   24  dxy    Ryd( 3d)     0.00054
   357    C   24  dxz    Ryd( 3d)     0.00055
   358    C   24  dyz    Ryd( 3d)     0.00044
   359    C   24  dx2y2  Ryd( 3d)     0.00082
   360    C   24  dz2    Ryd( 3d)     0.00038

   361    H   25  S      Val( 1S)     0.75565
   362    H   25  S      Ryd( 2S)     0.00110

   363    H   26  S      Val( 1S)     0.76174
   364    H   26  S      Ryd( 2S)     0.00089

   365    H   27  S      Val( 1S)     0.76278
   366    H   27  S      Ryd( 2S)     0.00101

   367    H   28  S      Val( 1S)     0.75400
   368    H   28  S      Ryd( 2S)     0.00105

   369    H   29  S      Val( 1S)     0.76234
   370    H   29  S      Ryd( 2S)     0.00103

   371    H   30  S      Val( 1S)     0.76317
   372    H   30  S      Ryd( 2S)     0.00091

   373    H   31  S      Val( 1S)     0.75498
   374    H   31  S      Ryd( 2S)     0.00102

   375    H   32  S      Val( 1S)     0.75613
   376    H   32  S      Ryd( 2S)     0.00103

   377    H   33  S      Val( 1S)     0.76771
   378    H   33  S      Ryd( 2S)     0.00089

   379    H   34  S      Val( 1S)     0.73698
   380    H   34  S      Ryd( 2S)     0.00092

   381    H   35  S      Val( 1S)     0.74705
   382    H   35  S      Ryd( 2S)     0.00075

   383    H   36  S      Val( 1S)     0.73362
   384    H   36  S      Ryd( 2S)     0.00129

   385    H   37  S      Val( 1S)     0.73579
   386    H   37  S      Ryd( 2S)     0.00089

   387    H   38  S      Val( 1S)     0.75527
   388    H   38  S      Ryd( 2S)     0.00120

   389    H   39  S      Val( 1S)     0.76329
   390    H   39  S      Ryd( 2S)     0.00084

   391    H   40  S      Val( 1S)     0.76516
   392    H   40  S      Ryd( 2S)     0.00082

   393    H   41  S      Val( 1S)     0.76314
   394    H   41  S      Ryd( 2S)     0.00084

   395    H   42  S      Val( 1S)     0.76935
   396    H   42  S      Ryd( 2S)     0.00096

 WARNING:  1 low occupancy (<1.9990e) core orbital  found on  C    8
           1 low occupancy (<1.9990e) core orbital  found on  C   11
           1 low occupancy (<1.9990e) core orbital  found on  C   12
           1 low occupancy (<1.9990e) core orbital  found on  C   13
           1 low occupancy (<1.9990e) core orbital  found on  C   15
           1 low occupancy (<1.9990e) core orbital  found on  C   16
           1 low occupancy (<1.9990e) core orbital  found on  C   19


 Summary of Natural Population Analysis:                  
                                                          
                                       Natural Population 
                Natural  -----------------------------------------------
    Atom  No    Charge         Core      Valence    Rydberg      Total
 -----------------------------------------------------------------------
      O    1   -0.57326      1.99977     6.55345    0.02004     8.57326
      C    2    0.84699      1.99927     3.10490    0.04885     5.15301
      C    3   -0.15250      1.99905     4.14119    0.01226     6.15250
      C    4   -0.66926      1.99938     4.66007    0.00980     6.66926
      C    5   -0.66988      1.99938     4.66075    0.00975     6.66988
      C    6   -0.67037      1.99940     4.65987    0.01111     6.67037
      O    7   -0.54896      1.99969     6.53818    0.01109     8.54896
      C    8    0.31463      1.99875     3.66467    0.02195     5.68537
      C    9   -0.26537      1.99901     4.25304    0.01333     6.26537
      C   10   -0.21685      1.99907     4.20305    0.01473     6.21685
      C   11   -0.15971      1.99882     4.14803    0.01286     6.15971
      C   12    0.36305      1.99872     3.61709    0.02115     5.63695
      C   13   -0.31190      1.99893     4.29819    0.01479     6.31190
      O   14   -0.47329      1.99969     6.46193    0.01166     8.47329
      C   15    0.33410      1.99877     3.64479    0.02234     5.66590
      C   16   -0.37963      1.99889     4.36944    0.01130     6.37963
      C   17    0.37476      1.99913     3.59413    0.03198     5.62524
      O   18   -0.25338      1.99982     6.23632    0.01723     8.25338
      C   19   -0.11338      1.99898     4.09897    0.01544     6.11338
      C   20   -0.22184      1.99905     4.20935    0.01343     6.22184
      C   21   -0.22827      1.99910     4.21533    0.01383     6.22827
      C   22   -0.24798      1.99910     4.23486    0.01402     6.24798
      C   23   -0.22978      1.99910     4.21664    0.01403     6.22978
      C   24   -0.22233      1.99905     4.21087    0.01240     6.22233
      H   25    0.24325      0.00000     0.75565    0.00110     0.75675
      H   26    0.23737      0.00000     0.76174    0.00089     0.76263
      H   27    0.23621      0.00000     0.76278    0.00101     0.76379
      H   28    0.24495      0.00000     0.75400    0.00105     0.75505
      H   29    0.23663      0.00000     0.76234    0.00103     0.76337
      H   30    0.23591      0.00000     0.76317    0.00091     0.76409
      H   31    0.24399      0.00000     0.75498    0.00102     0.75601
      H   32    0.24284      0.00000     0.75613    0.00103     0.75716
      H   33    0.23140      0.00000     0.76771    0.00089     0.76860
      H   34    0.26210      0.00000     0.73698    0.00092     0.73790
      H   35    0.25220      0.00000     0.74705    0.00075     0.74780
      H   36    0.26509      0.00000     0.73362    0.00129     0.73491
      H   37    0.26332      0.00000     0.73579    0.00089     0.73668
      H   38    0.24353      0.00000     0.75527    0.00120     0.75647
      H   39    0.23587      0.00000     0.76329    0.00084     0.76413
      H   40    0.23402      0.00000     0.76516    0.00082     0.76598
      H   41    0.23602      0.00000     0.76314    0.00084     0.76398
      H   42    0.22969      0.00000     0.76935    0.00096     0.77031
 =======================================================================
   * Total *    0.00000     47.97992   121.60327    0.41681   170.00000

                                 Natural Population      
 --------------------------------------------------------
   Core                      47.97992 ( 99.9582% of  48)
   Valence                  121.60327 ( 99.6748% of 122)
   Natural Minimal Basis    169.58319 ( 99.7548% of 170)
   Natural Rydberg Basis      0.41681 (  0.2452% of 170)
 --------------------------------------------------------

    Atom  No          Natural Electron Configuration
 ----------------------------------------------------------------------------
      O    1      [core]2S( 1.70)2p( 4.86)3d( 0.02)
      C    2      [core]2S( 0.78)2p( 2.32)3S( 0.01)3p( 0.03)3d( 0.01)
      C    3      [core]2S( 0.94)2p( 3.20)3p( 0.01)
      C    4      [core]2S( 1.10)2p( 3.56)3p( 0.01)
      C    5      [core]2S( 1.10)2p( 3.56)3p( 0.01)
      C    6      [core]2S( 1.09)2p( 3.57)3p( 0.01)
      O    7      [core]2S( 1.60)2p( 4.94)3d( 0.01)
      C    8      [core]2S( 0.84)2p( 2.83)3p( 0.01)3d( 0.01)
      C    9      [core]2S( 0.96)2p( 3.29)3p( 0.01)
      C   10      [core]2S( 0.94)2p( 3.26)3p( 0.01)
      C   11      [core]2S( 0.88)2p( 3.26)3p( 0.01)
      C   12      [core]2S( 0.82)2p( 2.80)3p( 0.01)3d( 0.01)
      C   13      [core]2S( 0.96)2p( 3.34)3p( 0.01)
      O   14      [core]2S( 1.56)2p( 4.90)3p( 0.01)3d( 0.01)
      C   15      [core]2S( 0.82)2p( 2.82)3p( 0.01)3d( 0.01)
      C   16      [core]2S( 0.96)2p( 3.41)3p( 0.01)
      C   17      [core]2S( 0.82)2p( 2.78)3p( 0.02)3d( 0.01)
      O   18      [core]2S( 1.71)2p( 4.53)3d( 0.01)
      C   19      [core]2S( 0.88)2p( 3.22)3p( 0.01)
      C   20      [core]2S( 0.95)2p( 3.26)3p( 0.01)
      C   21      [core]2S( 0.96)2p( 3.26)3p( 0.01)
      C   22      [core]2S( 0.96)2p( 3.27)3p( 0.01)
      C   23      [core]2S( 0.96)2p( 3.26)3p( 0.01)
      C   24      [core]2S( 0.95)2p( 3.27)3p( 0.01)
      H   25            1S( 0.76)
      H   26            1S( 0.76)
      H   27            1S( 0.76)
      H   28            1S( 0.75)
      H   29            1S( 0.76)
      H   30            1S( 0.76)
      H   31            1S( 0.75)
      H   32            1S( 0.76)
      H   33            1S( 0.77)
      H   34            1S( 0.74)
      H   35            1S( 0.75)
      H   36            1S( 0.73)
      H   37            1S( 0.74)
      H   38            1S( 0.76)
      H   39            1S( 0.76)
      H   40            1S( 0.77)
      H   41            1S( 0.76)
      H   42            1S( 0.77)


 NBO analysis skipped by request.
 Leave Link  607 at Wed Sep 29 18:23:29 2021, MaxMem= 1879048192 cpu:      34.1
 (Enter /sw/target/amd/app/gaussian/Gaussian09RevA.02_gcc-4.9.2/g09/l9999.exe)
 1\1\GINC-HERMITE\SP\RTD-B3LYP-FC\6-31G(d)\C20H18O4\JSCHLEINITZ\29-Sep-
 2021\0\\#p TD(NStates=10, Root=1) b3lyp/6-31G* volume pop=NPA density=
 current Geom=AllCheck Guess=Read\\O=C(C(C)(C)C)Oc1ccc2c(c1)oc(cc2=O)c1
 ccccc1_conf_0\\0,1\O,0,3.0741302785,-0.1682536214,-0.9987774881\C,0,2.
 6884013943,0.9123930018,-0.6295444074\C,0,1.2361983872,1.3952543894,-0
 .5989051805\C,0,0.8505980803,1.7542900131,0.854171712\C,0,1.1032526169
 ,2.6447232933,-1.4990607172\C,0,0.3357673972,0.2648288993,-1.121828566
 \O,0,3.5330278603,1.8976097547,-0.1609307183\C,0,4.9086067383,1.702875
 9945,-0.1203168838\C,0,5.6349266244,1.2205105248,-1.2214404165\C,0,7.0
 146442717,1.1396835851,-1.1259966175\C,0,7.6894313956,1.532354952,0.04
 06921674\C,0,6.9322821391,2.0126454448,1.1157824121\C,0,5.5402884075,2
 .1009728918,1.0498713907\O,0,7.5134440382,2.414303069,2.2906006359\C,0
 ,8.8720943637,2.3651520227,2.4324095596\C,0,9.6804210039,1.9305931852,
 1.4317518272\C,0,9.1634364802,1.4634774309,0.1500739741\O,0,9.88227906
 06,1.0575508651,-0.7627262723\C,0,9.3074831605,2.8456333135,3.75738681
 49\C,0,8.4576213671,3.6460435037,4.5394218581\C,0,8.8755737195,4.11492
 05551,5.7830225114\C,0,10.1427936729,3.7892821664,6.2688392847\C,0,10.
 9908145224,2.9856256556,5.5030471516\C,0,10.5776128709,2.5147322128,4.
 2600736334\H,0,1.4734621064,2.5633452548,1.245445174\H,0,0.9521807841,
 0.8877503538,1.5176491508\H,0,-0.1956166788,2.0791280734,0.8847135352\
 H,0,1.7343086193,3.4639020672,-1.1432956706\H,0,0.0620016191,2.9864853
 484,-1.4988285438\H,0,1.3818405315,2.4198294405,-2.535088391\H,0,0.426
 2985262,-0.6333398634,-0.5036542644\H,0,0.5998298777,-0.0114827451,-2.
 1470202524\H,0,-0.710136127,0.5907526143,-1.1090135109\H,0,5.118567902
 1,0.9124954536,-2.1212329804\H,0,7.6153622205,0.7732391155,-1.95220529
 63\H,0,4.9684625687,2.4757401227,1.890899761\H,0,10.7558666444,1.93649
 00578,1.5579001274\H,0,7.4735330751,3.9033233556,4.1646402296\H,0,8.20
 88957773,4.7377979011,6.3729567323\H,0,10.4663233259,4.1539296235,7.23
 98124053\H,0,11.9738599159,2.7161329155,5.8787856161\H,0,11.2357021307
 ,1.8690632342,3.6875640192\\Version=AM64L-G09RevA.02\State=1-A\HF=-107
 3.8890299\RMSD=8.158e-09\Dipole=-0.6843797,0.5510057,-0.0557943\Quadru
 pole=8.8255482,-8.5849649,-0.2405833,-4.2419746,2.8752521,-0.8381983\P
 G=C01 [X(C20H18O4)]\\@


 TIME IS IN FACT THE HERO OF THE PLOT. THE TIME
 WITH WHICH WE HAVE TO DEAL IS OF THE ORDER OF TWO
 BILLION YEARS...GIVEN SO MUCH TIME, THE "IMPOSSIBLE"
 BECOMES POSSIBLE, THE POSSIBLE PROBABLE, THE PROBABLE
 VIRTUALLY CERTAIN.  ONE HAS ONLY TO WAIT, TIME
 ITSELF PERFORMS THE MIRACLES.
 "ORIGIN OF LIFE" LECTURES, GEORGE WALD, 1954
 Job cpu time:  0 days  9 hours 34 minutes 24.5 seconds.
 File lengths (MBytes):  RWF=    507 Int=      0 D2E=      0 Chk=     70 Scr=      1
 Normal termination of Gaussian 09 at Wed Sep 29 18:23:40 2021.
