 Entering Gaussian System, Link 0=g09
 Input=C21H30O3Si_af72_conf_0.com
 Output=C21H30O3Si_af72_conf_0.log
 Initial command:
 /sw/target/amd/app/gaussian/Gaussian09RevA.02_gcc-4.9.2/g09/l1.exe /home/jschleinitz/gaussian/Gau-2557004.inp -scrdir=/home/jschleinitz/gaussian/
 Entering Link 1 = /sw/target/amd/app/gaussian/Gaussian09RevA.02_gcc-4.9.2/g09/l1.exe PID=   2557006.
  
 Copyright (c) 1988,1990,1992,1993,1995,1998,2003,2009, Gaussian, Inc.
                  All Rights Reserved.
  
 This is part of the Gaussian(R) 09 program.  It is based on
 the Gaussian(R) 03 system (copyright 2003, Gaussian, Inc.),
 the Gaussian(R) 98 system (copyright 1998, Gaussian, Inc.),
 the Gaussian(R) 94 system (copyright 1995, Gaussian, Inc.),
 the Gaussian 92(TM) system (copyright 1992, Gaussian, Inc.),
 the Gaussian 90(TM) system (copyright 1990, Gaussian, Inc.),
 the Gaussian 88(TM) system (copyright 1988, Gaussian, Inc.),
 the Gaussian 86(TM) system (copyright 1986, Carnegie Mellon
 University), and the Gaussian 82(TM) system (copyright 1983,
 Carnegie Mellon University). Gaussian is a federally registered
 trademark of Gaussian, Inc.
  
 This software contains proprietary and confidential information,
 including trade secrets, belonging to Gaussian, Inc.
  
 This software is provided under written license and may be
 used, copied, transmitted, or stored only in accord with that
 written license.
  
 The following legend is applicable only to US Government
 contracts under FAR:
  
                    RESTRICTED RIGHTS LEGEND
  
 Use, reproduction and disclosure by the US Government is
 subject to restrictions as set forth in subparagraphs (a)
 and (c) of the Commercial Computer Software - Restricted
 Rights clause in FAR 52.227-19.
  
 Gaussian, Inc.
 340 Quinnipiac St., Bldg. 40, Wallingford CT 06492
  
  
 ---------------------------------------------------------------
 Warning -- This program may not be used in any manner that
 competes with the business of Gaussian, Inc. or will provide
 assistance to any competitor of Gaussian, Inc.  The licensee
 of this program is prohibited from giving any competitor of
 Gaussian, Inc. access to this program.  By using this program,
 the user acknowledges that Gaussian, Inc. is engaged in the
 business of creating and licensing software in the field of
 computational chemistry and represents and warrants to the
 licensee that it is not a competitor of Gaussian, Inc. and that
 it will not use this program in any manner prohibited above.
 ---------------------------------------------------------------
  

 Cite this work as:
 Gaussian 09, Revision A.02,
 M. J. Frisch, G. W. Trucks, H. B. Schlegel, G. E. Scuseria, 
 M. A. Robb, J. R. Cheeseman, G. Scalmani, V. Barone, B. Mennucci, 
 G. A. Petersson, H. Nakatsuji, M. Caricato, X. Li, H. P. Hratchian, 
 A. F. Izmaylov, J. Bloino, G. Zheng, J. L. Sonnenberg, M. Hada, 
 M. Ehara, K. Toyota, R. Fukuda, J. Hasegawa, M. Ishida, T. Nakajima, 
 Y. Honda, O. Kitao, H. Nakai, T. Vreven, J. A. Montgomery, Jr., 
 J. E. Peralta, F. Ogliaro, M. Bearpark, J. J. Heyd, E. Brothers, 
 K. N. Kudin, V. N. Staroverov, R. Kobayashi, J. Normand, 
 K. Raghavachari, A. Rendell, J. C. Burant, S. S. Iyengar, J. Tomasi, 
 M. Cossi, N. Rega, J. M. Millam, M. Klene, J. E. Knox, J. B. Cross, 
 V. Bakken, C. Adamo, J. Jaramillo, R. Gomperts, R. E. Stratmann, 
 O. Yazyev, A. J. Austin, R. Cammi, C. Pomelli, J. W. Ochterski, 
 R. L. Martin, K. Morokuma, V. G. Zakrzewski, G. A. Voth, 
 P. Salvador, J. J. Dannenberg, S. Dapprich, A. D. Daniels, 
 O. Farkas, J. B. Foresman, J. V. Ortiz, J. Cioslowski, 
 and D. J. Fox, Gaussian, Inc., Wallingford CT, 2009.
 
 ******************************************
 Gaussian 09:  AM64L-G09RevA.02 11-Jun-2009
                29-Sep-2021 
 ******************************************
 %nproc=9
 Will use up to    9 processors via shared memory.
 %mem=18gb
 %chk=C21H30O3Si_af72_conf_0.chk
 -----------------------------------
 #p opt b3lyp/6-31G* scf=(xqc,tight)
 -----------------------------------
 1/14=-1,18=20,19=15,26=3,38=1/1,3;
 2/9=110,12=2,17=6,18=5,40=1/2;
 3/5=1,6=6,7=1,11=2,16=1,25=1,30=1,71=1,74=-5/1,2,3;
 4//1;
 5/5=2,8=3,13=1,32=2,38=5/2,8;
 6/7=2,8=2,9=2,10=2,28=1/1;
 7//1,2,3,16;
 1/14=-1,18=20,19=15/3(2);
 2/9=110/2;
 99//99;
 2/9=110/2;
 3/5=1,6=6,7=1,11=2,16=1,25=1,30=1,71=1,74=-5/1,2,3;
 4/5=5,16=3/1;
 5/5=2,8=3,13=1,32=2,38=5/2,8;
 7//1,2,3,16;
 1/14=-1,18=20,19=15/3(-5);
 2/9=110/2;
 6/7=2,8=2,9=2,10=2,19=2,28=1/1;
 99/9=1/99;
 Leave Link    1 at Wed Sep 29 10:09:59 2021, MaxMem= 2415919104 cpu:       0.1
 (Enter /sw/target/amd/app/gaussian/Gaussian09RevA.02_gcc-4.9.2/g09/l101.exe)
 ------------------------------------------------------
 O=C(C(C)(C)C)Oc1cccc2c1cccc2O[Si](C(C)(C)C)(C)C_conf_0
 ------------------------------------------------------
 Symbolic Z-matrix:
 Charge =  0 Multiplicity = 1
 O                     2.41779  -0.20963  -1.0831 
 C                     2.01758  -0.75633  -0.06939 
 C                     0.69312  -1.51867   0.06214 
 C                     0.94686  -2.99409  -0.25732 
 C                     0.12251  -1.37742   1.48601 
 C                    -0.32134  -0.9276   -0.92703 
 O                     2.69507  -0.82559   1.15065 
 C                     3.81149  -0.00061   1.38958 
 C                     3.74526   1.35699   1.07746 
 C                     4.82076   2.17423   1.38725 
 C                     5.94061   1.63625   2.02763 
 C                     6.01432   0.26819   2.38073 
 C                     4.91862  -0.56775   2.05737 
 C                     4.96653  -1.93154   2.41436 
 C                     6.08872  -2.47488   3.03558 
 C                     7.17471  -1.6608    3.34022 
 C                     7.13124  -0.29265   3.05171 
 O                     8.15776   0.5578    3.40049 
 Si                    9.3109    0.5297    4.61116 
 C                     9.8889    2.50696   5.01607 
 C                     8.6398    3.30971   5.43242 
 C                     10.92641   2.49831   6.15659 
 C                     10.50498   3.11545   3.74055 
 C                     8.67357  -0.17643   6.23638 
 C                     10.88096  -0.37693   4.11167 
 H                     1.69459  -3.4239    0.41987 
 H                     1.32616  -3.12011  -1.27814 
 H                     0.02894  -3.5843   -0.16263 
 H                     0.76287  -1.86749   2.22931 
 H                    -0.87115  -1.83024   1.56817 
 H                     0.0417   -0.32209   1.77185 
 H                     0.01598  -1.04117  -1.96323 
 H                    -0.46655   0.14424  -0.74696 
 H                    -1.29601  -1.41982  -0.83758 
 H                     2.86818   1.77869   0.59547 
 H                     4.79037   3.22986   1.13205 
 H                     6.77237   2.30041   2.25341 
 H                     4.12624  -2.5878    2.1956 
 H                     6.11331  -3.53441   3.27761 
 H                     8.04414  -2.11311   3.80559 
 H                     8.1758    2.89849   6.33529 
 H                     7.88191   3.314     4.64096 
 H                     8.904     4.35226   5.64385 
 H                     10.52354   2.04494   7.06855 
 H                     11.23588   3.51916   6.40682 
 H                     11.82723   1.94104   5.87811 
 H                     9.77347   3.16783   2.92632 
 H                     11.36051   2.5313    3.38475 
 H                     10.86053   4.1345    3.93289 
 H                     7.67704  -0.61022   6.11847 
 H                     8.61327   0.59335   7.00953 
 H                     9.34551  -0.9623    6.59478 
 H                     11.26262  -0.004     3.15743 
 H                     10.69288  -1.4499    4.01273 
 H                     11.65883  -0.24121   4.86887 
 
 NAtoms=     55 NQM=     55 NQMF=      0 NMic=      0 NMicF=      0 NTot=     55.
                    Isotopes and Nuclear Properties:
 (Nuclear quadrupole moments (NQMom) in fm**2, nuclear magnetic moments (NMagM)
  in nuclear magnetons)

  Atom         1           2           3           4           5           6           7           8           9          10
 IAtWgt=          16          12          12          12          12          12          16          12          12          12
 AtmWgt=  15.9949146  12.0000000  12.0000000  12.0000000  12.0000000  12.0000000  15.9949146  12.0000000  12.0000000  12.0000000
 NucSpn=           0           0           0           0           0           0           0           0           0           0
 AtZEff=   0.0000000   0.0000000   0.0000000   0.0000000   0.0000000   0.0000000   0.0000000   0.0000000   0.0000000   0.0000000
 NQMom=    0.0000000   0.0000000   0.0000000   0.0000000   0.0000000   0.0000000   0.0000000   0.0000000   0.0000000   0.0000000
 NMagM=    0.0000000   0.0000000   0.0000000   0.0000000   0.0000000   0.0000000   0.0000000   0.0000000   0.0000000   0.0000000

  Atom        11          12          13          14          15          16          17          18          19          20
 IAtWgt=          12          12          12          12          12          12          12          16          28          12
 AtmWgt=  12.0000000  12.0000000  12.0000000  12.0000000  12.0000000  12.0000000  12.0000000  15.9949146  27.9769284  12.0000000
 NucSpn=           0           0           0           0           0           0           0           0           0           0
 AtZEff=   0.0000000   0.0000000   0.0000000   0.0000000   0.0000000   0.0000000   0.0000000   0.0000000   0.0000000   0.0000000
 NQMom=    0.0000000   0.0000000   0.0000000   0.0000000   0.0000000   0.0000000   0.0000000   0.0000000   0.0000000   0.0000000
 NMagM=    0.0000000   0.0000000   0.0000000   0.0000000   0.0000000   0.0000000   0.0000000   0.0000000   0.0000000   0.0000000

  Atom        21          22          23          24          25          26          27          28          29          30
 IAtWgt=          12          12          12          12          12           1           1           1           1           1
 AtmWgt=  12.0000000  12.0000000  12.0000000  12.0000000  12.0000000   1.0078250   1.0078250   1.0078250   1.0078250   1.0078250
 NucSpn=           0           0           0           0           0           1           1           1           1           1
 AtZEff=   0.0000000   0.0000000   0.0000000   0.0000000   0.0000000   0.0000000   0.0000000   0.0000000   0.0000000   0.0000000
 NQMom=    0.0000000   0.0000000   0.0000000   0.0000000   0.0000000   0.0000000   0.0000000   0.0000000   0.0000000   0.0000000
 NMagM=    0.0000000   0.0000000   0.0000000   0.0000000   0.0000000   2.7928460   2.7928460   2.7928460   2.7928460   2.7928460

  Atom        31          32          33          34          35          36          37          38          39          40
 IAtWgt=           1           1           1           1           1           1           1           1           1           1
 AtmWgt=   1.0078250   1.0078250   1.0078250   1.0078250   1.0078250   1.0078250   1.0078250   1.0078250   1.0078250   1.0078250
 NucSpn=           1           1           1           1           1           1           1           1           1           1
 AtZEff=   0.0000000   0.0000000   0.0000000   0.0000000   0.0000000   0.0000000   0.0000000   0.0000000   0.0000000   0.0000000
 NQMom=    0.0000000   0.0000000   0.0000000   0.0000000   0.0000000   0.0000000   0.0000000   0.0000000   0.0000000   0.0000000
 NMagM=    2.7928460   2.7928460   2.7928460   2.7928460   2.7928460   2.7928460   2.7928460   2.7928460   2.7928460   2.7928460

  Atom        41          42          43          44          45          46          47          48          49          50
 IAtWgt=           1           1           1           1           1           1           1           1           1           1
 AtmWgt=   1.0078250   1.0078250   1.0078250   1.0078250   1.0078250   1.0078250   1.0078250   1.0078250   1.0078250   1.0078250
 NucSpn=           1           1           1           1           1           1           1           1           1           1
 AtZEff=   0.0000000   0.0000000   0.0000000   0.0000000   0.0000000   0.0000000   0.0000000   0.0000000   0.0000000   0.0000000
 NQMom=    0.0000000   0.0000000   0.0000000   0.0000000   0.0000000   0.0000000   0.0000000   0.0000000   0.0000000   0.0000000
 NMagM=    2.7928460   2.7928460   2.7928460   2.7928460   2.7928460   2.7928460   2.7928460   2.7928460   2.7928460   2.7928460

  Atom        51          52          53          54          55
 IAtWgt=           1           1           1           1           1
 AtmWgt=   1.0078250   1.0078250   1.0078250   1.0078250   1.0078250
 NucSpn=           1           1           1           1           1
 AtZEff=   0.0000000   0.0000000   0.0000000   0.0000000   0.0000000
 NQMom=    0.0000000   0.0000000   0.0000000   0.0000000   0.0000000
 NMagM=    2.7928460   2.7928460   2.7928460   2.7928460   2.7928460
 Leave Link  101 at Wed Sep 29 10:10:00 2021, MaxMem= 2415919104 cpu:       0.2
 (Enter /sw/target/amd/app/gaussian/Gaussian09RevA.02_gcc-4.9.2/g09/l103.exe)

 GradGradGradGradGradGradGradGradGradGradGradGradGradGradGradGradGradGrad
 Berny optimization.
 Initialization pass.
                           ----------------------------
                           !    Initial Parameters    !
                           ! (Angstroms and Degrees)  !
 --------------------------                            --------------------------
 ! Name  Definition              Value          Derivative Info.                !
 --------------------------------------------------------------------------------
 ! R1    R(1,2)                  1.2193         estimate D2E/DX2                !
 ! R2    R(2,3)                  1.5338         estimate D2E/DX2                !
 ! R3    R(2,7)                  1.3972         estimate D2E/DX2                !
 ! R4    R(3,4)                  1.5308         estimate D2E/DX2                !
 ! R5    R(3,5)                  1.5404         estimate D2E/DX2                !
 ! R6    R(3,6)                  1.5352         estimate D2E/DX2                !
 ! R7    R(4,26)                 1.0966         estimate D2E/DX2                !
 ! R8    R(4,27)                 1.0963         estimate D2E/DX2                !
 ! R9    R(4,28)                 1.0954         estimate D2E/DX2                !
 ! R10   R(5,29)                 1.0967         estimate D2E/DX2                !
 ! R11   R(5,30)                 1.0951         estimate D2E/DX2                !
 ! R12   R(5,31)                 1.0963         estimate D2E/DX2                !
 ! R13   R(6,32)                 1.0956         estimate D2E/DX2                !
 ! R14   R(6,33)                 1.0965         estimate D2E/DX2                !
 ! R15   R(6,34)                 1.0956         estimate D2E/DX2                !
 ! R16   R(7,8)                  1.4086         estimate D2E/DX2                !
 ! R17   R(8,9)                  1.3946         estimate D2E/DX2                !
 ! R18   R(8,13)                 1.4118         estimate D2E/DX2                !
 ! R19   R(9,10)                 1.3858         estimate D2E/DX2                !
 ! R20   R(9,35)                 1.086          estimate D2E/DX2                !
 ! R21   R(10,11)                1.3977         estimate D2E/DX2                !
 ! R22   R(10,36)                1.0865         estimate D2E/DX2                !
 ! R23   R(11,12)                1.4148         estimate D2E/DX2                !
 ! R24   R(11,37)                1.0881         estimate D2E/DX2                !
 ! R25   R(12,13)                1.4156         estimate D2E/DX2                !
 ! R26   R(12,17)                1.4185         estimate D2E/DX2                !
 ! R27   R(13,14)                1.4106         estimate D2E/DX2                !
 ! R28   R(14,15)                1.393          estimate D2E/DX2                !
 ! R29   R(14,38)                1.0884         estimate D2E/DX2                !
 ! R30   R(15,16)                1.391          estimate D2E/DX2                !
 ! R31   R(15,39)                1.0871         estimate D2E/DX2                !
 ! R32   R(16,17)                1.3989         estimate D2E/DX2                !
 ! R33   R(16,40)                1.0849         estimate D2E/DX2                !
 ! R34   R(17,18)                1.3779         estimate D2E/DX2                !
 ! R35   R(18,19)                1.6722         estimate D2E/DX2                !
 ! R36   R(19,20)                2.0994         estimate D2E/DX2                !
 ! R37   R(19,24)                1.8831         estimate D2E/DX2                !
 ! R38   R(19,25)                1.8806         estimate D2E/DX2                !
 ! R39   R(20,21)                1.5421         estimate D2E/DX2                !
 ! R40   R(20,22)                1.5418         estimate D2E/DX2                !
 ! R41   R(20,23)                1.5417         estimate D2E/DX2                !
 ! R42   R(21,41)                1.0952         estimate D2E/DX2                !
 ! R43   R(21,42)                1.0958         estimate D2E/DX2                !
 ! R44   R(21,43)                1.0961         estimate D2E/DX2                !
 ! R45   R(22,44)                1.0952         estimate D2E/DX2                !
 ! R46   R(22,45)                1.0957         estimate D2E/DX2                !
 ! R47   R(22,46)                1.0953         estimate D2E/DX2                !
 ! R48   R(23,47)                1.0958         estimate D2E/DX2                !
 ! R49   R(23,48)                1.0953         estimate D2E/DX2                !
 ! R50   R(23,49)                1.0963         estimate D2E/DX2                !
 ! R51   R(24,50)                1.0932         estimate D2E/DX2                !
 ! R52   R(24,51)                1.0927         estimate D2E/DX2                !
 ! R53   R(24,52)                1.0943         estimate D2E/DX2                !
 ! R54   R(25,53)                1.0933         estimate D2E/DX2                !
 ! R55   R(25,54)                1.0938         estimate D2E/DX2                !
 ! R56   R(25,55)                1.094          estimate D2E/DX2                !
 ! A1    A(1,2,3)              125.2803         estimate D2E/DX2                !
 ! A2    A(1,2,7)              126.0879         estimate D2E/DX2                !
 ! A3    A(3,2,7)              108.613          estimate D2E/DX2                !
 ! A4    A(2,3,4)              108.5429         estimate D2E/DX2                !
 ! A5    A(2,3,5)              110.7042         estimate D2E/DX2                !
 ! A6    A(2,3,6)              108.9036         estimate D2E/DX2                !
 ! A7    A(4,3,5)              110.04           estimate D2E/DX2                !
 ! A8    A(4,3,6)              110.2519         estimate D2E/DX2                !
 ! A9    A(5,3,6)              108.3902         estimate D2E/DX2                !
 ! A10   A(3,4,26)             111.2191         estimate D2E/DX2                !
 ! A11   A(3,4,27)             111.252          estimate D2E/DX2                !
 ! A12   A(3,4,28)             111.2468         estimate D2E/DX2                !
 ! A13   A(26,4,27)            107.1022         estimate D2E/DX2                !
 ! A14   A(26,4,28)            107.8681         estimate D2E/DX2                !
 ! A15   A(27,4,28)            107.9681         estimate D2E/DX2                !
 ! A16   A(3,5,29)             111.6675         estimate D2E/DX2                !
 ! A17   A(3,5,30)             111.5647         estimate D2E/DX2                !
 ! A18   A(3,5,31)             110.8895         estimate D2E/DX2                !
 ! A19   A(29,5,30)            107.1092         estimate D2E/DX2                !
 ! A20   A(29,5,31)            107.2461         estimate D2E/DX2                !
 ! A21   A(30,5,31)            108.1556         estimate D2E/DX2                !
 ! A22   A(3,6,32)             111.4698         estimate D2E/DX2                !
 ! A23   A(3,6,33)             110.9797         estimate D2E/DX2                !
 ! A24   A(3,6,34)             111.2402         estimate D2E/DX2                !
 ! A25   A(32,6,33)            107.3027         estimate D2E/DX2                !
 ! A26   A(32,6,34)            107.7316         estimate D2E/DX2                !
 ! A27   A(33,6,34)            107.9353         estimate D2E/DX2                !
 ! A28   A(2,7,8)              120.2245         estimate D2E/DX2                !
 ! A29   A(7,8,9)              119.6398         estimate D2E/DX2                !
 ! A30   A(7,8,13)             117.8064         estimate D2E/DX2                !
 ! A31   A(9,8,13)             122.2859         estimate D2E/DX2                !
 ! A32   A(8,9,10)             119.1553         estimate D2E/DX2                !
 ! A33   A(8,9,35)             121.0429         estimate D2E/DX2                !
 ! A34   A(10,9,35)            119.8016         estimate D2E/DX2                !
 ! A35   A(9,10,11)            119.8167         estimate D2E/DX2                !
 ! A36   A(9,10,36)            119.918          estimate D2E/DX2                !
 ! A37   A(11,10,36)           120.2653         estimate D2E/DX2                !
 ! A38   A(10,11,12)           121.8889         estimate D2E/DX2                !
 ! A39   A(10,11,37)           118.2024         estimate D2E/DX2                !
 ! A40   A(12,11,37)           119.9086         estimate D2E/DX2                !
 ! A41   A(11,12,13)           118.2726         estimate D2E/DX2                !
 ! A42   A(11,12,17)           122.7773         estimate D2E/DX2                !
 ! A43   A(13,12,17)           118.948          estimate D2E/DX2                !
 ! A44   A(8,13,12)            118.5415         estimate D2E/DX2                !
 ! A45   A(8,13,14)            122.3255         estimate D2E/DX2                !
 ! A46   A(12,13,14)           119.1328         estimate D2E/DX2                !
 ! A47   A(13,14,15)           121.1551         estimate D2E/DX2                !
 ! A48   A(13,14,38)           120.3891         estimate D2E/DX2                !
 ! A49   A(15,14,38)           118.4505         estimate D2E/DX2                !
 ! A50   A(14,15,16)           119.8895         estimate D2E/DX2                !
 ! A51   A(14,15,39)           119.8457         estimate D2E/DX2                !
 ! A52   A(16,15,39)           120.2645         estimate D2E/DX2                !
 ! A53   A(15,16,17)           120.1954         estimate D2E/DX2                !
 ! A54   A(15,16,40)           118.398          estimate D2E/DX2                !
 ! A55   A(17,16,40)           121.4063         estimate D2E/DX2                !
 ! A56   A(12,17,16)           120.5767         estimate D2E/DX2                !
 ! A57   A(12,17,18)           117.5343         estimate D2E/DX2                !
 ! A58   A(16,17,18)           121.889          estimate D2E/DX2                !
 ! A59   A(17,18,19)           133.3638         estimate D2E/DX2                !
 ! A60   A(18,19,20)           108.2805         estimate D2E/DX2                !
 ! A61   A(18,19,24)           113.4375         estimate D2E/DX2                !
 ! A62   A(18,19,25)           113.05           estimate D2E/DX2                !
 ! A63   A(20,19,24)           106.2536         estimate D2E/DX2                !
 ! A64   A(20,19,25)           105.9872         estimate D2E/DX2                !
 ! A65   A(24,19,25)           109.3301         estimate D2E/DX2                !
 ! A66   A(19,20,21)           108.6227         estimate D2E/DX2                !
 ! A67   A(19,20,22)           108.8228         estimate D2E/DX2                !
 ! A68   A(19,20,23)           108.7946         estimate D2E/DX2                !
 ! A69   A(21,20,22)           110.3807         estimate D2E/DX2                !
 ! A70   A(21,20,23)           109.9753         estimate D2E/DX2                !
 ! A71   A(22,20,23)           110.2014         estimate D2E/DX2                !
 ! A72   A(20,21,41)           111.7328         estimate D2E/DX2                !
 ! A73   A(20,21,42)           111.5463         estimate D2E/DX2                !
 ! A74   A(20,21,43)           110.608          estimate D2E/DX2                !
 ! A75   A(41,21,42)           107.6897         estimate D2E/DX2                !
 ! A76   A(41,21,43)           107.4706         estimate D2E/DX2                !
 ! A77   A(42,21,43)           107.5959         estimate D2E/DX2                !
 ! A78   A(20,22,44)           111.761          estimate D2E/DX2                !
 ! A79   A(20,22,45)           110.7179         estimate D2E/DX2                !
 ! A80   A(20,22,46)           111.6053         estimate D2E/DX2                !
 ! A81   A(44,22,45)           107.4227         estimate D2E/DX2                !
 ! A82   A(44,22,46)           107.6761         estimate D2E/DX2                !
 ! A83   A(45,22,46)           107.4467         estimate D2E/DX2                !
 ! A84   A(20,23,47)           111.522          estimate D2E/DX2                !
 ! A85   A(20,23,48)           111.7399         estimate D2E/DX2                !
 ! A86   A(20,23,49)           110.569          estimate D2E/DX2                !
 ! A87   A(47,23,48)           107.7897         estimate D2E/DX2                !
 ! A88   A(47,23,49)           107.6028         estimate D2E/DX2                !
 ! A89   A(48,23,49)           107.4221         estimate D2E/DX2                !
 ! A90   A(19,24,50)           111.3592         estimate D2E/DX2                !
 ! A91   A(19,24,51)           111.418          estimate D2E/DX2                !
 ! A92   A(19,24,52)           110.1286         estimate D2E/DX2                !
 ! A93   A(50,24,51)           107.7914         estimate D2E/DX2                !
 ! A94   A(50,24,52)           108.0643         estimate D2E/DX2                !
 ! A95   A(51,24,52)           107.9425         estimate D2E/DX2                !
 ! A96   A(19,25,53)           111.0282         estimate D2E/DX2                !
 ! A97   A(19,25,54)           110.695          estimate D2E/DX2                !
 ! A98   A(19,25,55)           110.4866         estimate D2E/DX2                !
 ! A99   A(53,25,54)           108.401          estimate D2E/DX2                !
 ! A100  A(53,25,55)           108.2741         estimate D2E/DX2                !
 ! A101  A(54,25,55)           107.8519         estimate D2E/DX2                !
 ! D1    D(1,2,3,4)             91.5234         estimate D2E/DX2                !
 ! D2    D(1,2,3,5)           -147.6015         estimate D2E/DX2                !
 ! D3    D(1,2,3,6)            -28.5284         estimate D2E/DX2                !
 ! D4    D(7,2,3,4)            -86.9742         estimate D2E/DX2                !
 ! D5    D(7,2,3,5)             33.9009         estimate D2E/DX2                !
 ! D6    D(7,2,3,6)            152.974          estimate D2E/DX2                !
 ! D7    D(1,2,7,8)             13.7491         estimate D2E/DX2                !
 ! D8    D(3,2,7,8)           -167.7686         estimate D2E/DX2                !
 ! D9    D(2,3,4,26)            58.9287         estimate D2E/DX2                !
 ! D10   D(2,3,4,27)           -60.378          estimate D2E/DX2                !
 ! D11   D(2,3,4,28)           179.2008         estimate D2E/DX2                !
 ! D12   D(5,3,4,26)           -62.3556         estimate D2E/DX2                !
 ! D13   D(5,3,4,27)           178.3376         estimate D2E/DX2                !
 ! D14   D(5,3,4,28)            57.9164         estimate D2E/DX2                !
 ! D15   D(6,3,4,26)           178.1374         estimate D2E/DX2                !
 ! D16   D(6,3,4,27)            58.8307         estimate D2E/DX2                !
 ! D17   D(6,3,4,28)           -61.5905         estimate D2E/DX2                !
 ! D18   D(2,3,5,29)           -65.9333         estimate D2E/DX2                !
 ! D19   D(2,3,5,30)           174.2383         estimate D2E/DX2                !
 ! D20   D(2,3,5,31)            53.6106         estimate D2E/DX2                !
 ! D21   D(4,3,5,29)            54.0497         estimate D2E/DX2                !
 ! D22   D(4,3,5,30)           -65.7787         estimate D2E/DX2                !
 ! D23   D(4,3,5,31)           173.5935         estimate D2E/DX2                !
 ! D24   D(6,3,5,29)           174.684          estimate D2E/DX2                !
 ! D25   D(6,3,5,30)            54.8556         estimate D2E/DX2                !
 ! D26   D(6,3,5,31)           -65.7722         estimate D2E/DX2                !
 ! D27   D(2,3,6,32)            61.9496         estimate D2E/DX2                !
 ! D28   D(2,3,6,33)           -57.595          estimate D2E/DX2                !
 ! D29   D(2,3,6,34)          -177.7862         estimate D2E/DX2                !
 ! D30   D(4,3,6,32)           -57.0394         estimate D2E/DX2                !
 ! D31   D(4,3,6,33)          -176.584          estimate D2E/DX2                !
 ! D32   D(4,3,6,34)            63.2248         estimate D2E/DX2                !
 ! D33   D(5,3,6,32)          -177.5421         estimate D2E/DX2                !
 ! D34   D(5,3,6,33)            62.9133         estimate D2E/DX2                !
 ! D35   D(5,3,6,34)           -57.2779         estimate D2E/DX2                !
 ! D36   D(2,7,8,9)             46.6363         estimate D2E/DX2                !
 ! D37   D(2,7,8,13)          -139.172          estimate D2E/DX2                !
 ! D38   D(7,8,9,10)           176.323          estimate D2E/DX2                !
 ! D39   D(7,8,9,35)            -3.8347         estimate D2E/DX2                !
 ! D40   D(13,8,9,10)            2.4012         estimate D2E/DX2                !
 ! D41   D(13,8,9,35)         -177.7565         estimate D2E/DX2                !
 ! D42   D(7,8,13,12)         -176.0661         estimate D2E/DX2                !
 ! D43   D(7,8,13,14)            3.7409         estimate D2E/DX2                !
 ! D44   D(9,8,13,12)           -2.0383         estimate D2E/DX2                !
 ! D45   D(9,8,13,14)          177.7687         estimate D2E/DX2                !
 ! D46   D(8,9,10,11)           -1.2177         estimate D2E/DX2                !
 ! D47   D(8,9,10,36)          178.8035         estimate D2E/DX2                !
 ! D48   D(35,9,10,11)         178.938          estimate D2E/DX2                !
 ! D49   D(35,9,10,36)          -1.0408         estimate D2E/DX2                !
 ! D50   D(9,10,11,12)          -0.2547         estimate D2E/DX2                !
 ! D51   D(9,10,11,37)         179.657          estimate D2E/DX2                !
 ! D52   D(36,10,11,12)        179.724          estimate D2E/DX2                !
 ! D53   D(36,10,11,37)         -0.3643         estimate D2E/DX2                !
 ! D54   D(10,11,12,13)          0.5987         estimate D2E/DX2                !
 ! D55   D(10,11,12,17)       -178.8642         estimate D2E/DX2                !
 ! D56   D(37,11,12,13)       -179.3115         estimate D2E/DX2                !
 ! D57   D(37,11,12,17)          1.2256         estimate D2E/DX2                !
 ! D58   D(11,12,13,8)           0.5159         estimate D2E/DX2                !
 ! D59   D(11,12,13,14)       -179.2974         estimate D2E/DX2                !
 ! D60   D(17,12,13,8)         179.9998         estimate D2E/DX2                !
 ! D61   D(17,12,13,14)          0.1865         estimate D2E/DX2                !
 ! D62   D(11,12,17,16)       -177.9055         estimate D2E/DX2                !
 ! D63   D(11,12,17,18)          2.0259         estimate D2E/DX2                !
 ! D64   D(13,12,17,16)          2.6351         estimate D2E/DX2                !
 ! D65   D(13,12,17,18)       -177.4336         estimate D2E/DX2                !
 ! D66   D(8,13,14,15)         177.9692         estimate D2E/DX2                !
 ! D67   D(8,13,14,38)          -1.1754         estimate D2E/DX2                !
 ! D68   D(12,13,14,15)         -2.2249         estimate D2E/DX2                !
 ! D69   D(12,13,14,38)        178.6305         estimate D2E/DX2                !
 ! D70   D(13,14,15,16)          1.4354         estimate D2E/DX2                !
 ! D71   D(13,14,15,39)       -178.3785         estimate D2E/DX2                !
 ! D72   D(38,14,15,16)       -179.4038         estimate D2E/DX2                !
 ! D73   D(38,14,15,39)          0.7822         estimate D2E/DX2                !
 ! D74   D(14,15,16,17)          1.4284         estimate D2E/DX2                !
 ! D75   D(14,15,16,40)       -178.7714         estimate D2E/DX2                !
 ! D76   D(39,15,16,17)       -178.7585         estimate D2E/DX2                !
 ! D77   D(39,15,16,40)          1.0418         estimate D2E/DX2                !
 ! D78   D(15,16,17,12)         -3.4751         estimate D2E/DX2                !
 ! D79   D(15,16,17,18)        176.5966         estimate D2E/DX2                !
 ! D80   D(40,16,17,12)        176.7308         estimate D2E/DX2                !
 ! D81   D(40,16,17,18)         -3.1976         estimate D2E/DX2                !
 ! D82   D(12,17,18,19)        153.0488         estimate D2E/DX2                !
 ! D83   D(16,17,18,19)        -27.0208         estimate D2E/DX2                !
 ! D84   D(17,18,19,20)       -153.8827         estimate D2E/DX2                !
 ! D85   D(17,18,19,24)        -36.2061         estimate D2E/DX2                !
 ! D86   D(17,18,19,25)         89.0016         estimate D2E/DX2                !
 ! D87   D(18,19,20,21)         58.3606         estimate D2E/DX2                !
 ! D88   D(18,19,20,22)        178.5677         estimate D2E/DX2                !
 ! D89   D(18,19,20,23)        -61.3404         estimate D2E/DX2                !
 ! D90   D(24,19,20,21)        -63.8232         estimate D2E/DX2                !
 ! D91   D(24,19,20,22)         56.384          estimate D2E/DX2                !
 ! D92   D(24,19,20,23)        176.4758         estimate D2E/DX2                !
 ! D93   D(25,19,20,21)        179.9332         estimate D2E/DX2                !
 ! D94   D(25,19,20,22)        -59.8597         estimate D2E/DX2                !
 ! D95   D(25,19,20,23)         60.2321         estimate D2E/DX2                !
 ! D96   D(18,19,24,50)          8.5903         estimate D2E/DX2                !
 ! D97   D(18,19,24,51)       -111.796          estimate D2E/DX2                !
 ! D98   D(18,19,24,52)        128.4545         estimate D2E/DX2                !
 ! D99   D(20,19,24,50)        127.4388         estimate D2E/DX2                !
 ! D100  D(20,19,24,51)          7.0526         estimate D2E/DX2                !
 ! D101  D(20,19,24,52)       -112.697          estimate D2E/DX2                !
 ! D102  D(25,19,24,50)       -118.5888         estimate D2E/DX2                !
 ! D103  D(25,19,24,51)        121.025          estimate D2E/DX2                !
 ! D104  D(25,19,24,52)          1.2754         estimate D2E/DX2                !
 ! D105  D(18,19,25,53)         51.2667         estimate D2E/DX2                !
 ! D106  D(18,19,25,54)        -69.1802         estimate D2E/DX2                !
 ! D107  D(18,19,25,55)        171.4154         estimate D2E/DX2                !
 ! D108  D(20,19,25,53)        -67.1908         estimate D2E/DX2                !
 ! D109  D(20,19,25,54)        172.3622         estimate D2E/DX2                !
 ! D110  D(20,19,25,55)         52.9579         estimate D2E/DX2                !
 ! D111  D(24,19,25,53)        178.6644         estimate D2E/DX2                !
 ! D112  D(24,19,25,54)         58.2174         estimate D2E/DX2                !
 ! D113  D(24,19,25,55)        -61.1869         estimate D2E/DX2                !
 ! D114  D(19,20,21,41)         60.797          estimate D2E/DX2                !
 ! D115  D(19,20,21,42)        -59.8054         estimate D2E/DX2                !
 ! D116  D(19,20,21,43)       -179.5217         estimate D2E/DX2                !
 ! D117  D(22,20,21,41)        -58.4382         estimate D2E/DX2                !
 ! D118  D(22,20,21,42)       -179.0406         estimate D2E/DX2                !
 ! D119  D(22,20,21,43)         61.243          estimate D2E/DX2                !
 ! D120  D(23,20,21,41)        179.7587         estimate D2E/DX2                !
 ! D121  D(23,20,21,42)         59.1563         estimate D2E/DX2                !
 ! D122  D(23,20,21,43)        -60.56           estimate D2E/DX2                !
 ! D123  D(19,20,22,44)        -59.1972         estimate D2E/DX2                !
 ! D124  D(19,20,22,45)       -178.9107         estimate D2E/DX2                !
 ! D125  D(19,20,22,46)         61.4486         estimate D2E/DX2                !
 ! D126  D(21,20,22,44)         59.9166         estimate D2E/DX2                !
 ! D127  D(21,20,22,45)        -59.7969         estimate D2E/DX2                !
 ! D128  D(21,20,22,46)       -179.4376         estimate D2E/DX2                !
 ! D129  D(23,20,22,44)       -178.4141         estimate D2E/DX2                !
 ! D130  D(23,20,22,45)         61.8724         estimate D2E/DX2                !
 ! D131  D(23,20,22,46)        -57.7683         estimate D2E/DX2                !
 ! D132  D(19,20,23,47)         62.9674         estimate D2E/DX2                !
 ! D133  D(19,20,23,48)        -57.7512         estimate D2E/DX2                !
 ! D134  D(19,20,23,49)       -177.3496         estimate D2E/DX2                !
 ! D135  D(21,20,23,47)        -55.8889         estimate D2E/DX2                !
 ! D136  D(21,20,23,48)       -176.6074         estimate D2E/DX2                !
 ! D137  D(21,20,23,49)         63.7941         estimate D2E/DX2                !
 ! D138  D(22,20,23,47)       -177.7986         estimate D2E/DX2                !
 ! D139  D(22,20,23,48)         61.4828         estimate D2E/DX2                !
 ! D140  D(22,20,23,49)        -58.1156         estimate D2E/DX2                !
 --------------------------------------------------------------------------------
 Trust Radius=3.00D-01 FncErr=1.00D-07 GrdErr=1.00D-06
 Number of steps in this run= 307 maximum allowed number of steps= 330.
 GradGradGradGradGradGradGradGradGradGradGradGradGradGradGradGradGradGrad

 Leave Link  103 at Wed Sep 29 10:10:00 2021, MaxMem= 2415919104 cpu:       0.0
 (Enter /sw/target/amd/app/gaussian/Gaussian09RevA.02_gcc-4.9.2/g09/l202.exe)
 Stoichiometry    C21H30O3Si
 Framework group  C1[X(C21H30O3Si)]
 Deg. of freedom   159
 Full point group                 C1      NOp   1
 Largest Abelian subgroup         C1      NOp   1
 Largest concise Abelian subgroup C1      NOp   1
                         Standard orientation:                         
 ---------------------------------------------------------------------
 Center     Atomic      Atomic             Coordinates (Angstroms)
 Number     Number       Type             X           Y           Z
 ---------------------------------------------------------------------
      1          8           0        4.668403   -1.177249   -1.383344
      2          6           0        4.671339   -0.449491   -0.405080
      3          6           0        5.924936    0.110085    0.279042
      4          6           0        6.253532    1.469421   -0.343491
      5          6           0        5.695147    0.265138    1.794333
      6          6           0        7.088086   -0.868397    0.063169
      7          8           0        3.544189    0.041829    0.258579
      8          6           0        2.274035   -0.511113    0.003554
      9          6           0        2.117139   -1.896645   -0.020266
     10          6           0        0.849998   -2.429704   -0.195589
     11          6           0       -0.251203   -1.577945   -0.319834
     12          6           0       -0.117170   -0.170491   -0.267014
     13          6           0        1.178326    0.373725   -0.095417
     14          6           0        1.331080    1.774229   -0.025277
     15          6           0        0.238380    2.626392   -0.167671
     16          6           0       -1.034312    2.096566   -0.353251
     17          6           0       -1.224287    0.710688   -0.367453
     18          8           0       -2.477456    0.148858   -0.479535
     19         14           0       -4.011016    0.670762   -0.064723
     20          6           0       -5.212298   -1.017563    0.273002
     21          6           0       -4.571412   -1.861872    1.393017
     22          6           0       -6.620672   -0.550285    0.691835
     23          6           0       -5.289530   -1.840555   -1.028330
     24          6           0       -4.055091    1.675944    1.527080
     25          6           0       -4.854964    1.640803   -1.437058
     26          1           0        5.419151    2.171344   -0.227140
     27          1           0        6.449880    1.377308   -1.418094
     28          1           0        7.137073    1.917096    0.124300
     29          1           0        4.935814    1.025610    2.013006
     30          1           0        6.611871    0.567146    2.311622
     31          1           0        5.348394   -0.676704    2.235527
     32          1           0        7.323685   -0.982806   -1.000684
     33          1           0        6.841030   -1.863699    0.451356
     34          1           0        7.995842   -0.524054    0.570797
     35          1           0        2.970293   -2.558908    0.093558
     36          1           0        0.716147   -3.507154   -0.235592
     37          1           0       -1.233176   -2.024458   -0.462206
     38          1           0        2.314826    2.213767    0.128614
     39          1           0        0.384357    3.703189   -0.136308
     40          1           0       -1.865065    2.782436   -0.481683
     41          1           0       -4.498452   -1.302129    2.331599
     42          1           0       -3.561744   -2.190266    1.121817
     43          1           0       -5.169733   -2.758790    1.590430
     44          1           0       -6.592215    0.061291    1.599949
     45          1           0       -7.269617   -1.409395    0.895084
     46          1           0       -7.098876    0.043749   -0.094316
     47          1           0       -4.304041   -2.216763   -1.325151
     48          1           0       -5.686033   -1.248244   -1.860021
     49          1           0       -5.949408   -2.706261   -0.897979
     50          1           0       -3.046566    1.906512    1.880448
     51          1           0       -4.573410    1.137952    2.324498
     52          1           0       -4.580879    2.621216    1.361116
     53          1           0       -4.824301    1.091447   -2.381829
     54          1           0       -4.365679    2.607984   -1.583998
     55          1           0       -5.902378    1.829837   -1.183997
 ---------------------------------------------------------------------
 Rotational constants (GHZ):      0.5469759      0.0786794      0.0735446
 Leave Link  202 at Wed Sep 29 10:10:00 2021, MaxMem= 2415919104 cpu:       0.1
 (Enter /sw/target/amd/app/gaussian/Gaussian09RevA.02_gcc-4.9.2/g09/l301.exe)
 Standard basis: 6-31G(d) (6D, 7F)
 Ernie: Thresh=  0.10000D-02 Tol=  0.10000D-05 Strict=F.
 There are   439 symmetry adapted basis functions of A   symmetry.
 Integral buffers will be    131072 words long.
 Raffenetti 2 integral format.
 Two-electron integral symmetry is turned on.
   439 basis functions,   844 primitive gaussians,   439 cartesian basis functions
    97 alpha electrons       97 beta electrons
       nuclear repulsion energy      2339.0864086613 Hartrees.
 IExCor=  402 DFT=T Ex+Corr=B3LYP ExCW=0 ScaHFX=  0.200000
 ScaDFX=  0.800000  0.720000  1.000000  0.810000 ScalE2=  1.000000  1.000000
 IRadAn=      0 IRanWt=     -1 IRanGd=            0 ICorTp=0
 NAtoms=   55 NActive=   55 NUniq=   55 SFac= 7.50D-01 NAtFMM=   80 NAOKFM=F Big=F
 Leave Link  301 at Wed Sep 29 10:10:01 2021, MaxMem= 2415919104 cpu:       0.1
 (Enter /sw/target/amd/app/gaussian/Gaussian09RevA.02_gcc-4.9.2/g09/l302.exe)
 NPDir=0 NMtPBC=     1 NCelOv=     1 NCel=       1 NClECP=     1 NCelD=      1
         NCelK=      1 NCelE2=     1 NClLst=     1 CellRange=     0.0.
 One-electron integrals computed using PRISM.
 NBasis=   439 RedAO= T  NBF=   439
 NBsUse=   439 1.00D-06 NBFU=   439
 Precomputing XC quadrature grid using
 IXCGrd= 2 IRadAn=           0 IRanWt=          -1 IRanGd=           0 AccXCQ= 1.00D-10.
 NRdTot=    3536 NPtTot=      451932 NUsed=      477412 NTot=      477444
 NSgBfM=   425   425   425   426   427 NAtAll=    55    55.
 Leave Link  302 at Wed Sep 29 10:10:11 2021, MaxMem= 2415919104 cpu:       7.8
 (Enter /sw/target/amd/app/gaussian/Gaussian09RevA.02_gcc-4.9.2/g09/l303.exe)
 DipDrv:  MaxL=1.
 Leave Link  303 at Wed Sep 29 10:10:12 2021, MaxMem= 2415919104 cpu:       0.4
 (Enter /sw/target/amd/app/gaussian/Gaussian09RevA.02_gcc-4.9.2/g09/l401.exe)
 Harris functional with IExCor=  402 diagonalized for initial guess.
 ExpMin= 7.78D-02 ExpMax= 1.61D+04 ExpMxC= 2.43D+03 IAcc=2 IRadAn=         0 AccDes= 0.00D+00
 HarFok:  IExCor=  402 AccDes= 0.00D+00 IRadAn=         0 IDoV= 1
 ScaDFX=  1.000000  1.000000  1.000000  1.000000
 FoFCou: FMM=F IPFlag=           0 FMFlag=      100000 FMFlg1=           0
         NFxFlg=           0 DoJE=T BraDBF=F KetDBF=T FulRan=T
         Omega=  0.000000  0.000000  1.000000  0.000000  0.000000 ICntrl=     500 IOpCl=  0
         NMat0=    1 NMatS0=    1 NMatT0=    0 NMatD0=    1 NMtDS0=    0 NMtDT0=    0
         I1Cent=           4 NGrid=           0.
 Petite list used in FoFCou.
 Harris En= -1333.84703877669    
 Initial guess orbital symmetries:
       Occupied  (A) (A) (A) (A) (A) (A) (A) (A) (A) (A) (A) (A)
                 (A) (A) (A) (A) (A) (A) (A) (A) (A) (A) (A) (A)
                 (A) (A) (A) (A) (A) (A) (A) (A) (A) (A) (A) (A)
                 (A) (A) (A) (A) (A) (A) (A) (A) (A) (A) (A) (A)
                 (A) (A) (A) (A) (A) (A) (A) (A) (A) (A) (A) (A)
                 (A) (A) (A) (A) (A) (A) (A) (A) (A) (A) (A) (A)
                 (A) (A) (A) (A) (A) (A) (A) (A) (A) (A) (A) (A)
                 (A) (A) (A) (A) (A) (A) (A) (A) (A) (A) (A) (A)
                 (A)
       Virtual   (A) (A) (A) (A) (A) (A) (A) (A) (A) (A) (A) (A)
                 (A) (A) (A) (A) (A) (A) (A) (A) (A) (A) (A) (A)
                 (A) (A) (A) (A) (A) (A) (A) (A) (A) (A) (A) (A)
                 (A) (A) (A) (A) (A) (A) (A) (A) (A) (A) (A) (A)
                 (A) (A) (A) (A) (A) (A) (A) (A) (A) (A) (A) (A)
                 (A) (A) (A) (A) (A) (A) (A) (A) (A) (A) (A) (A)
                 (A) (A) (A) (A) (A) (A) (A) (A) (A) (A) (A) (A)
                 (A) (A) (A) (A) (A) (A) (A) (A) (A) (A) (A) (A)
                 (A) (A) (A) (A) (A) (A) (A) (A) (A) (A) (A) (A)
                 (A) (A) (A) (A) (A) (A) (A) (A) (A) (A) (A) (A)
                 (A) (A) (A) (A) (A) (A) (A) (A) (A) (A) (A) (A)
                 (A) (A) (A) (A) (A) (A) (A) (A) (A) (A) (A) (A)
                 (A) (A) (A) (A) (A) (A) (A) (A) (A) (A) (A) (A)
                 (A) (A) (A) (A) (A) (A) (A) (A) (A) (A) (A) (A)
                 (A) (A) (A) (A) (A) (A) (A) (A) (A) (A) (A) (A)
                 (A) (A) (A) (A) (A) (A) (A) (A) (A) (A) (A) (A)
                 (A) (A) (A) (A) (A) (A) (A) (A) (A) (A) (A) (A)
                 (A) (A) (A) (A) (A) (A) (A) (A) (A) (A) (A) (A)
                 (A) (A) (A) (A) (A) (A) (A) (A) (A) (A) (A) (A)
                 (A) (A) (A) (A) (A) (A) (A) (A) (A) (A) (A) (A)
                 (A) (A) (A) (A) (A) (A) (A) (A) (A) (A) (A) (A)
                 (A) (A) (A) (A) (A) (A) (A) (A) (A) (A) (A) (A)
                 (A) (A) (A) (A) (A) (A) (A) (A) (A) (A) (A) (A)
                 (A) (A) (A) (A) (A) (A) (A) (A) (A) (A) (A) (A)
                 (A) (A) (A) (A) (A) (A) (A) (A) (A) (A) (A) (A)
                 (A) (A) (A) (A) (A) (A) (A) (A) (A) (A) (A) (A)
                 (A) (A) (A) (A) (A) (A) (A) (A) (A) (A) (A) (A)
                 (A) (A) (A) (A) (A) (A) (A) (A) (A) (A) (A) (A)
                 (A) (A) (A) (A) (A) (A)
 The electronic state of the initial guess is 1-A.
 Leave Link  401 at Wed Sep 29 10:10:51 2021, MaxMem= 2415919104 cpu:      60.5
 (Enter /sw/target/amd/app/gaussian/Gaussian09RevA.02_gcc-4.9.2/g09/l502.exe)
 Closed shell SCF:
 Requested convergence on RMS density matrix=1.00D-08 within  64 cycles.
 Requested convergence on MAX density matrix=1.00D-06.
 Requested convergence on             energy=1.00D-06.
 No special actions if energy rises.
 Using DIIS extrapolation, IDIIS=  1040.
 Integral symmetry usage will be decided dynamically.
       476904 words used for storage of precomputed grid.
 IEnd=     1067900 IEndB=     1067900 NGot=  2415919104 MDV=  2415048589
 LenX=  2415048589 LenY=  2414855427
 Fock matrices will be formed incrementally for  20 cycles.
 Integral accuracy reduced to 1.0D-05 until final iterations.

 Cycle   1  Pass 0  IDiag  1:
 FoFCou: FMM=F IPFlag=           0 FMFlag=      100000 FMFlg1=           0
         NFxFlg=           0 DoJE=F BraDBF=F KetDBF=F FulRan=T
         Omega=  0.000000  0.000000  1.000000  0.000000  0.000000 ICntrl=       0 IOpCl=  0
         NMat0=    1 NMatS0=    1 NMatT0=    0 NMatD0=    1 NMtDS0=    0 NMtDT0=    0
         I1Cent=           0 NGrid=           0.
 Symmetry not used in FoFCou.
 E= -1332.57085383413    
 DIIS: error= 5.07D-02 at cycle   1 NSaved=   1.
 NSaved= 1 IEnMin= 1 EnMin= -1332.57085383413     IErMin= 1 ErrMin= 5.07D-02
 ErrMax= 5.07D-02 EMaxC= 1.00D-01 BMatC= 9.73D-01 BMatP= 9.73D-01
 IDIUse=3 WtCom= 4.93D-01 WtEn= 5.07D-01
 Coeff-Com:  0.100D+01
 Coeff-En:   0.100D+01
 Coeff:      0.100D+01
 Gap=     0.149 Goal=   None    Shift=    0.000
 GapD=    0.149 DampG=1.000 DampE=0.500 DampFc=0.5000 IDamp=-1.
 Damping current iteration by 5.00D-01
 RMSDP=5.03D-03 MaxDP=2.47D-01              OVMax= 2.48D-01

 Cycle   2  Pass 0  IDiag  1:
 RMSU=  1.75D-03    CP:  9.71D-01
 E= -1332.95294262986     Delta-E=       -0.382088795731 Rises=F Damp=T
 DIIS: error= 1.49D-02 at cycle   2 NSaved=   2.
 NSaved= 2 IEnMin= 2 EnMin= -1332.95294262986     IErMin= 2 ErrMin= 1.49D-02
 ErrMax= 1.49D-02 EMaxC= 1.00D-01 BMatC= 8.35D-02 BMatP= 9.73D-01
 IDIUse=3 WtCom= 8.51D-01 WtEn= 1.49D-01
 Coeff-Com:  0.142D+00 0.858D+00
 Coeff-En:   0.222D+00 0.778D+00
 Coeff:      0.154D+00 0.846D+00
 Gap=     0.154 Goal=   None    Shift=    0.000
 RMSDP=1.47D-03 MaxDP=7.87D-02 DE=-3.82D-01 OVMax= 1.93D-01

 Cycle   3  Pass 0  IDiag  1:
 RMSU=  1.00D-03    CP:  9.61D-01  8.67D-01
 E= -1333.45263545613     Delta-E=       -0.499692826265 Rises=F Damp=F
 DIIS: error= 2.37D-02 at cycle   3 NSaved=   3.
 NSaved= 3 IEnMin= 3 EnMin= -1333.45263545613     IErMin= 2 ErrMin= 1.49D-02
 ErrMax= 2.37D-02 EMaxC= 1.00D-01 BMatC= 1.21D-01 BMatP= 8.35D-02
 IDIUse=2 WtCom= 0.00D+00 WtEn= 1.00D+00
 Coeff-En:   0.000D+00 0.000D+00 0.100D+01
 Coeff:      0.000D+00 0.000D+00 0.100D+01
 Gap=     0.160 Goal=   None    Shift=    0.000
 RMSDP=2.46D-03 MaxDP=1.84D-01 DE=-5.00D-01 OVMax= 2.76D-01

 Cycle   4  Pass 0  IDiag  1:
 RMSU=  1.13D-03    CP:  9.65D-01  1.08D+00 -2.66D-01
 E= -1332.87176258989     Delta-E=        0.580872866244 Rises=F Damp=F
 DIIS: error= 6.64D-02 at cycle   4 NSaved=   4.
 NSaved= 4 IEnMin= 3 EnMin= -1333.45263545613     IErMin= 2 ErrMin= 1.49D-02
 ErrMax= 6.64D-02 EMaxC= 1.00D-01 BMatC= 8.44D-01 BMatP= 8.35D-02
 IDIUse=2 WtCom= 0.00D+00 WtEn= 1.00D+00
 Coeff-En:   0.000D+00 0.000D+00 0.812D+00 0.188D+00
 Coeff:      0.000D+00 0.000D+00 0.812D+00 0.188D+00
 Gap=     0.195 Goal=   None    Shift=    0.000
 RMSDP=1.34D-03 MaxDP=9.42D-02 DE= 5.81D-01 OVMax= 1.33D-01

 Cycle   5  Pass 0  IDiag  1:
 RMSU=  2.17D-04    CP:  9.64D-01  9.24D-01  3.53D-01  4.50D-01
 E= -1333.50081665770     Delta-E=       -0.629054067818 Rises=F Damp=F
 DIIS: error= 1.73D-02 at cycle   5 NSaved=   5.
 NSaved= 5 IEnMin= 5 EnMin= -1333.50081665770     IErMin= 2 ErrMin= 1.49D-02
 ErrMax= 1.73D-02 EMaxC= 1.00D-01 BMatC= 6.68D-02 BMatP= 8.35D-02
 IDIUse=3 WtCom= 8.27D-01 WtEn= 1.73D-01
 Coeff-Com:  0.987D-03 0.313D-01 0.359D+00-0.619D-01 0.671D+00
 Coeff-En:   0.000D+00 0.000D+00 0.386D+00 0.000D+00 0.614D+00
 Coeff:      0.817D-03 0.259D-01 0.364D+00-0.512D-01 0.661D+00
 Gap=     0.156 Goal=   None    Shift=    0.000
 RMSDP=5.43D-04 MaxDP=3.55D-02 DE=-6.29D-01 OVMax= 5.24D-02

 Cycle   6  Pass 0  IDiag  1:
 RMSU=  7.27D-05    CP:  9.63D-01  8.86D-01  6.29D-01  2.44D-01  6.50D-01
 E= -1333.55527166874     Delta-E=       -0.054455011040 Rises=F Damp=F
 DIIS: error= 8.49D-04 at cycle   6 NSaved=   6.
 NSaved= 6 IEnMin= 6 EnMin= -1333.55527166874     IErMin= 6 ErrMin= 8.49D-04
 ErrMax= 8.49D-04 EMaxC= 1.00D-01 BMatC= 7.37D-04 BMatP= 6.68D-02
 IDIUse=3 WtCom= 9.92D-01 WtEn= 8.49D-03
 Coeff-Com: -0.247D-02 0.114D-01 0.170D+00-0.547D-01 0.415D+00 0.461D+00
 Coeff-En:   0.000D+00 0.000D+00 0.000D+00 0.000D+00 0.000D+00 0.100D+01
 Coeff:     -0.245D-02 0.113D-01 0.168D+00-0.543D-01 0.411D+00 0.466D+00
 Gap=     0.156 Goal=   None    Shift=    0.000
 RMSDP=6.75D-05 MaxDP=4.31D-03 DE=-5.45D-02 OVMax= 7.81D-03

 Cycle   7  Pass 0  IDiag  1:
 RMSU=  1.85D-05    CP:  9.63D-01  8.94D-01  6.15D-01  2.54D-01  7.30D-01
                    CP:  5.41D-01
 E= -1333.55589123233     Delta-E=       -0.000619563584 Rises=F Damp=F
 DIIS: error= 3.20D-04 at cycle   7 NSaved=   7.
 NSaved= 7 IEnMin= 7 EnMin= -1333.55589123233     IErMin= 7 ErrMin= 3.20D-04
 ErrMax= 3.20D-04 EMaxC= 1.00D-01 BMatC= 5.63D-05 BMatP= 7.37D-04
 IDIUse=3 WtCom= 9.97D-01 WtEn= 3.20D-03
 Coeff-Com: -0.623D-03 0.375D-02 0.544D-01-0.219D-01 0.136D+00 0.215D+00
 Coeff-Com:  0.614D+00
 Coeff-En:   0.000D+00 0.000D+00 0.000D+00 0.000D+00 0.000D+00 0.000D+00
 Coeff-En:   0.100D+01
 Coeff:     -0.621D-03 0.374D-02 0.543D-01-0.218D-01 0.135D+00 0.214D+00
 Coeff:      0.615D+00
 Gap=     0.156 Goal=   None    Shift=    0.000
 RMSDP=2.05D-05 MaxDP=1.09D-03 DE=-6.20D-04 OVMax= 3.07D-03

 Cycle   8  Pass 0  IDiag  1:
 RMSU=  9.20D-06    CP:  9.63D-01  8.92D-01  6.20D-01  2.49D-01  7.28D-01
                    CP:  5.65D-01  5.98D-01
 E= -1333.55593480326     Delta-E=       -0.000043570928 Rises=F Damp=F
 DIIS: error= 1.44D-04 at cycle   8 NSaved=   8.
 NSaved= 8 IEnMin= 8 EnMin= -1333.55593480326     IErMin= 8 ErrMin= 1.44D-04
 ErrMax= 1.44D-04 EMaxC= 1.00D-01 BMatC= 9.47D-06 BMatP= 5.63D-05
 IDIUse=3 WtCom= 9.99D-01 WtEn= 1.44D-03
 Coeff-Com:  0.257D-03-0.762D-03 0.977D-02-0.369D-02 0.167D-01 0.597D-01
 Coeff-Com:  0.379D+00 0.539D+00
 Coeff-En:   0.000D+00 0.000D+00 0.000D+00 0.000D+00 0.000D+00 0.000D+00
 Coeff-En:   0.457D-01 0.954D+00
 Coeff:      0.257D-03-0.761D-03 0.976D-02-0.369D-02 0.167D-01 0.596D-01
 Coeff:      0.378D+00 0.540D+00
 Gap=     0.156 Goal=   None    Shift=    0.000
 RMSDP=8.68D-06 MaxDP=5.10D-04 DE=-4.36D-05 OVMax= 1.49D-03

 Initial convergence to 1.0D-05 achieved.  Increase integral accuracy.
 Cycle   9  Pass 1  IDiag  1:
 E= -1333.55590704874     Delta-E=        0.000027754518 Rises=F Damp=F
 DIIS: error= 5.95D-05 at cycle   1 NSaved=   1.
 NSaved= 1 IEnMin= 1 EnMin= -1333.55590704874     IErMin= 1 ErrMin= 5.95D-05
 ErrMax= 5.95D-05 EMaxC= 1.00D-01 BMatC= 1.32D-06 BMatP= 1.32D-06
 IDIUse=1 WtCom= 1.00D+00 WtEn= 0.00D+00
 Coeff-Com:  0.100D+01
 Coeff:      0.100D+01
 Gap=     0.156 Goal=   None    Shift=    0.000
 RMSDP=8.68D-06 MaxDP=5.10D-04 DE= 2.78D-05 OVMax= 1.49D-03

 Cycle  10  Pass 1  IDiag  1:
 RMSU=  1.70D-05    CP:  1.00D+00
 E= -1333.55590475296     Delta-E=        0.000002295779 Rises=F Damp=F
 DIIS: error= 1.35D-04 at cycle   2 NSaved=   2.
 NSaved= 2 IEnMin= 1 EnMin= -1333.55590704874     IErMin= 1 ErrMin= 5.95D-05
 ErrMax= 1.35D-04 EMaxC= 1.00D-01 BMatC= 3.41D-06 BMatP= 1.32D-06
 IDIUse=3 WtCom= 4.62D-01 WtEn= 5.38D-01
 Coeff-Com:  0.633D+00 0.367D+00
 Coeff-En:   0.706D+00 0.294D+00
 Coeff:      0.673D+00 0.327D+00
 Gap=     0.156 Goal=   None    Shift=    0.000
 RMSDP=5.29D-06 MaxDP=3.29D-04 DE= 2.30D-06 OVMax= 1.14D-03

 Cycle  11  Pass 1  IDiag  1:
 RMSU=  3.63D-06    CP:  1.00D+00  9.46D-01
 E= -1333.55590855347     Delta-E=       -0.000003800507 Rises=F Damp=F
 DIIS: error= 1.24D-05 at cycle   3 NSaved=   3.
 NSaved= 3 IEnMin= 3 EnMin= -1333.55590855347     IErMin= 3 ErrMin= 1.24D-05
 ErrMax= 1.24D-05 EMaxC= 1.00D-01 BMatC= 5.91D-08 BMatP= 1.32D-06
 IDIUse=1 WtCom= 1.00D+00 WtEn= 0.00D+00
 Coeff-Com:  0.977D-01 0.110D+00 0.793D+00
 Coeff:      0.977D-01 0.110D+00 0.793D+00
 Gap=     0.156 Goal=   None    Shift=    0.000
 RMSDP=1.12D-06 MaxDP=5.61D-05 DE=-3.80D-06 OVMax= 1.38D-04

 Cycle  12  Pass 1  IDiag  1:
 RMSU=  7.15D-07    CP:  1.00D+00  9.56D-01  9.20D-01
 E= -1333.55590856147     Delta-E=       -0.000000008000 Rises=F Damp=F
 DIIS: error= 1.14D-05 at cycle   4 NSaved=   4.
 NSaved= 4 IEnMin= 4 EnMin= -1333.55590856147     IErMin= 4 ErrMin= 1.14D-05
 ErrMax= 1.14D-05 EMaxC= 1.00D-01 BMatC= 6.18D-08 BMatP= 5.91D-08
 IDIUse=1 WtCom= 1.00D+00 WtEn= 0.00D+00
 Coeff-Com: -0.100D-02 0.362D-01 0.533D+00 0.432D+00
 Coeff:     -0.100D-02 0.362D-01 0.533D+00 0.432D+00
 Gap=     0.156 Goal=   None    Shift=    0.000
 RMSDP=5.86D-07 MaxDP=3.84D-05 DE=-8.00D-09 OVMax= 5.23D-05

 Cycle  13  Pass 1  IDiag  1:
 RMSU=  1.99D-07    CP:  1.00D+00  9.59D-01  9.37D-01  5.03D-01
 E= -1333.55590861164     Delta-E=       -0.000000050177 Rises=F Damp=F
 DIIS: error= 3.92D-06 at cycle   5 NSaved=   5.
 NSaved= 5 IEnMin= 5 EnMin= -1333.55590861164     IErMin= 5 ErrMin= 3.92D-06
 ErrMax= 3.92D-06 EMaxC= 1.00D-01 BMatC= 4.00D-09 BMatP= 5.91D-08
 IDIUse=1 WtCom= 1.00D+00 WtEn= 0.00D+00
 Coeff-Com: -0.736D-02 0.154D-01 0.289D+00 0.276D+00 0.427D+00
 Coeff:     -0.736D-02 0.154D-01 0.289D+00 0.276D+00 0.427D+00
 Gap=     0.156 Goal=   None    Shift=    0.000
 RMSDP=1.40D-07 MaxDP=1.14D-05 DE=-5.02D-08 OVMax= 1.29D-05

 Cycle  14  Pass 1  IDiag  1:
 RMSU=  6.76D-08    CP:  1.00D+00  9.59D-01  9.39D-01  5.09D-01  6.42D-01
 E= -1333.55590861471     Delta-E=       -0.000000003069 Rises=F Damp=F
 DIIS: error= 7.37D-07 at cycle   6 NSaved=   6.
 NSaved= 6 IEnMin= 6 EnMin= -1333.55590861471     IErMin= 6 ErrMin= 7.37D-07
 ErrMax= 7.37D-07 EMaxC= 1.00D-01 BMatC= 1.91D-10 BMatP= 4.00D-09
 IDIUse=1 WtCom= 1.00D+00 WtEn= 0.00D+00
 Coeff-Com: -0.391D-02 0.550D-02 0.117D+00 0.118D+00 0.242D+00 0.522D+00
 Coeff:     -0.391D-02 0.550D-02 0.117D+00 0.118D+00 0.242D+00 0.522D+00
 Gap=     0.156 Goal=   None    Shift=    0.000
 RMSDP=3.57D-08 MaxDP=2.40D-06 DE=-3.07D-09 OVMax= 2.65D-06

 Cycle  15  Pass 1  IDiag  1:
 RMSU=  2.30D-08    CP:  1.00D+00  9.59D-01  9.39D-01  5.10D-01  6.55D-01
                    CP:  8.53D-01
 E= -1333.55590861484     Delta-E=       -0.000000000129 Rises=F Damp=F
 DIIS: error= 1.95D-07 at cycle   7 NSaved=   7.
 NSaved= 7 IEnMin= 7 EnMin= -1333.55590861484     IErMin= 7 ErrMin= 1.95D-07
 ErrMax= 1.95D-07 EMaxC= 1.00D-01 BMatC= 1.69D-11 BMatP= 1.91D-10
 IDIUse=1 WtCom= 1.00D+00 WtEn= 0.00D+00
 Coeff-Com: -0.110D-02 0.980D-03 0.257D-01 0.284D-01 0.746D-01 0.271D+00
 Coeff-Com:  0.600D+00
 Coeff:     -0.110D-02 0.980D-03 0.257D-01 0.284D-01 0.746D-01 0.271D+00
 Coeff:      0.600D+00
 Gap=     0.156 Goal=   None    Shift=    0.000
 RMSDP=1.28D-08 MaxDP=6.90D-07 DE=-1.29D-10 OVMax= 1.30D-06

 Cycle  16  Pass 1  IDiag  1:
 RMSU=  7.09D-09    CP:  1.00D+00  9.59D-01  9.39D-01  5.10D-01  6.66D-01
                    CP:  8.79D-01  7.89D-01
 E= -1333.55590861490     Delta-E=       -0.000000000060 Rises=F Damp=F
 DIIS: error= 1.08D-07 at cycle   8 NSaved=   8.
 NSaved= 8 IEnMin= 8 EnMin= -1333.55590861490     IErMin= 8 ErrMin= 1.08D-07
 ErrMax= 1.08D-07 EMaxC= 1.00D-01 BMatC= 3.06D-12 BMatP= 1.69D-11
 IDIUse=1 WtCom= 1.00D+00 WtEn= 0.00D+00
 Coeff-Com: -0.142D-03-0.145D-03-0.418D-03 0.132D-02 0.118D-01 0.879D-01
 Coeff-Com:  0.352D+00 0.547D+00
 Coeff:     -0.142D-03-0.145D-03-0.418D-03 0.132D-02 0.118D-01 0.879D-01
 Coeff:      0.352D+00 0.547D+00
 Gap=     0.156 Goal=   None    Shift=    0.000
 RMSDP=5.65D-09 MaxDP=2.83D-07 DE=-6.00D-11 OVMax= 6.17D-07

 SCF Done:  E(RB3LYP) =  -1333.55590861     A.U. after   16 cycles
             Convg  =    0.5647D-08             -V/T =  2.0086
 KE= 1.322207107870D+03 PE=-7.791395017456D+03 EE= 2.796545592310D+03
 Leave Link  502 at Wed Sep 29 10:26:13 2021, MaxMem= 2415919104 cpu:    1446.3
 (Enter /sw/target/amd/app/gaussian/Gaussian09RevA.02_gcc-4.9.2/g09/l508.exe)
 QCSCF skips out because SCF is already converged.
 Leave Link  508 at Wed Sep 29 10:26:14 2021, MaxMem= 2415919104 cpu:       0.0
 (Enter /sw/target/amd/app/gaussian/Gaussian09RevA.02_gcc-4.9.2/g09/l601.exe)
 Copying SCF densities to generalized density rwf, IOpCl= 0 IROHF=0.

 **********************************************************************

            Population analysis using the SCF density.

 **********************************************************************

 Orbital symmetries:
       Occupied  (A) (A) (A) (A) (A) (A) (A) (A) (A) (A) (A) (A)
                 (A) (A) (A) (A) (A) (A) (A) (A) (A) (A) (A) (A)
                 (A) (A) (A) (A) (A) (A) (A) (A) (A) (A) (A) (A)
                 (A) (A) (A) (A) (A) (A) (A) (A) (A) (A) (A) (A)
                 (A) (A) (A) (A) (A) (A) (A) (A) (A) (A) (A) (A)
                 (A) (A) (A) (A) (A) (A) (A) (A) (A) (A) (A) (A)
                 (A) (A) (A) (A) (A) (A) (A) (A) (A) (A) (A) (A)
                 (A) (A) (A) (A) (A) (A) (A) (A) (A) (A) (A) (A)
                 (A)
       Virtual   (A) (A) (A) (A) (A) (A) (A) (A) (A) (A) (A) (A)
                 (A) (A) (A) (A) (A) (A) (A) (A) (A) (A) (A) (A)
                 (A) (A) (A) (A) (A) (A) (A) (A) (A) (A) (A) (A)
                 (A) (A) (A) (A) (A) (A) (A) (A) (A) (A) (A) (A)
                 (A) (A) (A) (A) (A) (A) (A) (A) (A) (A) (A) (A)
                 (A) (A) (A) (A) (A) (A) (A) (A) (A) (A) (A) (A)
                 (A) (A) (A) (A) (A) (A) (A) (A) (A) (A) (A) (A)
                 (A) (A) (A) (A) (A) (A) (A) (A) (A) (A) (A) (A)
                 (A) (A) (A) (A) (A) (A) (A) (A) (A) (A) (A) (A)
                 (A) (A) (A) (A) (A) (A) (A) (A) (A) (A) (A) (A)
                 (A) (A) (A) (A) (A) (A) (A) (A) (A) (A) (A) (A)
                 (A) (A) (A) (A) (A) (A) (A) (A) (A) (A) (A) (A)
                 (A) (A) (A) (A) (A) (A) (A) (A) (A) (A) (A) (A)
                 (A) (A) (A) (A) (A) (A) (A) (A) (A) (A) (A) (A)
                 (A) (A) (A) (A) (A) (A) (A) (A) (A) (A) (A) (A)
                 (A) (A) (A) (A) (A) (A) (A) (A) (A) (A) (A) (A)
                 (A) (A) (A) (A) (A) (A) (A) (A) (A) (A) (A) (A)
                 (A) (A) (A) (A) (A) (A) (A) (A) (A) (A) (A) (A)
                 (A) (A) (A) (A) (A) (A) (A) (A) (A) (A) (A) (A)
                 (A) (A) (A) (A) (A) (A) (A) (A) (A) (A) (A) (A)
                 (A) (A) (A) (A) (A) (A) (A) (A) (A) (A) (A) (A)
                 (A) (A) (A) (A) (A) (A) (A) (A) (A) (A) (A) (A)
                 (A) (A) (A) (A) (A) (A) (A) (A) (A) (A) (A) (A)
                 (A) (A) (A) (A) (A) (A) (A) (A) (A) (A) (A) (A)
                 (A) (A) (A) (A) (A) (A) (A) (A) (A) (A) (A) (A)
                 (A) (A) (A) (A) (A) (A) (A) (A) (A) (A) (A) (A)
                 (A) (A) (A) (A) (A) (A) (A) (A) (A) (A) (A) (A)
                 (A) (A) (A) (A) (A) (A) (A) (A) (A) (A) (A) (A)
                 (A) (A) (A) (A) (A) (A)
 The electronic state is 1-A.
 Alpha  occ. eigenvalues --  -66.15439 -19.20217 -19.16705 -19.14663 -10.32221
 Alpha  occ. eigenvalues --  -10.25942 -10.25297 -10.21419 -10.20184 -10.19950
 Alpha  occ. eigenvalues --  -10.19393 -10.19245 -10.19159 -10.19153 -10.18911
 Alpha  occ. eigenvalues --  -10.18675 -10.18505 -10.18458 -10.17815 -10.17662
 Alpha  occ. eigenvalues --  -10.17205 -10.16791 -10.16769 -10.16622 -10.16490
 Alpha  occ. eigenvalues --   -5.29380  -3.65476  -3.65202  -3.65151  -1.09708
 Alpha  occ. eigenvalues --   -1.03549  -1.02264  -0.87455  -0.82898  -0.81960
 Alpha  occ. eigenvalues --   -0.78797  -0.76665  -0.75243  -0.71699  -0.70625
 Alpha  occ. eigenvalues --   -0.69382  -0.68669  -0.68511  -0.67809  -0.67340
 Alpha  occ. eigenvalues --   -0.66050  -0.63223  -0.62081  -0.59302  -0.55822
 Alpha  occ. eigenvalues --   -0.54250  -0.53021  -0.50642  -0.50072  -0.49018
 Alpha  occ. eigenvalues --   -0.48124  -0.47390  -0.46161  -0.45239  -0.44868
 Alpha  occ. eigenvalues --   -0.43765  -0.43388  -0.43157  -0.42956  -0.42528
 Alpha  occ. eigenvalues --   -0.42446  -0.42116  -0.40935  -0.40711  -0.40315
 Alpha  occ. eigenvalues --   -0.39641  -0.39369  -0.39175  -0.39066  -0.38486
 Alpha  occ. eigenvalues --   -0.38182  -0.37897  -0.37528  -0.36894  -0.36757
 Alpha  occ. eigenvalues --   -0.36465  -0.35904  -0.35607  -0.34372  -0.33901
 Alpha  occ. eigenvalues --   -0.33261  -0.32868  -0.32298  -0.32105  -0.32020
 Alpha  occ. eigenvalues --   -0.31341  -0.29955  -0.27413  -0.25653  -0.25087
 Alpha  occ. eigenvalues --   -0.24147  -0.19876
 Alpha virt. eigenvalues --   -0.04263  -0.00813  -0.00179   0.04174   0.05283
 Alpha virt. eigenvalues --    0.06413   0.07547   0.08158   0.08732   0.09795
 Alpha virt. eigenvalues --    0.10452   0.10603   0.11196   0.12401   0.12446
 Alpha virt. eigenvalues --    0.12876   0.13130   0.13397   0.14739   0.14891
 Alpha virt. eigenvalues --    0.14986   0.15320   0.15778   0.16612   0.17026
 Alpha virt. eigenvalues --    0.17502   0.18113   0.18512   0.18871   0.19165
 Alpha virt. eigenvalues --    0.19265   0.19678   0.20649   0.20839   0.21248
 Alpha virt. eigenvalues --    0.21653   0.21949   0.22123   0.22320   0.23222
 Alpha virt. eigenvalues --    0.23433   0.23805   0.24006   0.24561   0.25033
 Alpha virt. eigenvalues --    0.25473   0.25931   0.26446   0.26871   0.28314
 Alpha virt. eigenvalues --    0.28572   0.30341   0.30741   0.31834   0.33855
 Alpha virt. eigenvalues --    0.35517   0.36191   0.36992   0.39069   0.40742
 Alpha virt. eigenvalues --    0.40927   0.42647   0.45753   0.46988   0.47798
 Alpha virt. eigenvalues --    0.48897   0.49700   0.50291   0.51122   0.51315
 Alpha virt. eigenvalues --    0.51644   0.52187   0.52734   0.53125   0.53666
 Alpha virt. eigenvalues --    0.55129   0.55162   0.56008   0.56507   0.57698
 Alpha virt. eigenvalues --    0.58078   0.59281   0.59391   0.60189   0.60714
 Alpha virt. eigenvalues --    0.60726   0.61134   0.61547   0.62175   0.62944
 Alpha virt. eigenvalues --    0.63763   0.64445   0.65533   0.66180   0.66423
 Alpha virt. eigenvalues --    0.67062   0.67468   0.68297   0.69346   0.69707
 Alpha virt. eigenvalues --    0.70310   0.70579   0.71469   0.72619   0.72862
 Alpha virt. eigenvalues --    0.73036   0.74267   0.75047   0.76609   0.77079
 Alpha virt. eigenvalues --    0.78778   0.79374   0.80402   0.80743   0.81126
 Alpha virt. eigenvalues --    0.82072   0.82409   0.83203   0.83956   0.84937
 Alpha virt. eigenvalues --    0.85506   0.85859   0.86486   0.87025   0.87252
 Alpha virt. eigenvalues --    0.87551   0.87822   0.88539   0.88856   0.88969
 Alpha virt. eigenvalues --    0.89458   0.89729   0.90508   0.90945   0.91116
 Alpha virt. eigenvalues --    0.91346   0.91543   0.91816   0.92412   0.92489
 Alpha virt. eigenvalues --    0.93181   0.93471   0.94040   0.94635   0.95151
 Alpha virt. eigenvalues --    0.95594   0.96428   0.96677   0.97663   0.98104
 Alpha virt. eigenvalues --    0.98193   0.99060   1.00291   1.00674   1.00909
 Alpha virt. eigenvalues --    1.01598   1.01874   1.02988   1.03187   1.03988
 Alpha virt. eigenvalues --    1.04797   1.05567   1.06316   1.07063   1.07955
 Alpha virt. eigenvalues --    1.11377   1.11999   1.13270   1.14231   1.15337
 Alpha virt. eigenvalues --    1.16733   1.17956   1.20642   1.22047   1.22797
 Alpha virt. eigenvalues --    1.24009   1.25371   1.27103   1.29041   1.31930
 Alpha virt. eigenvalues --    1.33197   1.34902   1.35478   1.37154   1.38427
 Alpha virt. eigenvalues --    1.41669   1.42704   1.43765   1.43903   1.44972
 Alpha virt. eigenvalues --    1.45973   1.46140   1.47414   1.48217   1.48433
 Alpha virt. eigenvalues --    1.49123   1.50369   1.50970   1.51654   1.53695
 Alpha virt. eigenvalues --    1.54897   1.55711   1.62906   1.63375   1.63921
 Alpha virt. eigenvalues --    1.67416   1.68480   1.69513   1.71108   1.72174
 Alpha virt. eigenvalues --    1.72369   1.73027   1.74137   1.76203   1.76770
 Alpha virt. eigenvalues --    1.77676   1.78367   1.79479   1.81598   1.82509
 Alpha virt. eigenvalues --    1.82730   1.83767   1.85627   1.86111   1.86854
 Alpha virt. eigenvalues --    1.87279   1.87387   1.88101   1.88362   1.89462
 Alpha virt. eigenvalues --    1.89869   1.91149   1.92448   1.93246   1.95289
 Alpha virt. eigenvalues --    1.95732   1.96138   1.96988   1.98410   1.99150
 Alpha virt. eigenvalues --    2.00254   2.01175   2.02908   2.04179   2.05093
 Alpha virt. eigenvalues --    2.07428   2.08144   2.09516   2.09931   2.10076
 Alpha virt. eigenvalues --    2.10561   2.13242   2.14106   2.14525   2.15675
 Alpha virt. eigenvalues --    2.16128   2.19809   2.20251   2.21863   2.22665
 Alpha virt. eigenvalues --    2.24192   2.24251   2.25501   2.25570   2.25717
 Alpha virt. eigenvalues --    2.26029   2.26470   2.26636   2.27087   2.27631
 Alpha virt. eigenvalues --    2.27995   2.28528   2.29248   2.29931   2.30492
 Alpha virt. eigenvalues --    2.30752   2.32762   2.33715   2.34875   2.37369
 Alpha virt. eigenvalues --    2.40683   2.41678   2.43946   2.44705   2.46036
 Alpha virt. eigenvalues --    2.52190   2.52350   2.53804   2.54310   2.57174
 Alpha virt. eigenvalues --    2.57394   2.60275   2.63755   2.64223   2.65397
 Alpha virt. eigenvalues --    2.65972   2.68068   2.70679   2.71351   2.72309
 Alpha virt. eigenvalues --    2.72363   2.74948   2.76124   2.79558   2.80437
 Alpha virt. eigenvalues --    2.81156   2.82886   2.88406   2.91276   2.96753
 Alpha virt. eigenvalues --    3.00548   3.03011   3.09515   3.11319   3.13809
 Alpha virt. eigenvalues --    3.23618   3.39952   3.50210   4.08559   4.09159
 Alpha virt. eigenvalues --    4.10146   4.11251   4.15122   4.15325   4.18382
 Alpha virt. eigenvalues --    4.19064   4.22351   4.24036   4.26778   4.30035
 Alpha virt. eigenvalues --    4.30794   4.31181   4.31741   4.34505   4.35270
 Alpha virt. eigenvalues --    4.42266   4.46078   4.52940   4.60487   4.62414
 Alpha virt. eigenvalues --    4.72959   4.88742
          Condensed to atoms (all electrons):
 Mulliken atomic charges:
              1
     1  O   -0.459943
     2  C    0.637706
     3  C   -0.004812
     4  C   -0.452119
     5  C   -0.440470
     6  C   -0.438037
     7  O   -0.546147
     8  C    0.277299
     9  C   -0.142639
    10  C   -0.141390
    11  C   -0.193336
    12  C    0.088993
    13  C    0.094956
    14  C   -0.195409
    15  C   -0.137327
    16  C   -0.196746
    17  C    0.313551
    18  O   -0.632665
    19  Si   0.929182
    20  C   -0.093316
    21  C   -0.454427
    22  C   -0.455704
    23  C   -0.452229
    24  C   -0.709465
    25  C   -0.687703
    26  H    0.155371
    27  H    0.160193
    28  H    0.152800
    29  H    0.160429
    30  H    0.141820
    31  H    0.145438
    32  H    0.162906
    33  H    0.146498
    34  H    0.141496
    35  H    0.147878
    36  H    0.137634
    37  H    0.152109
    38  H    0.137683
    39  H    0.134631
    40  H    0.142040
    41  H    0.137386
    42  H    0.150772
    43  H    0.132081
    44  H    0.139722
    45  H    0.139067
    46  H    0.140021
    47  H    0.149358
    48  H    0.137983
    49  H    0.131681
    50  H    0.175509
    51  H    0.173676
    52  H    0.163516
    53  H    0.172174
    54  H    0.161001
    55  H    0.169322
 Sum of Mulliken atomic charges =  -0.00000
 Mulliken charges with hydrogens summed into heavy atoms:
              1
     1  O   -0.459943
     2  C    0.637706
     3  C   -0.004812
     4  C    0.016245
     5  C    0.007216
     6  C    0.012863
     7  O   -0.546147
     8  C    0.277299
     9  C    0.005239
    10  C   -0.003757
    11  C   -0.041227
    12  C    0.088993
    13  C    0.094956
    14  C   -0.057725
    15  C   -0.002696
    16  C   -0.054706
    17  C    0.313551
    18  O   -0.632665
    19  Si   0.929182
    20  C   -0.093316
    21  C   -0.034188
    22  C   -0.036895
    23  C   -0.033206
    24  C   -0.196763
    25  C   -0.185206
 Sum of Mulliken charges with hydrogens summed into heavy atoms =  -0.00000
 Electronic spatial extent (au):  <R**2>=          14810.0880
 Charge=             -0.0000 electrons
 Dipole moment (field-independent basis, Debye):
    X=             -0.5326    Y=              1.8490    Z=              1.6994  Tot=              2.5672
 Quadrupole moment (field-independent basis, Debye-Ang):
   XX=           -144.4109   YY=           -149.7589   ZZ=           -164.2822
   XY=              1.1006   XZ=              7.7371   YZ=             -3.0307
 Traceless Quadrupole moment (field-independent basis, Debye-Ang):
   XX=              8.4064   YY=              3.0584   ZZ=            -11.4649
   XY=              1.1006   XZ=              7.7371   YZ=             -3.0307
 Octapole moment (field-independent basis, Debye-Ang**2):
  XXX=             84.5831  YYY=              1.6880  ZZZ=             -0.3786  XYY=              6.9250
  XXY=             46.8236  XXZ=             35.9276  XZZ=             -5.2012  YZZ=              3.3940
  YYZ=              0.4267  XYZ=            -12.6259
 Hexadecapole moment (field-independent basis, Debye-Ang**3):
 XXXX=         -16535.6004 YYYY=          -2003.2635 ZZZZ=           -883.4859 XXXY=             83.0325
 XXXZ=            185.3441 YYYX=            -49.8792 YYYZ=             -0.4300 ZZZX=             -2.0585
 ZZZY=              1.9998 XXYY=          -3199.1501 XXZZ=          -3065.8883 YYZZ=           -533.1940
 XXYZ=            -64.8104 YYXZ=             20.4186 ZZXY=             13.8351
 N-N= 2.339086408661D+03 E-N=-7.791395052600D+03  KE= 1.322207107870D+03
 No NMR shielding tensors so no spin-rotation constants.
 Leave Link  601 at Wed Sep 29 10:26:19 2021, MaxMem= 2415919104 cpu:       4.4
 (Enter /sw/target/amd/app/gaussian/Gaussian09RevA.02_gcc-4.9.2/g09/l701.exe)
 Compute integral first derivatives.
 ... and contract with generalized density number  0.
 Leave Link  701 at Wed Sep 29 10:26:22 2021, MaxMem= 2415919104 cpu:       3.6
 (Enter /sw/target/amd/app/gaussian/Gaussian09RevA.02_gcc-4.9.2/g09/l702.exe)
 L702 exits ... SP integral derivatives will be done elsewhere.
 Leave Link  702 at Wed Sep 29 10:26:22 2021, MaxMem= 2415919104 cpu:       0.1
 (Enter /sw/target/amd/app/gaussian/Gaussian09RevA.02_gcc-4.9.2/g09/l703.exe)
 Compute integral first derivatives, UseDBF=F ICtDFT=           0.
 Integral derivatives from FoFDir, PRISM(SPDF).
 Calling FoFJK, ICntrl=      2127 FMM=F ISym2X=0 I1Cent= 0 IOpClX= 0 NMat=1 NMatS=1 NMatT=0.
 FoFCou: FMM=F IPFlag=           0 FMFlag=      100000 FMFlg1=         800
         NFxFlg=           0 DoJE=F BraDBF=F KetDBF=F FulRan=T
         Omega=  0.000000  0.000000  1.000000  0.000000  0.000000 ICntrl=    2127 IOpCl=  0
         NMat0=    1 NMatS0=    1 NMatT0=    0 NMatD0=    1 NMtDS0=    0 NMtDT0=    0
         I1Cent=           0 NGrid=           0.
 Symmetry not used in FoFCou.
 Leave Link  703 at Wed Sep 29 10:30:15 2021, MaxMem= 2415919104 cpu:     406.4
 (Enter /sw/target/amd/app/gaussian/Gaussian09RevA.02_gcc-4.9.2/g09/l716.exe)
 Dipole        =-2.09555954D-01 7.27455091D-01 6.68602489D-01
 ***** Axes restored to original set *****
 -------------------------------------------------------------------
 Center     Atomic                   Forces (Hartrees/Bohr)
 Number     Number              X              Y              Z
 -------------------------------------------------------------------
      1        8          -0.003861051   -0.009294909    0.025900586
      2        6           0.004969564    0.001758882   -0.007258328
      3        6          -0.009610920    0.003728495    0.003650087
      4        6           0.007208878   -0.007826036   -0.002796801
      5        6           0.004241631   -0.000865242    0.008166640
      6        6           0.001007657    0.003417265   -0.008435925
      7        8           0.008163230    0.009438657   -0.013664954
      8        6          -0.016993974    0.015990496   -0.009030230
      9        6          -0.012005258   -0.020332991   -0.001612189
     10        6           0.026366471   -0.001769873    0.012359326
     11        6          -0.002989021    0.018187321   -0.005305169
     12        6           0.002387670    0.017897348   -0.002043007
     13        6          -0.006814369   -0.015020897   -0.001371264
     14        6           0.004249764   -0.021814101    0.005452831
     15        6          -0.023765460    0.002850073   -0.012103898
     16        6           0.010816011    0.017721501    0.001786155
     17        6           0.015063590   -0.012239778    0.011585895
     18        8          -0.010529014   -0.002692855   -0.010045229
     19       14           0.025216075    0.040725835    0.023258558
     20        6          -0.014104710   -0.028973417   -0.012583743
     21        6           0.003097861   -0.003682073   -0.001909051
     22        6          -0.004069802   -0.004663483   -0.004045083
     23        6          -0.002172965   -0.002496427    0.002920862
     24        6          -0.004852881   -0.003915699   -0.002193552
     25        6          -0.005090115   -0.002608502   -0.005660124
     26        1          -0.000991854   -0.000081141    0.000814187
     27        1          -0.000855864    0.000486227   -0.000408503
     28        1          -0.001171265    0.001458039    0.000382021
     29        1          -0.000817645    0.001430645   -0.001641777
     30        1          -0.000868707    0.000045246   -0.003626601
     31        1          -0.001384781   -0.000533695    0.000134149
     32        1           0.000621295    0.000678948    0.000992826
     33        1          -0.000485329   -0.000583293    0.000141090
     34        1           0.001077943   -0.001256348    0.001967706
     35        1           0.000597996   -0.003497274   -0.000053244
     36        1           0.000851846   -0.000431634    0.000730913
     37        1          -0.000252679   -0.004034131    0.000866572
     38        1           0.000704936    0.004041512   -0.001023607
     39        1           0.000190345    0.000905656    0.000027042
     40        1           0.002491969    0.003755117    0.001296288
     41        1          -0.000630799    0.000144426    0.001097329
     42        1          -0.000286041    0.000167585   -0.000173880
     43        1           0.000405894    0.002881375    0.000855876
     44        1           0.000015768    0.000066062    0.001328680
     45        1           0.000355269    0.002772348    0.000111839
     46        1           0.001408822    0.000275465    0.000180975
     47        1          -0.000214990   -0.000021349   -0.000501744
     48        1           0.001192706    0.000114993   -0.000395512
     49        1           0.000885314    0.002842993    0.000043402
     50        1          -0.001577694   -0.001657427    0.001708443
     51        1          -0.000363447    0.000722848    0.000653692
     52        1          -0.000212546   -0.001156346    0.001221281
     53        1           0.001646797   -0.001088701   -0.001342638
     54        1           0.001938017   -0.002528934   -0.001523509
     55        1          -0.000200138    0.000561198    0.001114310
 -------------------------------------------------------------------
 Cartesian Forces:  Max     0.040725835 RMS     0.008325663
 Leave Link  716 at Wed Sep 29 10:30:16 2021, MaxMem= 2415919104 cpu:       0.1
 (Enter /sw/target/amd/app/gaussian/Gaussian09RevA.02_gcc-4.9.2/g09/l103.exe)

 GradGradGradGradGradGradGradGradGradGradGradGradGradGradGradGradGradGrad
 Berny optimization.
 Internal  Forces:  Max     0.035212914 RMS     0.004546486
 Search for a local minimum.
 Step number   1 out of a maximum of  307
[...]
   250    C   17  pz     Ryd( 3p)     0.00234
   251    C   17  dxy    Ryd( 3d)     0.00167
   252    C   17  dxz    Ryd( 3d)     0.00151
   253    C   17  dyz    Ryd( 3d)     0.00102
   254    C   17  dx2y2  Ryd( 3d)     0.00159
   255    C   17  dz2    Ryd( 3d)     0.00044

   256    O   18  S      Cor( 1S)     1.99975
   257    O   18  S      Val( 2S)     1.63745
   258    O   18  S      Ryd( 3S)     0.00169
   259    O   18  S      Ryd( 4S)     0.00012
   260    O   18  px     Val( 2p)     1.56668
   261    O   18  px     Ryd( 3p)     0.00181
   262    O   18  py     Val( 2p)     1.84471
   263    O   18  py     Ryd( 3p)     0.00226
   264    O   18  pz     Val( 2p)     1.76068
   265    O   18  pz     Ryd( 3p)     0.00181
   266    O   18  dxy    Ryd( 3d)     0.00136
   267    O   18  dxz    Ryd( 3d)     0.00032
   268    O   18  dyz    Ryd( 3d)     0.00117
   269    O   18  dx2y2  Ryd( 3d)     0.00117
   270    O   18  dz2    Ryd( 3d)     0.00084

   271   Si   19  S      Cor( 1S)     2.00000
   272   Si   19  S      Cor( 2S)     1.99848
   273   Si   19  S      Val( 3S)     0.74072
   274   Si   19  S      Ryd( 4S)     0.00231
   275   Si   19  S      Ryd( 5S)     0.00001
   276   Si   19  px     Cor( 2p)     1.99955
   277   Si   19  px     Val( 3p)     0.28570
   278   Si   19  px     Ryd( 4p)     0.00226
   279   Si   19  py     Cor( 2p)     1.99973
   280   Si   19  py     Val( 3p)     0.41253
   281   Si   19  py     Ryd( 4p)     0.00356
   282   Si   19  pz     Cor( 2p)     1.99980
   283   Si   19  pz     Val( 3p)     0.43812
   284   Si   19  pz     Ryd( 4p)     0.00514
   285   Si   19  dxy    Ryd( 3d)     0.00677
   286   Si   19  dxz    Ryd( 3d)     0.00522
   287   Si   19  dyz    Ryd( 3d)     0.00867
   288   Si   19  dx2y2  Ryd( 3d)     0.00633
   289   Si   19  dz2    Ryd( 3d)     0.00717

   290    C   20  S      Cor( 1S)     1.99916
   291    C   20  S      Val( 2S)     1.02990
   292    C   20  S      Ryd( 3S)     0.00351
   293    C   20  S      Ryd( 4S)     0.00001
   294    C   20  px     Val( 2p)     1.16250
   295    C   20  px     Ryd( 3p)     0.00359
   296    C   20  py     Val( 2p)     1.27512
   297    C   20  py     Ryd( 3p)     0.00469
   298    C   20  pz     Val( 2p)     1.06308
   299    C   20  pz     Ryd( 3p)     0.00228
   300    C   20  dxy    Ryd( 3d)     0.00091
   301    C   20  dxz    Ryd( 3d)     0.00049
   302    C   20  dyz    Ryd( 3d)     0.00072
   303    C   20  dx2y2  Ryd( 3d)     0.00056
   304    C   20  dz2    Ryd( 3d)     0.00089

   305    C   21  S      Cor( 1S)     1.99941
   306    C   21  S      Val( 2S)     1.08795
   307    C   21  S      Ryd( 3S)     0.00081
   308    C   21  S      Ryd( 4S)     0.00002
   309    C   21  px     Val( 2p)     1.25194
   310    C   21  px     Ryd( 3p)     0.00300
   311    C   21  py     Val( 2p)     1.20509
   312    C   21  py     Ryd( 3p)     0.00268
   313    C   21  pz     Val( 2p)     1.12020
   314    C   21  pz     Ryd( 3p)     0.00199
   315    C   21  dxy    Ryd( 3d)     0.00083
   316    C   21  dxz    Ryd( 3d)     0.00036
   317    C   21  dyz    Ryd( 3d)     0.00079
   318    C   21  dx2y2  Ryd( 3d)     0.00062
   319    C   21  dz2    Ryd( 3d)     0.00082

   320    C   22  S      Cor( 1S)     1.99941
   321    C   22  S      Val( 2S)     1.08792
   322    C   22  S      Ryd( 3S)     0.00078
   323    C   22  S      Ryd( 4S)     0.00002
   324    C   22  px     Val( 2p)     1.09808
   325    C   22  px     Ryd( 3p)     0.00161
   326    C   22  py     Val( 2p)     1.23983
   327    C   22  py     Ryd( 3p)     0.00323
   328    C   22  pz     Val( 2p)     1.24025
   329    C   22  pz     Ryd( 3p)     0.00257
   330    C   22  dxy    Ryd( 3d)     0.00095
   331    C   22  dxz    Ryd( 3d)     0.00040
   332    C   22  dyz    Ryd( 3d)     0.00096
   333    C   22  dx2y2  Ryd( 3d)     0.00041
   334    C   22  dz2    Ryd( 3d)     0.00071

   335    C   23  S      Cor( 1S)     1.99941
   336    C   23  S      Val( 2S)     1.08788
   337    C   23  S      Ryd( 3S)     0.00081
   338    C   23  S      Ryd( 4S)     0.00002
   339    C   23  px     Val( 2p)     1.24293
   340    C   23  px     Ryd( 3p)     0.00304
   341    C   23  py     Val( 2p)     1.18435
   342    C   23  py     Ryd( 3p)     0.00254
   343    C   23  pz     Val( 2p)     1.14959
   344    C   23  pz     Ryd( 3p)     0.00217
   345    C   23  dxy    Ryd( 3d)     0.00084
   346    C   23  dxz    Ryd( 3d)     0.00017
   347    C   23  dyz    Ryd( 3d)     0.00070
   348    C   23  dx2y2  Ryd( 3d)     0.00067
   349    C   23  dz2    Ryd( 3d)     0.00104

   350    C   24  S      Cor( 1S)     1.99944
   351    C   24  S      Val( 2S)     1.23090
   352    C   24  S      Ryd( 3S)     0.00218
   353    C   24  S      Ryd( 4S)     0.00001
   354    C   24  px     Val( 2p)     1.28059
   355    C   24  px     Ryd( 3p)     0.00107
   356    C   24  py     Val( 2p)     1.33571
   357    C   24  py     Ryd( 3p)     0.00196
   358    C   24  pz     Val( 2p)     1.38063
   359    C   24  pz     Ryd( 3p)     0.00280
   360    C   24  dxy    Ryd( 3d)     0.00067
   361    C   24  dxz    Ryd( 3d)     0.00010
   362    C   24  dyz    Ryd( 3d)     0.00071
   363    C   24  dx2y2  Ryd( 3d)     0.00053
   364    C   24  dz2    Ryd( 3d)     0.00075

   365    C   25  S      Cor( 1S)     1.99944
   366    C   25  S      Val( 2S)     1.23073
   367    C   25  S      Ryd( 3S)     0.00217
   368    C   25  S      Ryd( 4S)     0.00001
   369    C   25  px     Val( 2p)     1.27297
   370    C   25  px     Ryd( 3p)     0.00102
   371    C   25  py     Val( 2p)     1.31818
   372    C   25  py     Ryd( 3p)     0.00162
   373    C   25  pz     Val( 2p)     1.40633
   374    C   25  pz     Ryd( 3p)     0.00316
   375    C   25  dxy    Ryd( 3d)     0.00077
   376    C   25  dxz    Ryd( 3d)     0.00014
   377    C   25  dyz    Ryd( 3d)     0.00073
   378    C   25  dx2y2  Ryd( 3d)     0.00045
   379    C   25  dz2    Ryd( 3d)     0.00066

   380    H   26  S      Val( 1S)     0.76004
   381    H   26  S      Ryd( 2S)     0.00121

   382    H   27  S      Val( 1S)     0.76533
   383    H   27  S      Ryd( 2S)     0.00101

   384    H   28  S      Val( 1S)     0.76644
   385    H   28  S      Ryd( 2S)     0.00114

   386    H   29  S      Val( 1S)     0.75617
   387    H   29  S      Ryd( 2S)     0.00115

   388    H   30  S      Val( 1S)     0.76801
   389    H   30  S      Ryd( 2S)     0.00127

   390    H   31  S      Val( 1S)     0.76396
   391    H   31  S      Ryd( 2S)     0.00095

   392    H   32  S      Val( 1S)     0.75824
   393    H   32  S      Ryd( 2S)     0.00105

   394    H   33  S      Val( 1S)     0.75521
   395    H   33  S      Ryd( 2S)     0.00111

   396    H   34  S      Val( 1S)     0.77248
   397    H   34  S      Ryd( 2S)     0.00098

   398    H   35  S      Val( 1S)     0.75209
   399    H   35  S      Ryd( 2S)     0.00089

   400    H   36  S      Val( 1S)     0.76417
   401    H   36  S      Ryd( 2S)     0.00082

   402    H   37  S      Val( 1S)     0.76103
   403    H   37  S      Ryd( 2S)     0.00117

   404    H   38  S      Val( 1S)     0.75152
   405    H   38  S      Ryd( 2S)     0.00128

   406    H   39  S      Val( 1S)     0.75963
   407    H   39  S      Ryd( 2S)     0.00081

   408    H   40  S      Val( 1S)     0.76637
   409    H   40  S      Ryd( 2S)     0.00113

   410    H   41  S      Val( 1S)     0.77080
   411    H   41  S      Ryd( 2S)     0.00110

   412    H   42  S      Val( 1S)     0.75888
   413    H   42  S      Ryd( 2S)     0.00150

   414    H   43  S      Val( 1S)     0.76813
   415    H   43  S      Ryd( 2S)     0.00160

   416    H   44  S      Val( 1S)     0.76998
   417    H   44  S      Ryd( 2S)     0.00113

   418    H   45  S      Val( 1S)     0.76372
   419    H   45  S      Ryd( 2S)     0.00159

   420    H   46  S      Val( 1S)     0.76943
   421    H   46  S      Ryd( 2S)     0.00113

   422    H   47  S      Val( 1S)     0.75873
   423    H   47  S      Ryd( 2S)     0.00151

   424    H   48  S      Val( 1S)     0.77054
   425    H   48  S      Ryd( 2S)     0.00109

   426    H   49  S      Val( 1S)     0.76827
   427    H   49  S      Ryd( 2S)     0.00159

   428    H   50  S      Val( 1S)     0.74487
   429    H   50  S      Ryd( 2S)     0.00082

   430    H   51  S      Val( 1S)     0.73746
   431    H   51  S      Ryd( 2S)     0.00068

   432    H   52  S      Val( 1S)     0.74117
   433    H   52  S      Ryd( 2S)     0.00052

   434    H   53  S      Val( 1S)     0.73713
   435    H   53  S      Ryd( 2S)     0.00068

   436    H   54  S      Val( 1S)     0.74357
   437    H   54  S      Ryd( 2S)     0.00088

   438    H   55  S      Val( 1S)     0.74107
   439    H   55  S      Ryd( 2S)     0.00051

 WARNING:  1 low occupancy (<1.9990e) core orbital  found on  C    8
           1 low occupancy (<1.9990e) core orbital  found on  C   12
           1 low occupancy (<1.9990e) core orbital  found on  C   13
           1 low occupancy (<1.9990e) core orbital  found on  C   17
           1 low occupancy (<1.9990e) core orbital  found on Si   19


 Summary of Natural Population Analysis:                  
                                                          
                                       Natural Population 
                Natural  -----------------------------------------------
    Atom  No    Charge         Core      Valence    Rydberg      Total
 -----------------------------------------------------------------------
      O    1   -0.58679      1.99977     6.56691    0.02011     8.58679
      C    2    0.81702      1.99928     3.13423    0.04947     5.18298
      C    3   -0.14985      1.99905     4.13821    0.01259     6.14985
      C    4   -0.66978      1.99938     4.66053    0.00986     6.66978
      C    5   -0.66845      1.99938     4.65942    0.00965     6.66845
      C    6   -0.66865      1.99940     4.65818    0.01108     6.66865
      O    7   -0.55217      1.99970     6.54147    0.01100     8.55217
      C    8    0.27372      1.99866     3.70324    0.02437     5.72628
      C    9   -0.26881      1.99900     4.25420    0.01560     6.26881
      C   10   -0.20923      1.99911     4.19466    0.01546     6.20923
      C   11   -0.27262      1.99907     4.25610    0.01745     6.27262
      C   12   -0.07312      1.99898     4.05927    0.01487     6.07312
      C   13   -0.08449      1.99897     4.07040    0.01512     6.08449
      C   14   -0.16973      1.99905     4.15484    0.01584     6.16973
      C   15   -0.22849      1.99913     4.21367    0.01569     6.22849
      C   16   -0.27708      1.99904     4.26476    0.01328     6.27708
      C   17    0.38271      1.99873     3.59627    0.02230     5.61729
      O   18   -0.82180      1.99975     6.80952    0.01253     8.82180
     Si   19    2.07793      9.99756     1.87707    0.04744    11.92207
      C   20   -0.54740      1.99916     4.53060    0.01764     6.54740
      C   21   -0.67651      1.99941     4.66518    0.01192     6.67651
      C   22   -0.67713      1.99941     4.66608    0.01164     6.67713
      C   23   -0.67615      1.99941     4.66475    0.01199     6.67615
      C   24   -1.23805      1.99944     5.22783    0.01079     7.23805
      C   25   -1.23839      1.99944     5.22820    0.01074     7.23839
      H   26    0.23876      0.00000     0.76004    0.00121     0.76124
      H   27    0.23366      0.00000     0.76533    0.00101     0.76634
      H   28    0.23242      0.00000     0.76644    0.00114     0.76758
      H   29    0.24268      0.00000     0.75617    0.00115     0.75732
      H   30    0.23072      0.00000     0.76801    0.00127     0.76928
      H   31    0.23509      0.00000     0.76396    0.00095     0.76491
      H   32    0.24071      0.00000     0.75824    0.00105     0.75929
      H   33    0.24369      0.00000     0.75521    0.00111     0.75631
      H   34    0.22654      0.00000     0.77248    0.00098     0.77346
      H   35    0.24702      0.00000     0.75209    0.00089     0.75298
      H   36    0.23501      0.00000     0.76417    0.00082     0.76499
      H   37    0.23780      0.00000     0.76103    0.00117     0.76220
      H   38    0.24720      0.00000     0.75152    0.00128     0.75280
      H   39    0.23956      0.00000     0.75963    0.00081     0.76044
      H   40    0.23250      0.00000     0.76637    0.00113     0.76750
      H   41    0.22810      0.00000     0.77080    0.00110     0.77190
      H   42    0.23962      0.00000     0.75888    0.00150     0.76038
      H   43    0.23027      0.00000     0.76813    0.00160     0.76973
      H   44    0.22889      0.00000     0.76998    0.00113     0.77111
      H   45    0.23468      0.00000     0.76372    0.00159     0.76532
      H   46    0.22944      0.00000     0.76943    0.00113     0.77056
      H   47    0.23976      0.00000     0.75873    0.00151     0.76024
      H   48    0.22837      0.00000     0.77054    0.00109     0.77163
      H   49    0.23014      0.00000     0.76827    0.00159     0.76986
      H   50    0.25431      0.00000     0.74487    0.00082     0.74569
      H   51    0.26186      0.00000     0.73746    0.00068     0.73814
      H   52    0.25831      0.00000     0.74117    0.00052     0.74169
      H   53    0.26219      0.00000     0.73713    0.00068     0.73781
      H   54    0.25554      0.00000     0.74357    0.00088     0.74446
      H   55    0.25842      0.00000     0.74107    0.00051     0.74158
 =======================================================================
   * Total *   -0.00000     57.97927   135.56004    0.46069   194.00000

                                 Natural Population      
 --------------------------------------------------------
   Core                      57.97927 ( 99.9643% of  58)
   Valence                  135.56004 ( 99.6765% of 136)
   Natural Minimal Basis    193.53931 ( 99.7625% of 194)
   Natural Rydberg Basis      0.46069 (  0.2375% of 194)
 --------------------------------------------------------

    Atom  No          Natural Electron Configuration
 ----------------------------------------------------------------------------
      O    1      [core]2S( 1.69)2p( 4.87)3d( 0.02)
      C    2      [core]2S( 0.78)2p( 2.36)3S( 0.01)3p( 0.03)3d( 0.01)
      C    3      [core]2S( 0.94)2p( 3.20)3p( 0.01)
      C    4      [core]2S( 1.09)2p( 3.57)3p( 0.01)
      C    5      [core]2S( 1.10)2p( 3.56)3p( 0.01)
      C    6      [core]2S( 1.09)2p( 3.57)3p( 0.01)
      O    7      [core]2S( 1.60)2p( 4.94)3d( 0.01)
      C    8      [core]2S( 0.82)2p( 2.88)3p( 0.02)3d( 0.01)
      C    9      [core]2S( 0.96)2p( 3.29)3p( 0.01)
      C   10      [core]2S( 0.96)2p( 3.24)3p( 0.01)
      C   11      [core]2S( 0.94)2p( 3.31)3p( 0.01)
      C   12      [core]2S( 0.87)2p( 3.19)3p( 0.01)
      C   13      [core]2S( 0.87)2p( 3.20)3p( 0.01)
      C   14      [core]2S( 0.96)2p( 3.20)3p( 0.01)
      C   15      [core]2S( 0.96)2p( 3.25)3p( 0.01)
      C   16      [core]2S( 0.96)2p( 3.30)3p( 0.01)
      C   17      [core]2S( 0.82)2p( 2.78)3p( 0.01)3d( 0.01)
      O   18      [core]2S( 1.64)2p( 5.17)3p( 0.01)
     Si   19      [core]3S( 0.74)3p( 1.14)3d( 0.03)4p( 0.01)
      C   20      [core]2S( 1.03)2p( 3.50)3p( 0.01)
      C   21      [core]2S( 1.09)2p( 3.58)3p( 0.01)
      C   22      [core]2S( 1.09)2p( 3.58)3p( 0.01)
      C   23      [core]2S( 1.09)2p( 3.58)3p( 0.01)
      C   24      [core]2S( 1.23)2p( 4.00)3p( 0.01)
      C   25      [core]2S( 1.23)2p( 4.00)3p( 0.01)
      H   26            1S( 0.76)
      H   27            1S( 0.77)
      H   28            1S( 0.77)
      H   29            1S( 0.76)
      H   30            1S( 0.77)
      H   31            1S( 0.76)
      H   32            1S( 0.76)
      H   33            1S( 0.76)
      H   34            1S( 0.77)
      H   35            1S( 0.75)
      H   36            1S( 0.76)
      H   37            1S( 0.76)
      H   38            1S( 0.75)
      H   39            1S( 0.76)
      H   40            1S( 0.77)
      H   41            1S( 0.77)
      H   42            1S( 0.76)
      H   43            1S( 0.77)
      H   44            1S( 0.77)
      H   45            1S( 0.76)
      H   46            1S( 0.77)
      H   47            1S( 0.76)
      H   48            1S( 0.77)
      H   49            1S( 0.77)
      H   50            1S( 0.74)
      H   51            1S( 0.74)
      H   52            1S( 0.74)
      H   53            1S( 0.74)
      H   54            1S( 0.74)
      H   55            1S( 0.74)


 NBO analysis skipped by request.
 Leave Link  607 at Thu Sep 30 16:13:14 2021, MaxMem= 2415919104 cpu:      51.8
 (Enter /sw/target/amd/app/gaussian/Gaussian09RevA.02_gcc-4.9.2/g09/l9999.exe)
 1\1\GINC-HERMITE\SP\RTD-B3LYP-FC\6-31G(d)\C21H30O3Si1\JSCHLEINITZ\30-S
 ep-2021\0\\#p TD(NStates=10, Root=1) b3lyp/6-31G* volume pop=NPA densi
 ty=current Geom=AllCheck Guess=Read\\O=C(C(C)(C)C)Oc1cccc2c1cccc2O[Si]
 (C(C)(C)C)(C)C_conf_0\\0,1\O,0,2.6252494993,0.0217578772,-0.8093764652
 \C,0,2.0968127957,-0.6236553194,0.0615476027\C,0,0.9035661748,-1.56906
 06205,-0.1176693074\C,0,1.2608443504,-2.9724748906,0.4183999202\C,0,-0
 .2958850496,-0.9993998637,0.6744305721\C,0,0.5620853851,-1.645432163,-
 1.6141477514\O,0,2.4913242068,-0.5863188289,1.3791950667\C,0,3.5349451
 806,0.2573698745,1.7719883171\C,0,3.4433081265,1.6191250121,1.61034960
 7\C,0,4.4828001855,2.4476526222,2.0870955889\C,0,5.5816518462,1.904652
 7987,2.7147645928\C,0,5.6893086108,0.501921362,2.8914771172\C,0,4.6473
 875041,-0.3573579433,2.4109279371\C,0,4.7512328129,-1.7631405373,2.584
 1624172\C,0,5.8537244874,-2.292706111,3.2117616945\C,0,6.8927183881,-1
 .4638952921,3.6935214809\C,0,6.8215888351,-0.0923829379,3.5397051023\O
 ,0,7.7825018911,0.7670238702,3.9779239017\Si,0,9.3071624906,0.54881168
 71,4.6941595472\C,0,9.9652036096,2.3349723353,4.8682215129\C,0,9.01674
 83554,3.1596690635,5.7649745978\C,0,11.3721510285,2.3115811621,5.50495
 88788\C,0,10.0517752048,3.00202976,3.4784188886\C,0,9.1099140284,-0.28
 46227287,6.3780472754\C,0,10.403362081,-0.4944910424,3.5637307968\H,0,
 1.4773269491,-2.9479517451,1.4899422836\H,0,2.1319054066,-3.3872725133
 ,-0.102112758\H,0,0.4174599364,-3.6532381222,0.2545398391\H,0,-0.07161
 0023,-0.9305115863,1.7427245344\H,0,-1.1653459403,-1.6542577615,0.5456
 492547\H,0,-0.5712466077,-0.0013369329,0.3142314005\H,0,1.4025449151,-
 2.0411484971,-2.1928196188\H,0,0.3202537602,-0.6577416458,-2.017057086
 9\H,0,-0.3013223841,-2.3036569436,-1.7635561131\H,0,2.5789289286,2.047
 2578573,1.1155167033\H,0,4.4058095856,3.5229241741,1.9535687405\H,0,6.
 3790211996,2.5387201415,3.0837973935\H,0,3.9575129804,-2.4038078929,2.
 2190415785\H,0,5.9374011777,-3.3680038827,3.3456593271\H,0,7.747159779
 3,-1.9146796023,4.1865310266\H,0,8.9595039984,2.7552696685,6.782854583
 5\H,0,7.9992385253,3.1899577009,5.3598659898\H,0,9.3743208637,4.196334
 5115,5.8462751701\H,0,11.3649883737,1.8675570874,6.5080552188\H,0,11.7
 60379098,3.3349965877,5.6063056108\H,0,12.0913519642,1.7517746877,4.89
 45354829\H,0,9.0760082691,3.0339261332,2.9814646632\H,0,10.7479489898,
 2.4765592659,2.8135290666\H,0,10.4117808973,4.0365093782,3.5746873866\
 H,0,8.7513402397,-1.3155821499,6.2870199788\H,0,8.3958427225,0.2569254
 819,7.008272748\H,0,10.0678254654,-0.3179403602,6.9112483621\H,0,10.49
 48160399,-0.045499786,2.5685824937\H,0,10.0054076011,-1.5062897432,3.4
 312155094\H,0,11.4132229814,-0.5907319467,3.9807793912\\Version=AM64L-
 G09RevA.02\State=1-A\HF=-1333.5766583\RMSD=8.851e-09\Dipole=1.2460904,
 -0.6978235,1.3856433\Quadrupole=8.081976,2.4646513,-10.5466273,2.61827
 04,4.1584327,1.3802125\PG=C01 [X(C21H30O3Si1)]\\@



 IN THIS SHORT LIFE

 THAT ONLY LASTS AN HOUR

 HOW MUCH, HOW LITTLE, IS WITHIN OUR POWER....


 EMILY DICKINSON BOLTS OF MELODY NO. 521
 Job cpu time:  0 days 17 hours 38 minutes 50.9 seconds.
 File lengths (MBytes):  RWF=    621 Int=      0 D2E=      0 Chk=     86 Scr=      1
 Normal termination of Gaussian 09 at Thu Sep 30 16:13:22 2021.
