 Entering Gaussian System, Link 0=g09
 Input=C21H19FO2_6f90_conf_0.com
 Output=C21H19FO2_6f90_conf_0.log
 Initial command:
 /sw/target/amd/app/gaussian/Gaussian09RevA.02_gcc-4.9.2/g09/l1.exe /home/jschleinitz/gaussian/Gau-941244.inp -scrdir=/home/jschleinitz/gaussian/
 Entering Link 1 = /sw/target/amd/app/gaussian/Gaussian09RevA.02_gcc-4.9.2/g09/l1.exe PID=    941262.
  
 Copyright (c) 1988,1990,1992,1993,1995,1998,2003,2009, Gaussian, Inc.
                  All Rights Reserved.
  
 This is part of the Gaussian(R) 09 program.  It is based on
 the Gaussian(R) 03 system (copyright 2003, Gaussian, Inc.),
 the Gaussian(R) 98 system (copyright 1998, Gaussian, Inc.),
 the Gaussian(R) 94 system (copyright 1995, Gaussian, Inc.),
 the Gaussian 92(TM) system (copyright 1992, Gaussian, Inc.),
 the Gaussian 90(TM) system (copyright 1990, Gaussian, Inc.),
 the Gaussian 88(TM) system (copyright 1988, Gaussian, Inc.),
 the Gaussian 86(TM) system (copyright 1986, Carnegie Mellon
 University), and the Gaussian 82(TM) system (copyright 1983,
 Carnegie Mellon University). Gaussian is a federally registered
 trademark of Gaussian, Inc.
  
 This software contains proprietary and confidential information,
 including trade secrets, belonging to Gaussian, Inc.
  
 This software is provided under written license and may be
 used, copied, transmitted, or stored only in accord with that
 written license.
  
 The following legend is applicable only to US Government
 contracts under FAR:
  
                    RESTRICTED RIGHTS LEGEND
  
 Use, reproduction and disclosure by the US Government is
 subject to restrictions as set forth in subparagraphs (a)
 and (c) of the Commercial Computer Software - Restricted
 Rights clause in FAR 52.227-19.
  
 Gaussian, Inc.
 340 Quinnipiac St., Bldg. 40, Wallingford CT 06492
  
  
 ---------------------------------------------------------------
 Warning -- This program may not be used in any manner that
 competes with the business of Gaussian, Inc. or will provide
 assistance to any competitor of Gaussian, Inc.  The licensee
 of this program is prohibited from giving any competitor of
 Gaussian, Inc. access to this program.  By using this program,
 the user acknowledges that Gaussian, Inc. is engaged in the
 business of creating and licensing software in the field of
 computational chemistry and represents and warrants to the
 licensee that it is not a competitor of Gaussian, Inc. and that
 it will not use this program in any manner prohibited above.
 ---------------------------------------------------------------
  

 Cite this work as:
 Gaussian 09, Revision A.02,
 M. J. Frisch, G. W. Trucks, H. B. Schlegel, G. E. Scuseria, 
 M. A. Robb, J. R. Cheeseman, G. Scalmani, V. Barone, B. Mennucci, 
 G. A. Petersson, H. Nakatsuji, M. Caricato, X. Li, H. P. Hratchian, 
 A. F. Izmaylov, J. Bloino, G. Zheng, J. L. Sonnenberg, M. Hada, 
 M. Ehara, K. Toyota, R. Fukuda, J. Hasegawa, M. Ishida, T. Nakajima, 
 Y. Honda, O. Kitao, H. Nakai, T. Vreven, J. A. Montgomery, Jr., 
 J. E. Peralta, F. Ogliaro, M. Bearpark, J. J. Heyd, E. Brothers, 
 K. N. Kudin, V. N. Staroverov, R. Kobayashi, J. Normand, 
 K. Raghavachari, A. Rendell, J. C. Burant, S. S. Iyengar, J. Tomasi, 
 M. Cossi, N. Rega, J. M. Millam, M. Klene, J. E. Knox, J. B. Cross, 
 V. Bakken, C. Adamo, J. Jaramillo, R. Gomperts, R. E. Stratmann, 
 O. Yazyev, A. J. Austin, R. Cammi, C. Pomelli, J. W. Ochterski, 
 R. L. Martin, K. Morokuma, V. G. Zakrzewski, G. A. Voth, 
 P. Salvador, J. J. Dannenberg, S. Dapprich, A. D. Daniels, 
 O. Farkas, J. B. Foresman, J. V. Ortiz, J. Cioslowski, 
 and D. J. Fox, Gaussian, Inc., Wallingford CT, 2009.
 
 ******************************************
 Gaussian 09:  AM64L-G09RevA.02 11-Jun-2009
                29-Sep-2021 
 ******************************************
 %nproc=7
 Will use up to    7 processors via shared memory.
 %mem=14gb
 %chk=C21H19FO2_6f90_conf_0.chk
 -----------------------------------
 #p opt b3lyp/6-31G* scf=(xqc,tight)
 -----------------------------------
 1/14=-1,18=20,19=15,26=3,38=1/1,3;
 2/9=110,12=2,17=6,18=5,40=1/2;
 3/5=1,6=6,7=1,11=2,16=1,25=1,30=1,71=1,74=-5/1,2,3;
 4//1;
 5/5=2,8=3,13=1,32=2,38=5/2,8;
 6/7=2,8=2,9=2,10=2,28=1/1;
 7//1,2,3,16;
 1/14=-1,18=20,19=15/3(2);
 2/9=110/2;
 99//99;
 2/9=110/2;
 3/5=1,6=6,7=1,11=2,16=1,25=1,30=1,71=1,74=-5/1,2,3;
 4/5=5,16=3/1;
 5/5=2,8=3,13=1,32=2,38=5/2,8;
 7//1,2,3,16;
 1/14=-1,18=20,19=15/3(-5);
 2/9=110/2;
 6/7=2,8=2,9=2,10=2,19=2,28=1/1;
 99/9=1/99;
 Leave Link    1 at Wed Sep 29 03:44:12 2021, MaxMem= 1879048192 cpu:       0.1
 (Enter /sw/target/amd/app/gaussian/Gaussian09RevA.02_gcc-4.9.2/g09/l101.exe)
 --------------------------------------------------
 Fc1cccc(c1)c1ccc2c(c1)ccc(c2)OC(=O)C(C)(C)C_conf_0
 --------------------------------------------------
 Symbolic Z-matrix:
 Charge =  0 Multiplicity = 1
 F                    -1.08434   2.43048  -1.94051 
 C                    -0.58124   1.40792  -1.23628 
 C                     0.69616   1.50769  -0.70668 
 C                     1.21073   0.44211   0.02225 
 C                     0.44078  -0.71324   0.21033 
 C                    -0.86274  -0.83153  -0.31501 
 C                    -1.35489   0.26498  -1.04567 
 C                    -1.68659  -2.04839  -0.09895 
 C                    -2.63607  -2.4725   -1.04528 
 C                    -3.44251  -3.59629  -0.82698 
 C                    -3.31933  -4.34775   0.34686 
 C                    -2.35715  -3.9619    1.30456 
 C                    -1.56564  -2.82206   1.07073 
 C                    -2.21453  -4.71914   2.4781 
 C                    -3.01608  -5.83675   2.71332 
 C                    -3.98221  -6.19198   1.77923 
 C                    -4.12823  -5.46841   0.5944 
 O                    -4.82068  -7.31525   1.92155 
 C                    -5.28201  -7.76083   3.16226 
 O                    -5.00326  -7.26317   4.2496 
 C                    -6.13867  -9.01876   2.99762 
 C                    -5.19218  -10.22291   3.06639 
 C                    -7.15135  -9.09564   4.15124 
 C                    -6.92083  -9.00771   1.6748 
 H                     1.27722   2.41007  -0.86472 
 H                     2.21061   0.50304   0.44465 
 H                     0.88678  -1.53114   0.77314 
 H                    -2.35477   0.2601   -1.4689 
 H                    -2.76457  -1.93305  -1.9814 
 H                    -4.17056  -3.87403  -1.58625 
 H                    -0.85338  -2.52742   1.83912 
 H                    -1.47523  -4.44177   3.22693 
 H                    -2.87332  -6.4015    3.62879 
 H                    -4.88081  -5.77289  -0.12806 
 H                    -4.71546  -10.28726   4.05245 
 H                    -4.38723  -10.14251   2.32724 
 H                    -5.7247   -11.16356   2.89133 
 H                    -6.6503   -9.1318    5.12546 
 H                    -7.7789   -9.99007   4.06854 
 H                    -7.80955  -8.21923   4.15712 
 H                    -6.25962  -8.96404   0.80252 
 H                    -7.58602  -8.13724   1.62444 
 H                    -7.53777  -9.90718   1.57035 
 
 NAtoms=     43 NQM=     43 NQMF=      0 NMic=      0 NMicF=      0 NTot=     43.
                    Isotopes and Nuclear Properties:
 (Nuclear quadrupole moments (NQMom) in fm**2, nuclear magnetic moments (NMagM)
  in nuclear magnetons)

  Atom         1           2           3           4           5           6           7           8           9          10
 IAtWgt=          19          12          12          12          12          12          12          12          12          12
 AtmWgt=  18.9984032  12.0000000  12.0000000  12.0000000  12.0000000  12.0000000  12.0000000  12.0000000  12.0000000  12.0000000
 NucSpn=           1           0           0           0           0           0           0           0           0           0
 AtZEff=   0.0000000   0.0000000   0.0000000   0.0000000   0.0000000   0.0000000   0.0000000   0.0000000   0.0000000   0.0000000
 NQMom=    0.0000000   0.0000000   0.0000000   0.0000000   0.0000000   0.0000000   0.0000000   0.0000000   0.0000000   0.0000000
 NMagM=    2.6288670   0.0000000   0.0000000   0.0000000   0.0000000   0.0000000   0.0000000   0.0000000   0.0000000   0.0000000

  Atom        11          12          13          14          15          16          17          18          19          20
 IAtWgt=          12          12          12          12          12          12          12          16          12          16
 AtmWgt=  12.0000000  12.0000000  12.0000000  12.0000000  12.0000000  12.0000000  12.0000000  15.9949146  12.0000000  15.9949146
 NucSpn=           0           0           0           0           0           0           0           0           0           0
 AtZEff=   0.0000000   0.0000000   0.0000000   0.0000000   0.0000000   0.0000000   0.0000000   0.0000000   0.0000000   0.0000000
 NQMom=    0.0000000   0.0000000   0.0000000   0.0000000   0.0000000   0.0000000   0.0000000   0.0000000   0.0000000   0.0000000
 NMagM=    0.0000000   0.0000000   0.0000000   0.0000000   0.0000000   0.0000000   0.0000000   0.0000000   0.0000000   0.0000000

  Atom        21          22          23          24          25          26          27          28          29          30
 IAtWgt=          12          12          12          12           1           1           1           1           1           1
 AtmWgt=  12.0000000  12.0000000  12.0000000  12.0000000   1.0078250   1.0078250   1.0078250   1.0078250   1.0078250   1.0078250
 NucSpn=           0           0           0           0           1           1           1           1           1           1
 AtZEff=   0.0000000   0.0000000   0.0000000   0.0000000   0.0000000   0.0000000   0.0000000   0.0000000   0.0000000   0.0000000
 NQMom=    0.0000000   0.0000000   0.0000000   0.0000000   0.0000000   0.0000000   0.0000000   0.0000000   0.0000000   0.0000000
 NMagM=    0.0000000   0.0000000   0.0000000   0.0000000   2.7928460   2.7928460   2.7928460   2.7928460   2.7928460   2.7928460

  Atom        31          32          33          34          35          36          37          38          39          40
 IAtWgt=           1           1           1           1           1           1           1           1           1           1
 AtmWgt=   1.0078250   1.0078250   1.0078250   1.0078250   1.0078250   1.0078250   1.0078250   1.0078250   1.0078250   1.0078250
 NucSpn=           1           1           1           1           1           1           1           1           1           1
 AtZEff=   0.0000000   0.0000000   0.0000000   0.0000000   0.0000000   0.0000000   0.0000000   0.0000000   0.0000000   0.0000000
 NQMom=    0.0000000   0.0000000   0.0000000   0.0000000   0.0000000   0.0000000   0.0000000   0.0000000   0.0000000   0.0000000
 NMagM=    2.7928460   2.7928460   2.7928460   2.7928460   2.7928460   2.7928460   2.7928460   2.7928460   2.7928460   2.7928460

  Atom        41          42          43
 IAtWgt=           1           1           1
 AtmWgt=   1.0078250   1.0078250   1.0078250
 NucSpn=           1           1           1
 AtZEff=   0.0000000   0.0000000   0.0000000
 NQMom=    0.0000000   0.0000000   0.0000000
 NMagM=    2.7928460   2.7928460   2.7928460
 Leave Link  101 at Wed Sep 29 03:44:13 2021, MaxMem= 1879048192 cpu:       0.2
 (Enter /sw/target/amd/app/gaussian/Gaussian09RevA.02_gcc-4.9.2/g09/l103.exe)

 GradGradGradGradGradGradGradGradGradGradGradGradGradGradGradGradGradGrad
 Berny optimization.
 Initialization pass.
                           ----------------------------
                           !    Initial Parameters    !
                           ! (Angstroms and Degrees)  !
 --------------------------                            --------------------------
 ! Name  Definition              Value          Derivative Info.                !
 --------------------------------------------------------------------------------
 ! R1    R(1,2)                  1.3397         estimate D2E/DX2                !
 ! R2    R(2,3)                  1.3864         estimate D2E/DX2                !
 ! R3    R(2,7)                  1.3933         estimate D2E/DX2                !
 ! R4    R(3,4)                  1.3898         estimate D2E/DX2                !
 ! R5    R(3,25)                 1.0848         estimate D2E/DX2                !
 ! R6    R(4,5)                  1.4011         estimate D2E/DX2                !
 ! R7    R(4,26)                 1.0871         estimate D2E/DX2                !
 ! R8    R(5,6)                  1.4104         estimate D2E/DX2                !
 ! R9    R(5,27)                 1.0884         estimate D2E/DX2                !
 ! R10   R(6,7)                  1.4066         estimate D2E/DX2                !
 ! R11   R(6,8)                  1.4853         estimate D2E/DX2                !
 ! R12   R(7,28)                 1.0858         estimate D2E/DX2                !
 ! R13   R(8,9)                  1.406          estimate D2E/DX2                !
 ! R14   R(8,13)                 1.4076         estimate D2E/DX2                !
 ! R15   R(9,10)                 1.4003         estimate D2E/DX2                !
 ! R16   R(9,29)                 1.088          estimate D2E/DX2                !
 ! R17   R(10,11)                1.3992         estimate D2E/DX2                !
 ! R18   R(10,30)                1.088          estimate D2E/DX2                !
 ! R19   R(11,12)                1.4113         estimate D2E/DX2                !
 ! R20   R(11,17)                1.4041         estimate D2E/DX2                !
 ! R21   R(12,13)                1.4073         estimate D2E/DX2                !
 ! R22   R(12,14)                1.4039         estimate D2E/DX2                !
 ! R23   R(13,31)                1.0884         estimate D2E/DX2                !
 ! R24   R(14,15)                1.3953         estimate D2E/DX2                !
 ! R25   R(14,32)                1.0882         estimate D2E/DX2                !
 ! R26   R(15,16)                1.39           estimate D2E/DX2                !
 ! R27   R(15,33)                1.0851         estimate D2E/DX2                !
 ! R28   R(16,17)                1.396          estimate D2E/DX2                !
 ! R29   R(16,18)                1.4089         estimate D2E/DX2                !
 ! R30   R(17,34)                1.0867         estimate D2E/DX2                !
 ! R31   R(18,19)                1.3967         estimate D2E/DX2                !
 ! R32   R(19,20)                1.2279         estimate D2E/DX2                !
 ! R33   R(19,21)                1.5308         estimate D2E/DX2                !
 ! R34   R(21,22)                1.5331         estimate D2E/DX2                !
 ! R35   R(21,23)                1.537          estimate D2E/DX2                !
 ! R36   R(21,24)                1.5368         estimate D2E/DX2                !
 ! R37   R(22,35)                1.0971         estimate D2E/DX2                !
 ! R38   R(22,36)                1.0958         estimate D2E/DX2                !
 ! R39   R(22,37)                1.095          estimate D2E/DX2                !
 ! R40   R(23,38)                1.0961         estimate D2E/DX2                !
 ! R41   R(23,39)                1.0958         estimate D2E/DX2                !
 ! R42   R(23,40)                1.0961         estimate D2E/DX2                !
 ! R43   R(24,41)                1.0954         estimate D2E/DX2                !
 ! R44   R(24,42)                1.0967         estimate D2E/DX2                !
 ! R45   R(24,43)                1.0957         estimate D2E/DX2                !
 ! A1    A(1,2,3)              119.4642         estimate D2E/DX2                !
 ! A2    A(1,2,7)              119.3105         estimate D2E/DX2                !
 ! A3    A(3,2,7)              121.2249         estimate D2E/DX2                !
 ! A4    A(2,3,4)              119.0971         estimate D2E/DX2                !
 ! A5    A(2,3,25)             119.8489         estimate D2E/DX2                !
 ! A6    A(4,3,25)             121.054          estimate D2E/DX2                !
 ! A7    A(3,4,5)              119.9458         estimate D2E/DX2                !
 ! A8    A(3,4,26)             120.0881         estimate D2E/DX2                !
 ! A9    A(5,4,26)             119.9659         estimate D2E/DX2                !
 ! A10   A(4,5,6)              121.8075         estimate D2E/DX2                !
 ! A11   A(4,5,27)             117.6383         estimate D2E/DX2                !
 ! A12   A(6,5,27)             120.5519         estimate D2E/DX2                !
 ! A13   A(5,6,7)              116.8401         estimate D2E/DX2                !
 ! A14   A(5,6,8)              121.8146         estimate D2E/DX2                !
 ! A15   A(7,6,8)              121.3426         estimate D2E/DX2                !
 ! A16   A(2,7,6)              121.0827         estimate D2E/DX2                !
 ! A17   A(2,7,28)             117.4978         estimate D2E/DX2                !
 ! A18   A(6,7,28)             121.413          estimate D2E/DX2                !
 ! A19   A(6,8,9)              121.5858         estimate D2E/DX2                !
 ! A20   A(6,8,13)             121.568          estimate D2E/DX2                !
 ! A21   A(9,8,13)             116.8414         estimate D2E/DX2                !
 ! A22   A(8,9,10)             121.7385         estimate D2E/DX2                !
 ! A23   A(8,9,29)             120.6154         estimate D2E/DX2                !
 ! A24   A(10,9,29)            117.6456         estimate D2E/DX2                !
 ! A25   A(9,10,11)            120.7364         estimate D2E/DX2                !
 ! A26   A(9,10,30)            118.7802         estimate D2E/DX2                !
 ! A27   A(11,10,30)           120.4831         estimate D2E/DX2                !
 ! A28   A(10,11,12)           118.8471         estimate D2E/DX2                !
 ! A29   A(10,11,17)           121.7244         estimate D2E/DX2                !
 ! A30   A(12,11,17)           119.4284         estimate D2E/DX2                !
 ! A31   A(11,12,13)           119.4811         estimate D2E/DX2                !
 ! A32   A(11,12,14)           119.2768         estimate D2E/DX2                !
 ! A33   A(13,12,14)           121.2407         estimate D2E/DX2                !
 ! A34   A(8,13,12)            122.3392         estimate D2E/DX2                !
 ! A35   A(8,13,31)            119.6106         estimate D2E/DX2                !
 ! A36   A(12,13,31)           118.0373         estimate D2E/DX2                !
 ! A37   A(12,14,15)           120.9701         estimate D2E/DX2                !
 ! A38   A(12,14,32)           120.4472         estimate D2E/DX2                !
 ! A39   A(15,14,32)           118.5823         estimate D2E/DX2                !
 ! A40   A(14,15,16)           119.3862         estimate D2E/DX2                !
 ! A41   A(14,15,33)           118.9168         estimate D2E/DX2                !
 ! A42   A(16,15,33)           121.6946         estimate D2E/DX2                !
 ! A43   A(15,16,17)           120.7046         estimate D2E/DX2                !
 ! A44   A(15,16,18)           123.3328         estimate D2E/DX2                !
 ! A45   A(17,16,18)           115.8957         estimate D2E/DX2                !
 ! A46   A(11,17,16)           120.2033         estimate D2E/DX2                !
 ! A47   A(11,17,34)           120.3561         estimate D2E/DX2                !
 ! A48   A(16,17,34)           119.4365         estimate D2E/DX2                !
 ! A49   A(16,18,19)           122.728          estimate D2E/DX2                !
 ! A50   A(18,19,20)           125.6172         estimate D2E/DX2                !
 ! A51   A(18,19,21)           110.5765         estimate D2E/DX2                !
 ! A52   A(20,19,21)           123.7342         estimate D2E/DX2                !
 ! A53   A(19,21,22)           107.1639         estimate D2E/DX2                !
 ! A54   A(19,21,23)           109.2139         estimate D2E/DX2                !
 ! A55   A(19,21,24)           111.8071         estimate D2E/DX2                !
 ! A56   A(22,21,23)           109.5002         estimate D2E/DX2                !
 ! A57   A(22,21,24)           111.0054         estimate D2E/DX2                !
 ! A58   A(23,21,24)           108.1252         estimate D2E/DX2                !
 ! A59   A(21,22,35)           110.7701         estimate D2E/DX2                !
 ! A60   A(21,22,36)           111.4454         estimate D2E/DX2                !
 ! A61   A(21,22,37)           111.5489         estimate D2E/DX2                !
 ! A62   A(35,22,36)           106.9393         estimate D2E/DX2                !
 ! A63   A(35,22,37)           107.7348         estimate D2E/DX2                !
 ! A64   A(36,22,37)           108.2061         estimate D2E/DX2                !
 ! A65   A(21,23,38)           111.5664         estimate D2E/DX2                !
 ! A66   A(21,23,39)           111.1944         estimate D2E/DX2                !
 ! A67   A(21,23,40)           111.0818         estimate D2E/DX2                !
 ! A68   A(38,23,39)           107.5746         estimate D2E/DX2                !
 ! A69   A(38,23,40)           107.2242         estimate D2E/DX2                !
 ! A70   A(39,23,40)           108.0093         estimate D2E/DX2                !
 ! A71   A(21,24,41)           112.2407         estimate D2E/DX2                !
 ! A72   A(21,24,42)           110.7278         estimate D2E/DX2                !
 ! A73   A(21,24,43)           111.2669         estimate D2E/DX2                !
 ! A74   A(41,24,42)           107.332          estimate D2E/DX2                !
 ! A75   A(41,24,43)           107.2589         estimate D2E/DX2                !
 ! A76   A(42,24,43)           107.7987         estimate D2E/DX2                !
 ! D1    D(1,2,3,4)           -179.978          estimate D2E/DX2                !
 ! D2    D(1,2,3,25)             0.0555         estimate D2E/DX2                !
 ! D3    D(7,2,3,4)              0.2669         estimate D2E/DX2                !
 ! D4    D(7,2,3,25)          -179.6996         estimate D2E/DX2                !
 ! D5    D(1,2,7,6)            179.8655         estimate D2E/DX2                !
 ! D6    D(1,2,7,28)            -1.0448         estimate D2E/DX2                !
 ! D7    D(3,2,7,6)             -0.3791         estimate D2E/DX2                !
 ! D8    D(3,2,7,28)           178.7106         estimate D2E/DX2                !
 ! D9    D(2,3,4,5)              0.1335         estimate D2E/DX2                !
 ! D10   D(2,3,4,26)           179.9928         estimate D2E/DX2                !
 ! D11   D(25,3,4,5)          -179.9004         estimate D2E/DX2                !
 ! D12   D(25,3,4,26)           -0.0412         estimate D2E/DX2                !
 ! D13   D(3,4,5,6)             -0.4352         estimate D2E/DX2                !
 ! D14   D(3,4,5,27)           179.0112         estimate D2E/DX2                !
 ! D15   D(26,4,5,6)           179.7053         estimate D2E/DX2                !
 ! D16   D(26,4,5,27)           -0.8483         estimate D2E/DX2                !
 ! D17   D(4,5,6,7)              0.3212         estimate D2E/DX2                !
 ! D18   D(4,5,6,8)           -179.0933         estimate D2E/DX2                !
 ! D19   D(27,5,6,7)          -179.1093         estimate D2E/DX2                !
 ! D20   D(27,5,6,8)             1.4762         estimate D2E/DX2                !
 ! D21   D(5,6,7,2)              0.0817         estimate D2E/DX2                !
 ! D22   D(5,6,7,28)          -178.9722         estimate D2E/DX2                !
 ! D23   D(8,6,7,2)            179.4992         estimate D2E/DX2                !
 ! D24   D(8,6,7,28)             0.4453         estimate D2E/DX2                !
 ! D25   D(5,6,8,9)           -149.5471         estimate D2E/DX2                !
 ! D26   D(5,6,8,13)            31.2711         estimate D2E/DX2                !
 ! D27   D(7,6,8,9)             31.0646         estimate D2E/DX2                !
 ! D28   D(7,6,8,13)          -148.1172         estimate D2E/DX2                !
 ! D29   D(6,8,9,10)          -178.0581         estimate D2E/DX2                !
 ! D30   D(6,8,9,29)             2.1845         estimate D2E/DX2                !
 ! D31   D(13,8,9,10)            1.1606         estimate D2E/DX2                !
 ! D32   D(13,8,9,29)         -178.5968         estimate D2E/DX2                !
 ! D33   D(6,8,13,12)          178.6599         estimate D2E/DX2                !
 ! D34   D(6,8,13,31)           -0.0079         estimate D2E/DX2                !
 ! D35   D(9,8,13,12)           -0.5589         estimate D2E/DX2                !
 ! D36   D(9,8,13,31)         -179.2267         estimate D2E/DX2                !
 ! D37   D(8,9,10,11)           -0.5856         estimate D2E/DX2                !
 ! D38   D(8,9,10,30)          179.2217         estimate D2E/DX2                !
 ! D39   D(29,9,10,11)         179.1788         estimate D2E/DX2                !
 ! D40   D(29,9,10,30)          -1.0139         estimate D2E/DX2                !
 ! D41   D(9,10,11,12)          -0.6301         estimate D2E/DX2                !
 ! D42   D(9,10,11,17)         179.212          estimate D2E/DX2                !
 ! D43   D(30,10,11,12)        179.5659         estimate D2E/DX2                !
 ! D44   D(30,10,11,17)         -0.592          estimate D2E/DX2                !
 ! D45   D(10,11,12,13)          1.2078         estimate D2E/DX2                !
 ! D46   D(10,11,12,14)       -179.2187         estimate D2E/DX2                !
 ! D47   D(17,11,12,13)       -178.638          estimate D2E/DX2                !
 ! D48   D(17,11,12,14)          0.9356         estimate D2E/DX2                !
 ! D49   D(10,11,17,16)       -179.724          estimate D2E/DX2                !
 ! D50   D(10,11,17,34)         -0.4662         estimate D2E/DX2                !
 ! D51   D(12,11,17,16)          0.1171         estimate D2E/DX2                !
 ! D52   D(12,11,17,34)        179.375          estimate D2E/DX2                !
 ! D53   D(11,12,13,8)          -0.6171         estimate D2E/DX2                !
 ! D54   D(11,12,13,31)        178.0706         estimate D2E/DX2                !
 ! D55   D(14,12,13,8)         179.8179         estimate D2E/DX2                !
 ! D56   D(14,12,13,31)         -1.4943         estimate D2E/DX2                !
 ! D57   D(11,12,14,15)         -0.533          estimate D2E/DX2                !
 ! D58   D(11,12,14,32)        179.6893         estimate D2E/DX2                !
 ! D59   D(13,12,14,15)        179.0329         estimate D2E/DX2                !
 ! D60   D(13,12,14,32)         -0.7449         estimate D2E/DX2                !
 ! D61   D(12,14,15,16)         -0.9336         estimate D2E/DX2                !
 ! D62   D(12,14,15,33)        179.6258         estimate D2E/DX2                !
 ! D63   D(32,14,15,16)        178.8482         estimate D2E/DX2                !
 ! D64   D(32,14,15,33)         -0.5923         estimate D2E/DX2                !
 ! D65   D(14,15,16,17)          2.0099         estimate D2E/DX2                !
 ! D66   D(14,15,16,18)        178.9124         estimate D2E/DX2                !
 ! D67   D(33,15,16,17)       -178.5657         estimate D2E/DX2                !
 ! D68   D(33,15,16,18)         -1.6631         estimate D2E/DX2                !
 ! D69   D(15,16,17,11)         -1.6108         estimate D2E/DX2                !
 ! D70   D(15,16,17,34)        179.1245         estimate D2E/DX2                !
 ! D71   D(18,16,17,11)       -178.7342         estimate D2E/DX2                !
 ! D72   D(18,16,17,34)          2.0011         estimate D2E/DX2                !
 ! D73   D(15,16,18,19)         33.9636         estimate D2E/DX2                !
 ! D74   D(17,16,18,19)       -148.9967         estimate D2E/DX2                !
 ! D75   D(16,18,19,20)         -1.4907         estimate D2E/DX2                !
 ! D76   D(16,18,19,21)       -178.4866         estimate D2E/DX2                !
 ! D77   D(18,19,21,22)         88.8969         estimate D2E/DX2                !
 ! D78   D(18,19,21,23)       -152.573          estimate D2E/DX2                !
 ! D79   D(18,19,21,24)        -32.9506         estimate D2E/DX2                !
 ! D80   D(20,19,21,22)        -88.1665         estimate D2E/DX2                !
 ! D81   D(20,19,21,23)         30.3635         estimate D2E/DX2                !
 ! D82   D(20,19,21,24)        149.9859         estimate D2E/DX2                !
 ! D83   D(19,21,22,35)         63.6676         estimate D2E/DX2                !
 ! D84   D(19,21,22,36)        -55.2642         estimate D2E/DX2                !
 ! D85   D(19,21,22,37)       -176.3299         estimate D2E/DX2                !
 ! D86   D(23,21,22,35)        -54.6767         estimate D2E/DX2                !
 ! D87   D(23,21,22,36)       -173.6085         estimate D2E/DX2                !
 ! D88   D(23,21,22,37)         65.3258         estimate D2E/DX2                !
 ! D89   D(24,21,22,35)       -173.9838         estimate D2E/DX2                !
 ! D90   D(24,21,22,36)         67.0844         estimate D2E/DX2                !
 ! D91   D(24,21,22,37)        -53.9813         estimate D2E/DX2                !
 ! D92   D(19,21,23,38)        -59.5344         estimate D2E/DX2                !
 ! D93   D(19,21,23,39)       -179.6334         estimate D2E/DX2                !
 ! D94   D(19,21,23,40)         60.0439         estimate D2E/DX2                !
 ! D95   D(22,21,23,38)         57.527          estimate D2E/DX2                !
 ! D96   D(22,21,23,39)        -62.572          estimate D2E/DX2                !
 ! D97   D(22,21,23,40)        177.1053         estimate D2E/DX2                !
 ! D98   D(24,21,23,38)        178.594          estimate D2E/DX2                !
 ! D99   D(24,21,23,39)         58.495          estimate D2E/DX2                !
 ! D100  D(24,21,23,40)        -61.8277         estimate D2E/DX2                !
 ! D101  D(19,21,24,41)         60.3207         estimate D2E/DX2                !
 ! D102  D(19,21,24,42)        -59.6048         estimate D2E/DX2                !
 ! D103  D(19,21,24,43)       -179.4726         estimate D2E/DX2                !
 ! D104  D(22,21,24,41)        -59.2904         estimate D2E/DX2                !
 ! D105  D(22,21,24,42)       -179.2159         estimate D2E/DX2                !
 ! D106  D(22,21,24,43)         60.9162         estimate D2E/DX2                !
 ! D107  D(23,21,24,41)       -179.4182         estimate D2E/DX2                !
 ! D108  D(23,21,24,42)         60.6563         estimate D2E/DX2                !
 ! D109  D(23,21,24,43)        -59.2116         estimate D2E/DX2                !
 --------------------------------------------------------------------------------
 Trust Radius=3.00D-01 FncErr=1.00D-07 GrdErr=1.00D-06
 Number of steps in this run= 240 maximum allowed number of steps= 258.
 GradGradGradGradGradGradGradGradGradGradGradGradGradGradGradGradGradGrad

 Leave Link  103 at Wed Sep 29 03:44:13 2021, MaxMem= 1879048192 cpu:       0.0
 (Enter /sw/target/amd/app/gaussian/Gaussian09RevA.02_gcc-4.9.2/g09/l202.exe)
                          Input orientation:                          
 ---------------------------------------------------------------------
 Center     Atomic      Atomic             Coordinates (Angstroms)
 Number     Number       Type             X           Y           Z
 ---------------------------------------------------------------------
      1          9           0       -1.084335    2.430482   -1.940511
      2          6           0       -0.581235    1.407916   -1.236277
      3          6           0        0.696163    1.507693   -0.706682
      4          6           0        1.210729    0.442109    0.022249
      5          6           0        0.440776   -0.713239    0.210332
      6          6           0       -0.862738   -0.831528   -0.315009
      7          6           0       -1.354894    0.264983   -1.045668
      8          6           0       -1.686595   -2.048391   -0.098947
      9          6           0       -2.636074   -2.472504   -1.045279
     10          6           0       -3.442505   -3.596295   -0.826982
     11          6           0       -3.319333   -4.347747    0.346865
     12          6           0       -2.357147   -3.961905    1.304560
     13          6           0       -1.565641   -2.822063    1.070734
     14          6           0       -2.214529   -4.719139    2.478104
     15          6           0       -3.016079   -5.836749    2.713323
     16          6           0       -3.982208   -6.191977    1.779228
     17          6           0       -4.128232   -5.468410    0.594399
     18          8           0       -4.820677   -7.315252    1.921552
     19          6           0       -5.282006   -7.760830    3.162264
     20          8           0       -5.003259   -7.263170    4.249599
     21          6           0       -6.138667   -9.018764    2.997623
     22          6           0       -5.192180  -10.222913    3.066388
     23          6           0       -7.151346   -9.095641    4.151238
     24          6           0       -6.920825   -9.007712    1.674796
     25          1           0        1.277224    2.410066   -0.864716
     26          1           0        2.210606    0.503039    0.444651
     27          1           0        0.886783   -1.531137    0.773139
     28          1           0       -2.354766    0.260104   -1.468904
     29          1           0       -2.764575   -1.933050   -1.981403
     30          1           0       -4.170555   -3.874027   -1.586246
     31          1           0       -0.853385   -2.527420    1.839119
     32          1           0       -1.475226   -4.441775    3.226928
     33          1           0       -2.873325   -6.401503    3.628788
     34          1           0       -4.880805   -5.772891   -0.128057
     35          1           0       -4.715457  -10.287258    4.052452
     36          1           0       -4.387227  -10.142512    2.327237
     37          1           0       -5.724701  -11.163561    2.891333
     38          1           0       -6.650296   -9.131800    5.125463
     39          1           0       -7.778900   -9.990074    4.068539
     40          1           0       -7.809548   -8.219229    4.157118
     41          1           0       -6.259620   -8.964039    0.802520
     42          1           0       -7.586018   -8.137242    1.624444
     43          1           0       -7.537770   -9.907180    1.570354
 ---------------------------------------------------------------------
                    Distance matrix (angstroms):
                    1          2          3          4          5
     1  F    0.000000
     2  C    1.339663   0.000000
     3  C    2.354580   1.386425   0.000000
     4  C    3.615712   2.393284   1.389816   0.000000
     5  C    4.103056   2.763419   2.416336   1.401083   0.000000
     6  C    3.651311   2.437845   2.838228   2.456657   1.410363
     7  C    2.358671   1.393260   2.421998   2.784645   2.399768
     8  C    4.879997   3.802814   4.323495   3.822534   2.530611
     9  C    5.220019   4.395054   5.201963   4.942923   3.760130
    10  C    6.566806   5.778971   6.572195   6.219525   4.946504
    11  C    7.494778   6.567433   7.177768   6.600725   5.231320
    12  C    7.281012   6.200378   6.579081   5.811145   4.424877
    13  C    6.073588   4.917730   5.198245   4.411618   3.035315
    14  C    8.480482   7.348814   7.575515   6.663490   5.314195
    15  C    9.681782   8.603079   8.911678   8.033172   6.668220
    16  C    9.827559   8.855408   9.346220   8.606084   7.213931
    17  C    8.836490   7.950874   8.581003   7.985367   6.605678
    18  O   11.129021  10.199922  10.732544  10.008090   8.613811
    19  C   12.145847  11.203138  11.688147  10.922615   9.546344
    20  O   12.150815  11.173041  11.574808  10.763618   9.426282
    21  C   13.454244  12.550961  13.085988  12.344011  10.956268
    22  C   14.214494  13.230643  13.657078  12.806512  11.415829
    23  C   14.379483  13.509862  14.057506  13.339473  11.976465
    24  C   13.340440  12.535950  13.200898  12.575859  11.186425
    25  H    2.595133   2.143883   1.084843   2.159626   3.407405
    26  H    4.501185   3.382115   2.151380   1.087147   2.160217
    27  H    5.190725   3.851086   3.385365   2.135996   1.088407
    28  H    2.558700   2.125323   3.383139   3.869033   3.403275
    29  H    4.676033   4.060078   5.043841   5.045696   4.070124
    30  H    7.028306   6.395671   7.309001   7.083397   5.872192
    31  H    6.238569   5.001899   5.016408   4.047183   2.760263
    32  H    8.607156   7.412037   7.455494   6.429358   5.164581
    33  H   10.593466   9.482064   9.700151   8.747665   7.417914
    34  H    9.219192   8.442655   9.189357   8.703770   7.350769
    35  H   14.520384  13.484789  13.822296  12.902773  11.533016
    36  H   13.682213  12.672671  13.068007  12.193617  10.802874
    37  H   15.155122  14.196282  14.653801  13.821122  12.426186
    38  H   14.649036  13.725554  14.183906  13.397696  12.054625
    39  H   15.336104  14.486601  15.060813  14.353270  12.981082
    40  H   13.993781  13.191631  13.806400  13.171231  11.831520
    41  H   12.811826  11.999091  12.661666  12.037050  10.645266
    42  H   12.909592  12.180342  12.924916  12.391734  11.024743
    43  H   14.359349  13.575785  14.257696  13.639673  12.248894
                    6          7          8          9         10
     6  C    0.000000
     7  C    1.406562   0.000000
     8  C    1.485321   2.521509   0.000000
     9  C    2.524048   3.022459   1.406032   0.000000
    10  C    3.815921   4.394930   2.451380   1.400318   0.000000
    11  C    4.340130   5.203408   2.855104   2.433402   1.399203
    12  C    3.828253   4.939096   2.465970   2.796043   2.419741
    13  C    2.525190   3.748790   1.407605   2.396983   2.779097
    14  C    4.974167   6.164204   3.748707   4.199916   3.700311
    15  C    6.233771   7.356676   4.901841   5.058620   4.211322
    16  C    6.546093   7.521646   5.095752   4.860493   3.717685
    17  C    5.743791   6.576702   4.258972   3.727000   2.448542
    18  O    7.918722   8.847373   6.453272   6.084964   4.825395
    19  C    8.923933   9.876365   7.496295   7.257463   6.053198
    20  O    8.907613   9.900682   7.556721   7.522617   6.453960
    21  C   10.287847  11.199136   8.831523   8.453800   7.162407
    22  C   10.880075  11.900830   9.440937   9.138289   7.882371
    23  C   11.304402  12.174891   9.878831   9.552874   8.293430
    24  C   10.368690  11.151834   8.886815   8.274469   6.902249
    25  H    3.922952   3.400319   5.408185   6.259872   7.638956
    26  H    3.435637   3.871758   4.689720   5.879120   7.097835
    27  H    2.175854   3.399886   2.765928   4.074719   5.056481
    28  H    2.179284   1.085769   2.766294   2.779521   4.057961
    29  H    2.758115   2.773833   2.172322   1.088049   2.135102
    30  H    4.670599   5.035035   3.422727   2.147450   1.087967
    31  H    2.741607   4.046113   2.163287   3.391275   3.867058
    32  H    5.094540   6.357919   4.102976   4.845343   4.584672
    33  H    7.114816   8.282403   5.852685   6.110664   5.295946
    34  H    6.371568   7.051949   4.906702   4.095444   2.700884
    35  H   11.105359  12.191555   9.710152   9.559345   8.378441
    36  H   10.300384  11.352863   8.870997   8.559756   7.327658
    37  H   11.860448  12.853280  10.408381  10.028509   8.734862
    38  H   11.488650  12.426732  10.104824   9.926644   8.738612
    39  H   12.285266  13.137320  10.842253  10.445748   9.146084
    40  H   11.083150  11.862268   9.679044   9.319582   8.079842
    41  H    9.824100  10.613529   8.339748   7.660579   6.277268
    42  H   10.116196  10.796008   8.651438   7.982394   6.618035
    43  H   11.422701  12.187881   9.938983   9.281302   7.895929
                   11         12         13         14         15
    11  C    0.000000
    12  C    1.411331   0.000000
    13  C    2.434570   1.407265   0.000000
    14  C    2.429136   1.403905   2.449621   0.000000
    15  C    2.812332   2.435948   3.726956   1.395300   0.000000
    16  C    2.427396   2.799885   4.206909   2.404656   1.390010
    17  C    1.404092   2.431177   3.714420   2.787832   2.421239
    18  O    3.679641   4.206495   5.613190   3.720425   2.463625
    19  C    4.840216   5.141760   6.525128   4.373714   3.006337
    20  O    5.154283   5.154950   6.453358   4.169809   2.888547
    21  C    6.065770   6.537445   7.938802   5.844274   4.467282
    22  C    6.739506   7.095187   8.479800   6.285222   4.909024
    23  C    7.190276   7.579127   8.946920   6.806270   5.457876
    24  C    6.037336   6.813545   8.203971   6.417662   5.136204
    25  H    8.262222   7.649603   6.261232   8.613498   9.962167
    26  H    7.356624   6.445117   5.070338   7.140581   8.523967
    27  H    5.080001   4.088291   2.787371   4.763234   6.126576
    28  H    5.045760   5.051481   4.070900   6.355423   7.422935
    29  H    3.399904   3.883272   3.397547   5.286969   6.110856
    30  H    2.164696   3.413638   3.866749   4.589029   4.865325
    31  H    3.409005   2.145880   1.088366   2.657940   4.048843
    32  H    3.421160   2.168770   2.698299   1.088227   2.141021
    33  H    3.897160   3.408829   4.589778   2.142063   1.085082
    34  H    2.166744   3.420659   4.597259   3.874467   3.399224
    35  H    7.138510   7.288527   8.633720   6.303742   4.948554
    36  H    6.216235   6.585363   7.945384   5.844344   4.535274
    37  H    7.662600   8.106918   9.496997   7.350010   5.978566
    38  H    7.537737   7.730345   9.061309   6.793829   5.466564
    39  H    8.097805   8.565851   9.948457   7.827801   6.463063
    40  H    7.047584   7.482685   8.811444   6.809843   5.544196
    41  H    5.492091   6.364172   7.734937   6.098321   4.894045
    42  H    5.847827   6.699019   8.050010   6.423788   5.230896
    43  H    7.085156   7.890234   9.279808   7.488436   6.190354
                   16         17         18         19         20
    16  C    0.000000
    17  C    1.395956   0.000000
    18  O    1.408912   2.377318   0.000000
    19  C    2.462430   3.630471   1.396686   0.000000
    20  O    2.879710   4.165012   2.335777   1.227869   0.000000
    21  C    3.758394   4.735225   2.407692   1.530808   2.436946
    22  C    4.401052   5.463335   3.146929   2.465586   3.193080
    23  C    4.909290   5.911610   3.684196   2.500844   2.825226
    24  C    4.071209   4.636000   2.708492   2.540277   3.653779
    25  H   10.423398   9.665317  11.812261  12.754890  12.616346
    26  H    9.217119   8.709850  10.618185  11.481123  11.261948
    27  H    6.814890   6.378435   8.206701   9.086856   8.923820
    28  H    7.404612   6.341787   8.658056   9.713487   9.814043
    29  H    5.810631   4.581821   6.959074   8.170544   8.499839
    30  H    4.090817   2.701677   4.956746   6.236258   6.799763
    31  H    4.818931   4.574207   6.218484   6.982262   6.742343
    32  H    3.382899   3.875904   4.599231   5.050929   4.631754
    33  H    2.166655   3.413645   2.746229   2.804846   2.380020
    34  H    2.149615   1.086747   2.565812   3.865110   4.625991
    35  H    4.740942   5.960224   3.658501   2.737928   3.044142
    36  H    4.008876   4.991698   2.888921   2.677744   3.516473
    37  H    5.384209   6.345027   4.070285   3.442086   4.192662
    38  H    5.192161   6.349156   4.112469   2.757884   2.640388
    39  H    5.837924   6.770707   4.529383   3.467757   3.895250
    40  H    4.940915   5.814815   3.840349   2.754693   2.966119
    41  H    3.718184   4.099458   2.457903   2.823444   4.043977
    42  H    4.098226   4.487755   2.900181   2.795541   3.784981
    43  H    5.146687   5.681560   3.771475   3.497066   4.537939
                   21         22         23         24         25
    21  C    0.000000
    22  C    1.533147   0.000000
    23  C    1.536963   2.507184   0.000000
    24  C    1.536803   2.530110   2.488702   0.000000
    25  H   14.160907  14.727490  15.118925  14.283655   0.000000
    26  H   12.918699  13.293638  13.911132  13.242005   2.494473
    27  H   10.505705  10.851717  11.543170  10.847622   4.285802
    28  H   10.971106  11.769174  11.921541  10.799267   4.263653
    29  H    9.294221  10.004764  10.399796   8.982931   6.037035
    30  H    7.166145   7.937196   8.310781   6.674811   8.347978
    31  H    8.450674   8.919190   9.388915   8.878909   6.019053
    32  H    6.538280   6.874816   7.398051   7.274026   8.441875
    33  H    4.232126   4.505171   5.082597   5.195447  10.726714
    34  H    4.678438   5.486724   5.874384   4.228006  10.267657
    35  H    2.178823   1.097145   2.713533   3.486278  14.876586
    36  H    2.186269   1.095792   3.473222   2.851767  14.136541
    37  H    2.186965   1.095007   2.810510   2.749247  15.728262
    38  H    2.191403   2.748894   1.096117   3.463479  15.229659
    39  H    2.186474   2.783818   1.095753   2.726047  16.128046
    40  H    2.185299   3.472040   1.096067   2.751992  14.858337
    41  H    2.199114   2.801659   3.467911   1.095429  13.746053
    42  H    2.181175   3.487074   2.737180   1.096693  13.999953
    43  H    2.187205   2.799928   2.732926   1.095706  15.341064
                   26         27         28         29         30
    26  H    0.000000
    27  H    2.449140   0.000000
    28  H    4.956141   4.329311   0.000000
    29  H    6.047536   4.591453   2.289219   0.000000
    30  H    8.000154   6.052478   4.516846   2.429058   0.000000
    31  H    4.529489   2.270920   4.579023   4.313040   4.954805
    32  H    6.765915   4.480176   6.703140   5.923076   5.545609
    33  H    9.146463   6.783333   8.404306   7.173084   5.938646
    34  H    9.487012   7.215934   6.676509   4.760010   2.497289
    35  H   13.319801  10.899938  12.136930  10.488381   8.556949
    36  H   12.665042  10.216956  11.258597   9.412367   7.392984
    37  H   14.320088  11.873587  12.683385  10.849343   8.694906
    38  H   13.901644  11.555101  12.253371  10.836437   8.879208
    39  H   14.934129  12.550193  12.851095  11.254372   9.077598
    40  H   13.793617  11.480769  11.545816  10.131596   8.069032
    41  H   12.708201  10.311157  10.270933   8.330689   5.998218
    42  H   13.115647  10.777462  10.365820   8.645256   6.336318
    43  H   14.306317  11.906584  11.809923   9.949127   7.596131
                   31         32         33         34         35
    31  H    0.000000
    32  H    2.444883   0.000000
    33  H    4.721396   2.440636   0.000000
    34  H    5.533803   4.962436   4.305695   0.000000
    35  H    8.945922   6.734261   4.321115   6.154958   0.000000
    36  H    8.409276   6.464333   4.240411   5.036436   1.762116
    37  H    9.970948   7.959465   5.599231   6.236041   1.770502
    38  H    9.382007   7.237549   4.894902   6.481731   2.496004
    39  H   10.422297   8.439683   6.093923   6.617780   3.077866
    40  H    9.282134   7.433576   5.286735   5.738016   3.723050
    41  H    8.469473   7.015630   5.101115   3.598685   3.833720
    42  H    8.766101   7.318894   5.407371   3.997448   4.331041
    43  H    9.960627   8.328826   6.187405   5.199655   3.777661
                   36         37         38         39         40
    36  H    0.000000
    37  H    1.774706   0.000000
    38  H    3.738060   3.158499   0.000000
    39  H    3.815602   2.642464   1.768466   0.000000
    40  H    4.331255   3.823335   1.764751   1.773324   0.000000
    41  H    2.686898   3.080126   4.343802   3.745376   3.769662
    42  H    3.840221   3.772017   3.757906   3.073075   2.543840
    43  H    3.248720   2.571128   3.745348   2.511164   3.100708
                   41         42         43
    41  H    0.000000
    42  H    1.765924   0.000000
    43  H    1.764300   1.771422   0.000000
 Stoichiometry    C21H19FO2
 Framework group  C1[X(C21H19FO2)]
 Deg. of freedom   123
 Full point group                 C1      NOp   1
 Largest Abelian subgroup         C1      NOp   1
 Largest concise Abelian subgroup C1      NOp   1
                         Standard orientation:                         
 ---------------------------------------------------------------------
 Center     Atomic      Atomic             Coordinates (Angstroms)
 Number     Number       Type             X           Y           Z
 ---------------------------------------------------------------------
      1          9           0        7.325595    1.475050    0.948516
      2          6           0        6.497791    0.536151    0.471124
      3          6           0        7.009116   -0.696365    0.094794
      4          6           0        6.143526   -1.664669   -0.399909
      5          6           0        4.775140   -1.386562   -0.514844
      6          6           0        4.234904   -0.141392   -0.131672
      7          6           0        5.136866    0.815811    0.366968
      8          6           0        2.781449    0.146680   -0.234928
      9          6           0        2.303669    1.446963   -0.475587
     10          6           0        0.933325    1.729204   -0.533790
     11          6           0       -0.013854    0.713350   -0.364490
     12          6           0        0.435082   -0.606844   -0.146781
     13          6           0        1.816579   -0.866359   -0.079595
     14          6           0       -0.507419   -1.635805    0.007755
     15          6           0       -1.876125   -1.368917   -0.039961
     16          6           0       -2.310047   -0.061274   -0.224102
     17          6           0       -1.392694    0.975684   -0.402637
     18          8           0       -3.669624    0.298837   -0.307183
     19          6           0       -4.669659   -0.355631    0.415543
     20          8           0       -4.499450   -1.311087    1.167736
     21          6           0       -6.043712    0.234619    0.088499
     22          6           0       -6.593278   -0.538651   -1.115897
     23          6           0       -6.977876    0.039300    1.293258
     24          6           0       -5.961493    1.739162   -0.213750
     25          1           0        8.071957   -0.891837    0.189898
     26          1           0        6.527172   -2.636634   -0.699889
     27          1           0        4.133967   -2.166056   -0.922172
     28          1           0        4.799007    1.792834    0.698891
     29          1           0        2.996038    2.272395   -0.627700
     30          1           0        0.616848    2.755066   -0.710206
     31          1           0        2.136179   -1.887224    0.120984
     32          1           0       -0.182356   -2.661367    0.171445
     33          1           0       -2.575272   -2.190395    0.077390
     34          1           0       -1.754989    1.988234   -0.559172
     35          1           0       -6.750792   -1.594225   -0.861572
     36          1           0       -5.895039   -0.514394   -1.960073
     37          1           0       -7.551727   -0.130119   -1.452823
     38          1           0       -7.096920   -1.021325    1.543011
     39          1           0       -7.975252    0.445586    1.091152
     40          1           0       -6.582125    0.540117    2.184284
     41          1           0       -5.316700    1.954894   -1.072626
     42          1           0       -5.554935    2.286042    0.645534
     43          1           0       -6.950567    2.154228   -0.437412
 ---------------------------------------------------------------------
 Rotational constants (GHZ):      0.9755772      0.0703927      0.0677528
 Leave Link  202 at Wed Sep 29 03:44:14 2021, MaxMem= 1879048192 cpu:       0.1
 (Enter /sw/target/amd/app/gaussian/Gaussian09RevA.02_gcc-4.9.2/g09/l301.exe)
 Standard basis: 6-31G(d) (6D, 7F)
 Ernie: Thresh=  0.10000D-02 Tol=  0.10000D-05 Strict=F.
 There are   398 symmetry adapted basis functions of A   symmetry.
 Integral buffers will be    131072 words long.
 Raffenetti 2 integral format.
 Two-electron integral symmetry is turned on.
   398 basis functions,   748 primitive gaussians,   398 cartesian basis functions
    85 alpha electrons       85 beta electrons
       nuclear repulsion energy      1823.1379850485 Hartrees.
 IExCor=  402 DFT=T Ex+Corr=B3LYP ExCW=0 ScaHFX=  0.200000
 ScaDFX=  0.800000  0.720000  1.000000  0.810000 ScalE2=  1.000000  1.000000
 IRadAn=      0 IRanWt=     -1 IRanGd=            0 ICorTp=0
 NAtoms=   43 NActive=   43 NUniq=   43 SFac= 7.50D-01 NAtFMM=   80 NAOKFM=F Big=F
 Leave Link  301 at Wed Sep 29 03:44:14 2021, MaxMem= 1879048192 cpu:       0.1
 (Enter /sw/target/amd/app/gaussian/Gaussian09RevA.02_gcc-4.9.2/g09/l302.exe)
 NPDir=0 NMtPBC=     1 NCelOv=     1 NCel=       1 NClECP=     1 NCelD=      1
         NCelK=      1 NCelE2=     1 NClLst=     1 CellRange=     0.0.
 One-electron integrals computed using PRISM.
 NBasis=   398 RedAO= T  NBF=   398
 NBsUse=   398 1.00D-06 NBFU=   398
 Precomputing XC quadrature grid using
 IXCGrd= 2 IRadAn=           0 IRanWt=          -1 IRanGd=           0 AccXCQ= 1.00D-10.
 NRdTot=    2765 NPtTot=      353552 NUsed=      373479 NTot=      373511
 NSgBfM=   381   382   383   383   383 NAtAll=    43    43.
 Leave Link  302 at Wed Sep 29 03:44:20 2021, MaxMem= 1879048192 cpu:       5.0
 (Enter /sw/target/amd/app/gaussian/Gaussian09RevA.02_gcc-4.9.2/g09/l303.exe)
 DipDrv:  MaxL=1.
 Leave Link  303 at Wed Sep 29 03:44:21 2021, MaxMem= 1879048192 cpu:       0.3
 (Enter /sw/target/amd/app/gaussian/Gaussian09RevA.02_gcc-4.9.2/g09/l401.exe)
 Harris functional with IExCor=  402 diagonalized for initial guess.
 ExpMin= 1.61D-01 ExpMax= 7.00D+03 ExpMxC= 1.05D+03 IAcc=1 IRadAn=         1 AccDes= 0.00D+00
 HarFok:  IExCor=  402 AccDes= 0.00D+00 IRadAn=         1 IDoV= 1
 ScaDFX=  1.000000  1.000000  1.000000  1.000000
 FoFCou: FMM=F IPFlag=           0 FMFlag=      100000 FMFlg1=           0
         NFxFlg=           0 DoJE=T BraDBF=F KetDBF=T FulRan=T
         Omega=  0.000000  0.000000  1.000000  0.000000  0.000000 ICntrl=     500 IOpCl=  0
         NMat0=    1 NMatS0=    1 NMatT0=    0 NMatD0=    1 NMtDS0=    0 NMtDT0=    0
         I1Cent=           4 NGrid=           0.
 Petite list used in FoFCou.
 Harris En= -1062.12119800545    
 Initial guess orbital symmetries:
       Occupied  (A) (A) (A) (A) (A) (A) (A) (A) (A) (A) (A) (A)
                 (A) (A) (A) (A) (A) (A) (A) (A) (A) (A) (A) (A)
                 (A) (A) (A) (A) (A) (A) (A) (A) (A) (A) (A) (A)
                 (A) (A) (A) (A) (A) (A) (A) (A) (A) (A) (A) (A)
                 (A) (A) (A) (A) (A) (A) (A) (A) (A) (A) (A) (A)
                 (A) (A) (A) (A) (A) (A) (A) (A) (A) (A) (A) (A)
                 (A) (A) (A) (A) (A) (A) (A) (A) (A) (A) (A) (A)
                 (A)
       Virtual   (A) (A) (A) (A) (A) (A) (A) (A) (A) (A) (A) (A)
                 (A) (A) (A) (A) (A) (A) (A) (A) (A) (A) (A) (A)
                 (A) (A) (A) (A) (A) (A) (A) (A) (A) (A) (A) (A)
                 (A) (A) (A) (A) (A) (A) (A) (A) (A) (A) (A) (A)
                 (A) (A) (A) (A) (A) (A) (A) (A) (A) (A) (A) (A)
                 (A) (A) (A) (A) (A) (A) (A) (A) (A) (A) (A) (A)
                 (A) (A) (A) (A) (A) (A) (A) (A) (A) (A) (A) (A)
                 (A) (A) (A) (A) (A) (A) (A) (A) (A) (A) (A) (A)
                 (A) (A) (A) (A) (A) (A) (A) (A) (A) (A) (A) (A)
                 (A) (A) (A) (A) (A) (A) (A) (A) (A) (A) (A) (A)
                 (A) (A) (A) (A) (A) (A) (A) (A) (A) (A) (A) (A)
                 (A) (A) (A) (A) (A) (A) (A) (A) (A) (A) (A) (A)
                 (A) (A) (A) (A) (A) (A) (A) (A) (A) (A) (A) (A)
                 (A) (A) (A) (A) (A) (A) (A) (A) (A) (A) (A) (A)
                 (A) (A) (A) (A) (A) (A) (A) (A) (A) (A) (A) (A)
                 (A) (A) (A) (A) (A) (A) (A) (A) (A) (A) (A) (A)
                 (A) (A) (A) (A) (A) (A) (A) (A) (A) (A) (A) (A)
                 (A) (A) (A) (A) (A) (A) (A) (A) (A) (A) (A) (A)
                 (A) (A) (A) (A) (A) (A) (A) (A) (A) (A) (A) (A)
                 (A) (A) (A) (A) (A) (A) (A) (A) (A) (A) (A) (A)
                 (A) (A) (A) (A) (A) (A) (A) (A) (A) (A) (A) (A)
                 (A) (A) (A) (A) (A) (A) (A) (A) (A) (A) (A) (A)
                 (A) (A) (A) (A) (A) (A) (A) (A) (A) (A) (A) (A)
                 (A) (A) (A) (A) (A) (A) (A) (A) (A) (A) (A) (A)
                 (A) (A) (A) (A) (A) (A) (A) (A) (A) (A) (A) (A)
                 (A) (A) (A) (A) (A) (A) (A) (A) (A) (A) (A) (A)
                 (A)
 The electronic state of the initial guess is 1-A.
 Leave Link  401 at Wed Sep 29 03:44:35 2021, MaxMem= 1879048192 cpu:      17.7
 (Enter /sw/target/amd/app/gaussian/Gaussian09RevA.02_gcc-4.9.2/g09/l502.exe)
 Closed shell SCF:
 Requested convergence on RMS density matrix=1.00D-08 within  64 cycles.
 Requested convergence on MAX density matrix=1.00D-06.
 Requested convergence on             energy=1.00D-06.
 No special actions if energy rises.
 Using DIIS extrapolation, IDIIS=  1040.
 Integral symmetry usage will be decided dynamically.
       373079 words used for storage of precomputed grid.
 IEnd=      859621 IEndB=      859621 NGot=  1879048192 MDV=  1878351598
 LenX=  1878351598 LenY=  1878192753
 Fock matrices will be formed incrementally for  20 cycles.
 Integral accuracy reduced to 1.0D-05 until final iterations.

 Cycle   1  Pass 0  IDiag  1:
 FoFCou: FMM=F IPFlag=           0 FMFlag=      100000 FMFlg1=           0
         NFxFlg=           0 DoJE=F BraDBF=F KetDBF=F FulRan=T
         Omega=  0.000000  0.000000  1.000000  0.000000  0.000000 ICntrl=       0 IOpCl=  0
         NMat0=    1 NMatS0=    1 NMatT0=    0 NMatD0=    1 NMtDS0=    0 NMtDT0=    0
         I1Cent=           0 NGrid=           0.
 Symmetry not used in FoFCou.
 E= -1061.38838620924    
 DIIS: error= 4.74D-02 at cycle   1 NSaved=   1.
 NSaved= 1 IEnMin= 1 EnMin= -1061.38838620924     IErMin= 1 ErrMin= 4.74D-02
 ErrMax= 4.74D-02 EMaxC= 1.00D-01 BMatC= 5.95D-01 BMatP= 5.95D-01
 IDIUse=3 WtCom= 5.26D-01 WtEn= 4.74D-01
 Coeff-Com:  0.100D+01
 Coeff-En:   0.100D+01
 Coeff:      0.100D+01
 Gap=     0.165 Goal=   None    Shift=    0.000
 GapD=    0.165 DampG=1.000 DampE=0.500 DampFc=0.5000 IDamp=-1.
 Damping current iteration by 5.00D-01
 RMSDP=4.40D-03 MaxDP=1.85D-01              OVMax= 1.88D-01

 Cycle   2  Pass 0  IDiag  1:
 RMSU=  1.52D-03    CP:  9.73D-01
 E= -1061.61344455258     Delta-E=       -0.225058343339 Rises=F Damp=T
 DIIS: error= 1.13D-02 at cycle   2 NSaved=   2.
 NSaved= 2 IEnMin= 2 EnMin= -1061.61344455258     IErMin= 2 ErrMin= 1.13D-02
 ErrMax= 1.13D-02 EMaxC= 1.00D-01 BMatC= 7.11D-02 BMatP= 5.95D-01
 IDIUse=3 WtCom= 8.87D-01 WtEn= 1.13D-01
 Coeff-Com:  0.151D+00 0.849D+00
 Coeff-En:   0.226D+00 0.774D+00
 Coeff:      0.160D+00 0.840D+00
 Gap=     0.161 Goal=   None    Shift=    0.000
 RMSDP=1.56D-03 MaxDP=7.51D-02 DE=-2.25D-01 OVMax= 1.92D-01

 Cycle   3  Pass 0  IDiag  1:
 RMSU=  1.08D-03    CP:  9.58D-01  9.04D-01
 E= -1061.90303412956     Delta-E=       -0.289589576973 Rises=F Damp=F
 DIIS: error= 1.77D-02 at cycle   3 NSaved=   3.
 NSaved= 3 IEnMin= 3 EnMin= -1061.90303412956     IErMin= 2 ErrMin= 1.13D-02
 ErrMax= 1.77D-02 EMaxC= 1.00D-01 BMatC= 1.07D-01 BMatP= 7.11D-02
 IDIUse=2 WtCom= 0.00D+00 WtEn= 1.00D+00
 Coeff-En:   0.000D+00 0.000D+00 0.100D+01
 Coeff:      0.000D+00 0.000D+00 0.100D+01
 Gap=     0.166 Goal=   None    Shift=    0.000
 RMSDP=2.45D-03 MaxDP=1.75D-01 DE=-2.90D-01 OVMax= 3.43D-01

 Cycle   4  Pass 0  IDiag  1:
 RMSU=  1.06D-03    CP:  9.64D-01  1.20D+00 -2.07D-01
 E= -1061.40431380532     Delta-E=        0.498720324232 Rises=F Damp=F
 DIIS: error= 4.82D-02 at cycle   4 NSaved=   4.
 NSaved= 4 IEnMin= 3 EnMin= -1061.90303412956     IErMin= 2 ErrMin= 1.13D-02
 ErrMax= 4.82D-02 EMaxC= 1.00D-01 BMatC= 7.32D-01 BMatP= 7.11D-02
 IDIUse=2 WtCom= 0.00D+00 WtEn= 1.00D+00
 Coeff-En:   0.000D+00 0.000D+00 0.811D+00 0.189D+00
 Coeff:      0.000D+00 0.000D+00 0.811D+00 0.189D+00
 Gap=     0.190 Goal=   None    Shift=    0.000
 RMSDP=1.32D-03 MaxDP=8.84D-02 DE= 4.99D-01 OVMax= 1.63D-01

 Cycle   5  Pass 0  IDiag  1:
 RMSU=  2.07D-04    CP:  9.63D-01  9.82D-01  3.74D-01  4.59D-01
 E= -1061.94675269075     Delta-E=       -0.542438885425 Rises=F Damp=F
 DIIS: error= 1.27D-02 at cycle   5 NSaved=   5.
 NSaved= 5 IEnMin= 5 EnMin= -1061.94675269075     IErMin= 2 ErrMin= 1.13D-02
 ErrMax= 1.27D-02 EMaxC= 1.00D-01 BMatC= 5.72D-02 BMatP= 7.11D-02
 IDIUse=3 WtCom= 8.73D-01 WtEn= 1.27D-01
 Coeff-Com:  0.777D-03 0.388D-01 0.350D+00-0.664D-01 0.677D+00
 Coeff-En:   0.000D+00 0.000D+00 0.380D+00 0.000D+00 0.620D+00
 Coeff:      0.678D-03 0.339D-01 0.354D+00-0.580D-01 0.669D+00
 Gap=     0.155 Goal=   None    Shift=    0.000
 RMSDP=5.34D-04 MaxDP=3.32D-02 DE=-5.42D-01 OVMax= 4.78D-02

 Cycle   6  Pass 0  IDiag  1:
 RMSU=  7.67D-05    CP:  9.61D-01  9.32D-01  6.40D-01  2.61D-01  6.59D-01
 E= -1061.99288265135     Delta-E=       -0.046129960604 Rises=F Damp=F
 DIIS: error= 8.95D-04 at cycle   6 NSaved=   6.
 NSaved= 6 IEnMin= 6 EnMin= -1061.99288265135     IErMin= 6 ErrMin= 8.95D-04
 ErrMax= 8.95D-04 EMaxC= 1.00D-01 BMatC= 7.13D-04 BMatP= 5.72D-02
 IDIUse=3 WtCom= 9.91D-01 WtEn= 8.95D-03
 Coeff-Com: -0.286D-02 0.159D-01 0.176D+00-0.595D-01 0.437D+00 0.433D+00
 Coeff-En:   0.000D+00 0.000D+00 0.000D+00 0.000D+00 0.000D+00 0.100D+01
 Coeff:     -0.283D-02 0.158D-01 0.175D+00-0.590D-01 0.433D+00 0.438D+00
 Gap=     0.154 Goal=   None    Shift=    0.000
 RMSDP=7.55D-05 MaxDP=3.80D-03 DE=-4.61D-02 OVMax= 7.69D-03

 Cycle   7  Pass 0  IDiag  1:
 RMSU=  2.08D-05    CP:  9.61D-01  9.41D-01  6.22D-01  2.61D-01  7.49D-01
                    CP:  4.99D-01
 E= -1061.99354994815     Delta-E=       -0.000667296802 Rises=F Damp=F
 DIIS: error= 2.16D-04 at cycle   7 NSaved=   7.
 NSaved= 7 IEnMin= 7 EnMin= -1061.99354994815     IErMin= 7 ErrMin= 2.16D-04
 ErrMax= 2.16D-04 EMaxC= 1.00D-01 BMatC= 3.55D-05 BMatP= 7.13D-04
 IDIUse=3 WtCom= 9.98D-01 WtEn= 2.16D-03
 Coeff-Com: -0.269D-03 0.236D-02 0.423D-01-0.171D-01 0.103D+00 0.167D+00
 Coeff-Com:  0.702D+00
 Coeff-En:   0.000D+00 0.000D+00 0.000D+00 0.000D+00 0.000D+00 0.000D+00
 Coeff-En:   0.100D+01
 Coeff:     -0.269D-03 0.236D-02 0.423D-01-0.170D-01 0.103D+00 0.167D+00
 Coeff:      0.702D+00
 Gap=     0.154 Goal=   None    Shift=    0.000
 RMSDP=1.85D-05 MaxDP=8.97D-04 DE=-6.67D-04 OVMax= 1.95D-03

 Cycle   8  Pass 0  IDiag  1:
 RMSU=  7.80D-06    CP:  9.61D-01  9.39D-01  6.28D-01  2.59D-01  7.43D-01
                    CP:  5.36D-01  7.03D-01
 E= -1061.99358017225     Delta-E=       -0.000030224091 Rises=F Damp=F
 DIIS: error= 8.92D-05 at cycle   8 NSaved=   8.
 NSaved= 8 IEnMin= 8 EnMin= -1061.99358017225     IErMin= 8 ErrMin= 8.92D-05
 ErrMax= 8.92D-05 EMaxC= 1.00D-01 BMatC= 5.30D-06 BMatP= 3.55D-05
 IDIUse=1 WtCom= 1.00D+00 WtEn= 0.00D+00
 Coeff-Com:  0.339D-03-0.102D-02 0.102D-01-0.388D-02 0.191D-01 0.586D-01
 Coeff-Com:  0.426D+00 0.491D+00
 Coeff:      0.339D-03-0.102D-02 0.102D-01-0.388D-02 0.191D-01 0.586D-01
 Coeff:      0.426D+00 0.491D+00
 Gap=     0.154 Goal=   None    Shift=    0.000
 RMSDP=7.32D-06 MaxDP=3.33D-04 DE=-3.02D-05 OVMax= 8.45D-04

 Initial convergence to 1.0D-05 achieved.  Increase integral accuracy.
 Cycle   9  Pass 1  IDiag  1:
 E= -1061.99358202683     Delta-E=       -0.000001854583 Rises=F Damp=F
 DIIS: error= 6.01D-05 at cycle   1 NSaved=   1.
 NSaved= 1 IEnMin= 1 EnMin= -1061.99358202683     IErMin= 1 ErrMin= 6.01D-05
 ErrMax= 6.01D-05 EMaxC= 1.00D-01 BMatC= 6.83D-07 BMatP= 6.83D-07
 IDIUse=1 WtCom= 1.00D+00 WtEn= 0.00D+00
 Coeff-Com:  0.100D+01
 Coeff:      0.100D+01
 Gap=     0.154 Goal=   None    Shift=    0.000
 RMSDP=7.32D-06 MaxDP=3.33D-04 DE=-1.85D-06 OVMax= 7.28D-04

 Cycle  10  Pass 1  IDiag  1:
 RMSU=  1.74D-05    CP:  1.00D+00
 E= -1061.99358092491     Delta-E=        0.000001101917 Rises=F Damp=F
 DIIS: error= 6.58D-05 at cycle   2 NSaved=   2.
 NSaved= 2 IEnMin= 1 EnMin= -1061.99358202683     IErMin= 1 ErrMin= 6.01D-05
 ErrMax= 6.58D-05 EMaxC= 1.00D-01 BMatC= 1.59D-06 BMatP= 6.83D-07
 IDIUse=1 WtCom= 1.00D+00 WtEn= 0.00D+00
 Coeff-Com:  0.621D+00 0.379D+00
 Coeff:      0.621D+00 0.379D+00
 Gap=     0.154 Goal=   None    Shift=    0.000
 RMSDP=4.46D-06 MaxDP=1.75D-04 DE= 1.10D-06 OVMax= 6.28D-04

 Cycle  11  Pass 1  IDiag  1:
 RMSU=  3.10D-06    CP:  1.00D+00  9.65D-01
 E= -1061.99358265863     Delta-E=       -0.000001733721 Rises=F Damp=F
 DIIS: error= 1.77D-05 at cycle   3 NSaved=   3.
 NSaved= 3 IEnMin= 3 EnMin= -1061.99358265863     IErMin= 3 ErrMin= 1.77D-05
 ErrMax= 1.77D-05 EMaxC= 1.00D-01 BMatC= 9.09D-08 BMatP= 6.83D-07
 IDIUse=1 WtCom= 1.00D+00 WtEn= 0.00D+00
 Coeff-Com:  0.842D-01 0.197D+00 0.719D+00
 Coeff:      0.842D-01 0.197D+00 0.719D+00
 Gap=     0.154 Goal=   None    Shift=    0.000
 RMSDP=1.20D-06 MaxDP=3.79D-05 DE=-1.73D-06 OVMax= 1.56D-04

 Cycle  12  Pass 1  IDiag  1:
 RMSU=  5.32D-07    CP:  1.00D+00  9.78D-01  7.98D-01
 E= -1061.99358274397     Delta-E=       -0.000000085340 Rises=F Damp=F
 DIIS: error= 5.78D-06 at cycle   4 NSaved=   4.
 NSaved= 4 IEnMin= 4 EnMin= -1061.99358274397     IErMin= 4 ErrMin= 5.78D-06
 ErrMax= 5.78D-06 EMaxC= 1.00D-01 BMatC= 2.44D-08 BMatP= 9.09D-08
 IDIUse=1 WtCom= 1.00D+00 WtEn= 0.00D+00
 Coeff-Com:  0.229D-02 0.945D-01 0.466D+00 0.437D+00
 Coeff:      0.229D-02 0.945D-01 0.466D+00 0.437D+00
 Gap=     0.154 Goal=   None    Shift=    0.000
 RMSDP=4.33D-07 MaxDP=2.37D-05 DE=-8.53D-08 OVMax= 3.72D-05

 Cycle  13  Pass 1  IDiag  1:
 RMSU=  1.43D-07    CP:  1.00D+00  9.79D-01  8.23D-01  5.13D-01
 E= -1061.99358276632     Delta-E=       -0.000000022346 Rises=F Damp=F
 DIIS: error= 1.23D-06 at cycle   5 NSaved=   5.
 NSaved= 5 IEnMin= 5 EnMin= -1061.99358276632     IErMin= 5 ErrMin= 1.23D-06
 ErrMax= 1.23D-06 EMaxC= 1.00D-01 BMatC= 1.35D-09 BMatP= 2.44D-08
 IDIUse=1 WtCom= 1.00D+00 WtEn= 0.00D+00
 Coeff-Com: -0.447D-02 0.443D-01 0.239D+00 0.264D+00 0.457D+00
 Coeff:     -0.447D-02 0.443D-01 0.239D+00 0.264D+00 0.457D+00
 Gap=     0.154 Goal=   None    Shift=    0.000
 RMSDP=1.03D-07 MaxDP=5.69D-06 DE=-2.23D-08 OVMax= 7.63D-06

 Cycle  14  Pass 1  IDiag  1:
 RMSU=  4.13D-08    CP:  1.00D+00  9.79D-01  8.26D-01  5.25D-01  5.90D-01
 E= -1061.99358276746     Delta-E=       -0.000000001143 Rises=F Damp=F
 DIIS: error= 4.65D-07 at cycle   6 NSaved=   6.
 NSaved= 6 IEnMin= 6 EnMin= -1061.99358276746     IErMin= 6 ErrMin= 4.65D-07
 ErrMax= 4.65D-07 EMaxC= 1.00D-01 BMatC= 9.38D-11 BMatP= 1.35D-09
 IDIUse=1 WtCom= 1.00D+00 WtEn= 0.00D+00
 Coeff-Com: -0.273D-02 0.198D-01 0.110D+00 0.127D+00 0.277D+00 0.470D+00
 Coeff:     -0.273D-02 0.198D-01 0.110D+00 0.127D+00 0.277D+00 0.470D+00
 Gap=     0.154 Goal=   None    Shift=    0.000
 RMSDP=2.43D-08 MaxDP=1.98D-06 DE=-1.14D-09 OVMax= 1.87D-06

 Cycle  15  Pass 1  IDiag  1:
 RMSU=  1.46D-08    CP:  1.00D+00  9.80D-01  8.25D-01  5.21D-01  6.00D-01
                    CP:  8.09D-01
 E= -1061.99358276749     Delta-E=       -0.000000000030 Rises=F Damp=F
 DIIS: error= 1.48D-07 at cycle   7 NSaved=   7.
 NSaved= 7 IEnMin= 7 EnMin= -1061.99358276749     IErMin= 7 ErrMin= 1.48D-07
 ErrMax= 1.48D-07 EMaxC= 1.00D-01 BMatC= 9.17D-12 BMatP= 9.38D-11
 IDIUse=1 WtCom= 1.00D+00 WtEn= 0.00D+00
 Coeff-Com: -0.106D-02 0.600D-02 0.344D-01 0.410D-01 0.105D+00 0.275D+00
 Coeff-Com:  0.540D+00
 Coeff:     -0.106D-02 0.600D-02 0.344D-01 0.410D-01 0.105D+00 0.275D+00
 Coeff:      0.540D+00
 Gap=     0.154 Goal=   None    Shift=    0.000
 RMSDP=9.66D-09 MaxDP=5.16D-07 DE=-3.05D-11 OVMax= 6.94D-07

 SCF Done:  E(RB3LYP) =  -1061.99358277     A.U. after   15 cycles
             Convg  =    0.9661D-08             -V/T =  2.0094
 KE= 1.052110259686D+03 PE=-6.117187254966D+03 EE= 2.179945427464D+03
 Leave Link  502 at Wed Sep 29 03:55:38 2021, MaxMem= 1879048192 cpu:     948.2
 (Enter /sw/target/amd/app/gaussian/Gaussian09RevA.02_gcc-4.9.2/g09/l508.exe)
 QCSCF skips out because SCF is already converged.
 Leave Link  508 at Wed Sep 29 03:55:39 2021, MaxMem= 1879048192 cpu:       0.0
 (Enter /sw/target/amd/app/gaussian/Gaussian09RevA.02_gcc-4.9.2/g09/l601.exe)
 Copying SCF densities to generalized density rwf, IOpCl= 0 IROHF=0.

 **********************************************************************

            Population analysis using the SCF density.

 **********************************************************************

 Orbital symmetries:
       Occupied  (A) (A) (A) (A) (A) (A) (A) (A) (A) (A) (A) (A)
                 (A) (A) (A) (A) (A) (A) (A) (A) (A) (A) (A) (A)
                 (A) (A) (A) (A) (A) (A) (A) (A) (A) (A) (A) (A)
                 (A) (A) (A) (A) (A) (A) (A) (A) (A) (A) (A) (A)
                 (A) (A) (A) (A) (A) (A) (A) (A) (A) (A) (A) (A)
                 (A) (A) (A) (A) (A) (A) (A) (A) (A) (A) (A) (A)
                 (A) (A) (A) (A) (A) (A) (A) (A) (A) (A) (A) (A)
                 (A)
       Virtual   (A) (A) (A) (A) (A) (A) (A) (A) (A) (A) (A) (A)
                 (A) (A) (A) (A) (A) (A) (A) (A) (A) (A) (A) (A)
                 (A) (A) (A) (A) (A) (A) (A) (A) (A) (A) (A) (A)
                 (A) (A) (A) (A) (A) (A) (A) (A) (A) (A) (A) (A)
                 (A) (A) (A) (A) (A) (A) (A) (A) (A) (A) (A) (A)
                 (A) (A) (A) (A) (A) (A) (A) (A) (A) (A) (A) (A)
                 (A) (A) (A) (A) (A) (A) (A) (A) (A) (A) (A) (A)
                 (A) (A) (A) (A) (A) (A) (A) (A) (A) (A) (A) (A)
                 (A) (A) (A) (A) (A) (A) (A) (A) (A) (A) (A) (A)
                 (A) (A) (A) (A) (A) (A) (A) (A) (A) (A) (A) (A)
                 (A) (A) (A) (A) (A) (A) (A) (A) (A) (A) (A) (A)
                 (A) (A) (A) (A) (A) (A) (A) (A) (A) (A) (A) (A)
                 (A) (A) (A) (A) (A) (A) (A) (A) (A) (A) (A) (A)
                 (A) (A) (A) (A) (A) (A) (A) (A) (A) (A) (A) (A)
                 (A) (A) (A) (A) (A) (A) (A) (A) (A) (A) (A) (A)
                 (A) (A) (A) (A) (A) (A) (A) (A) (A) (A) (A) (A)
                 (A) (A) (A) (A) (A) (A) (A) (A) (A) (A) (A) (A)
                 (A) (A) (A) (A) (A) (A) (A) (A) (A) (A) (A) (A)
                 (A) (A) (A) (A) (A) (A) (A) (A) (A) (A) (A) (A)
                 (A) (A) (A) (A) (A) (A) (A) (A) (A) (A) (A) (A)
                 (A) (A) (A) (A) (A) (A) (A) (A) (A) (A) (A) (A)
                 (A) (A) (A) (A) (A) (A) (A) (A) (A) (A) (A) (A)
                 (A) (A) (A) (A) (A) (A) (A) (A) (A) (A) (A) (A)
                 (A) (A) (A) (A) (A) (A) (A) (A) (A) (A) (A) (A)
                 (A) (A) (A) (A) (A) (A) (A) (A) (A) (A) (A) (A)
                 (A) (A) (A) (A) (A) (A) (A) (A) (A) (A) (A) (A)
                 (A)
 The electronic state is 1-A.
 Alpha  occ. eigenvalues --  -24.70668 -19.20827 -19.14809 -10.32678 -10.27265
 Alpha  occ. eigenvalues --  -10.25958 -10.21745 -10.21239 -10.20770 -10.20166
 Alpha  occ. eigenvalues --  -10.20095 -10.19957 -10.19881 -10.19744 -10.19713
 Alpha  occ. eigenvalues --  -10.19700 -10.19662 -10.19611 -10.19605 -10.19536
 Alpha  occ. eigenvalues --  -10.19474 -10.18666 -10.18044 -10.17793  -1.22128
 Alpha  occ. eigenvalues --   -1.09911  -1.02247  -0.88599  -0.86516  -0.83513
 Alpha  occ. eigenvalues --   -0.82277  -0.78471  -0.77344  -0.74915  -0.73842
 Alpha  occ. eigenvalues --   -0.72170  -0.69641  -0.68836  -0.66726  -0.63886
 Alpha  occ. eigenvalues --   -0.62702  -0.61676  -0.60152  -0.59260  -0.56274
 Alpha  occ. eigenvalues --   -0.54273  -0.51498  -0.50341  -0.49934  -0.49001
 Alpha  occ. eigenvalues --   -0.48615  -0.48271  -0.46831  -0.46200  -0.46062
 Alpha  occ. eigenvalues --   -0.45406  -0.44262  -0.43750  -0.43614  -0.42814
 Alpha  occ. eigenvalues --   -0.42474  -0.42047  -0.40623  -0.40125  -0.39390
 Alpha  occ. eigenvalues --   -0.39132  -0.38952  -0.37930  -0.37485  -0.36977
 Alpha  occ. eigenvalues --   -0.36564  -0.36471  -0.35576  -0.34671  -0.34252
 Alpha  occ. eigenvalues --   -0.33795  -0.33537  -0.33288  -0.31466  -0.29200
 Alpha  occ. eigenvalues --   -0.27365  -0.26514  -0.24664  -0.23598  -0.20876
 Alpha virt. eigenvalues --   -0.05473  -0.02898  -0.00954  -0.00224   0.02142
 Alpha virt. eigenvalues --    0.03019   0.08131   0.09005   0.09157   0.10054
 Alpha virt. eigenvalues --    0.11075   0.11957   0.12443   0.13725   0.14557
 Alpha virt. eigenvalues --    0.14702   0.15060   0.15399   0.15842   0.16212
 Alpha virt. eigenvalues --    0.17112   0.17557   0.17807   0.18510   0.18699
 Alpha virt. eigenvalues --    0.19465   0.19925   0.20500   0.21411   0.21830
 Alpha virt. eigenvalues --    0.22106   0.22539   0.23545   0.24606   0.25574
 Alpha virt. eigenvalues --    0.26049   0.26570   0.28426   0.30462   0.30713
 Alpha virt. eigenvalues --    0.32017   0.32638   0.33700   0.34897   0.36014
 Alpha virt. eigenvalues --    0.38551   0.39035   0.41479   0.45868   0.48220
 Alpha virt. eigenvalues --    0.48979   0.49026   0.49363   0.49840   0.50289
 Alpha virt. eigenvalues --    0.51061   0.51830   0.52212   0.52741   0.53316
 Alpha virt. eigenvalues --    0.53813   0.53895   0.54466   0.55369   0.55805
 Alpha virt. eigenvalues --    0.56555   0.56960   0.57965   0.58420   0.58802
 Alpha virt. eigenvalues --    0.59542   0.59926   0.60046   0.60393   0.60975
 Alpha virt. eigenvalues --    0.61021   0.61486   0.61944   0.62124   0.63230
 Alpha virt. eigenvalues --    0.63486   0.64953   0.65314   0.66304   0.66590
 Alpha virt. eigenvalues --    0.67517   0.68323   0.68815   0.69258   0.69780
 Alpha virt. eigenvalues --    0.70885   0.71903   0.73477   0.76771   0.78019
 Alpha virt. eigenvalues --    0.78278   0.79809   0.80680   0.81360   0.81847
 Alpha virt. eigenvalues --    0.82814   0.83312   0.83626   0.84307   0.84623
 Alpha virt. eigenvalues --    0.85009   0.85826   0.86229   0.86655   0.87750
 Alpha virt. eigenvalues --    0.88113   0.88469   0.89364   0.89434   0.89732
 Alpha virt. eigenvalues --    0.90737   0.91989   0.92296   0.92671   0.93003
 Alpha virt. eigenvalues --    0.93911   0.94403   0.95335   0.95606   0.98007
 Alpha virt. eigenvalues --    0.98368   0.99025   0.99376   1.00385   1.00980
 Alpha virt. eigenvalues --    1.01710   1.02155   1.02961   1.05772   1.08124
 Alpha virt. eigenvalues --    1.08974   1.10586   1.11192   1.12047   1.13329
 Alpha virt. eigenvalues --    1.15988   1.17257   1.17725   1.19025   1.19971
 Alpha virt. eigenvalues --    1.21454   1.21890   1.22917   1.23368   1.24240
 Alpha virt. eigenvalues --    1.26244   1.26751   1.28860   1.31976   1.32987
 Alpha virt. eigenvalues --    1.34925   1.36554   1.38719   1.39941   1.40651
 Alpha virt. eigenvalues --    1.41002   1.41329   1.42524   1.43540   1.45364
 Alpha virt. eigenvalues --    1.47005   1.47596   1.47716   1.48245   1.49282
 Alpha virt. eigenvalues --    1.49581   1.49904   1.50493   1.50868   1.52528
 Alpha virt. eigenvalues --    1.53754   1.54473   1.60399   1.62304   1.65607
 Alpha virt. eigenvalues --    1.67457   1.69007   1.71884   1.72730   1.74555
 Alpha virt. eigenvalues --    1.76141   1.77320   1.78249   1.79016   1.79659
 Alpha virt. eigenvalues --    1.81016   1.82326   1.82736   1.82959   1.83509
 Alpha virt. eigenvalues --    1.84932   1.85619   1.86090   1.87267   1.87849
 Alpha virt. eigenvalues --    1.89074   1.90418   1.91062   1.92477   1.93165
 Alpha virt. eigenvalues --    1.93538   1.94922   1.95684   1.96220   1.96705
 Alpha virt. eigenvalues --    1.98085   1.98372   1.99466   1.99889   2.01334
 Alpha virt. eigenvalues --    2.02959   2.03393   2.04647   2.08456   2.08936
 Alpha virt. eigenvalues --    2.09696   2.09950   2.10554   2.13726   2.13931
 Alpha virt. eigenvalues --    2.14733   2.17265   2.17710   2.18882   2.19765
 Alpha virt. eigenvalues --    2.20020   2.21024   2.24244   2.25382   2.25594
 Alpha virt. eigenvalues --    2.26272   2.26509   2.27270   2.28196   2.28637
 Alpha virt. eigenvalues --    2.30422   2.31341   2.32839   2.33193   2.33491
 Alpha virt. eigenvalues --    2.35797   2.37211   2.38155   2.40469   2.42082
 Alpha virt. eigenvalues --    2.43288   2.49456   2.51676   2.53371   2.54325
 Alpha virt. eigenvalues --    2.55183   2.56978   2.58904   2.61052   2.61902
 Alpha virt. eigenvalues --    2.64099   2.64484   2.67344   2.67380   2.69474
 Alpha virt. eigenvalues --    2.70476   2.71084   2.73107   2.74955   2.76472
 Alpha virt. eigenvalues --    2.77020   2.79105   2.80746   2.82224   2.83088
 Alpha virt. eigenvalues --    2.86438   2.90689   2.93284   2.95992   2.97709
 Alpha virt. eigenvalues --    3.01759   3.07558   3.09669   3.11734   3.21989
 Alpha virt. eigenvalues --    3.24593   3.36285   3.42918   3.50744   4.07133
 Alpha virt. eigenvalues --    4.07985   4.08657   4.09666   4.10038   4.11052
 Alpha virt. eigenvalues --    4.12879   4.13727   4.16995   4.17538   4.26229
 Alpha virt. eigenvalues --    4.30480   4.30798   4.31579   4.32772   4.33688
 Alpha virt. eigenvalues --    4.40731   4.43095   4.47313   4.57620   4.68290
 Alpha virt. eigenvalues --    4.73187   4.85606   5.38810
          Condensed to atoms (all electrons):
              1          2          3          4          5          6
     1  F    9.070089   0.303073  -0.046004   0.003143   0.000081   0.003010
     2  C    0.303073   4.462313   0.487671   0.000259  -0.042442   0.007173
     3  C   -0.046004   0.487671   5.116995   0.479125  -0.036029  -0.029791
     4  C    0.003143   0.000259   0.479125   4.904271   0.509534  -0.012676
     5  C    0.000081  -0.042442  -0.036029   0.509534   5.026280   0.517755
     6  C    0.003010   0.007173  -0.029791  -0.012676   0.517755   4.800610
     7  C   -0.040492   0.458021  -0.092041  -0.037087  -0.070941   0.433423
     8  C   -0.000033   0.003871   0.000641   0.005678  -0.043017   0.341153
     9  C    0.000001   0.000389  -0.000002  -0.000163   0.006784  -0.046061
    10  C   -0.000000  -0.000003  -0.000000   0.000001  -0.000149   0.005481
    11  C   -0.000000  -0.000000   0.000000  -0.000000  -0.000006   0.001037
    12  C    0.000000   0.000000  -0.000000  -0.000004   0.000553   0.004643
    13  C   -0.000000  -0.000119   0.000002   0.000294  -0.015380  -0.038045
    14  C    0.000000   0.000000  -0.000000  -0.000000  -0.000006  -0.000239
    15  C   -0.000000   0.000000   0.000000   0.000000  -0.000000   0.000002
    16  C    0.000000   0.000000  -0.000000   0.000000   0.000000  -0.000000
    17  C   -0.000000   0.000000   0.000000   0.000000  -0.000000  -0.000001
    18  O    0.000000  -0.000000  -0.000000   0.000000   0.000000  -0.000000
    19  C    0.000000  -0.000000  -0.000000   0.000000   0.000000  -0.000000
    20  O    0.000000   0.000000   0.000000  -0.000000  -0.000000   0.000000
    21  C    0.000000   0.000000   0.000000  -0.000000  -0.000000  -0.000000
    22  C    0.000000   0.000000   0.000000   0.000000   0.000000  -0.000000
    23  C    0.000000   0.000000   0.000000   0.000000  -0.000000   0.000000
    24  C    0.000000  -0.000000   0.000000   0.000000   0.000000  -0.000000
    25  H   -0.001094  -0.036304   0.347699  -0.042278   0.005004   0.000160
    26  H   -0.000022   0.003211  -0.038752   0.360288  -0.035498   0.003110
    27  H    0.000001   0.000595   0.004856  -0.043600   0.350318  -0.039074
    28  H   -0.000464  -0.036072   0.007394  -0.000151   0.006266  -0.040022
    29  H   -0.000001   0.000082  -0.000004  -0.000005  -0.000091  -0.009746
    30  H    0.000000   0.000000  -0.000000  -0.000000   0.000001  -0.000172
    31  H    0.000000  -0.000004  -0.000004  -0.000008   0.005944  -0.009640
    32  H    0.000000  -0.000000   0.000000  -0.000000  -0.000002  -0.000001
    33  H    0.000000  -0.000000  -0.000000  -0.000000   0.000000  -0.000000
    34  H    0.000000  -0.000000   0.000000  -0.000000  -0.000000   0.000000
    35  H    0.000000   0.000000   0.000000   0.000000   0.000000   0.000000
    36  H    0.000000   0.000000   0.000000  -0.000000  -0.000000  -0.000000
    37  H    0.000000   0.000000   0.000000   0.000000  -0.000000   0.000000
[...]
   171    C   12  px     Ryd( 3p)     0.00490
   172    C   12  py     Val( 2p)     1.07651
   173    C   12  py     Ryd( 3p)     0.00530
   174    C   12  pz     Val( 2p)     0.98795
   175    C   12  pz     Ryd( 3p)     0.00097
   176    C   12  dxy    Ryd( 3d)     0.00072
   177    C   12  dxz    Ryd( 3d)     0.00093
   178    C   12  dyz    Ryd( 3d)     0.00053
   179    C   12  dx2y2  Ryd( 3d)     0.00071
   180    C   12  dz2    Ryd( 3d)     0.00037

   181    C   13  S      Cor( 1S)     1.99901
   182    C   13  S      Val( 2S)     0.93659
   183    C   13  S      Ryd( 3S)     0.00066
   184    C   13  S      Ryd( 4S)     0.00006
   185    C   13  px     Val( 2p)     1.05959
   186    C   13  px     Ryd( 3p)     0.00316
   187    C   13  py     Val( 2p)     1.16842
   188    C   13  py     Ryd( 3p)     0.00442
   189    C   13  pz     Val( 2p)     1.03939
   190    C   13  pz     Ryd( 3p)     0.00360
   191    C   13  dxy    Ryd( 3d)     0.00071
   192    C   13  dxz    Ryd( 3d)     0.00055
   193    C   13  dyz    Ryd( 3d)     0.00043
   194    C   13  dx2y2  Ryd( 3d)     0.00072
   195    C   13  dz2    Ryd( 3d)     0.00038

   196    C   14  S      Cor( 1S)     1.99907
   197    C   14  S      Val( 2S)     0.94524
   198    C   14  S      Ryd( 3S)     0.00065
   199    C   14  S      Ryd( 4S)     0.00005
   200    C   14  px     Val( 2p)     1.06704
   201    C   14  px     Ryd( 3p)     0.00422
   202    C   14  py     Val( 2p)     1.16040
   203    C   14  py     Ryd( 3p)     0.00457
   204    C   14  pz     Val( 2p)     1.03389
   205    C   14  pz     Ryd( 3p)     0.00301
   206    C   14  dxy    Ryd( 3d)     0.00074
   207    C   14  dxz    Ryd( 3d)     0.00068
   208    C   14  dyz    Ryd( 3d)     0.00035
   209    C   14  dx2y2  Ryd( 3d)     0.00069
   210    C   14  dz2    Ryd( 3d)     0.00040

   211    C   15  S      Cor( 1S)     1.99902
   212    C   15  S      Val( 2S)     0.95999
   213    C   15  S      Ryd( 3S)     0.00078
   214    C   15  S      Ryd( 4S)     0.00005
   215    C   15  px     Val( 2p)     1.13635
   216    C   15  px     Ryd( 3p)     0.00433
   217    C   15  py     Val( 2p)     1.12660
   218    C   15  py     Ryd( 3p)     0.00452
   219    C   15  pz     Val( 2p)     1.05405
   220    C   15  pz     Ryd( 3p)     0.00215
   221    C   15  dxy    Ryd( 3d)     0.00076
   222    C   15  dxz    Ryd( 3d)     0.00066
   223    C   15  dyz    Ryd( 3d)     0.00044
   224    C   15  dx2y2  Ryd( 3d)     0.00061
   225    C   15  dz2    Ryd( 3d)     0.00047

   226    C   16  S      Cor( 1S)     1.99871
   227    C   16  S      Val( 2S)     0.84268
   228    C   16  S      Ryd( 3S)     0.00147
   229    C   16  S      Ryd( 4S)     0.00012
   230    C   16  px     Val( 2p)     0.74641
   231    C   16  px     Ryd( 3p)     0.00644
   232    C   16  py     Val( 2p)     1.06672
   233    C   16  py     Ryd( 3p)     0.00466
   234    C   16  pz     Val( 2p)     0.98065
   235    C   16  pz     Ryd( 3p)     0.00402
   236    C   16  dxy    Ryd( 3d)     0.00152
   237    C   16  dxz    Ryd( 3d)     0.00128
   238    C   16  dyz    Ryd( 3d)     0.00094
   239    C   16  dx2y2  Ryd( 3d)     0.00163
   240    C   16  dz2    Ryd( 3d)     0.00063

   241    C   17  S      Cor( 1S)     1.99896
   242    C   17  S      Val( 2S)     0.95119
   243    C   17  S      Ryd( 3S)     0.00081
   244    C   17  S      Ryd( 4S)     0.00006
   245    C   17  px     Val( 2p)     1.06699
   246    C   17  px     Ryd( 3p)     0.00444
   247    C   17  py     Val( 2p)     1.17517
   248    C   17  py     Ryd( 3p)     0.00423
   249    C   17  pz     Val( 2p)     1.05723
   250    C   17  pz     Ryd( 3p)     0.00313
   251    C   17  dxy    Ryd( 3d)     0.00078
   252    C   17  dxz    Ryd( 3d)     0.00051
   253    C   17  dyz    Ryd( 3d)     0.00050
   254    C   17  dx2y2  Ryd( 3d)     0.00057
   255    C   17  dz2    Ryd( 3d)     0.00042

   256    O   18  S      Cor( 1S)     1.99969
   257    O   18  S      Val( 2S)     1.59842
   258    O   18  S      Ryd( 3S)     0.00131
   259    O   18  S      Ryd( 4S)     0.00009
   260    O   18  px     Val( 2p)     1.43571
   261    O   18  px     Ryd( 3p)     0.00096
   262    O   18  py     Val( 2p)     1.79782
   263    O   18  py     Ryd( 3p)     0.00232
   264    O   18  pz     Val( 2p)     1.69344
   265    O   18  pz     Ryd( 3p)     0.00126
   266    O   18  dxy    Ryd( 3d)     0.00049
   267    O   18  dxz    Ryd( 3d)     0.00124
   268    O   18  dyz    Ryd( 3d)     0.00129
   269    O   18  dx2y2  Ryd( 3d)     0.00077
   270    O   18  dz2    Ryd( 3d)     0.00142

   271    C   19  S      Cor( 1S)     1.99927
   272    C   19  S      Val( 2S)     0.78128
   273    C   19  S      Ryd( 3S)     0.00658
   274    C   19  S      Ryd( 4S)     0.00049
   275    C   19  px     Val( 2p)     0.86326
   276    C   19  px     Ryd( 3p)     0.00572
   277    C   19  py     Val( 2p)     0.76463
   278    C   19  py     Ryd( 3p)     0.00716
   279    C   19  pz     Val( 2p)     0.70259
   280    C   19  pz     Ryd( 3p)     0.01922
   281    C   19  dxy    Ryd( 3d)     0.00140
   282    C   19  dxz    Ryd( 3d)     0.00330
   283    C   19  dyz    Ryd( 3d)     0.00156
   284    C   19  dx2y2  Ryd( 3d)     0.00112
   285    C   19  dz2    Ryd( 3d)     0.00227

   286    O   20  S      Cor( 1S)     1.99977
   287    O   20  S      Val( 2S)     1.69618
   288    O   20  S      Ryd( 3S)     0.00057
   289    O   20  S      Ryd( 4S)     0.00013
   290    O   20  px     Val( 2p)     1.81073
   291    O   20  px     Ryd( 3p)     0.00166
   292    O   20  py     Val( 2p)     1.45422
   293    O   20  py     Ryd( 3p)     0.00056
   294    O   20  pz     Val( 2p)     1.58847
   295    O   20  pz     Ryd( 3p)     0.00056
   296    O   20  dxy    Ryd( 3d)     0.00119
   297    O   20  dxz    Ryd( 3d)     0.00410
   298    O   20  dyz    Ryd( 3d)     0.00453
   299    O   20  dx2y2  Ryd( 3d)     0.00124
   300    O   20  dz2    Ryd( 3d)     0.00542

   301    C   21  S      Cor( 1S)     1.99905
   302    C   21  S      Val( 2S)     0.94084
   303    C   21  S      Ryd( 3S)     0.00045
   304    C   21  S      Ryd( 4S)     0.00003
   305    C   21  px     Val( 2p)     1.06106
   306    C   21  px     Ryd( 3p)     0.00205
   307    C   21  py     Val( 2p)     1.06602
   308    C   21  py     Ryd( 3p)     0.00207
   309    C   21  pz     Val( 2p)     1.07208
   310    C   21  pz     Ryd( 3p)     0.00380
   311    C   21  dxy    Ryd( 3d)     0.00057
   312    C   21  dxz    Ryd( 3d)     0.00072
   313    C   21  dyz    Ryd( 3d)     0.00076
   314    C   21  dx2y2  Ryd( 3d)     0.00103
   315    C   21  dz2    Ryd( 3d)     0.00083

   316    C   22  S      Cor( 1S)     1.99938
   317    C   22  S      Val( 2S)     1.09574
   318    C   22  S      Ryd( 3S)     0.00058
   319    C   22  S      Ryd( 4S)     0.00002
   320    C   22  px     Val( 2p)     1.23973
   321    C   22  px     Ryd( 3p)     0.00188
   322    C   22  py     Val( 2p)     1.20497
   323    C   22  py     Ryd( 3p)     0.00216
   324    C   22  pz     Val( 2p)     1.12049
   325    C   22  pz     Ryd( 3p)     0.00177
   326    C   22  dxy    Ryd( 3d)     0.00021
   327    C   22  dxz    Ryd( 3d)     0.00088
   328    C   22  dyz    Ryd( 3d)     0.00042
   329    C   22  dx2y2  Ryd( 3d)     0.00115
   330    C   22  dz2    Ryd( 3d)     0.00068

   331    C   23  S      Cor( 1S)     1.99940
   332    C   23  S      Val( 2S)     1.09081
   333    C   23  S      Ryd( 3S)     0.00058
   334    C   23  S      Ryd( 4S)     0.00002
   335    C   23  px     Val( 2p)     1.16718
   336    C   23  px     Ryd( 3p)     0.00249
   337    C   23  py     Val( 2p)     1.24635
   338    C   23  py     Ryd( 3p)     0.00260
   339    C   23  pz     Val( 2p)     1.15521
   340    C   23  pz     Ryd( 3p)     0.00209
   341    C   23  dxy    Ryd( 3d)     0.00026
   342    C   23  dxz    Ryd( 3d)     0.00057
   343    C   23  dyz    Ryd( 3d)     0.00064
   344    C   23  dx2y2  Ryd( 3d)     0.00112
   345    C   23  dz2    Ryd( 3d)     0.00074

   346    C   24  S      Cor( 1S)     1.99938
   347    C   24  S      Val( 2S)     1.09562
   348    C   24  S      Ryd( 3S)     0.00058
   349    C   24  S      Ryd( 4S)     0.00002
   350    C   24  px     Val( 2p)     1.25137
   351    C   24  px     Ryd( 3p)     0.00194
   352    C   24  py     Val( 2p)     1.06532
   353    C   24  py     Ryd( 3p)     0.00154
   354    C   24  pz     Val( 2p)     1.24787
   355    C   24  pz     Ryd( 3p)     0.00237
   356    C   24  dxy    Ryd( 3d)     0.00043
   357    C   24  dxz    Ryd( 3d)     0.00077
   358    C   24  dyz    Ryd( 3d)     0.00080
   359    C   24  dx2y2  Ryd( 3d)     0.00081
   360    C   24  dz2    Ryd( 3d)     0.00055

   361    H   25  S      Val( 1S)     0.74606
   362    H   25  S      Ryd( 2S)     0.00117

   363    H   26  S      Val( 1S)     0.75393
   364    H   26  S      Ryd( 2S)     0.00078

   365    H   27  S      Val( 1S)     0.75425
   366    H   27  S      Ryd( 2S)     0.00130

   367    H   28  S      Val( 1S)     0.74225
   368    H   28  S      Ryd( 2S)     0.00163

   369    H   29  S      Val( 1S)     0.76320
   370    H   29  S      Ryd( 2S)     0.00095

   371    H   30  S      Val( 1S)     0.76557
   372    H   30  S      Ryd( 2S)     0.00108

   373    H   31  S      Val( 1S)     0.76730
   374    H   31  S      Ryd( 2S)     0.00142

   375    H   32  S      Val( 1S)     0.76544
   376    H   32  S      Ryd( 2S)     0.00112

   377    H   33  S      Val( 1S)     0.74828
   378    H   33  S      Ryd( 2S)     0.00091

   379    H   34  S      Val( 1S)     0.75530
   380    H   34  S      Ryd( 2S)     0.00146

   381    H   35  S      Val( 1S)     0.76309
   382    H   35  S      Ryd( 2S)     0.00092

   383    H   36  S      Val( 1S)     0.75419
   384    H   36  S      Ryd( 2S)     0.00105

   385    H   37  S      Val( 1S)     0.76321
   386    H   37  S      Ryd( 2S)     0.00107

   387    H   38  S      Val( 1S)     0.75624
   388    H   38  S      Ryd( 2S)     0.00104

   389    H   39  S      Val( 1S)     0.76878
   390    H   39  S      Ryd( 2S)     0.00091

   391    H   40  S      Val( 1S)     0.75511
   392    H   40  S      Ryd( 2S)     0.00104

   393    H   41  S      Val( 1S)     0.75578
   394    H   41  S      Ryd( 2S)     0.00113

   395    H   42  S      Val( 1S)     0.76221
   396    H   42  S      Ryd( 2S)     0.00091

   397    H   43  S      Val( 1S)     0.76380
   398    H   43  S      Ryd( 2S)     0.00104

 WARNING:  1 low occupancy (<1.9990e) core orbital  found on  C    2
           1 low occupancy (<1.9990e) core orbital  found on  C    3
           1 low occupancy (<1.9990e) core orbital  found on  C    7
           1 low occupancy (<1.9990e) core orbital  found on  C   16
           1 low occupancy (<1.9990e) core orbital  found on  C   17


 Summary of Natural Population Analysis:                  
                                                          
                                       Natural Population 
                Natural  -----------------------------------------------
    Atom  No    Charge         Core      Valence    Rydberg      Total
 -----------------------------------------------------------------------
      F    1   -0.32993      1.99994     7.32454    0.00545     9.32993
      C    2    0.42765      1.99845     3.54663    0.02727     5.57235
      C    3   -0.28197      1.99899     4.26838    0.01460     6.28197
      C    4   -0.22184      1.99912     4.20872    0.01400     6.22184
      C    5   -0.21685      1.99904     4.20479    0.01301     6.21685
      C    6   -0.02308      1.99902     4.00832    0.01574     6.02308
      C    7   -0.28553      1.99894     4.27306    0.01353     6.28553
      C    8   -0.01751      1.99901     4.00240    0.01610     6.01751
      C    9   -0.24767      1.99907     4.23430    0.01430     6.24767
      C   10   -0.22686      1.99906     4.21211    0.01570     6.22686
      C   11   -0.03039      1.99903     4.01650    0.01486     6.03039
      C   12   -0.04245      1.99903     4.02841    0.01500     6.04245
      C   13   -0.21770      1.99901     4.20400    0.01470     6.21770
      C   14   -0.22101      1.99907     4.20657    0.01537     6.22101
      C   15   -0.29078      1.99902     4.27699    0.01477     6.29078
      C   16    0.34211      1.99871     3.63646    0.02272     5.65789
      C   17   -0.26497      1.99896     4.25058    0.01544     6.26497
      O   18   -0.53624      1.99969     6.52539    0.01116     8.53624
      C   19    0.84011      1.99927     3.11176    0.04885     5.15989
      O   20   -0.56934      1.99977     6.54961    0.01996     8.56934
      C   21   -0.15136      1.99905     4.14000    0.01230     6.15136
      C   22   -0.67007      1.99938     4.66094    0.00975     6.67007
      C   23   -0.67005      1.99940     4.65955    0.01110     6.67005
      C   24   -0.66936      1.99938     4.66018    0.00979     6.66936
      H   25    0.25277      0.00000     0.74606    0.00117     0.74723
      H   26    0.24529      0.00000     0.75393    0.00078     0.75471
      H   27    0.24445      0.00000     0.75425    0.00130     0.75555
      H   28    0.25612      0.00000     0.74225    0.00163     0.74388
      H   29    0.23585      0.00000     0.76320    0.00095     0.76415
      H   30    0.23335      0.00000     0.76557    0.00108     0.76665
      H   31    0.23129      0.00000     0.76730    0.00142     0.76871
      H   32    0.23344      0.00000     0.76544    0.00112     0.76656
      H   33    0.25081      0.00000     0.74828    0.00091     0.74919
      H   34    0.24325      0.00000     0.75530    0.00146     0.75675
      H   35    0.23599      0.00000     0.76309    0.00092     0.76401
      H   36    0.24476      0.00000     0.75419    0.00105     0.75524
      H   37    0.23573      0.00000     0.76321    0.00107     0.76427
      H   38    0.24272      0.00000     0.75624    0.00104     0.75728
      H   39    0.23030      0.00000     0.76878    0.00091     0.76970
      H   40    0.24385      0.00000     0.75511    0.00104     0.75615
      H   41    0.24309      0.00000     0.75578    0.00113     0.75691
      H   42    0.23688      0.00000     0.76221    0.00091     0.76312
      H   43    0.23516      0.00000     0.76380    0.00104     0.76484
 =======================================================================
   * Total *    0.00000     47.97940   121.61419    0.40641   170.00000

                                 Natural Population      
 --------------------------------------------------------
   Core                      47.97940 ( 99.9571% of  48)
   Valence                  121.61419 ( 99.6838% of 122)
   Natural Minimal Basis    169.59359 ( 99.7609% of 170)
   Natural Rydberg Basis      0.40641 (  0.2391% of 170)
 --------------------------------------------------------

    Atom  No          Natural Electron Configuration
 ----------------------------------------------------------------------------
      F    1      [core]2S( 1.83)2p( 5.50)
      C    2      [core]2S( 0.85)2p( 2.70)3p( 0.02)3d( 0.01)
      C    3      [core]2S( 0.98)2p( 3.29)3p( 0.01)
      C    4      [core]2S( 0.96)2p( 3.25)3p( 0.01)
      C    5      [core]2S( 0.95)2p( 3.25)3p( 0.01)
      C    6      [core]2S( 0.88)2p( 3.13)3p( 0.01)
      C    7      [core]2S( 0.97)2p( 3.31)3p( 0.01)
      C    8      [core]2S( 0.87)2p( 3.13)3p( 0.01)
      C    9      [core]2S( 0.95)2p( 3.29)3p( 0.01)
      C   10      [core]2S( 0.94)2p( 3.27)3p( 0.01)
      C   11      [core]2S( 0.87)2p( 3.15)3p( 0.01)
      C   12      [core]2S( 0.87)2p( 3.16)3p( 0.01)
      C   13      [core]2S( 0.94)2p( 3.27)3p( 0.01)
      C   14      [core]2S( 0.95)2p( 3.26)3p( 0.01)
      C   15      [core]2S( 0.96)2p( 3.32)3p( 0.01)
      C   16      [core]2S( 0.84)2p( 2.79)3p( 0.02)3d( 0.01)
      C   17      [core]2S( 0.95)2p( 3.30)3p( 0.01)
      O   18      [core]2S( 1.60)2p( 4.93)3d( 0.01)
      C   19      [core]2S( 0.78)2p( 2.33)3S( 0.01)3p( 0.03)3d( 0.01)
      O   20      [core]2S( 1.70)2p( 4.85)3d( 0.02)
      C   21      [core]2S( 0.94)2p( 3.20)3p( 0.01)
      C   22      [core]2S( 1.10)2p( 3.57)3p( 0.01)
      C   23      [core]2S( 1.09)2p( 3.57)3p( 0.01)
      C   24      [core]2S( 1.10)2p( 3.56)3p( 0.01)
      H   25            1S( 0.75)
      H   26            1S( 0.75)
      H   27            1S( 0.75)
      H   28            1S( 0.74)
      H   29            1S( 0.76)
      H   30            1S( 0.77)
      H   31            1S( 0.77)
      H   32            1S( 0.77)
      H   33            1S( 0.75)
      H   34            1S( 0.76)
      H   35            1S( 0.76)
      H   36            1S( 0.75)
      H   37            1S( 0.76)
      H   38            1S( 0.76)
      H   39            1S( 0.77)
      H   40            1S( 0.76)
      H   41            1S( 0.76)
      H   42            1S( 0.76)
      H   43            1S( 0.76)


 NBO analysis skipped by request.
 Leave Link  607 at Wed Sep 29 19:06:47 2021, MaxMem= 1879048192 cpu:      35.5
 (Enter /sw/target/amd/app/gaussian/Gaussian09RevA.02_gcc-4.9.2/g09/l9999.exe)
 1\1\GINC-HERMITE\SP\RTD-B3LYP-FC\6-31G(d)\C21H19F1O2\JSCHLEINITZ\29-Se
 p-2021\0\\#p TD(NStates=10, Root=1) b3lyp/6-31G* volume pop=NPA densit
 y=current Geom=AllCheck Guess=Read\\Fc1cccc(c1)c1ccc2c(c1)ccc(c2)OC(=O
 )C(C)(C)C_conf_0\\0,1\F,0,-1.1627472436,2.4283259408,-1.8097746727\C,0
 ,-0.6197485665,1.3750211195,-1.1612743188\C,0,0.6920089096,1.466529154
 6,-0.7116374285\C,0,1.2294789356,0.3689613993,-0.0375632484\C,0,0.4681
 58805,-0.7793752731,0.1755030645\C,0,-0.8597819927,-0.8585543533,-0.27
 99471849\C,0,-1.3998640358,0.2445167913,-0.9614780297\C,0,-1.678656005
 9,-2.0752088185,-0.0479484456\C,0,-2.5914336762,-2.5334432299,-1.04277
 16298\C,0,-3.3590131473,-3.6559517603,-0.8449681111\C,0,-3.2725599001,
 -4.3977168584,0.3632603209\C,0,-2.3604513302,-3.9504636549,1.37241803\
 C,0,-1.5819434745,-2.7900022669,1.1346019419\C,0,-2.2711296954,-4.6876
 249501,2.5850070106\C,0,-3.0360524085,-5.8098662786,2.7985260061\C,0,-
 3.9357319128,-6.2347348143,1.7915435963\C,0,-4.0552486036,-5.555949310
 4,0.6031313024\O,0,-4.6714364469,-7.4131434552,1.9281770683\C,0,-5.462
 8005578,-7.6079919783,3.0353178237\O,0,-5.5709275565,-6.7976785056,3.9
 231044524\C,0,-6.1649217871,-8.9673706657,2.9636560022\C,0,-5.09805317
 13,-10.083125963,2.8924698916\C,0,-7.0288975788,-9.1375271798,4.223097
 6461\C,0,-7.0516834522,-9.0117928991,1.6985051622\H,0,1.2632217665,2.3
 710378808,-0.8916101182\H,0,2.2563063325,0.4079818784,0.3152962088\H,0
 ,0.9128459876,-1.6346359175,0.6746447351\H,0,-2.4266564564,0.245702185
 4,-1.3114609889\H,0,-2.6581182773,-1.9965340117,-1.9845575364\H,0,-4.0
 41151671,-3.9940694086,-1.6212496292\H,0,-0.9153822133,-2.4458536252,1
 .9213501807\H,0,-1.5795974566,-4.3511858425,3.3533353569\H,0,-2.965117
 7164,-6.3656163991,3.7254780588\H,0,-4.7498560226,-5.9128601814,-0.151
 515915\H,0,-4.4454074292,-10.0657170317,3.7731251561\H,0,-4.4740990159
 ,-9.9834205137,2.0000152371\H,0,-5.5917520262,-11.061149539,2.86101611
 43\H,0,-6.4194849842,-9.0964629965,5.1309473227\H,0,-7.540921127,-10.1
 058043526,4.1929778087\H,0,-7.7834710855,-8.3486495537,4.2962840252\H,
 0,-6.4556250932,-8.8965094528,0.7890357852\H,0,-7.8095391363,-8.220073
 3401,1.7171529436\H,0,-7.5731588174,-9.9745468791,1.6494348287\\Versio
 n=AM64L-G09RevA.02\State=1-A\HF=-1062.0020018\RMSD=5.851e-09\Dipole=0.
 5740457,-0.4079534,-0.331908\Quadrupole=4.8365479,3.7399535,-8.5765013
 ,11.6194446,5.0580503,-0.3663614\PG=C01 [X(C21H19F1O2)]\\@


 IN SO FAR AS QUANTUM MECHANICS IS CORRECT, CHEMICAL 
 QUESTIONS ARE PROBLEMS IN APPLIED MATHEMATICS.

                    -- EYRING, WALTER, & KIMBALL, 1944
 Job cpu time:  0 days  9 hours 27 minutes 12.2 seconds.
 File lengths (MBytes):  RWF=    511 Int=      0 D2E=      0 Chk=     70 Scr=      1
 Normal termination of Gaussian 09 at Wed Sep 29 19:06:57 2021.
