 Entering Gaussian System, Link 0=g09
 Input=C21H27NO3_7e8b_conf_0.com
 Output=C21H27NO3_7e8b_conf_0.log
 Initial command:
 /sw/target/amd/app/gaussian/Gaussian09RevA.02_gcc-4.9.2/g09/l1.exe /home/jschleinitz/gaussian/Gau-2029575.inp -scrdir=/home/jschleinitz/gaussian/
 Entering Link 1 = /sw/target/amd/app/gaussian/Gaussian09RevA.02_gcc-4.9.2/g09/l1.exe PID=   2029582.
  
 Copyright (c) 1988,1990,1992,1993,1995,1998,2003,2009, Gaussian, Inc.
                  All Rights Reserved.
  
 This is part of the Gaussian(R) 09 program.  It is based on
 the Gaussian(R) 03 system (copyright 2003, Gaussian, Inc.),
 the Gaussian(R) 98 system (copyright 1998, Gaussian, Inc.),
 the Gaussian(R) 94 system (copyright 1995, Gaussian, Inc.),
 the Gaussian 92(TM) system (copyright 1992, Gaussian, Inc.),
 the Gaussian 90(TM) system (copyright 1990, Gaussian, Inc.),
 the Gaussian 88(TM) system (copyright 1988, Gaussian, Inc.),
 the Gaussian 86(TM) system (copyright 1986, Carnegie Mellon
 University), and the Gaussian 82(TM) system (copyright 1983,
 Carnegie Mellon University). Gaussian is a federally registered
 trademark of Gaussian, Inc.
  
 This software contains proprietary and confidential information,
 including trade secrets, belonging to Gaussian, Inc.
  
 This software is provided under written license and may be
 used, copied, transmitted, or stored only in accord with that
 written license.
  
 The following legend is applicable only to US Government
 contracts under FAR:
  
                    RESTRICTED RIGHTS LEGEND
  
 Use, reproduction and disclosure by the US Government is
 subject to restrictions as set forth in subparagraphs (a)
 and (c) of the Commercial Computer Software - Restricted
 Rights clause in FAR 52.227-19.
  
 Gaussian, Inc.
 340 Quinnipiac St., Bldg. 40, Wallingford CT 06492
  
  
 ---------------------------------------------------------------
 Warning -- This program may not be used in any manner that
 competes with the business of Gaussian, Inc. or will provide
 assistance to any competitor of Gaussian, Inc.  The licensee
 of this program is prohibited from giving any competitor of
 Gaussian, Inc. access to this program.  By using this program,
 the user acknowledges that Gaussian, Inc. is engaged in the
 business of creating and licensing software in the field of
 computational chemistry and represents and warrants to the
 licensee that it is not a competitor of Gaussian, Inc. and that
 it will not use this program in any manner prohibited above.
 ---------------------------------------------------------------
  

 Cite this work as:
 Gaussian 09, Revision A.02,
 M. J. Frisch, G. W. Trucks, H. B. Schlegel, G. E. Scuseria, 
 M. A. Robb, J. R. Cheeseman, G. Scalmani, V. Barone, B. Mennucci, 
 G. A. Petersson, H. Nakatsuji, M. Caricato, X. Li, H. P. Hratchian, 
 A. F. Izmaylov, J. Bloino, G. Zheng, J. L. Sonnenberg, M. Hada, 
 M. Ehara, K. Toyota, R. Fukuda, J. Hasegawa, M. Ishida, T. Nakajima, 
 Y. Honda, O. Kitao, H. Nakai, T. Vreven, J. A. Montgomery, Jr., 
 J. E. Peralta, F. Ogliaro, M. Bearpark, J. J. Heyd, E. Brothers, 
 K. N. Kudin, V. N. Staroverov, R. Kobayashi, J. Normand, 
 K. Raghavachari, A. Rendell, J. C. Burant, S. S. Iyengar, J. Tomasi, 
 M. Cossi, N. Rega, J. M. Millam, M. Klene, J. E. Knox, J. B. Cross, 
 V. Bakken, C. Adamo, J. Jaramillo, R. Gomperts, R. E. Stratmann, 
 O. Yazyev, A. J. Austin, R. Cammi, C. Pomelli, J. W. Ochterski, 
 R. L. Martin, K. Morokuma, V. G. Zakrzewski, G. A. Voth, 
 P. Salvador, J. J. Dannenberg, S. Dapprich, A. D. Daniels, 
 O. Farkas, J. B. Foresman, J. V. Ortiz, J. Cioslowski, 
 and D. J. Fox, Gaussian, Inc., Wallingford CT, 2009.
 
 ******************************************
 Gaussian 09:  AM64L-G09RevA.02 11-Jun-2009
                29-Sep-2021 
 ******************************************
 %nproc=8
 Will use up to    8 processors via shared memory.
 %mem=16gb
 %chk=C21H27NO3_7e8b_conf_0.chk
 -----------------------------------
 #p opt b3lyp/6-31G* scf=(xqc,tight)
 -----------------------------------
 1/14=-1,18=20,19=15,26=3,38=1/1,3;
 2/9=110,12=2,17=6,18=5,40=1/2;
 3/5=1,6=6,7=1,11=2,16=1,25=1,30=1,71=1,74=-5/1,2,3;
 4//1;
 5/5=2,8=3,13=1,32=2,38=5/2,8;
 6/7=2,8=2,9=2,10=2,28=1/1;
 7//1,2,3,16;
 1/14=-1,18=20,19=15/3(2);
 2/9=110/2;
 99//99;
 2/9=110/2;
 3/5=1,6=6,7=1,11=2,16=1,25=1,30=1,71=1,74=-5/1,2,3;
 4/5=5,16=3/1;
 5/5=2,8=3,13=1,32=2,38=5/2,8;
 7//1,2,3,16;
 1/14=-1,18=20,19=15/3(-5);
 2/9=110/2;
 6/7=2,8=2,9=2,10=2,19=2,28=1/1;
 99/9=1/99;
 Leave Link    1 at Wed Sep 29 08:00:38 2021, MaxMem= 2147483648 cpu:       0.1
 (Enter /sw/target/amd/app/gaussian/Gaussian09RevA.02_gcc-4.9.2/g09/l101.exe)
 ------------------------------------------------------
 CN(C(=O)C(C)(C)C)c1ccc(c2c1cccc2)OC(=O)C(C)(C)C_conf_0
 ------------------------------------------------------
 Symbolic Z-matrix:
 Charge =  0 Multiplicity = 1
 C                     2.55373   0.57459  -0.9288 
 N                     2.88822   0.8506    0.46614 
 C                     2.42086   1.93072   1.22579 
 O                     2.6102    1.97146   2.44997 
 C                     1.60434   3.09216   0.57844 
 C                     0.23867   2.60414   0.07672 
 C                     1.32025   4.13584   1.69343 
 C                     2.37304   3.83582  -0.52228 
 C                     3.51104  -0.24992   1.16347 
 C                     2.89763  -1.50959   1.06445 
 C                     3.42126  -2.61285   1.72452 
 C                     4.56056  -2.46493   2.51041 
 C                     5.24405  -1.22612   2.60092 
 C                     4.71705  -0.09714   1.9121 
 C                     5.44892   1.11416   1.97242 
 C                     6.62541   1.23664   2.70913 
 C                     7.1207    0.14307   3.39728 
 C                     6.44008  -1.07452   3.33929 
 O                     5.12591  -3.58553   3.18352 
 C                     4.35993  -4.64884   3.68234 
 O                     3.13889  -4.72805   3.64881 
 C                     5.2762   -5.71259   4.30013 
 C                     6.01025  -5.11154   5.50466 
 C                     4.42623  -6.90328   4.77744 
 C                     6.27758  -6.21327   3.25098 
 H                     2.76202   1.44219  -1.54799 
 H                     1.50175   0.29188  -1.00956 
 H                     3.17291  -0.23817  -1.32414 
 H                    -0.24665   1.96345   0.82183 
 H                     0.311     2.03586  -0.85251 
 H                    -0.4321    3.44634  -0.12932 
 H                     0.76707   3.6898    2.53045 
 H                     0.72117   4.97422   1.31907 
 H                     2.25299   4.54922   2.09583 
 H                     2.27769   3.36124  -1.5006 
 H                     3.43951   3.911    -0.28219 
 H                     1.98896   4.85424  -0.65741 
 H                     1.97446  -1.63727   0.50486 
 H                     2.91748  -3.56852   1.62033 
 H                     5.09455   1.99432   1.44202 
 H                     7.14391   2.19196   2.74497 
 H                     8.03596   0.23112   3.97606 
 H                     6.86045  -1.91945   3.88033 
 H                     5.29997  -4.78119   6.2715 
 H                     6.60981  -4.24007   5.22092 
 H                     6.68444  -5.84357   5.96287 
 H                     3.67816  -6.58876   5.51455 
 H                     5.0482   -7.67627   5.24248 
 H                     3.88565  -7.36546   3.94298 
 H                     6.91852  -5.40553   2.8813 
 H                     5.75874  -6.63936   2.38428 
 H                     6.9307   -6.98922   3.66627 
 
 NAtoms=     52 NQM=     52 NQMF=      0 NMic=      0 NMicF=      0 NTot=     52.
                    Isotopes and Nuclear Properties:
 (Nuclear quadrupole moments (NQMom) in fm**2, nuclear magnetic moments (NMagM)
  in nuclear magnetons)

  Atom         1           2           3           4           5           6           7           8           9          10
 IAtWgt=          12          14          12          16          12          12          12          12          12          12
 AtmWgt=  12.0000000  14.0030740  12.0000000  15.9949146  12.0000000  12.0000000  12.0000000  12.0000000  12.0000000  12.0000000
 NucSpn=           0           2           0           0           0           0           0           0           0           0
 AtZEff=   0.0000000   0.0000000   0.0000000   0.0000000   0.0000000   0.0000000   0.0000000   0.0000000   0.0000000   0.0000000
 NQMom=    0.0000000   2.0440000   0.0000000   0.0000000   0.0000000   0.0000000   0.0000000   0.0000000   0.0000000   0.0000000
 NMagM=    0.0000000   0.4037610   0.0000000   0.0000000   0.0000000   0.0000000   0.0000000   0.0000000   0.0000000   0.0000000

  Atom        11          12          13          14          15          16          17          18          19          20
 IAtWgt=          12          12          12          12          12          12          12          12          16          12
 AtmWgt=  12.0000000  12.0000000  12.0000000  12.0000000  12.0000000  12.0000000  12.0000000  12.0000000  15.9949146  12.0000000
 NucSpn=           0           0           0           0           0           0           0           0           0           0
 AtZEff=   0.0000000   0.0000000   0.0000000   0.0000000   0.0000000   0.0000000   0.0000000   0.0000000   0.0000000   0.0000000
 NQMom=    0.0000000   0.0000000   0.0000000   0.0000000   0.0000000   0.0000000   0.0000000   0.0000000   0.0000000   0.0000000
 NMagM=    0.0000000   0.0000000   0.0000000   0.0000000   0.0000000   0.0000000   0.0000000   0.0000000   0.0000000   0.0000000

  Atom        21          22          23          24          25          26          27          28          29          30
 IAtWgt=          16          12          12          12          12           1           1           1           1           1
 AtmWgt=  15.9949146  12.0000000  12.0000000  12.0000000  12.0000000   1.0078250   1.0078250   1.0078250   1.0078250   1.0078250
 NucSpn=           0           0           0           0           0           1           1           1           1           1
 AtZEff=   0.0000000   0.0000000   0.0000000   0.0000000   0.0000000   0.0000000   0.0000000   0.0000000   0.0000000   0.0000000
 NQMom=    0.0000000   0.0000000   0.0000000   0.0000000   0.0000000   0.0000000   0.0000000   0.0000000   0.0000000   0.0000000
 NMagM=    0.0000000   0.0000000   0.0000000   0.0000000   0.0000000   2.7928460   2.7928460   2.7928460   2.7928460   2.7928460

  Atom        31          32          33          34          35          36          37          38          39          40
 IAtWgt=           1           1           1           1           1           1           1           1           1           1
 AtmWgt=   1.0078250   1.0078250   1.0078250   1.0078250   1.0078250   1.0078250   1.0078250   1.0078250   1.0078250   1.0078250
 NucSpn=           1           1           1           1           1           1           1           1           1           1
 AtZEff=   0.0000000   0.0000000   0.0000000   0.0000000   0.0000000   0.0000000   0.0000000   0.0000000   0.0000000   0.0000000
 NQMom=    0.0000000   0.0000000   0.0000000   0.0000000   0.0000000   0.0000000   0.0000000   0.0000000   0.0000000   0.0000000
 NMagM=    2.7928460   2.7928460   2.7928460   2.7928460   2.7928460   2.7928460   2.7928460   2.7928460   2.7928460   2.7928460

  Atom        41          42          43          44          45          46          47          48          49          50
 IAtWgt=           1           1           1           1           1           1           1           1           1           1
 AtmWgt=   1.0078250   1.0078250   1.0078250   1.0078250   1.0078250   1.0078250   1.0078250   1.0078250   1.0078250   1.0078250
 NucSpn=           1           1           1           1           1           1           1           1           1           1
 AtZEff=   0.0000000   0.0000000   0.0000000   0.0000000   0.0000000   0.0000000   0.0000000   0.0000000   0.0000000   0.0000000
 NQMom=    0.0000000   0.0000000   0.0000000   0.0000000   0.0000000   0.0000000   0.0000000   0.0000000   0.0000000   0.0000000
 NMagM=    2.7928460   2.7928460   2.7928460   2.7928460   2.7928460   2.7928460   2.7928460   2.7928460   2.7928460   2.7928460

  Atom        51          52
 IAtWgt=           1           1
 AtmWgt=   1.0078250   1.0078250
 NucSpn=           1           1
 AtZEff=   0.0000000   0.0000000
 NQMom=    0.0000000   0.0000000
 NMagM=    2.7928460   2.7928460
 Leave Link  101 at Wed Sep 29 08:00:39 2021, MaxMem= 2147483648 cpu:       0.2
 (Enter /sw/target/amd/app/gaussian/Gaussian09RevA.02_gcc-4.9.2/g09/l103.exe)

 GradGradGradGradGradGradGradGradGradGradGradGradGradGradGradGradGradGrad
 Berny optimization.
 Initialization pass.
                           ----------------------------
                           !    Initial Parameters    !
                           ! (Angstroms and Degrees)  !
 --------------------------                            --------------------------
 ! Name  Definition              Value          Derivative Info.                !
 --------------------------------------------------------------------------------
 ! R1    R(1,2)                  1.4608         estimate D2E/DX2                !
 ! R2    R(1,26)                 1.086          estimate D2E/DX2                !
 ! R3    R(1,27)                 1.0923         estimate D2E/DX2                !
 ! R4    R(1,28)                 1.0956         estimate D2E/DX2                !
 ! R5    R(2,3)                  1.4008         estimate D2E/DX2                !
 ! R6    R(2,9)                  1.4441         estimate D2E/DX2                !
 ! R7    R(3,4)                  1.2394         estimate D2E/DX2                !
 ! R8    R(3,5)                  1.5604         estimate D2E/DX2                !
 ! R9    R(5,6)                  1.5346         estimate D2E/DX2                !
 ! R10   R(5,7)                  1.5534         estimate D2E/DX2                !
 ! R11   R(5,8)                  1.5348         estimate D2E/DX2                !
 ! R12   R(6,29)                 1.096          estimate D2E/DX2                !
 ! R13   R(6,30)                 1.0916         estimate D2E/DX2                !
 ! R14   R(6,31)                 1.0962         estimate D2E/DX2                !
 ! R15   R(7,32)                 1.098          estimate D2E/DX2                !
 ! R16   R(7,33)                 1.0963         estimate D2E/DX2                !
 ! R17   R(7,34)                 1.0967         estimate D2E/DX2                !
 ! R18   R(8,35)                 1.0915         estimate D2E/DX2                !
 ! R19   R(8,36)                 1.0957         estimate D2E/DX2                !
 ! R20   R(8,37)                 1.0968         estimate D2E/DX2                !
 ! R21   R(9,10)                 1.4046         estimate D2E/DX2                !
 ! R22   R(9,14)                 1.4277         estimate D2E/DX2                !
 ! R23   R(10,11)                1.3882         estimate D2E/DX2                !
 ! R24   R(10,38)                1.0871         estimate D2E/DX2                !
 ! R25   R(11,12)                1.3919         estimate D2E/DX2                !
 ! R26   R(11,39)                1.0853         estimate D2E/DX2                !
 ! R27   R(12,13)                1.4177         estimate D2E/DX2                !
 ! R28   R(12,19)                1.4242         estimate D2E/DX2                !
 ! R29   R(13,14)                1.4237         estimate D2E/DX2                !
 ! R30   R(13,18)                1.4137         estimate D2E/DX2                !
 ! R31   R(14,15)                1.4165         estimate D2E/DX2                !
 ! R32   R(15,16)                1.3935         estimate D2E/DX2                !
 ! R33   R(15,40)                1.087          estimate D2E/DX2                !
 ! R34   R(16,17)                1.3837         estimate D2E/DX2                !
 ! R35   R(16,41)                1.0876         estimate D2E/DX2                !
 ! R36   R(17,18)                1.3961         estimate D2E/DX2                !
 ! R37   R(17,42)                1.0865         estimate D2E/DX2                !
 ! R38   R(18,43)                1.0878         estimate D2E/DX2                !
 ! R39   R(19,20)                1.4022         estimate D2E/DX2                !
 ! R40   R(20,21)                1.2241         estimate D2E/DX2                !
 ! R41   R(20,22)                1.5339         estimate D2E/DX2                !
 ! R42   R(22,23)                1.5333         estimate D2E/DX2                !
 ! R43   R(22,24)                1.5388         estimate D2E/DX2                !
 ! R44   R(22,25)                1.5343         estimate D2E/DX2                !
 ! R45   R(23,44)                1.0962         estimate D2E/DX2                !
 ! R46   R(23,45)                1.0952         estimate D2E/DX2                !
 ! R47   R(23,46)                1.0956         estimate D2E/DX2                !
 ! R48   R(24,47)                1.0963         estimate D2E/DX2                !
 ! R49   R(24,48)                1.0957         estimate D2E/DX2                !
 ! R50   R(24,49)                1.0964         estimate D2E/DX2                !
 ! R51   R(25,50)                1.0954         estimate D2E/DX2                !
 ! R52   R(25,51)                1.0963         estimate D2E/DX2                !
 ! R53   R(25,52)                1.096          estimate D2E/DX2                !
 ! A1    A(2,1,26)             110.4609         estimate D2E/DX2                !
 ! A2    A(2,1,27)             109.879          estimate D2E/DX2                !
 ! A3    A(2,1,28)             110.8147         estimate D2E/DX2                !
 ! A4    A(26,1,27)            110.4462         estimate D2E/DX2                !
 ! A5    A(26,1,28)            106.1713         estimate D2E/DX2                !
 ! A6    A(27,1,28)            109.0031         estimate D2E/DX2                !
 ! A7    A(1,2,3)              125.956          estimate D2E/DX2                !
 ! A8    A(1,2,9)              114.5754         estimate D2E/DX2                !
 ! A9    A(3,2,9)              118.0122         estimate D2E/DX2                !
 ! A10   A(2,3,4)              120.6663         estimate D2E/DX2                !
 ! A11   A(2,3,5)              121.5708         estimate D2E/DX2                !
 ! A12   A(4,3,5)              117.7262         estimate D2E/DX2                !
 ! A13   A(3,5,6)              111.3841         estimate D2E/DX2                !
 ! A14   A(3,5,7)              107.3379         estimate D2E/DX2                !
 ! A15   A(3,5,8)              113.3355         estimate D2E/DX2                !
 ! A16   A(6,5,7)              106.5932         estimate D2E/DX2                !
 ! A17   A(6,5,8)              111.4289         estimate D2E/DX2                !
 ! A18   A(7,5,8)              106.3091         estimate D2E/DX2                !
 ! A19   A(5,6,29)             110.9592         estimate D2E/DX2                !
 ! A20   A(5,6,30)             112.6367         estimate D2E/DX2                !
 ! A21   A(5,6,31)             111.2028         estimate D2E/DX2                !
 ! A22   A(29,6,30)            107.6822         estimate D2E/DX2                !
 ! A23   A(29,6,31)            107.8151         estimate D2E/DX2                !
 ! A24   A(30,6,31)            106.2902         estimate D2E/DX2                !
 ! A25   A(5,7,32)             111.4916         estimate D2E/DX2                !
 ! A26   A(5,7,33)             111.6303         estimate D2E/DX2                !
 ! A27   A(5,7,34)             111.1649         estimate D2E/DX2                !
 ! A28   A(32,7,33)            107.1975         estimate D2E/DX2                !
 ! A29   A(32,7,34)            107.5712         estimate D2E/DX2                !
 ! A30   A(33,7,34)            107.5655         estimate D2E/DX2                !
 ! A31   A(5,8,35)             112.8543         estimate D2E/DX2                !
 ! A32   A(5,8,36)             111.3206         estimate D2E/DX2                !
 ! A33   A(5,8,37)             111.2779         estimate D2E/DX2                !
 ! A34   A(35,8,36)            108.1333         estimate D2E/DX2                !
 ! A35   A(35,8,37)            105.23           estimate D2E/DX2                !
 ! A36   A(36,8,37)            107.7046         estimate D2E/DX2                !
 ! A37   A(2,9,10)             117.4563         estimate D2E/DX2                !
 ! A38   A(2,9,14)             122.412          estimate D2E/DX2                !
 ! A39   A(10,9,14)            120.1223         estimate D2E/DX2                !
 ! A40   A(9,10,11)            120.9645         estimate D2E/DX2                !
 ! A41   A(9,10,38)            120.8308         estimate D2E/DX2                !
 ! A42   A(11,10,38)           118.1486         estimate D2E/DX2                !
 ! A43   A(10,11,12)           119.5206         estimate D2E/DX2                !
 ! A44   A(10,11,39)           118.6248         estimate D2E/DX2                !
 ! A45   A(12,11,39)           121.8499         estimate D2E/DX2                !
 ! A46   A(11,12,13)           121.5675         estimate D2E/DX2                !
 ! A47   A(11,12,19)           120.5385         estimate D2E/DX2                !
 ! A48   A(13,12,19)           117.7726         estimate D2E/DX2                !
 ! A49   A(12,13,14)           118.9192         estimate D2E/DX2                !
 ! A50   A(12,13,18)           122.3372         estimate D2E/DX2                !
 ! A51   A(14,13,18)           118.7397         estimate D2E/DX2                !
 ! A52   A(9,14,13)            118.7868         estimate D2E/DX2                !
 ! A53   A(9,14,15)            123.3866         estimate D2E/DX2                !
 ! A54   A(13,14,15)           117.7922         estimate D2E/DX2                !
 ! A55   A(14,15,16)           122.2676         estimate D2E/DX2                !
 ! A56   A(14,15,40)           120.2107         estimate D2E/DX2                !
 ! A57   A(16,15,40)           117.5188         estimate D2E/DX2                !
 ! A58   A(15,16,17)           119.7123         estimate D2E/DX2                !
 ! A59   A(15,16,41)           119.8108         estimate D2E/DX2                !
 ! A60   A(17,16,41)           120.4755         estimate D2E/DX2                !
 ! A61   A(16,17,18)           119.6097         estimate D2E/DX2                !
 ! A62   A(16,17,42)           120.1589         estimate D2E/DX2                !
 ! A63   A(18,17,42)           120.231          estimate D2E/DX2                !
 ! A64   A(13,18,17)           121.8467         estimate D2E/DX2                !
 ! A65   A(13,18,43)           120.2252         estimate D2E/DX2                !
 ! A66   A(17,18,43)           117.9274         estimate D2E/DX2                !
 ! A67   A(12,19,20)           123.2255         estimate D2E/DX2                !
 ! A68   A(19,20,21)           125.7496         estimate D2E/DX2                !
 ! A69   A(19,20,22)           110.0511         estimate D2E/DX2                !
 ! A70   A(21,20,22)           124.1965         estimate D2E/DX2                !
 ! A71   A(20,22,23)           109.3009         estimate D2E/DX2                !
 ! A72   A(20,22,24)           109.3652         estimate D2E/DX2                !
 ! A73   A(20,22,25)           109.9232         estimate D2E/DX2                !
 ! A74   A(23,22,24)           108.9095         estimate D2E/DX2                !
 ! A75   A(23,22,25)           110.6488         estimate D2E/DX2                !
 ! A76   A(24,22,25)           108.6685         estimate D2E/DX2                !
 ! A77   A(22,23,44)           110.9455         estimate D2E/DX2                !
 ! A78   A(22,23,45)           111.7456         estimate D2E/DX2                !
 ! A79   A(22,23,46)           111.1762         estimate D2E/DX2                !
 ! A80   A(44,23,45)           107.2263         estimate D2E/DX2                !
 ! A81   A(44,23,46)           107.909          estimate D2E/DX2                !
 ! A82   A(45,23,46)           107.6462         estimate D2E/DX2                !
 ! A83   A(22,24,47)           111.3134         estimate D2E/DX2                !
 ! A84   A(22,24,48)           111.3445         estimate D2E/DX2                !
 ! A85   A(22,24,49)           111.2495         estimate D2E/DX2                !
 ! A86   A(47,24,48)           107.7194         estimate D2E/DX2                !
 ! A87   A(47,24,49)           107.2302         estimate D2E/DX2                !
 ! A88   A(48,24,49)           107.788          estimate D2E/DX2                !
 ! A89   A(22,25,50)           111.8404         estimate D2E/DX2                !
 ! A90   A(22,25,51)           111.0096         estimate D2E/DX2                !
 ! A91   A(22,25,52)           111.1534         estimate D2E/DX2                !
 ! A92   A(50,25,51)           107.2599         estimate D2E/DX2                !
 ! A93   A(50,25,52)           107.5333         estimate D2E/DX2                !
 ! A94   A(51,25,52)           107.8437         estimate D2E/DX2                !
 ! D1    D(26,1,2,3)            53.7864         estimate D2E/DX2                !
 ! D2    D(26,1,2,9)          -140.3478         estimate D2E/DX2                !
 ! D3    D(27,1,2,3)           -68.3125         estimate D2E/DX2                !
 ! D4    D(27,1,2,9)            97.5532         estimate D2E/DX2                !
 ! D5    D(28,1,2,3)           171.1644         estimate D2E/DX2                !
 ! D6    D(28,1,2,9)           -22.9698         estimate D2E/DX2                !
 ! D7    D(1,2,3,4)            169.6348         estimate D2E/DX2                !
 ! D8    D(1,2,3,5)             -8.1101         estimate D2E/DX2                !
 ! D9    D(9,2,3,4)              4.2036         estimate D2E/DX2                !
 ! D10   D(9,2,3,5)           -173.5412         estimate D2E/DX2                !
 ! D11   D(1,2,9,10)           -49.0846         estimate D2E/DX2                !
 ! D12   D(1,2,9,14)           129.8021         estimate D2E/DX2                !
 ! D13   D(3,2,9,10)           117.9773         estimate D2E/DX2                !
 ! D14   D(3,2,9,14)           -63.136          estimate D2E/DX2                !
 ! D15   D(2,3,5,6)             66.4877         estimate D2E/DX2                !
 ! D16   D(2,3,5,7)           -177.1829         estimate D2E/DX2                !
 ! D17   D(2,3,5,8)            -60.1132         estimate D2E/DX2                !
 ! D18   D(4,3,5,6)           -111.321          estimate D2E/DX2                !
 ! D19   D(4,3,5,7)              5.0084         estimate D2E/DX2                !
 ! D20   D(4,3,5,8)            122.0781         estimate D2E/DX2                !
 ! D21   D(3,5,6,29)            44.9049         estimate D2E/DX2                !
 ! D22   D(3,5,6,30)           -75.9016         estimate D2E/DX2                !
 ! D23   D(3,5,6,31)           164.9054         estimate D2E/DX2                !
 ! D24   D(7,5,6,29)           -71.8791         estimate D2E/DX2                !
 ! D25   D(7,5,6,30)           167.3144         estimate D2E/DX2                !
 ! D26   D(7,5,6,31)            48.1214         estimate D2E/DX2                !
 ! D27   D(8,5,6,29)           172.5432         estimate D2E/DX2                !
 ! D28   D(8,5,6,30)            51.7368         estimate D2E/DX2                !
 ! D29   D(8,5,6,31)           -67.4563         estimate D2E/DX2                !
 ! D30   D(3,5,7,32)           -58.4916         estimate D2E/DX2                !
 ! D31   D(3,5,7,33)          -178.357          estimate D2E/DX2                !
 ! D32   D(3,5,7,34)            61.5325         estimate D2E/DX2                !
 ! D33   D(6,5,7,32)            60.9541         estimate D2E/DX2                !
 ! D34   D(6,5,7,33)           -58.9113         estimate D2E/DX2                !
 ! D35   D(6,5,7,34)          -179.0218         estimate D2E/DX2                !
 ! D36   D(8,5,7,32)           179.9268         estimate D2E/DX2                !
 ! D37   D(8,5,7,33)            60.0614         estimate D2E/DX2                !
 ! D38   D(8,5,7,34)           -60.0491         estimate D2E/DX2                !
 ! D39   D(3,5,8,35)            85.9394         estimate D2E/DX2                !
 ! D40   D(3,5,8,36)           -35.8675         estimate D2E/DX2                !
 ! D41   D(3,5,8,37)          -156.0219         estimate D2E/DX2                !
 ! D42   D(6,5,8,35)           -40.6378         estimate D2E/DX2                !
 ! D43   D(6,5,8,36)          -162.4447         estimate D2E/DX2                !
 ! D44   D(6,5,8,37)            77.4009         estimate D2E/DX2                !
 ! D45   D(7,5,8,35)          -156.39           estimate D2E/DX2                !
 ! D46   D(7,5,8,36)            81.8031         estimate D2E/DX2                !
 ! D47   D(7,5,8,37)           -38.3513         estimate D2E/DX2                !
 ! D48   D(2,9,10,11)         -178.8619         estimate D2E/DX2                !
 ! D49   D(2,9,10,38)           -1.6372         estimate D2E/DX2                !
 ! D50   D(14,9,10,11)           2.2247         estimate D2E/DX2                !
 ! D51   D(14,9,10,38)         179.4494         estimate D2E/DX2                !
 ! D52   D(2,9,14,13)          178.2482         estimate D2E/DX2                !
 ! D53   D(2,9,14,15)           -3.9341         estimate D2E/DX2                !
 ! D54   D(10,9,14,13)          -2.894          estimate D2E/DX2                !
 ! D55   D(10,9,14,15)         174.9237         estimate D2E/DX2                !
 ! D56   D(9,10,11,12)           0.8682         estimate D2E/DX2                !
 ! D57   D(9,10,11,39)        -179.9025         estimate D2E/DX2                !
 ! D58   D(38,10,11,12)       -176.4291         estimate D2E/DX2                !
 ! D59   D(38,10,11,39)          2.8002         estimate D2E/DX2                !
 ! D60   D(10,11,12,13)         -3.2952         estimate D2E/DX2                !
 ! D61   D(10,11,12,19)       -179.201          estimate D2E/DX2                !
 ! D62   D(39,11,12,13)        177.5013         estimate D2E/DX2                !
 ! D63   D(39,11,12,19)          1.5954         estimate D2E/DX2                !
 ! D64   D(11,12,13,14)          2.5569         estimate D2E/DX2                !
 ! D65   D(11,12,13,18)       -176.7133         estimate D2E/DX2                !
 ! D66   D(19,12,13,14)        178.5718         estimate D2E/DX2                !
 ! D67   D(19,12,13,18)         -0.6985         estimate D2E/DX2                !
 ! D68   D(11,12,19,20)        -32.8504         estimate D2E/DX2                !
 ! D69   D(13,12,19,20)        151.0919         estimate D2E/DX2                !
 ! D70   D(12,13,14,9)           0.5518         estimate D2E/DX2                !
 ! D71   D(12,13,14,15)       -177.3885         estimate D2E/DX2                !
 ! D72   D(18,13,14,9)         179.8486         estimate D2E/DX2                !
 ! D73   D(18,13,14,15)          1.9083         estimate D2E/DX2                !
 ! D74   D(12,13,18,17)        178.5552         estimate D2E/DX2                !
 ! D75   D(12,13,18,43)         -1.1482         estimate D2E/DX2                !
 ! D76   D(14,13,18,17)         -0.7163         estimate D2E/DX2                !
 ! D77   D(14,13,18,43)        179.5804         estimate D2E/DX2                !
 ! D78   D(9,14,15,16)        -179.8852         estimate D2E/DX2                !
 ! D79   D(9,14,15,40)           0.7503         estimate D2E/DX2                !
 ! D80   D(13,14,15,16)         -2.0472         estimate D2E/DX2                !
 ! D81   D(13,14,15,40)        178.5883         estimate D2E/DX2                !
 ! D82   D(14,15,16,17)          0.8954         estimate D2E/DX2                !
 ! D83   D(14,15,16,41)       -178.68           estimate D2E/DX2                !
 ! D84   D(40,15,16,17)       -179.7238         estimate D2E/DX2                !
 ! D85   D(40,15,16,41)          0.7008         estimate D2E/DX2                !
 ! D86   D(15,16,17,18)          0.3923         estimate D2E/DX2                !
 ! D87   D(15,16,17,42)       -179.84           estimate D2E/DX2                !
 ! D88   D(41,16,17,18)        179.9649         estimate D2E/DX2                !
 ! D89   D(41,16,17,42)         -0.2675         estimate D2E/DX2                !
 ! D90   D(16,17,18,13)         -0.4686         estimate D2E/DX2                !
 ! D91   D(16,17,18,43)        179.2413         estimate D2E/DX2                !
 ! D92   D(42,17,18,13)        179.764          estimate D2E/DX2                !
 ! D93   D(42,17,18,43)         -0.5262         estimate D2E/DX2                !
 ! D94   D(12,19,20,21)         -2.7381         estimate D2E/DX2                !
 ! D95   D(12,19,20,22)        177.848          estimate D2E/DX2                !
 ! D96   D(19,20,22,23)         63.713          estimate D2E/DX2                !
 ! D97   D(19,20,22,24)       -177.1397         estimate D2E/DX2                !
 ! D98   D(19,20,22,25)        -57.9122         estimate D2E/DX2                !
 ! D99   D(21,20,22,23)       -115.7118         estimate D2E/DX2                !
 ! D100  D(21,20,22,24)          3.4354         estimate D2E/DX2                !
 ! D101  D(21,20,22,25)        122.6629         estimate D2E/DX2                !
 ! D102  D(20,22,23,44)         60.6179         estimate D2E/DX2                !
 ! D103  D(20,22,23,45)        -58.9906         estimate D2E/DX2                !
 ! D104  D(20,22,23,46)       -179.2899         estimate D2E/DX2                !
 ! D105  D(24,22,23,44)        -58.8112         estimate D2E/DX2                !
 ! D106  D(24,22,23,45)       -178.4197         estimate D2E/DX2                !
 ! D107  D(24,22,23,46)         61.2809         estimate D2E/DX2                !
 ! D108  D(25,22,23,44)       -178.1961         estimate D2E/DX2                !
 ! D109  D(25,22,23,45)         62.1953         estimate D2E/DX2                !
 ! D110  D(25,22,23,46)        -58.104          estimate D2E/DX2                !
 ! D111  D(20,22,24,47)        -58.7242         estimate D2E/DX2                !
 ! D112  D(20,22,24,48)       -178.9376         estimate D2E/DX2                !
 ! D113  D(20,22,24,49)         60.8053         estimate D2E/DX2                !
 ! D114  D(23,22,24,47)         60.6649         estimate D2E/DX2                !
 ! D115  D(23,22,24,48)        -59.5484         estimate D2E/DX2                !
 ! D116  D(23,22,24,49)       -179.8055         estimate D2E/DX2                !
 ! D117  D(25,22,24,47)       -178.7247         estimate D2E/DX2                !
 ! D118  D(25,22,24,48)         61.062          estimate D2E/DX2                !
 ! D119  D(25,22,24,49)        -59.1951         estimate D2E/DX2                !
 ! D120  D(20,22,25,50)         60.8894         estimate D2E/DX2                !
 ! D121  D(20,22,25,51)        -58.8688         estimate D2E/DX2                !
 ! D122  D(20,22,25,52)       -178.9062         estimate D2E/DX2                !
 ! D123  D(23,22,25,50)        -59.9276         estimate D2E/DX2                !
 ! D124  D(23,22,25,51)       -179.6857         estimate D2E/DX2                !
 ! D125  D(23,22,25,52)         60.2768         estimate D2E/DX2                !
 ! D126  D(24,22,25,50)       -179.4577         estimate D2E/DX2                !
 ! D127  D(24,22,25,51)         60.7842         estimate D2E/DX2                !
 ! D128  D(24,22,25,52)        -59.2533         estimate D2E/DX2                !
 --------------------------------------------------------------------------------
 Trust Radius=3.00D-01 FncErr=1.00D-07 GrdErr=1.00D-06
 Number of steps in this run= 285 maximum allowed number of steps= 312.
 GradGradGradGradGradGradGradGradGradGradGradGradGradGradGradGradGradGrad

 Leave Link  103 at Wed Sep 29 08:00:39 2021, MaxMem= 2147483648 cpu:       0.0
 (Enter /sw/target/amd/app/gaussian/Gaussian09RevA.02_gcc-4.9.2/g09/l202.exe)
 Stoichiometry    C21H27NO3
 Framework group  C1[X(C21H27NO3)]
 Deg. of freedom   150
 Full point group                 C1      NOp   1
 Largest Abelian subgroup         C1      NOp   1
 Largest concise Abelian subgroup C1      NOp   1
                         Standard orientation:                         
 ---------------------------------------------------------------------
 Center     Atomic      Atomic             Coordinates (Angstroms)
 Number     Number       Type             X           Y           Z
 ---------------------------------------------------------------------
      1          6           0       -3.031176   -1.373934   -1.817947
      2          7           0       -2.623818   -0.560640   -0.674917
      3          6           0       -3.422741   -0.233557    0.428206
      4          8           0       -2.927561    0.299916    1.431357
      5          6           0       -4.945834   -0.570827    0.462480
      6          6           0       -5.182654   -2.086663    0.495664
      7          6           0       -5.515800   -0.003574    1.791597
      8          6           0       -5.741838    0.096452   -0.667390
      9          6           0       -1.200120   -0.343135   -0.569529
     10          6           0       -0.363926   -1.466994   -0.672406
     11          6           0        1.014137   -1.344760   -0.558140
     12          6           0        1.574272   -0.092888   -0.320299
     13          6           0        0.776677    1.077628   -0.259286
     14          6           0       -0.635583    0.956062   -0.391708
     15          6           0       -1.404529    2.145684   -0.383826
     16          6           0       -0.828542    3.402698   -0.210576
     17          6           0        0.542206    3.513811   -0.057473
     18          6           0        1.334919    2.364938   -0.086492
     19          8           0        2.986433    0.060123   -0.216149
     20          6           0        3.829214   -0.927270    0.313889
     21          8           0        3.468330   -1.997223    0.786440
     22          6           0        5.291075   -0.469929    0.232704
     23          6           0        5.482766    0.772850    1.110057
     24          6           0        6.206548   -1.592718    0.751588
     25          6           0        5.663767   -0.166317   -1.224373
     26          1           0       -3.941588   -0.979320   -2.259458
     27          1           0       -3.177440   -2.409715   -1.503508
     28          1           0       -2.271761   -1.344524   -2.607046
     29          1           0       -4.513846   -2.572280    1.215429
     30          1           0       -5.022916   -2.558233   -0.475806
     31          1           0       -6.213726   -2.320609    0.785210
     32          1           0       -5.002497   -0.429619    2.663703
     33          1           0       -6.583177   -0.228125    1.902037
     34          1           0       -5.400159    1.086007    1.838976
     35          1           0       -5.738492   -0.486763   -1.590037
     36          1           0       -5.351611    1.095023   -0.893734
     37          1           0       -6.799716    0.204730   -0.398809
     38          1           0       -0.781717   -2.462541   -0.799057
     39          1           0        1.624376   -2.238040   -0.645368
     40          1           0       -2.483766    2.100175   -0.505282
     41          1           0       -1.459461    4.288289   -0.189690
     42          1           0        0.998663    4.490027    0.080677
     43          1           0        2.410410    2.485108    0.023975
     44          1           0        5.248338    0.552662    2.158028
     45          1           0        4.829997    1.594811    0.797469
     46          1           0        6.516216    1.133787    1.064658
     47          1           0        5.961547   -1.860534    1.786060
     48          1           0        7.260013   -1.292469    0.725395
     49          1           0        6.102191   -2.501663    0.147367
     50          1           0        5.047206    0.635968   -1.644025
     51          1           0        5.523534   -1.049761   -1.858220
     52          1           0        6.711470    0.144228   -1.308148
 ---------------------------------------------------------------------
 Rotational constants (GHZ):      0.4826371      0.1017903      0.0918709
 Leave Link  202 at Wed Sep 29 08:00:39 2021, MaxMem= 2147483648 cpu:       0.1
 (Enter /sw/target/amd/app/gaussian/Gaussian09RevA.02_gcc-4.9.2/g09/l301.exe)
 Standard basis: 6-31G(d) (6D, 7F)
 Ernie: Thresh=  0.10000D-02 Tol=  0.10000D-05 Strict=F.
 There are   429 symmetry adapted basis functions of A   symmetry.
 Integral buffers will be    131072 words long.
 Raffenetti 2 integral format.
 Two-electron integral symmetry is turned on.
   429 basis functions,   808 primitive gaussians,   429 cartesian basis functions
    92 alpha electrons       92 beta electrons
       nuclear repulsion energy      2205.9781995087 Hartrees.
 IExCor=  402 DFT=T Ex+Corr=B3LYP ExCW=0 ScaHFX=  0.200000
 ScaDFX=  0.800000  0.720000  1.000000  0.810000 ScalE2=  1.000000  1.000000
 IRadAn=      0 IRanWt=     -1 IRanGd=            0 ICorTp=0
 NAtoms=   52 NActive=   52 NUniq=   52 SFac= 7.50D-01 NAtFMM=   80 NAOKFM=F Big=F
 Leave Link  301 at Wed Sep 29 08:00:40 2021, MaxMem= 2147483648 cpu:       0.1
 (Enter /sw/target/amd/app/gaussian/Gaussian09RevA.02_gcc-4.9.2/g09/l302.exe)
 NPDir=0 NMtPBC=     1 NCelOv=     1 NCel=       1 NClECP=     1 NCelD=      1
         NCelK=      1 NCelE2=     1 NClLst=     1 CellRange=     0.0.
 One-electron integrals computed using PRISM.
 NBasis=   429 RedAO= T  NBF=   429
 NBsUse=   429 1.00D-06 NBFU=   429
 Precomputing XC quadrature grid using
 IXCGrd= 2 IRadAn=           0 IRanWt=          -1 IRanGd=           0 AccXCQ= 1.00D-10.
 NRdTot=    3337 NPtTot=      426504 NUsed=      450552 NTot=      450584
 NSgBfM=   419   419   419   419   419 NAtAll=    52    52.
 Leave Link  302 at Wed Sep 29 08:00:47 2021, MaxMem= 2147483648 cpu:       7.0
 (Enter /sw/target/amd/app/gaussian/Gaussian09RevA.02_gcc-4.9.2/g09/l303.exe)
 DipDrv:  MaxL=1.
 Leave Link  303 at Wed Sep 29 08:00:48 2021, MaxMem= 2147483648 cpu:       0.4
 (Enter /sw/target/amd/app/gaussian/Gaussian09RevA.02_gcc-4.9.2/g09/l401.exe)
 Harris functional with IExCor=  402 diagonalized for initial guess.
 ExpMin= 1.61D-01 ExpMax= 5.48D+03 ExpMxC= 8.25D+02 IAcc=1 IRadAn=         1 AccDes= 0.00D+00
 HarFok:  IExCor=  402 AccDes= 0.00D+00 IRadAn=         1 IDoV= 1
 ScaDFX=  1.000000  1.000000  1.000000  1.000000
 FoFCou: FMM=F IPFlag=           0 FMFlag=      100000 FMFlg1=           0
         NFxFlg=           0 DoJE=T BraDBF=F KetDBF=T FulRan=T
         Omega=  0.000000  0.000000  1.000000  0.000000  0.000000 ICntrl=     500 IOpCl=  0
         NMat0=    1 NMatS0=    1 NMatT0=    0 NMatD0=    1 NMtDS0=    0 NMtDT0=    0
         I1Cent=           4 NGrid=           0.
 Petite list used in FoFCou.
 Harris En= -1097.12802619598    
 Initial guess orbital symmetries:
       Occupied  (A) (A) (A) (A) (A) (A) (A) (A) (A) (A) (A) (A)
                 (A) (A) (A) (A) (A) (A) (A) (A) (A) (A) (A) (A)
                 (A) (A) (A) (A) (A) (A) (A) (A) (A) (A) (A) (A)
                 (A) (A) (A) (A) (A) (A) (A) (A) (A) (A) (A) (A)
                 (A) (A) (A) (A) (A) (A) (A) (A) (A) (A) (A) (A)
                 (A) (A) (A) (A) (A) (A) (A) (A) (A) (A) (A) (A)
                 (A) (A) (A) (A) (A) (A) (A) (A) (A) (A) (A) (A)
                 (A) (A) (A) (A) (A) (A) (A) (A)
       Virtual   (A) (A) (A) (A) (A) (A) (A) (A) (A) (A) (A) (A)
                 (A) (A) (A) (A) (A) (A) (A) (A) (A) (A) (A) (A)
                 (A) (A) (A) (A) (A) (A) (A) (A) (A) (A) (A) (A)
                 (A) (A) (A) (A) (A) (A) (A) (A) (A) (A) (A) (A)
                 (A) (A) (A) (A) (A) (A) (A) (A) (A) (A) (A) (A)
                 (A) (A) (A) (A) (A) (A) (A) (A) (A) (A) (A) (A)
                 (A) (A) (A) (A) (A) (A) (A) (A) (A) (A) (A) (A)
                 (A) (A) (A) (A) (A) (A) (A) (A) (A) (A) (A) (A)
                 (A) (A) (A) (A) (A) (A) (A) (A) (A) (A) (A) (A)
                 (A) (A) (A) (A) (A) (A) (A) (A) (A) (A) (A) (A)
                 (A) (A) (A) (A) (A) (A) (A) (A) (A) (A) (A) (A)
                 (A) (A) (A) (A) (A) (A) (A) (A) (A) (A) (A) (A)
                 (A) (A) (A) (A) (A) (A) (A) (A) (A) (A) (A) (A)
                 (A) (A) (A) (A) (A) (A) (A) (A) (A) (A) (A) (A)
                 (A) (A) (A) (A) (A) (A) (A) (A) (A) (A) (A) (A)
                 (A) (A) (A) (A) (A) (A) (A) (A) (A) (A) (A) (A)
                 (A) (A) (A) (A) (A) (A) (A) (A) (A) (A) (A) (A)
                 (A) (A) (A) (A) (A) (A) (A) (A) (A) (A) (A) (A)
                 (A) (A) (A) (A) (A) (A) (A) (A) (A) (A) (A) (A)
                 (A) (A) (A) (A) (A) (A) (A) (A) (A) (A) (A) (A)
                 (A) (A) (A) (A) (A) (A) (A) (A) (A) (A) (A) (A)
                 (A) (A) (A) (A) (A) (A) (A) (A) (A) (A) (A) (A)
                 (A) (A) (A) (A) (A) (A) (A) (A) (A) (A) (A) (A)
                 (A) (A) (A) (A) (A) (A) (A) (A) (A) (A) (A) (A)
                 (A) (A) (A) (A) (A) (A) (A) (A) (A) (A) (A) (A)
                 (A) (A) (A) (A) (A) (A) (A) (A) (A) (A) (A) (A)
                 (A) (A) (A) (A) (A) (A) (A) (A) (A) (A) (A) (A)
                 (A) (A) (A) (A) (A) (A) (A) (A) (A) (A) (A) (A)
                 (A)
 The electronic state of the initial guess is 1-A.
 Leave Link  401 at Wed Sep 29 08:01:08 2021, MaxMem= 2147483648 cpu:      27.3
 (Enter /sw/target/amd/app/gaussian/Gaussian09RevA.02_gcc-4.9.2/g09/l502.exe)
 Closed shell SCF:
 Requested convergence on RMS density matrix=1.00D-08 within  64 cycles.
 Requested convergence on MAX density matrix=1.00D-06.
 Requested convergence on             energy=1.00D-06.
 No special actions if energy rises.
 Using DIIS extrapolation, IDIIS=  1040.
 Integral symmetry usage will be decided dynamically.
       450071 words used for storage of precomputed grid.
 IEnd=     1014425 IEndB=     1014425 NGot=  2147483648 MDV=  2146657918
 LenX=  2146657918 LenY=  2146473436
 Fock matrices will be formed incrementally for  20 cycles.
 Integral accuracy reduced to 1.0D-05 until final iterations.

 Cycle   1  Pass 0  IDiag  1:
 FoFCou: FMM=F IPFlag=           0 FMFlag=      100000 FMFlg1=           0
         NFxFlg=           0 DoJE=F BraDBF=F KetDBF=F FulRan=T
         Omega=  0.000000  0.000000  1.000000  0.000000  0.000000 ICntrl=       0 IOpCl=  0
         NMat0=    1 NMatS0=    1 NMatT0=    0 NMatD0=    1 NMtDS0=    0 NMtDT0=    0
         I1Cent=           0 NGrid=           0.
 Symmetry not used in FoFCou.
 E= -1096.16451280814    
 DIIS: error= 4.17D-02 at cycle   1 NSaved=   1.
 NSaved= 1 IEnMin= 1 EnMin= -1096.16451280814     IErMin= 1 ErrMin= 4.17D-02
 ErrMax= 4.17D-02 EMaxC= 1.00D-01 BMatC= 7.82D-01 BMatP= 7.82D-01
 IDIUse=3 WtCom= 5.83D-01 WtEn= 4.17D-01
 Coeff-Com:  0.100D+01
 Coeff-En:   0.100D+01
 Coeff:      0.100D+01
 Gap=     0.188 Goal=   None    Shift=    0.000
 GapD=    0.188 DampG=1.000 DampE=0.500 DampFc=0.5000 IDamp=-1.
 Damping current iteration by 5.00D-01
 RMSDP=4.91D-03 MaxDP=2.25D-01              OVMax= 2.94D-01

 Cycle   2  Pass 0  IDiag  1:
 RMSU=  1.71D-03    CP:  9.74D-01
 E= -1096.41234652047     Delta-E=       -0.247833712328 Rises=F Damp=T
 DIIS: error= 1.36D-02 at cycle   2 NSaved=   2.
 NSaved= 2 IEnMin= 2 EnMin= -1096.41234652047     IErMin= 2 ErrMin= 1.36D-02
 ErrMax= 1.36D-02 EMaxC= 1.00D-01 BMatC= 1.15D-01 BMatP= 7.82D-01
 IDIUse=3 WtCom= 8.64D-01 WtEn= 1.36D-01
 Coeff-Com:  0.201D+00 0.799D+00
 Coeff-En:   0.297D+00 0.703D+00
 Coeff:      0.214D+00 0.786D+00
 Gap=     0.224 Goal=   None    Shift=    0.000
 RMSDP=1.69D-03 MaxDP=1.16D-01 DE=-2.48D-01 OVMax= 1.90D-01

 Cycle   3  Pass 0  IDiag  1:
 RMSU=  1.12D-03    CP:  9.58D-01  7.91D-01
 E= -1096.81684434359     Delta-E=       -0.404497823121 Rises=F Damp=F
 DIIS: error= 1.67D-02 at cycle   3 NSaved=   3.
 NSaved= 3 IEnMin= 3 EnMin= -1096.81684434359     IErMin= 2 ErrMin= 1.36D-02
 ErrMax= 1.67D-02 EMaxC= 1.00D-01 BMatC= 1.43D-01 BMatP= 1.15D-01
 IDIUse=2 WtCom= 0.00D+00 WtEn= 1.00D+00
 Coeff-En:   0.000D+00 0.000D+00 0.100D+01
 Coeff:      0.000D+00 0.000D+00 0.100D+01
 Gap=     0.168 Goal=   None    Shift=    0.000
 RMSDP=2.88D-03 MaxDP=2.12D-01 DE=-4.04D-01 OVMax= 3.01D-01

 Cycle   4  Pass 0  IDiag  1:
 RMSU=  1.07D-03    CP:  9.70D-01  1.21D+00 -4.03D-01
 E= -1096.18354720356     Delta-E=        0.633297140030 Rises=F Damp=F
 DIIS: error= 4.49D-02 at cycle   4 NSaved=   4.
 NSaved= 4 IEnMin= 3 EnMin= -1096.81684434359     IErMin= 2 ErrMin= 1.36D-02
 ErrMax= 4.49D-02 EMaxC= 1.00D-01 BMatC= 9.39D-01 BMatP= 1.15D-01
 IDIUse=2 WtCom= 0.00D+00 WtEn= 1.00D+00
 Coeff-En:   0.000D+00 0.000D+00 0.805D+00 0.195D+00
 Coeff:      0.000D+00 0.000D+00 0.805D+00 0.195D+00
 Gap=     0.158 Goal=   None    Shift=    0.000
 RMSDP=1.58D-03 MaxDP=1.34D-01 DE= 6.33D-01 OVMax= 1.49D-01

 Cycle   5  Pass 0  IDiag  1:
 RMSU=  2.00D-04    CP:  9.66D-01  9.03D-01  3.09D-01  4.94D-01
 E= -1096.88282569903     Delta-E=       -0.699278495469 Rises=F Damp=F
 DIIS: error= 1.10D-02 at cycle   5 NSaved=   5.
 NSaved= 5 IEnMin= 5 EnMin= -1096.88282569903     IErMin= 5 ErrMin= 1.10D-02
 ErrMax= 1.10D-02 EMaxC= 1.00D-01 BMatC= 6.90D-02 BMatP= 1.15D-01
 IDIUse=3 WtCom= 8.90D-01 WtEn= 1.10D-01
 Coeff-Com: -0.585D-02 0.526D-01 0.324D+00-0.840D-01 0.714D+00
 Coeff-En:   0.000D+00 0.000D+00 0.359D+00 0.000D+00 0.641D+00
 Coeff:     -0.520D-02 0.468D-01 0.328D+00-0.748D-01 0.706D+00
 Gap=     0.161 Goal=   None    Shift=    0.000
 RMSDP=5.88D-04 MaxDP=3.85D-02 DE=-6.99D-01 OVMax= 5.19D-02

 Cycle   6  Pass 0  IDiag  1:
 RMSU=  6.95D-05    CP:  9.64D-01  8.43D-01  5.92D-01  2.79D-01  7.20D-01
 E= -1096.93941647518     Delta-E=       -0.056590776153 Rises=F Damp=F
 DIIS: error= 7.55D-04 at cycle   6 NSaved=   6.
 NSaved= 6 IEnMin= 6 EnMin= -1096.93941647518     IErMin= 6 ErrMin= 7.55D-04
 ErrMax= 7.55D-04 EMaxC= 1.00D-01 BMatC= 5.65D-04 BMatP= 6.90D-02
 IDIUse=3 WtCom= 9.92D-01 WtEn= 7.55D-03
 Coeff-Com: -0.666D-02 0.254D-01 0.163D+00-0.626D-01 0.440D+00 0.441D+00
 Coeff-En:   0.000D+00 0.000D+00 0.000D+00 0.000D+00 0.000D+00 0.100D+01
 Coeff:     -0.661D-02 0.252D-01 0.162D+00-0.621D-01 0.437D+00 0.445D+00
 Gap=     0.154 Goal=   None    Shift=    0.000
 RMSDP=6.34D-05 MaxDP=3.75D-03 DE=-5.66D-02 OVMax= 6.90D-03

 Cycle   7  Pass 0  IDiag  1:
 RMSU=  1.80D-05    CP:  9.64D-01  8.51D-01  5.80D-01  2.86D-01  7.84D-01
                    CP:  5.23D-01
 E= -1096.93989668962     Delta-E=       -0.000480214434 Rises=F Damp=F
 DIIS: error= 1.85D-04 at cycle   7 NSaved=   7.
 NSaved= 7 IEnMin= 7 EnMin= -1096.93989668962     IErMin= 7 ErrMin= 1.85D-04
 ErrMax= 1.85D-04 EMaxC= 1.00D-01 BMatC= 3.21D-05 BMatP= 5.65D-04
 IDIUse=3 WtCom= 9.98D-01 WtEn= 1.85D-03
 Coeff-Com: -0.116D-02 0.281D-02 0.350D-01-0.150D-01 0.945D-01 0.190D+00
 Coeff-Com:  0.694D+00
 Coeff-En:   0.000D+00 0.000D+00 0.000D+00 0.000D+00 0.000D+00 0.000D+00
 Coeff-En:   0.100D+01
 Coeff:     -0.115D-02 0.281D-02 0.350D-01-0.150D-01 0.943D-01 0.189D+00
 Coeff:      0.695D+00
 Gap=     0.154 Goal=   None    Shift=    0.000
 RMSDP=1.58D-05 MaxDP=7.07D-04 DE=-4.80D-04 OVMax= 1.84D-03

 Cycle   8  Pass 0  IDiag  1:
 RMSU=  6.21D-06    CP:  9.64D-01  8.49D-01  5.85D-01  2.84D-01  7.77D-01
                    CP:  5.65D-01  7.14D-01
 E= -1096.93992286823     Delta-E=       -0.000026178616 Rises=F Damp=F
 DIIS: error= 6.63D-05 at cycle   8 NSaved=   8.
 NSaved= 8 IEnMin= 8 EnMin= -1096.93992286823     IErMin= 8 ErrMin= 6.63D-05
 ErrMax= 6.63D-05 EMaxC= 1.00D-01 BMatC= 4.15D-06 BMatP= 3.21D-05
 IDIUse=1 WtCom= 1.00D+00 WtEn= 0.00D+00
 Coeff-Com: -0.127D-03-0.360D-03 0.112D-01-0.470D-02 0.275D-01 0.905D-01
 Coeff-Com:  0.433D+00 0.443D+00
 Coeff:     -0.127D-03-0.360D-03 0.112D-01-0.470D-02 0.275D-01 0.905D-01
 Coeff:      0.433D+00 0.443D+00
 Gap=     0.154 Goal=   None    Shift=    0.000
 RMSDP=5.68D-06 MaxDP=3.64D-04 DE=-2.62D-05 OVMax= 8.20D-04

 Initial convergence to 1.0D-05 achieved.  Increase integral accuracy.
 Cycle   9  Pass 1  IDiag  1:
 E= -1096.93990593282     Delta-E=        0.000016935413 Rises=F Damp=F
 DIIS: error= 4.89D-05 at cycle   1 NSaved=   1.
 NSaved= 1 IEnMin= 1 EnMin= -1096.93990593282     IErMin= 1 ErrMin= 4.89D-05
 ErrMax= 4.89D-05 EMaxC= 1.00D-01 BMatC= 8.68D-07 BMatP= 8.68D-07
 IDIUse=1 WtCom= 1.00D+00 WtEn= 0.00D+00
 Coeff-Com:  0.100D+01
 Coeff:      0.100D+01
 Gap=     0.154 Goal=   None    Shift=    0.000
 RMSDP=5.68D-06 MaxDP=3.64D-04 DE= 1.69D-05 OVMax= 7.12D-04

 Cycle  10  Pass 1  IDiag  1:
 RMSU=  2.02D-05    CP:  1.00D+00
 E= -1096.93990570791     Delta-E=        0.000000224914 Rises=F Damp=F
 DIIS: error= 6.59D-05 at cycle   2 NSaved=   2.
 NSaved= 2 IEnMin= 1 EnMin= -1096.93990593282     IErMin= 1 ErrMin= 4.89D-05
 ErrMax= 6.59D-05 EMaxC= 1.00D-01 BMatC= 1.08D-06 BMatP= 8.68D-07
 IDIUse=1 WtCom= 1.00D+00 WtEn= 0.00D+00
 Coeff-Com:  0.536D+00 0.464D+00
 Coeff:      0.536D+00 0.464D+00
 Gap=     0.154 Goal=   None    Shift=    0.000
 RMSDP=4.17D-06 MaxDP=2.58D-04 DE= 2.25D-07 OVMax= 8.11D-04

 Cycle  11  Pass 1  IDiag  1:
 RMSU=  2.93D-06    CP:  1.00D+00  9.85D-01
 E= -1096.93990653461     Delta-E=       -0.000000826698 Rises=F Damp=F
 DIIS: error= 3.80D-05 at cycle   3 NSaved=   3.
 NSaved= 3 IEnMin= 3 EnMin= -1096.93990653461     IErMin= 3 ErrMin= 3.80D-05
 ErrMax= 3.80D-05 EMaxC= 1.00D-01 BMatC= 3.28D-07 BMatP= 8.68D-07
 IDIUse=1 WtCom= 1.00D+00 WtEn= 0.00D+00
 Coeff-Com:  0.230D-01 0.351D+00 0.626D+00
 Coeff:      0.230D-01 0.351D+00 0.626D+00
 Gap=     0.154 Goal=   None    Shift=    0.000
 RMSDP=1.66D-06 MaxDP=9.34D-05 DE=-8.27D-07 OVMax= 3.15D-04

 Cycle  12  Pass 1  IDiag  1:
 RMSU=  4.99D-07    CP:  1.00D+00  9.98D-01  6.48D-01
 E= -1096.93990686489     Delta-E=       -0.000000330288 Rises=F Damp=F
 DIIS: error= 7.19D-06 at cycle   4 NSaved=   4.
 NSaved= 4 IEnMin= 4 EnMin= -1096.93990686489     IErMin= 4 ErrMin= 7.19D-06
 ErrMax= 7.19D-06 EMaxC= 1.00D-01 BMatC= 3.33D-08 BMatP= 3.28D-07
 IDIUse=1 WtCom= 1.00D+00 WtEn= 0.00D+00
 Coeff-Com: -0.728D-02 0.216D+00 0.419D+00 0.372D+00
 Coeff:     -0.728D-02 0.216D+00 0.419D+00 0.372D+00
 Gap=     0.154 Goal=   None    Shift=    0.000
 RMSDP=4.36D-07 MaxDP=2.61D-05 DE=-3.30D-07 OVMax= 3.57D-05

 Cycle  13  Pass 1  IDiag  1:
 RMSU=  1.43D-07    CP:  1.00D+00  9.99D-01  6.60D-01  4.58D-01
 E= -1096.93990689207     Delta-E=       -0.000000027172 Rises=F Damp=F
 DIIS: error= 1.28D-06 at cycle   5 NSaved=   5.
 NSaved= 5 IEnMin= 5 EnMin= -1096.93990689207     IErMin= 5 ErrMin= 1.28D-06
 ErrMax= 1.28D-06 EMaxC= 1.00D-01 BMatC= 1.18D-09 BMatP= 3.33D-08
 IDIUse=1 WtCom= 1.00D+00 WtEn= 0.00D+00
 Coeff-Com: -0.598D-02 0.100D+00 0.197D+00 0.217D+00 0.492D+00
 Coeff:     -0.598D-02 0.100D+00 0.197D+00 0.217D+00 0.492D+00
 Gap=     0.154 Goal=   None    Shift=    0.000
 RMSDP=9.31D-08 MaxDP=5.62D-06 DE=-2.72D-08 OVMax= 8.15D-06

 Cycle  14  Pass 1  IDiag  1:
 RMSU=  4.81D-08    CP:  1.00D+00  9.99D-01  6.63D-01  4.67D-01  6.93D-01
 E= -1096.93990689310     Delta-E=       -0.000000001034 Rises=F Damp=F
 DIIS: error= 3.00D-07 at cycle   6 NSaved=   6.
 NSaved= 6 IEnMin= 6 EnMin= -1096.93990689310     IErMin= 6 ErrMin= 3.00D-07
 ErrMax= 3.00D-07 EMaxC= 1.00D-01 BMatC= 1.01D-10 BMatP= 1.18D-09
 IDIUse=1 WtCom= 1.00D+00 WtEn= 0.00D+00
 Coeff-Com: -0.273D-02 0.371D-01 0.729D-01 0.897D-01 0.283D+00 0.520D+00
 Coeff:     -0.273D-02 0.371D-01 0.729D-01 0.897D-01 0.283D+00 0.520D+00
 Gap=     0.154 Goal=   None    Shift=    0.000
 RMSDP=2.92D-08 MaxDP=2.15D-06 DE=-1.03D-09 OVMax= 2.63D-06

 Cycle  15  Pass 1  IDiag  1:
 RMSU=  1.66D-08    CP:  1.00D+00  9.99D-01  6.61D-01  4.68D-01  7.15D-01
                    CP:  7.71D-01
 E= -1096.93990689321     Delta-E=       -0.000000000115 Rises=F Damp=F
 DIIS: error= 1.06D-07 at cycle   7 NSaved=   7.
 NSaved= 7 IEnMin= 7 EnMin= -1096.93990689321     IErMin= 7 ErrMin= 1.06D-07
 ErrMax= 1.06D-07 EMaxC= 1.00D-01 BMatC= 1.27D-11 BMatP= 1.01D-10
 IDIUse=1 WtCom= 1.00D+00 WtEn= 0.00D+00
 Coeff-Com: -0.598D-03 0.563D-02 0.104D-01 0.175D-01 0.836D-01 0.293D+00
 Coeff-Com:  0.591D+00
 Coeff:     -0.598D-03 0.563D-02 0.104D-01 0.175D-01 0.836D-01 0.293D+00
 Coeff:      0.591D+00
 Gap=     0.154 Goal=   None    Shift=    0.000
 RMSDP=1.11D-08 MaxDP=6.13D-07 DE=-1.15D-10 OVMax= 1.14D-06

 Cycle  16  Pass 1  IDiag  1:
 RMSU=  5.10D-09    CP:  1.00D+00  9.99D-01  6.61D-01  4.69D-01  7.26D-01
                    CP:  8.22D-01  6.96D-01
 E= -1096.93990689323     Delta-E=       -0.000000000016 Rises=F Damp=F
 DIIS: error= 5.27D-08 at cycle   8 NSaved=   8.
 NSaved= 8 IEnMin= 8 EnMin= -1096.93990689323     IErMin= 8 ErrMin= 5.27D-08
 ErrMax= 5.27D-08 EMaxC= 1.00D-01 BMatC= 2.35D-12 BMatP= 1.27D-11
 IDIUse=1 WtCom= 1.00D+00 WtEn= 0.00D+00
 Coeff-Com: -0.485D-04-0.922D-03-0.234D-02 0.158D-03 0.170D-01 0.114D+00
 Coeff-Com:  0.367D+00 0.505D+00
 Coeff:     -0.485D-04-0.922D-03-0.234D-02 0.158D-03 0.170D-01 0.114D+00
 Coeff:      0.367D+00 0.505D+00
 Gap=     0.154 Goal=   None    Shift=    0.000
 RMSDP=4.31D-09 MaxDP=2.74D-07 DE=-1.59D-11 OVMax= 3.38D-07

 SCF Done:  E(RB3LYP) =  -1096.93990689     A.U. after   16 cycles
             Convg  =    0.4310D-08             -V/T =  2.0098
 KE= 1.086289797897D+03 PE=-6.960366686553D+03 EE= 2.571158782253D+03
 Leave Link  502 at Wed Sep 29 08:16:35 2021, MaxMem= 2147483648 cpu:    1423.2
 (Enter /sw/target/amd/app/gaussian/Gaussian09RevA.02_gcc-4.9.2/g09/l508.exe)
 QCSCF skips out because SCF is already converged.
 Leave Link  508 at Wed Sep 29 08:16:35 2021, MaxMem= 2147483648 cpu:       0.0
 (Enter /sw/target/amd/app/gaussian/Gaussian09RevA.02_gcc-4.9.2/g09/l601.exe)
 Copying SCF densities to generalized density rwf, IOpCl= 0 IROHF=0.

 **********************************************************************

            Population analysis using the SCF density.

 **********************************************************************

 Orbital symmetries:
       Occupied  (A) (A) (A) (A) (A) (A) (A) (A) (A) (A) (A) (A)
                 (A) (A) (A) (A) (A) (A) (A) (A) (A) (A) (A) (A)
                 (A) (A) (A) (A) (A) (A) (A) (A) (A) (A) (A) (A)
                 (A) (A) (A) (A) (A) (A) (A) (A) (A) (A) (A) (A)
                 (A) (A) (A) (A) (A) (A) (A) (A) (A) (A) (A) (A)
                 (A) (A) (A) (A) (A) (A) (A) (A) (A) (A) (A) (A)
                 (A) (A) (A) (A) (A) (A) (A) (A) (A) (A) (A) (A)
                 (A) (A) (A) (A) (A) (A) (A) (A)
       Virtual   (A) (A) (A) (A) (A) (A) (A) (A) (A) (A) (A) (A)
                 (A) (A) (A) (A) (A) (A) (A) (A) (A) (A) (A) (A)
                 (A) (A) (A) (A) (A) (A) (A) (A) (A) (A) (A) (A)
                 (A) (A) (A) (A) (A) (A) (A) (A) (A) (A) (A) (A)
                 (A) (A) (A) (A) (A) (A) (A) (A) (A) (A) (A) (A)
                 (A) (A) (A) (A) (A) (A) (A) (A) (A) (A) (A) (A)
                 (A) (A) (A) (A) (A) (A) (A) (A) (A) (A) (A) (A)
                 (A) (A) (A) (A) (A) (A) (A) (A) (A) (A) (A) (A)
                 (A) (A) (A) (A) (A) (A) (A) (A) (A) (A) (A) (A)
                 (A) (A) (A) (A) (A) (A) (A) (A) (A) (A) (A) (A)
                 (A) (A) (A) (A) (A) (A) (A) (A) (A) (A) (A) (A)
                 (A) (A) (A) (A) (A) (A) (A) (A) (A) (A) (A) (A)
                 (A) (A) (A) (A) (A) (A) (A) (A) (A) (A) (A) (A)
                 (A) (A) (A) (A) (A) (A) (A) (A) (A) (A) (A) (A)
                 (A) (A) (A) (A) (A) (A) (A) (A) (A) (A) (A) (A)
                 (A) (A) (A) (A) (A) (A) (A) (A) (A) (A) (A) (A)
                 (A) (A) (A) (A) (A) (A) (A) (A) (A) (A) (A) (A)
                 (A) (A) (A) (A) (A) (A) (A) (A) (A) (A) (A) (A)
                 (A) (A) (A) (A) (A) (A) (A) (A) (A) (A) (A) (A)
                 (A) (A) (A) (A) (A) (A) (A) (A) (A) (A) (A) (A)
                 (A) (A) (A) (A) (A) (A) (A) (A) (A) (A) (A) (A)
                 (A) (A) (A) (A) (A) (A) (A) (A) (A) (A) (A) (A)
                 (A) (A) (A) (A) (A) (A) (A) (A) (A) (A) (A) (A)
                 (A) (A) (A) (A) (A) (A) (A) (A) (A) (A) (A) (A)
                 (A) (A) (A) (A) (A) (A) (A) (A) (A) (A) (A) (A)
                 (A) (A) (A) (A) (A) (A) (A) (A) (A) (A) (A) (A)
                 (A) (A) (A) (A) (A) (A) (A) (A) (A) (A) (A) (A)
                 (A) (A) (A) (A) (A) (A) (A) (A) (A) (A) (A) (A)
                 (A)
 The electronic state is 1-A.
 Alpha  occ. eigenvalues --  -19.20309 -19.14650 -19.10731 -14.37151 -10.32392
 Alpha  occ. eigenvalues --  -10.28423 -10.25527 -10.23081 -10.22616 -10.21539
 Alpha  occ. eigenvalues --  -10.20943 -10.20260 -10.20113 -10.19468 -10.19099
 Alpha  occ. eigenvalues --  -10.18940 -10.18805 -10.18793 -10.18663 -10.18281
 Alpha  occ. eigenvalues --  -10.18231 -10.18201 -10.18135 -10.17480 -10.16561
 Alpha  occ. eigenvalues --   -1.09138  -1.02248  -1.01944  -0.93585  -0.87017
 Alpha  occ. eigenvalues --   -0.82861  -0.81980  -0.81292  -0.76708  -0.74972
 Alpha  occ. eigenvalues --   -0.71877  -0.71043  -0.69501  -0.69391  -0.68663
 Alpha  occ. eigenvalues --   -0.67756  -0.66536  -0.62588  -0.61744  -0.61341
 Alpha  occ. eigenvalues --   -0.57896  -0.55392  -0.54176  -0.51018  -0.50763
 Alpha  occ. eigenvalues --   -0.49378  -0.48574  -0.47880  -0.47462  -0.46871
 Alpha  occ. eigenvalues --   -0.46132  -0.44928  -0.44511  -0.44202  -0.43407
 Alpha  occ. eigenvalues --   -0.43094  -0.42824  -0.42332  -0.41842  -0.41366
 Alpha  occ. eigenvalues --   -0.40735  -0.40080  -0.39697  -0.39506  -0.39141
 Alpha  occ. eigenvalues --   -0.38158  -0.38037  -0.37912  -0.36634  -0.36574
 Alpha  occ. eigenvalues --   -0.36145  -0.35932  -0.35191  -0.34780  -0.34107
 Alpha  occ. eigenvalues --   -0.33616  -0.33355  -0.33128  -0.32835  -0.31997
 Alpha  occ. eigenvalues --   -0.31694  -0.27583  -0.27218  -0.24963  -0.24282
 Alpha  occ. eigenvalues --   -0.23555  -0.20021
 Alpha virt. eigenvalues --   -0.04635  -0.00594  -0.00183   0.01707   0.04301
 Alpha virt. eigenvalues --    0.07125   0.07489   0.09334   0.09924   0.10401
 Alpha virt. eigenvalues --    0.11379   0.11671   0.12398   0.12655   0.13395
 Alpha virt. eigenvalues --    0.13591   0.14192   0.15099   0.15190   0.15333
 Alpha virt. eigenvalues --    0.15721   0.16136   0.16473   0.17354   0.17647
 Alpha virt. eigenvalues --    0.17677   0.19004   0.19250   0.19423   0.19711
 Alpha virt. eigenvalues --    0.20340   0.20492   0.21016   0.21278   0.21750
 Alpha virt. eigenvalues --    0.22090   0.22590   0.23255   0.23412   0.24548
 Alpha virt. eigenvalues --    0.25147   0.25566   0.25907   0.27514   0.27960
 Alpha virt. eigenvalues --    0.28585   0.29445   0.30752   0.32195   0.33164
 Alpha virt. eigenvalues --    0.33442   0.35402   0.36808   0.37884   0.39574
 Alpha virt. eigenvalues --    0.40775   0.45695   0.47422   0.48606   0.49504
 Alpha virt. eigenvalues --    0.49890   0.50055   0.50652   0.50904   0.51213
 Alpha virt. eigenvalues --    0.51316   0.52364   0.52889   0.53970   0.54567
 Alpha virt. eigenvalues --    0.54950   0.55684   0.56814   0.57228   0.58301
 Alpha virt. eigenvalues --    0.58596   0.59489   0.59645   0.60252   0.60697
 Alpha virt. eigenvalues --    0.60785   0.61683   0.61847   0.62073   0.62404
 Alpha virt. eigenvalues --    0.63299   0.64516   0.64981   0.65724   0.66196
 Alpha virt. eigenvalues --    0.67067   0.67939   0.68086   0.68967   0.69608
 Alpha virt. eigenvalues --    0.69914   0.70900   0.70999   0.71773   0.72553
 Alpha virt. eigenvalues --    0.73262   0.74184   0.75472   0.77254   0.79973
 Alpha virt. eigenvalues --    0.80180   0.80925   0.82034   0.82734   0.83351
 Alpha virt. eigenvalues --    0.83470   0.84261   0.84426   0.85356   0.85758
 Alpha virt. eigenvalues --    0.86559   0.87052   0.87240   0.88170   0.88553
 Alpha virt. eigenvalues --    0.88840   0.89142   0.89240   0.89492   0.89970
 Alpha virt. eigenvalues --    0.90237   0.90609   0.91374   0.91786   0.92146
 Alpha virt. eigenvalues --    0.92602   0.93244   0.93420   0.93859   0.94859
 Alpha virt. eigenvalues --    0.95337   0.95781   0.96461   0.96973   0.97356
 Alpha virt. eigenvalues --    0.97754   0.98312   0.98879   0.99462   1.00568
 Alpha virt. eigenvalues --    1.01332   1.01767   1.03697   1.04184   1.04693
 Alpha virt. eigenvalues --    1.06322   1.06863   1.08071   1.08568   1.11428
 Alpha virt. eigenvalues --    1.12480   1.13825   1.14116   1.15549   1.16516
 Alpha virt. eigenvalues --    1.18104   1.19555   1.20170   1.22535   1.23791
 Alpha virt. eigenvalues --    1.24169   1.26070   1.27640   1.28241   1.31998
 Alpha virt. eigenvalues --    1.33308   1.34086   1.35030   1.36060   1.39346
 Alpha virt. eigenvalues --    1.40221   1.41585   1.42844   1.44010   1.44244
 Alpha virt. eigenvalues --    1.45458   1.47716   1.47961   1.48218   1.48943
 Alpha virt. eigenvalues --    1.49669   1.50056   1.50870   1.51465   1.53461
 Alpha virt. eigenvalues --    1.55279   1.57646   1.61250   1.62200   1.64931
 Alpha virt. eigenvalues --    1.65046   1.66904   1.67740   1.69236   1.70936
 Alpha virt. eigenvalues --    1.72128   1.72652   1.74949   1.75922   1.76957
 Alpha virt. eigenvalues --    1.78336   1.79216   1.79904   1.81731   1.82019
 Alpha virt. eigenvalues --    1.83190   1.83460   1.84777   1.86249   1.86648
 Alpha virt. eigenvalues --    1.87169   1.87748   1.88055   1.88901   1.89328
 Alpha virt. eigenvalues --    1.90391   1.92453   1.92875   1.94224   1.94771
 Alpha virt. eigenvalues --    1.96196   1.97093   1.97757   1.98953   1.99122
 Alpha virt. eigenvalues --    2.00210   2.00500   2.02649   2.03321   2.04077
 Alpha virt. eigenvalues --    2.05364   2.07227   2.07856   2.08737   2.09499
 Alpha virt. eigenvalues --    2.09687   2.09911   2.10838   2.13289   2.14132
 Alpha virt. eigenvalues --    2.14646   2.15630   2.18498   2.20552   2.21133
 Alpha virt. eigenvalues --    2.21727   2.22714   2.23966   2.24594   2.25605
 Alpha virt. eigenvalues --    2.26109   2.26239   2.26761   2.26907   2.27465
 Alpha virt. eigenvalues --    2.28555   2.28661   2.28934   2.29320   2.30821
 Alpha virt. eigenvalues --    2.31501   2.32709   2.33010   2.37609   2.38261
 Alpha virt. eigenvalues --    2.40917   2.42624   2.44003   2.44631   2.47926
 Alpha virt. eigenvalues --    2.51572   2.52380   2.53406   2.53736   2.55565
 Alpha virt. eigenvalues --    2.57526   2.58682   2.60305   2.62656   2.63214
 Alpha virt. eigenvalues --    2.64945   2.65890   2.67346   2.68376   2.69644
 Alpha virt. eigenvalues --    2.70285   2.70957   2.71987   2.73306   2.75439
 Alpha virt. eigenvalues --    2.78925   2.79870   2.82143   2.83688   2.85726
 Alpha virt. eigenvalues --    2.89367   2.92267   2.95285   2.97427   2.98679
 Alpha virt. eigenvalues --    3.05063   3.07198   3.11056   3.18669   3.25180
 Alpha virt. eigenvalues --    3.39924   3.49870   4.06438   4.07148   4.09081
 Alpha virt. eigenvalues --    4.10269   4.11025   4.13445   4.14777   4.17153
 Alpha virt. eigenvalues --    4.21272   4.23327   4.29115   4.30398   4.30620
 Alpha virt. eigenvalues --    4.30860   4.32721   4.34357   4.36576   4.39732
 Alpha virt. eigenvalues --    4.46358   4.53198   4.54832   4.57798   4.72593
 Alpha virt. eigenvalues --    4.73785   4.88469
          Condensed to atoms (all electrons):
 Mulliken atomic charges:
              1
     1  C   -0.332736
     2  N   -0.532827
     3  C    0.584759
     4  O   -0.501480
     5  C    0.007688
     6  C   -0.458664
     7  C   -0.425069
     8  C   -0.464283
     9  C    0.209627
    10  C   -0.166951
    11  C   -0.163055
    12  C    0.283995
    13  C    0.070410
    14  C    0.158692
    15  C   -0.182244
    16  C   -0.127966
    17  C   -0.127573
    18  C   -0.197844
    19  O   -0.556307
    20  C    0.644927
    21  O   -0.462873
    22  C   -0.001828
    23  C   -0.457665
    24  C   -0.433371
    25  C   -0.451543
    26  H    0.172013
    27  H    0.166810
    28  H    0.179567
    29  H    0.158802
    30  H    0.139750
    31  H    0.152385
    32  H    0.159501
    33  H    0.126545
    34  H    0.150229
    35  H    0.143443
    36  H    0.154123
    37  H    0.154159
    38  H    0.138105
    39  H    0.166166
    40  H    0.134563
    41  H    0.130884
    42  H    0.130550
    43  H    0.145752
    44  H    0.155750
    45  H    0.165350
    46  H    0.149895
    47  H    0.157839
    48  H    0.138813
    49  H    0.151637
    50  H    0.163586
    51  H    0.149094
    52  H    0.148868
 Sum of Mulliken atomic charges =  -0.00000
 Mulliken charges with hydrogens summed into heavy atoms:
              1
     1  C    0.185654
     2  N   -0.532827
     3  C    0.584759
     4  O   -0.501480
     5  C    0.007688
     6  C   -0.007727
     7  C    0.011206
     8  C   -0.012558
     9  C    0.209627
    10  C   -0.028846
    11  C    0.003111
    12  C    0.283995
    13  C    0.070410
    14  C    0.158692
    15  C   -0.047681
    16  C    0.002918
    17  C    0.002977
    18  C   -0.052091
    19  O   -0.556307
    20  C    0.644927
    21  O   -0.462873
    22  C   -0.001828
    23  C    0.013330
    24  C    0.014918
    25  C    0.010006
 Sum of Mulliken charges with hydrogens summed into heavy atoms =  -0.00000
 Electronic spatial extent (au):  <R**2>=          12043.5171
 Charge=             -0.0000 electrons
 Dipole moment (field-independent basis, Debye):
    X=             -0.5336    Y=              0.0103    Z=             -3.4497  Tot=              3.4908
 Quadrupole moment (field-independent basis, Debye-Ang):
   XX=           -124.8803   YY=           -143.1133   ZZ=           -153.1156
   XY=              9.5552   XZ=              6.5394   YZ=              4.1855
 Traceless Quadrupole moment (field-independent basis, Debye-Ang):
   XX=             15.4894   YY=             -2.7436   ZZ=            -12.7459
   XY=              9.5552   XZ=              6.5394   YZ=              4.1855
 Octapole moment (field-independent basis, Debye-Ang**2):
  XXX=             28.2580  YYY=             22.7327  ZZZ=              0.8306  XYY=            -18.5052
  XXY=             -1.6499  XXZ=            -19.3466  XZZ=              6.8701  YZZ=            -15.1529
  YYZ=             -6.4265  XYZ=             11.3375
 Hexadecapole moment (field-independent basis, Debye-Ang**3):
 XXXX=         -12156.7223 YYYY=          -2170.1443 ZZZZ=           -874.1968 XXXY=             94.3233
 XXXZ=             30.9093 YYYX=              8.4923 YYYZ=             31.4717 ZZZX=             38.3597
 ZZZY=              3.0030 XXYY=          -2577.7028 XXZZ=          -2341.3533 YYZZ=           -555.0287
 XXYZ=             26.9138 YYXZ=            -18.4368 ZZXY=             13.5232
 N-N= 2.205978199509D+03 E-N=-6.960366698190D+03  KE= 1.086289797897D+03
 No NMR shielding tensors so no spin-rotation constants.
 Leave Link  601 at Wed Sep 29 08:16:40 2021, MaxMem= 2147483648 cpu:       3.8
 (Enter /sw/target/amd/app/gaussian/Gaussian09RevA.02_gcc-4.9.2/g09/l701.exe)
 Compute integral first derivatives.
 ... and contract with generalized density number  0.
 Leave Link  701 at Wed Sep 29 08:16:44 2021, MaxMem= 2147483648 cpu:       3.1
 (Enter /sw/target/amd/app/gaussian/Gaussian09RevA.02_gcc-4.9.2/g09/l702.exe)
 L702 exits ... SP integral derivatives will be done elsewhere.
 Leave Link  702 at Wed Sep 29 08:16:44 2021, MaxMem= 2147483648 cpu:       0.1
 (Enter /sw/target/amd/app/gaussian/Gaussian09RevA.02_gcc-4.9.2/g09/l703.exe)
 Compute integral first derivatives, UseDBF=F ICtDFT=           0.
 Integral derivatives from FoFDir, PRISM(SPDF).
 Calling FoFJK, ICntrl=      2127 FMM=F ISym2X=0 I1Cent= 0 IOpClX= 0 NMat=1 NMatS=1 NMatT=0.
 FoFCou: FMM=F IPFlag=           0 FMFlag=      100000 FMFlg1=         800
         NFxFlg=           0 DoJE=F BraDBF=F KetDBF=F FulRan=T
         Omega=  0.000000  0.000000  1.000000  0.000000  0.000000 ICntrl=    2127 IOpCl=  0
         NMat0=    1 NMatS0=    1 NMatT0=    0 NMatD0=    1 NMtDS0=    0 NMtDT0=    0
         I1Cent=           0 NGrid=           0.
 Symmetry not used in FoFCou.
 Leave Link  703 at Wed Sep 29 08:20:54 2021, MaxMem= 2147483648 cpu:     381.2
 (Enter /sw/target/amd/app/gaussian/Gaussian09RevA.02_gcc-4.9.2/g09/l716.exe)
 Dipole        =-2.09951917D-01 4.06968616D-03-1.35723148D+00
 ***** Axes restored to original set *****
 -------------------------------------------------------------------
 Center     Atomic                   Forces (Hartrees/Bohr)
 Number     Number              X              Y              Z
 -------------------------------------------------------------------
      1        6          -0.002381473    0.003131882   -0.002165286
      2        7           0.011880943    0.000149477    0.010257957
      3        6          -0.004436356    0.000695007    0.019109664
      4        8           0.001096060   -0.006480713   -0.023509003
      5        6          -0.004081245    0.012325595    0.005877923
      6        6          -0.004559466   -0.006519777   -0.004434545
      7        6           0.002099741   -0.003175430    0.009467814
      8        6           0.004526409    0.000437578   -0.008429606
      9        6          -0.016496735   -0.010628546   -0.002335251
     10        6           0.005501711    0.027823605   -0.000340029
     11        6           0.013381640   -0.010682114    0.009811663
     12        6          -0.014335442   -0.026351430   -0.002062903
     13        6           0.006161184   -0.008604121    0.008258429
     14        6          -0.002887814    0.007081070   -0.008352181
     15        6           0.010191463    0.012216685    0.004210559
     16        6          -0.019565378    0.012284893   -0.017201897
     17        6          -0.002410721   -0.028344272    0.008073144
     18        6           0.017339225    0.008205700    0.009091524
     19        8          -0.013057776    0.002741348   -0.000684596
     20        6          -0.018002120    0.006366430   -0.002620361
     21        8           0.030553054    0.007601494   -0.002537360
     22        6           0.000376999   -0.007243410    0.002508109
     23        6           0.003741043    0.008704932    0.004349842
     24        6          -0.008529717    0.000149257   -0.000232012
     25        6           0.005832947    0.003412141   -0.008203797
     26        1          -0.003241230    0.002952558   -0.002525089
     27        1          -0.001009588   -0.001503167   -0.006641587
     28        1          -0.000831429    0.001341386    0.006086759
     29        1          -0.000960417    0.000989450    0.000564565
     30        1          -0.000126246   -0.001647941   -0.001393621
     31        1           0.001628889    0.001235609    0.001432612
     32        1           0.003339775    0.000297110   -0.001955269
     33        1           0.000570867   -0.002204870   -0.005068772
     34        1          -0.001435105   -0.001710519    0.000312566
     35        1           0.001841934   -0.002048586   -0.001952389
     36        1           0.000297210    0.001579721   -0.000329355
     37        1          -0.000473547   -0.000715750    0.002840619
     38        1           0.001467622    0.002735556   -0.000376438
     39        1           0.003414734    0.001804818    0.003693975
     40        1          -0.002138127   -0.004155806    0.000182869
     41        1          -0.000726762   -0.000455464   -0.001220912
     42        1          -0.000125827   -0.001775235    0.000523541
     43        1          -0.003798544   -0.000560805   -0.002355697
     44        1          -0.000109429   -0.000747604    0.000441515
     45        1           0.000223060   -0.000780728   -0.000634030
     46        1          -0.001022551   -0.001721151   -0.001020697
     47        1           0.000674988    0.000070860   -0.001151249
     48        1           0.002691179    0.001998618   -0.000882693
     49        1           0.000348906    0.000793717    0.000640289
     50        1          -0.000558859    0.000138519    0.000838197
     51        1          -0.000121571   -0.000962563    0.000229125
     52        1          -0.001758110   -0.000245015    0.001813366
 -------------------------------------------------------------------
 Cartesian Forces:  Max     0.030553054 RMS     0.007666741
 Leave Link  716 at Wed Sep 29 08:20:55 2021, MaxMem= 2147483648 cpu:       0.1
 (Enter /sw/target/amd/app/gaussian/Gaussian09RevA.02_gcc-4.9.2/g09/l103.exe)

 GradGradGradGradGradGradGradGradGradGradGradGradGradGradGradGradGradGrad
 Berny optimization.
 Internal  Forces:  Max     0.030899846 RMS     0.004864670
 Search for a local minimum.
 Step number   1 out of a maximum of  285
 All quantities printed in internal units (Hartrees-Bohrs-Radians)
 RMS Force = .48647D-02 SwitMx=.10000D-02 MixMth= 1
 Mixed Optimization -- RFO/linear search
 Second derivative matrix not updated -- first step.
     Eigenvalues ---    0.00230   0.00230   0.00252   0.00306   0.00308
     Eigenvalues ---    0.00312   0.00318   0.00326   0.00664   0.00834
     Eigenvalues ---    0.00888   0.01109   0.01290   0.01371   0.01646
     Eigenvalues ---    0.01663   0.01682   0.01801   0.01821   0.01856
     Eigenvalues ---    0.01913   0.01967   0.02016   0.02020   0.02024
     Eigenvalues ---    0.02131   0.02155   0.02202   0.02208   0.02220
     Eigenvalues ---    0.02249   0.04250   0.04783   0.05188   0.05236
     Eigenvalues ---    0.05303   0.05338   0.05368   0.05374   0.05391
     Eigenvalues ---    0.05409   0.05409   0.05409   0.05426   0.05441
     Eigenvalues ---    0.05445   0.05460   0.05477   0.05757   0.07375
     Eigenvalues ---    0.07474   0.14762   0.14906   0.14997   0.15145
     Eigenvalues ---    0.15983   0.15999   0.15999   0.16000   0.16000
     Eigenvalues ---    0.16000   0.16000   0.16000   0.16000   0.16000
     Eigenvalues ---    0.16000   0.16000   0.16000   0.16000   0.16000
     Eigenvalues ---    0.16000   0.16000   0.16000   0.16000   0.16000
     Eigenvalues ---    0.16000   0.16000   0.16000   0.16000   0.16000
     Eigenvalues ---    0.16000   0.16000   0.21999   0.22467   0.22567
     Eigenvalues ---    0.24368   0.24469   0.24492   0.24586   0.24939
     Eigenvalues ---    0.24967   0.24986   0.24995   0.24999   0.25000
     Eigenvalues ---    0.25000   0.25000   0.26788   0.27360   0.28623
     Eigenvalues ---    0.28988   0.29004   0.29028   0.29068   0.29121
     Eigenvalues ---    0.33906   0.34039   0.34047   0.34080   0.34093
     Eigenvalues ---    0.34093   0.34094   0.34104   0.34105   0.34130
     Eigenvalues ---    0.34132   0.34157   0.34159   0.34173   0.34178
     Eigenvalues ---    0.34195   0.34220   0.34549   0.34625   0.34637
     Eigenvalues ---    0.35067   0.35097   0.35154   0.35161   0.35223
     Eigenvalues ---    0.35273   0.35357   0.36866   0.37622   0.39033
     Eigenvalues ---    0.39523   0.40328   0.41753   0.41828   0.42814
     Eigenvalues ---    0.44172   0.45258   0.45275   0.45494   0.45668
     Eigenvalues ---    0.45879   0.47018   0.47642   0.87280   0.93603
     Eigenvalues --- 1000.000001000.000001000.000001000.000001000.00000
     Eigenvalues --- 1000.000001000.000001000.000001000.000001000.00000
     Eigenvalues --- 1000.000001000.000001000.000001000.000001000.00000
     Eigenvalues --- 1000.000001000.000001000.000001000.000001000.00000
     Eigenvalues --- 1000.000001000.000001000.000001000.000001000.00000
     Eigenvalues --- 1000.000001000.000001000.000001000.000001000.00000
     Eigenvalues --- 1000.000001000.000001000.000001000.000001000.00000
     Eigenvalues --- 1000.000001000.000001000.000001000.000001000.00000
     Eigenvalues --- 1000.000001000.000001000.000001000.000001000.00000
     Eigenvalues --- 1000.000001000.000001000.000001000.000001000.00000
[...]
   230    C   16  px     Val( 2p)     1.09453
   231    C   16  px     Ryd( 3p)     0.00487
   232    C   16  py     Val( 2p)     1.15434
   233    C   16  py     Ryd( 3p)     0.00490
   234    C   16  pz     Val( 2p)     1.00336
   235    C   16  pz     Ryd( 3p)     0.00200
   236    C   16  dxy    Ryd( 3d)     0.00085
   237    C   16  dxz    Ryd( 3d)     0.00057
   238    C   16  dyz    Ryd( 3d)     0.00052
   239    C   16  dx2y2  Ryd( 3d)     0.00063
   240    C   16  dz2    Ryd( 3d)     0.00046

   241    C   17  S      Cor( 1S)     1.99911
   242    C   17  S      Val( 2S)     0.96329
   243    C   17  S      Ryd( 3S)     0.00062
   244    C   17  S      Ryd( 4S)     0.00003
   245    C   17  px     Val( 2p)     1.08719
   246    C   17  px     Ryd( 3p)     0.00475
   247    C   17  py     Val( 2p)     1.15833
   248    C   17  py     Ryd( 3p)     0.00484
   249    C   17  pz     Val( 2p)     1.00165
   250    C   17  pz     Ryd( 3p)     0.00198
   251    C   17  dxy    Ryd( 3d)     0.00082
   252    C   17  dxz    Ryd( 3d)     0.00062
   253    C   17  dyz    Ryd( 3d)     0.00053
   254    C   17  dx2y2  Ryd( 3d)     0.00065
   255    C   17  dz2    Ryd( 3d)     0.00042

   256    C   18  S      Cor( 1S)     1.99907
   257    C   18  S      Val( 2S)     0.94777
   258    C   18  S      Ryd( 3S)     0.00071
   259    C   18  S      Ryd( 4S)     0.00005
   260    C   18  px     Val( 2p)     1.19719
   261    C   18  px     Ryd( 3p)     0.00466
   262    C   18  py     Val( 2p)     1.04427
   263    C   18  py     Ryd( 3p)     0.00446
   264    C   18  pz     Val( 2p)     1.01832
   265    C   18  pz     Ryd( 3p)     0.00378
   266    C   18  dxy    Ryd( 3d)     0.00063
   267    C   18  dxz    Ryd( 3d)     0.00034
   268    C   18  dyz    Ryd( 3d)     0.00055
   269    C   18  dx2y2  Ryd( 3d)     0.00084
   270    C   18  dz2    Ryd( 3d)     0.00044

   271    O   19  S      Cor( 1S)     1.99969
   272    O   19  S      Val( 2S)     1.59642
   273    O   19  S      Ryd( 3S)     0.00135
   274    O   19  S      Ryd( 4S)     0.00011
   275    O   19  px     Val( 2p)     1.46023
   276    O   19  px     Ryd( 3p)     0.00107
   277    O   19  py     Val( 2p)     1.75241
   278    O   19  py     Ryd( 3p)     0.00203
   279    O   19  pz     Val( 2p)     1.71007
   280    O   19  pz     Ryd( 3p)     0.00140
   281    O   19  dxy    Ryd( 3d)     0.00097
   282    O   19  dxz    Ryd( 3d)     0.00085
   283    O   19  dyz    Ryd( 3d)     0.00105
   284    O   19  dx2y2  Ryd( 3d)     0.00117
   285    O   19  dz2    Ryd( 3d)     0.00102

   286    C   20  S      Cor( 1S)     1.99927
   287    C   20  S      Val( 2S)     0.77751
   288    C   20  S      Ryd( 3S)     0.00666
   289    C   20  S      Ryd( 4S)     0.00049
   290    C   20  px     Val( 2p)     0.87804
   291    C   20  px     Ryd( 3p)     0.00676
   292    C   20  py     Val( 2p)     0.72424
   293    C   20  py     Ryd( 3p)     0.01684
   294    C   20  pz     Val( 2p)     0.75239
   295    C   20  pz     Ryd( 3p)     0.00884
   296    C   20  dxy    Ryd( 3d)     0.00264
   297    C   20  dxz    Ryd( 3d)     0.00168
   298    C   20  dyz    Ryd( 3d)     0.00140
   299    C   20  dx2y2  Ryd( 3d)     0.00215
   300    C   20  dz2    Ryd( 3d)     0.00166

   301    O   21  S      Cor( 1S)     1.99977
   302    O   21  S      Val( 2S)     1.69494
   303    O   21  S      Ryd( 3S)     0.00058
   304    O   21  S      Ryd( 4S)     0.00013
   305    O   21  px     Val( 2p)     1.80489
   306    O   21  px     Ryd( 3p)     0.00157
   307    O   21  py     Val( 2p)     1.56815
   308    O   21  py     Ryd( 3p)     0.00078
   309    O   21  pz     Val( 2p)     1.49091
   310    O   21  pz     Ryd( 3p)     0.00089
   311    O   21  dxy    Ryd( 3d)     0.00360
   312    O   21  dxz    Ryd( 3d)     0.00193
   313    O   21  dyz    Ryd( 3d)     0.00415
   314    O   21  dx2y2  Ryd( 3d)     0.00373
   315    O   21  dz2    Ryd( 3d)     0.00292

   316    C   22  S      Cor( 1S)     1.99905
   317    C   22  S      Val( 2S)     0.94073
   318    C   22  S      Ryd( 3S)     0.00046
   319    C   22  S      Ryd( 4S)     0.00003
   320    C   22  px     Val( 2p)     1.06231
   321    C   22  px     Ryd( 3p)     0.00190
   322    C   22  py     Val( 2p)     1.06990
   323    C   22  py     Ryd( 3p)     0.00344
   324    C   22  pz     Val( 2p)     1.06571
   325    C   22  pz     Ryd( 3p)     0.00267
   326    C   22  dxy    Ryd( 3d)     0.00060
   327    C   22  dxz    Ryd( 3d)     0.00050
   328    C   22  dyz    Ryd( 3d)     0.00075
   329    C   22  dx2y2  Ryd( 3d)     0.00109
   330    C   22  dz2    Ryd( 3d)     0.00098

   331    C   23  S      Cor( 1S)     1.99938
   332    C   23  S      Val( 2S)     1.09461
   333    C   23  S      Ryd( 3S)     0.00058
   334    C   23  S      Ryd( 4S)     0.00002
   335    C   23  px     Val( 2p)     1.24174
   336    C   23  px     Ryd( 3p)     0.00201
   337    C   23  py     Val( 2p)     1.09842
   338    C   23  py     Ryd( 3p)     0.00169
   339    C   23  pz     Val( 2p)     1.22461
   340    C   23  pz     Ryd( 3p)     0.00227
   341    C   23  dxy    Ryd( 3d)     0.00061
   342    C   23  dxz    Ryd( 3d)     0.00032
   343    C   23  dyz    Ryd( 3d)     0.00058
   344    C   23  dx2y2  Ryd( 3d)     0.00081
   345    C   23  dz2    Ryd( 3d)     0.00104

   346    C   24  S      Cor( 1S)     1.99940
   347    C   24  S      Val( 2S)     1.09078
   348    C   24  S      Ryd( 3S)     0.00059
   349    C   24  S      Ryd( 4S)     0.00002
   350    C   24  px     Val( 2p)     1.18526
   351    C   24  px     Ryd( 3p)     0.00264
   352    C   24  py     Val( 2p)     1.16690
   353    C   24  py     Ryd( 3p)     0.00215
   354    C   24  pz     Val( 2p)     1.21607
   355    C   24  pz     Ryd( 3p)     0.00238
   356    C   24  dxy    Ryd( 3d)     0.00040
   357    C   24  dxz    Ryd( 3d)     0.00027
   358    C   24  dyz    Ryd( 3d)     0.00050
   359    C   24  dx2y2  Ryd( 3d)     0.00106
   360    C   24  dz2    Ryd( 3d)     0.00111

   361    C   25  S      Cor( 1S)     1.99938
   362    C   25  S      Val( 2S)     1.09601
   363    C   25  S      Ryd( 3S)     0.00058
   364    C   25  S      Ryd( 4S)     0.00002
   365    C   25  px     Val( 2p)     1.23968
   366    C   25  px     Ryd( 3p)     0.00184
   367    C   25  py     Val( 2p)     1.25157
   368    C   25  py     Ryd( 3p)     0.00236
   369    C   25  pz     Val( 2p)     1.07343
   370    C   25  pz     Ryd( 3p)     0.00155
   371    C   25  dxy    Ryd( 3d)     0.00049
   372    C   25  dxz    Ryd( 3d)     0.00044
   373    C   25  dyz    Ryd( 3d)     0.00085
   374    C   25  dx2y2  Ryd( 3d)     0.00090
   375    C   25  dz2    Ryd( 3d)     0.00068

   376    H   26  S      Val( 1S)     0.77168
   377    H   26  S      Ryd( 2S)     0.00107

   378    H   27  S      Val( 1S)     0.77602
   379    H   27  S      Ryd( 2S)     0.00153

   380    H   28  S      Val( 1S)     0.75747
   381    H   28  S      Ryd( 2S)     0.00115

   382    H   29  S      Val( 1S)     0.76015
   383    H   29  S      Ryd( 2S)     0.00094

   384    H   30  S      Val( 1S)     0.77228
   385    H   30  S      Ryd( 2S)     0.00092

   386    H   31  S      Val( 1S)     0.76120
   387    H   31  S      Ryd( 2S)     0.00108

   388    H   32  S      Val( 1S)     0.75470
   389    H   32  S      Ryd( 2S)     0.00104

   390    H   33  S      Val( 1S)     0.77497
   391    H   33  S      Ryd( 2S)     0.00099

   392    H   34  S      Val( 1S)     0.75046
   393    H   34  S      Ryd( 2S)     0.00112

   394    H   35  S      Val( 1S)     0.77672
   395    H   35  S      Ryd( 2S)     0.00075

   396    H   36  S      Val( 1S)     0.75751
   397    H   36  S      Ryd( 2S)     0.00100

   398    H   37  S      Val( 1S)     0.76129
   399    H   37  S      Ryd( 2S)     0.00112

   400    H   38  S      Val( 1S)     0.75403
   401    H   38  S      Ryd( 2S)     0.00084

   402    H   39  S      Val( 1S)     0.73848
   403    H   39  S      Ryd( 2S)     0.00117

   404    H   40  S      Val( 1S)     0.76349
   405    H   40  S      Ryd( 2S)     0.00117

   406    H   41  S      Val( 1S)     0.76452
   407    H   41  S      Ryd( 2S)     0.00082

   408    H   42  S      Val( 1S)     0.76427
   409    H   42  S      Ryd( 2S)     0.00082

   410    H   43  S      Val( 1S)     0.75939
   411    H   43  S      Ryd( 2S)     0.00121

   412    H   44  S      Val( 1S)     0.76063
   413    H   44  S      Ryd( 2S)     0.00093

   414    H   45  S      Val( 1S)     0.76135
   415    H   45  S      Ryd( 2S)     0.00106

   416    H   46  S      Val( 1S)     0.76428
   417    H   46  S      Ryd( 2S)     0.00112

   418    H   47  S      Val( 1S)     0.75497
   419    H   47  S      Ryd( 2S)     0.00103

   420    H   48  S      Val( 1S)     0.76981
   421    H   48  S      Ryd( 2S)     0.00093

   422    H   49  S      Val( 1S)     0.75641
   423    H   49  S      Ryd( 2S)     0.00105

   424    H   50  S      Val( 1S)     0.75620
   425    H   50  S      Ryd( 2S)     0.00109

   426    H   51  S      Val( 1S)     0.76392
   427    H   51  S      Ryd( 2S)     0.00095

   428    H   52  S      Val( 1S)     0.76468
   429    H   52  S      Ryd( 2S)     0.00122

 WARNING:  1 low occupancy (<1.9990e) core orbital  found on  C    9
           1 low occupancy (<1.9990e) core orbital  found on  C   10
           1 low occupancy (<1.9990e) core orbital  found on  C   12
           1 low occupancy (<1.9990e) core orbital  found on  C   13
           1 low occupancy (<1.9990e) core orbital  found on  C   14


 Summary of Natural Population Analysis:                  
                                                          
                                       Natural Population 
                Natural  -----------------------------------------------
    Atom  No    Charge         Core      Valence    Rydberg      Total
 -----------------------------------------------------------------------
      C    1   -0.46196      1.99944     4.45185    0.01067     6.46196
      N    2   -0.49840      1.99927     5.48614    0.01299     7.49840
      C    3    0.71755      1.99927     3.23913    0.04405     5.28245
      O    4   -0.58683      1.99979     6.56890    0.01814     8.58683
      C    5   -0.13926      1.99908     4.12887    0.01131     6.13926
      C    6   -0.67161      1.99938     4.66258    0.00965     6.67161
      C    7   -0.66622      1.99941     4.65481    0.01200     6.66622
      C    8   -0.66766      1.99937     4.65880    0.00949     6.66766
      C    9    0.18677      1.99888     3.79092    0.02343     5.81323
      C   10   -0.22017      1.99898     4.20626    0.01494     6.22017
      C   11   -0.25280      1.99902     4.23829    0.01549     6.25280
      C   12    0.33960      1.99866     3.63870    0.02304     5.66040
      C   13   -0.07932      1.99897     4.06525    0.01510     6.07932
      C   14   -0.05183      1.99895     4.03768    0.01519     6.05183
      C   15   -0.22435      1.99906     4.20962    0.01567     6.22435
      C   16   -0.22920      1.99911     4.21461    0.01548     6.22920
      C   17   -0.22481      1.99911     4.21044    0.01526     6.22481
      C   18   -0.22308      1.99907     4.20754    0.01647     6.22308
      O   19   -0.52983      1.99969     6.51913    0.01101     8.52983
      C   20    0.81944      1.99927     3.13218    0.04910     5.18056
      O   21   -0.57894      1.99977     6.55889    0.02028     8.57894
      C   22   -0.15014      1.99905     4.13865    0.01243     6.15014
      C   23   -0.66868      1.99938     4.65938    0.00992     6.66868
      C   24   -0.66950      1.99940     4.65901    0.01109     6.66950
      C   25   -0.66979      1.99938     4.66069    0.00971     6.66979
      H   26    0.22725      0.00000     0.77168    0.00107     0.77275
      H   27    0.22245      0.00000     0.77602    0.00153     0.77755
      H   28    0.24138      0.00000     0.75747    0.00115     0.75862
      H   29    0.23891      0.00000     0.76015    0.00094     0.76109
      H   30    0.22680      0.00000     0.77228    0.00092     0.77320
      H   31    0.23771      0.00000     0.76120    0.00108     0.76229
      H   32    0.24426      0.00000     0.75470    0.00104     0.75574
      H   33    0.22405      0.00000     0.77497    0.00099     0.77595
      H   34    0.24843      0.00000     0.75046    0.00112     0.75157
      H   35    0.22254      0.00000     0.77672    0.00075     0.77746
      H   36    0.24149      0.00000     0.75751    0.00100     0.75851
      H   37    0.23759      0.00000     0.76129    0.00112     0.76241
      H   38    0.24513      0.00000     0.75403    0.00084     0.75487
      H   39    0.26035      0.00000     0.73848    0.00117     0.73965
      H   40    0.23534      0.00000     0.76349    0.00117     0.76466
      H   41    0.23466      0.00000     0.76452    0.00082     0.76534
      H   42    0.23491      0.00000     0.76427    0.00082     0.76509
      H   43    0.23940      0.00000     0.75939    0.00121     0.76060
      H   44    0.23844      0.00000     0.76063    0.00093     0.76156
      H   45    0.23759      0.00000     0.76135    0.00106     0.76241
      H   46    0.23460      0.00000     0.76428    0.00112     0.76540
      H   47    0.24400      0.00000     0.75497    0.00103     0.75600
      H   48    0.22926      0.00000     0.76981    0.00093     0.77074
      H   49    0.24253      0.00000     0.75641    0.00105     0.75747
      H   50    0.24271      0.00000     0.75620    0.00109     0.75729
      H   51    0.23513      0.00000     0.76392    0.00095     0.76487
      H   52    0.23410      0.00000     0.76468    0.00122     0.76590
 =======================================================================
   * Total *   -0.00000     49.98075   133.56923    0.45002   184.00000

                                 Natural Population      
 --------------------------------------------------------
   Core                      49.98075 ( 99.9615% of  50)
   Valence                  133.56923 ( 99.6785% of 134)
   Natural Minimal Basis    183.54998 ( 99.7554% of 184)
   Natural Rydberg Basis      0.45002 (  0.2446% of 184)
 --------------------------------------------------------

    Atom  No          Natural Electron Configuration
 ----------------------------------------------------------------------------
      C    1      [core]2S( 1.08)2p( 3.37)3p( 0.01)
      N    2      [core]2S( 1.20)2p( 4.29)3p( 0.01)
      C    3      [core]2S( 0.78)2p( 2.46)3S( 0.01)3p( 0.03)3d( 0.01)
      O    4      [core]2S( 1.70)2p( 4.87)3d( 0.01)
      C    5      [core]2S( 0.94)2p( 3.19)3p( 0.01)
      C    6      [core]2S( 1.09)2p( 3.57)3p( 0.01)
      C    7      [core]2S( 1.09)2p( 3.56)3p( 0.01)
      C    8      [core]2S( 1.09)2p( 3.57)3p( 0.01)
      C    9      [core]2S( 0.83)2p( 2.96)3p( 0.02)
      C   10      [core]2S( 0.96)2p( 3.25)3p( 0.01)
      C   11      [core]2S( 0.96)2p( 3.27)3p( 0.01)
      C   12      [core]2S( 0.83)2p( 2.81)3p( 0.02)3d( 0.01)
      C   13      [core]2S( 0.87)2p( 3.19)3p( 0.01)
      C   14      [core]2S( 0.87)2p( 3.17)3p( 0.01)
      C   15      [core]2S( 0.95)2p( 3.26)3p( 0.01)
      C   16      [core]2S( 0.96)2p( 3.25)3p( 0.01)
      C   17      [core]2S( 0.96)2p( 3.25)3p( 0.01)
      C   18      [core]2S( 0.95)2p( 3.26)3p( 0.01)
      O   19      [core]2S( 1.60)2p( 4.92)3d( 0.01)
      C   20      [core]2S( 0.78)2p( 2.35)3S( 0.01)3p( 0.03)3d( 0.01)
      O   21      [core]2S( 1.69)2p( 4.86)3d( 0.02)
      C   22      [core]2S( 0.94)2p( 3.20)3p( 0.01)
      C   23      [core]2S( 1.09)2p( 3.56)3p( 0.01)
      C   24      [core]2S( 1.09)2p( 3.57)3p( 0.01)
      C   25      [core]2S( 1.10)2p( 3.56)3p( 0.01)
      H   26            1S( 0.77)
      H   27            1S( 0.78)
      H   28            1S( 0.76)
      H   29            1S( 0.76)
      H   30            1S( 0.77)
      H   31            1S( 0.76)
      H   32            1S( 0.75)
      H   33            1S( 0.77)
      H   34            1S( 0.75)
      H   35            1S( 0.78)
      H   36            1S( 0.76)
      H   37            1S( 0.76)
      H   38            1S( 0.75)
      H   39            1S( 0.74)
      H   40            1S( 0.76)
      H   41            1S( 0.76)
      H   42            1S( 0.76)
      H   43            1S( 0.76)
      H   44            1S( 0.76)
      H   45            1S( 0.76)
      H   46            1S( 0.76)
      H   47            1S( 0.75)
      H   48            1S( 0.77)
      H   49            1S( 0.76)
      H   50            1S( 0.76)
      H   51            1S( 0.76)
      H   52            1S( 0.76)


 NBO analysis skipped by request.
 Leave Link  607 at Thu Sep 30 11:57:57 2021, MaxMem= 2147483648 cpu:      44.2
 (Enter /sw/target/amd/app/gaussian/Gaussian09RevA.02_gcc-4.9.2/g09/l9999.exe)
 1\1\GINC-HERMITE\SP\RTD-B3LYP-FC\6-31G(d)\C21H27N1O3\JSCHLEINITZ\30-Se
 p-2021\0\\#p TD(NStates=10, Root=1) b3lyp/6-31G* volume pop=NPA densit
 y=current Geom=AllCheck Guess=Read\\CN(C(=O)C(C)(C)C)c1ccc(c2c1cccc2)O
 C(=O)C(C)(C)C_conf_0\\0,1\C,0,3.1699408659,0.8957061006,-0.8827669998\
 N,0,2.9135552679,0.9256455555,0.556989297\C,0,2.1264361199,1.807706118
 ,1.2904817166\O,0,2.0094555389,1.6274342915,2.4964224616\C,0,1.4152539
 622,3.0172494269,0.6145331814\C,0,0.4665594155,2.575494881,-0.52383937
 63\C,0,0.5544762082,3.6927744337,1.7028798883\C,0,2.4464666827,4.06045
 23325,0.1216064675\C,0,3.4374856991,-0.213904668,1.2682935506\C,0,2.71
 2405222,-1.3823921815,1.3125918495\C,0,3.2218502479,-2.541045103,1.938
 688327\C,0,4.4677864576,-2.5029220915,2.5182800077\C,0,5.2627262013,-1
 .3204075767,2.5025982848\C,0,4.7344615437,-0.1514118591,1.8613531401\C
 ,0,5.5244949453,1.0281795388,1.8429941903\C,0,6.7722857164,1.054731478
 8,2.4231381511\C,0,7.2911332975,-0.1001204477,3.0539462941\C,0,6.55312
 28835,-1.2613307313,3.0929150466\O,0,5.0692033948,-3.6277147357,3.0825
 521444\C,0,4.3786190035,-4.4746937475,3.9196671554\O,0,3.2299751608,-4
 .3040944601,4.244529341\C,0,5.2690923449,-5.643967575,4.355274356\C,0,
 6.5132694168,-5.1002060616,5.0923615063\C,0,4.4555205218,-6.5500775641
 ,5.2932353247\C,0,5.708870635,-6.4327150323,3.1010117145\H,0,3.0505468
 359,1.8785250918,-1.3311812611\H,0,2.5089046295,0.1887735292,-1.402300
 9918\H,0,4.2039052701,0.576018942,-1.046752733\H,0,-0.2427496204,1.820
 084882,-0.1660711487\H,0,0.9800313252,2.1667345343,-1.3968784966\H,0,-
 0.1167782959,3.4388105451,-0.865182167\H,0,-0.1972157614,3.0037186039,
 2.0972687168\H,0,0.0420530728,4.5622615092,1.2743106662\H,0,1.16698478
 06,4.0231719105,2.5447337796\H,0,3.0837796733,3.7041773226,-0.69248071
 35\H,0,3.0986356233,4.3741704741,0.9446532881\H,0,1.9206964702,4.95088
 29407,-0.2432506235\H,0,1.7244585676,-1.4122532672,0.8626571596\H,0,2.
 6300583807,-3.4462706744,1.9684318408\H,0,5.1190174915,1.9153351828,1.
 3682915408\H,0,7.3609384581,1.9679095712,2.4023424955\H,0,8.2758736769
 ,-0.0680116132,3.5122104637\H,0,6.9462910878,-2.1473456985,3.577866818
 4\H,0,6.2294317229,-4.4962590939,5.9617837844\H,0,7.1338992744,-4.4867
 63053,4.4331732716\H,0,7.1221804473,-5.9381911333,5.4504922358\H,0,4.1
 239153801,-6.0053182804,6.1822339414\H,0,5.0716402802,-7.3971194898,5.
 615063617\H,0,3.5638554118,-6.9400356695,4.7934179315\H,0,6.2874808108
 ,-5.8056724703,2.4169566984\H,0,4.8432373597,-6.8284030313,2.557194827
 2\H,0,6.332742535,-7.2822874003,3.4017638634\\Version=AM64L-G09RevA.02
 \State=1-A\HF=-1096.9536766\RMSD=6.823e-09\Dipole=0.5868298,0.0701563,
 -1.5819807\Quadrupole=-2.8685366,4.9707996,-2.102263,-4.4458355,9.8431
 659,-7.9361742\PG=C01 [X(C21H27N1O3)]\\@


 The chemist is a guest at the physicist's table and
 frequently dines well.
                   -- Richard Bersohn
 Job cpu time:  0 days 13 hours 33 minutes 47.1 seconds.
 File lengths (MBytes):  RWF=    600 Int=      0 D2E=      0 Chk=     82 Scr=      1
 Normal termination of Gaussian 09 at Thu Sep 30 11:58:05 2021.
