 Entering Gaussian System, Link 0=g09
 Input=C22H16O2_befa_conf_0.com
 Output=C22H16O2_befa_conf_0.log
 Initial command:
 /sw/target/amd/app/gaussian/Gaussian09RevA.02_gcc-4.9.2/g09/l1.exe /home/jschleinitz/gaussian/Gau-3896378.inp -scrdir=/home/jschleinitz/gaussian/
 Entering Link 1 = /sw/target/amd/app/gaussian/Gaussian09RevA.02_gcc-4.9.2/g09/l1.exe PID=   3896386.
  
 Copyright (c) 1988,1990,1992,1993,1995,1998,2003,2009, Gaussian, Inc.
                  All Rights Reserved.
  
 This is part of the Gaussian(R) 09 program.  It is based on
 the Gaussian(R) 03 system (copyright 2003, Gaussian, Inc.),
 the Gaussian(R) 98 system (copyright 1998, Gaussian, Inc.),
 the Gaussian(R) 94 system (copyright 1995, Gaussian, Inc.),
 the Gaussian 92(TM) system (copyright 1992, Gaussian, Inc.),
 the Gaussian 90(TM) system (copyright 1990, Gaussian, Inc.),
 the Gaussian 88(TM) system (copyright 1988, Gaussian, Inc.),
 the Gaussian 86(TM) system (copyright 1986, Carnegie Mellon
 University), and the Gaussian 82(TM) system (copyright 1983,
 Carnegie Mellon University). Gaussian is a federally registered
 trademark of Gaussian, Inc.
  
 This software contains proprietary and confidential information,
 including trade secrets, belonging to Gaussian, Inc.
  
 This software is provided under written license and may be
 used, copied, transmitted, or stored only in accord with that
 written license.
  
 The following legend is applicable only to US Government
 contracts under FAR:
  
                    RESTRICTED RIGHTS LEGEND
  
 Use, reproduction and disclosure by the US Government is
 subject to restrictions as set forth in subparagraphs (a)
 and (c) of the Commercial Computer Software - Restricted
 Rights clause in FAR 52.227-19.
  
 Gaussian, Inc.
 340 Quinnipiac St., Bldg. 40, Wallingford CT 06492
  
  
 ---------------------------------------------------------------
 Warning -- This program may not be used in any manner that
 competes with the business of Gaussian, Inc. or will provide
 assistance to any competitor of Gaussian, Inc.  The licensee
 of this program is prohibited from giving any competitor of
 Gaussian, Inc. access to this program.  By using this program,
 the user acknowledges that Gaussian, Inc. is engaged in the
 business of creating and licensing software in the field of
 computational chemistry and represents and warrants to the
 licensee that it is not a competitor of Gaussian, Inc. and that
 it will not use this program in any manner prohibited above.
 ---------------------------------------------------------------
  

 Cite this work as:
 Gaussian 09, Revision A.02,
 M. J. Frisch, G. W. Trucks, H. B. Schlegel, G. E. Scuseria, 
 M. A. Robb, J. R. Cheeseman, G. Scalmani, V. Barone, B. Mennucci, 
 G. A. Petersson, H. Nakatsuji, M. Caricato, X. Li, H. P. Hratchian, 
 A. F. Izmaylov, J. Bloino, G. Zheng, J. L. Sonnenberg, M. Hada, 
 M. Ehara, K. Toyota, R. Fukuda, J. Hasegawa, M. Ishida, T. Nakajima, 
 Y. Honda, O. Kitao, H. Nakai, T. Vreven, J. A. Montgomery, Jr., 
 J. E. Peralta, F. Ogliaro, M. Bearpark, J. J. Heyd, E. Brothers, 
 K. N. Kudin, V. N. Staroverov, R. Kobayashi, J. Normand, 
 K. Raghavachari, A. Rendell, J. C. Burant, S. S. Iyengar, J. Tomasi, 
 M. Cossi, N. Rega, J. M. Millam, M. Klene, J. E. Knox, J. B. Cross, 
 V. Bakken, C. Adamo, J. Jaramillo, R. Gomperts, R. E. Stratmann, 
 O. Yazyev, A. J. Austin, R. Cammi, C. Pomelli, J. W. Ochterski, 
 R. L. Martin, K. Morokuma, V. G. Zakrzewski, G. A. Voth, 
 P. Salvador, J. J. Dannenberg, S. Dapprich, A. D. Daniels, 
 O. Farkas, J. B. Foresman, J. V. Ortiz, J. Cioslowski, 
 and D. J. Fox, Gaussian, Inc., Wallingford CT, 2009.
 
 ******************************************
 Gaussian 09:  AM64L-G09RevA.02 11-Jun-2009
                29-Sep-2021 
 ******************************************
 %nproc=6
 Will use up to    6 processors via shared memory.
 %mem=12gb
 %chk=C22H16O2_befa_conf_0.chk
 -----------------------------------
 #p opt b3lyp/6-31G* scf=(xqc,tight)
 -----------------------------------
 1/14=-1,18=20,19=15,26=3,38=1/1,3;
 2/9=110,12=2,17=6,18=5,40=1/2;
 3/5=1,6=6,7=1,11=2,16=1,25=1,30=1,71=1,74=-5/1,2,3;
 4//1;
 5/5=2,8=3,13=1,32=2,38=5/2,8;
 6/7=2,8=2,9=2,10=2,28=1/1;
 7//1,2,3,16;
 1/14=-1,18=20,19=15/3(2);
 2/9=110/2;
 99//99;
 2/9=110/2;
 3/5=1,6=6,7=1,11=2,16=1,25=1,30=1,71=1,74=-5/1,2,3;
 4/5=5,16=3/1;
 5/5=2,8=3,13=1,32=2,38=5/2,8;
 7//1,2,3,16;
 1/14=-1,18=20,19=15/3(-5);
 2/9=110/2;
 6/7=2,8=2,9=2,10=2,19=2,28=1/1;
 99/9=1/99;
 Leave Link    1 at Wed Sep 29 16:45:35 2021, MaxMem= 1610612736 cpu:       0.1
 (Enter /sw/target/amd/app/gaussian/Gaussian09RevA.02_gcc-4.9.2/g09/l101.exe)
 ------------------------------------------
 O=C(Oc1c2ccccc2cc2c1cccc2)Cc1ccccc1_conf_0
 ------------------------------------------
 Symbolic Z-matrix:
 Charge =  0 Multiplicity = 1
 O                     3.70172   2.67402  -2.68147 
 C                     4.01227   2.38818  -3.82976 
 O                     5.27565   1.98929  -4.26962 
 C                     6.32369   2.00334  -3.31552 
 C                     6.86293   0.75328  -2.9128 
 C                     6.35283  -0.49897  -3.32782 
 C                     6.94415  -1.69763  -2.91793 
 C                     8.0559   -1.67389  -2.0844 
 C                     8.57036  -0.45224  -1.65544 
 C                     7.98605   0.7607   -2.05989 
 C                     8.52591   1.98578  -1.63382 
 C                     7.99917   3.21673  -2.05217 
 C                     6.88528   3.24552  -2.92038 
 C                     6.41368   4.50825  -3.35126 
 C                     7.00697   5.69572  -2.91862 
 C                     8.09221   5.65129  -2.05512 
 C                     8.58608   4.42058  -1.62768 
 C                     3.06802   2.39026  -5.01388 
 C                     2.45139   3.73589  -5.30989 
 C                     3.0221    4.58983  -6.26579 
 C                     2.42658   5.81711  -6.56689 
 C                     1.26004   6.20758  -5.9126 
 C                     0.69433   5.37575  -4.94843 
 C                     1.28865   4.14897  -4.64453 
 H                     5.4852   -0.54909  -3.98052 
 H                     6.53718  -2.649    -3.25246 
 H                     8.5245   -2.60259  -1.76927 
 H                     9.44464  -0.45335  -1.00536 
 H                     9.39198   1.97934  -0.97144 
 H                     5.56542   4.58395  -4.0247 
 H                     6.61318   6.65094  -3.25551 
 H                     8.55654   6.57291  -1.71439 
 H                     9.44306   4.40712  -0.95683 
 H                     2.28614   1.64595  -4.82228 
 H                     3.59534   2.03259  -5.90738 
 H                     3.92759   4.30189  -6.79605 
 H                     2.86858   6.4677   -7.31771 
 H                     0.79242   7.15913  -6.15228 
 H                    -0.21306   5.68161  -4.43346 
 H                     0.83329   3.51462  -3.88623 
 
 NAtoms=     40 NQM=     40 NQMF=      0 NMic=      0 NMicF=      0 NTot=     40.
                    Isotopes and Nuclear Properties:
 (Nuclear quadrupole moments (NQMom) in fm**2, nuclear magnetic moments (NMagM)
  in nuclear magnetons)

  Atom         1           2           3           4           5           6           7           8           9          10
 IAtWgt=          16          12          16          12          12          12          12          12          12          12
 AtmWgt=  15.9949146  12.0000000  15.9949146  12.0000000  12.0000000  12.0000000  12.0000000  12.0000000  12.0000000  12.0000000
 NucSpn=           0           0           0           0           0           0           0           0           0           0
 AtZEff=   0.0000000   0.0000000   0.0000000   0.0000000   0.0000000   0.0000000   0.0000000   0.0000000   0.0000000   0.0000000
 NQMom=    0.0000000   0.0000000   0.0000000   0.0000000   0.0000000   0.0000000   0.0000000   0.0000000   0.0000000   0.0000000
 NMagM=    0.0000000   0.0000000   0.0000000   0.0000000   0.0000000   0.0000000   0.0000000   0.0000000   0.0000000   0.0000000

  Atom        11          12          13          14          15          16          17          18          19          20
 IAtWgt=          12          12          12          12          12          12          12          12          12          12
 AtmWgt=  12.0000000  12.0000000  12.0000000  12.0000000  12.0000000  12.0000000  12.0000000  12.0000000  12.0000000  12.0000000
 NucSpn=           0           0           0           0           0           0           0           0           0           0
 AtZEff=   0.0000000   0.0000000   0.0000000   0.0000000   0.0000000   0.0000000   0.0000000   0.0000000   0.0000000   0.0000000
 NQMom=    0.0000000   0.0000000   0.0000000   0.0000000   0.0000000   0.0000000   0.0000000   0.0000000   0.0000000   0.0000000
 NMagM=    0.0000000   0.0000000   0.0000000   0.0000000   0.0000000   0.0000000   0.0000000   0.0000000   0.0000000   0.0000000

  Atom        21          22          23          24          25          26          27          28          29          30
 IAtWgt=          12          12          12          12           1           1           1           1           1           1
 AtmWgt=  12.0000000  12.0000000  12.0000000  12.0000000   1.0078250   1.0078250   1.0078250   1.0078250   1.0078250   1.0078250
 NucSpn=           0           0           0           0           1           1           1           1           1           1
 AtZEff=   0.0000000   0.0000000   0.0000000   0.0000000   0.0000000   0.0000000   0.0000000   0.0000000   0.0000000   0.0000000
 NQMom=    0.0000000   0.0000000   0.0000000   0.0000000   0.0000000   0.0000000   0.0000000   0.0000000   0.0000000   0.0000000
 NMagM=    0.0000000   0.0000000   0.0000000   0.0000000   2.7928460   2.7928460   2.7928460   2.7928460   2.7928460   2.7928460

  Atom        31          32          33          34          35          36          37          38          39          40
 IAtWgt=           1           1           1           1           1           1           1           1           1           1
 AtmWgt=   1.0078250   1.0078250   1.0078250   1.0078250   1.0078250   1.0078250   1.0078250   1.0078250   1.0078250   1.0078250
 NucSpn=           1           1           1           1           1           1           1           1           1           1
 AtZEff=   0.0000000   0.0000000   0.0000000   0.0000000   0.0000000   0.0000000   0.0000000   0.0000000   0.0000000   0.0000000
 NQMom=    0.0000000   0.0000000   0.0000000   0.0000000   0.0000000   0.0000000   0.0000000   0.0000000   0.0000000   0.0000000
 NMagM=    2.7928460   2.7928460   2.7928460   2.7928460   2.7928460   2.7928460   2.7928460   2.7928460   2.7928460   2.7928460
 Leave Link  101 at Wed Sep 29 16:45:35 2021, MaxMem= 1610612736 cpu:       0.2
 (Enter /sw/target/amd/app/gaussian/Gaussian09RevA.02_gcc-4.9.2/g09/l103.exe)

 GradGradGradGradGradGradGradGradGradGradGradGradGradGradGradGradGradGrad
 Berny optimization.
 Initialization pass.
                           ----------------------------
                           !    Initial Parameters    !
                           ! (Angstroms and Degrees)  !
 --------------------------                            --------------------------
 ! Name  Definition              Value          Derivative Info.                !
 --------------------------------------------------------------------------------
 ! R1    R(1,2)                  1.2234         estimate D2E/DX2                !
 ! R2    R(2,3)                  1.396          estimate D2E/DX2                !
 ! R3    R(2,18)                 1.5145         estimate D2E/DX2                !
 ! R4    R(3,4)                  1.4174         estimate D2E/DX2                !
 ! R5    R(4,5)                  1.4197         estimate D2E/DX2                !
 ! R6    R(4,13)                 1.4193         estimate D2E/DX2                !
 ! R7    R(5,6)                  1.4144         estimate D2E/DX2                !
 ! R8    R(5,10)                 1.4103         estimate D2E/DX2                !
 ! R9    R(6,7)                  1.398          estimate D2E/DX2                !
 ! R10   R(6,25)                 1.0869         estimate D2E/DX2                !
 ! R11   R(7,8)                  1.3897         estimate D2E/DX2                !
 ! R12   R(7,26)                 1.0875         estimate D2E/DX2                !
 ! R13   R(8,9)                  1.3932         estimate D2E/DX2                !
 ! R14   R(8,27)                 1.0869         estimate D2E/DX2                !
 ! R15   R(9,10)                 1.4058         estimate D2E/DX2                !
 ! R16   R(9,28)                 1.0895         estimate D2E/DX2                !
 ! R17   R(10,11)                1.4049         estimate D2E/DX2                !
 ! R18   R(11,12)                1.4028         estimate D2E/DX2                !
 ! R19   R(11,29)                1.0903         estimate D2E/DX2                !
 ! R20   R(12,13)                1.4126         estimate D2E/DX2                !
 ! R21   R(12,17)                1.405          estimate D2E/DX2                !
 ! R22   R(13,14)                1.4151         estimate D2E/DX2                !
 ! R23   R(14,15)                1.3962         estimate D2E/DX2                !
 ! R24   R(14,30)                1.0857         estimate D2E/DX2                !
 ! R25   R(15,16)                1.3876         estimate D2E/DX2                !
 ! R26   R(15,31)                1.0867         estimate D2E/DX2                !
 ! R27   R(16,17)                1.3933         estimate D2E/DX2                !
 ! R28   R(16,32)                1.0868         estimate D2E/DX2                !
 ! R29   R(17,33)                1.0884         estimate D2E/DX2                !
 ! R30   R(18,19)                1.5095         estimate D2E/DX2                !
 ! R31   R(18,34)                1.0964         estimate D2E/DX2                !
 ! R32   R(18,35)                1.0974         estimate D2E/DX2                !
 ! R33   R(19,20)                1.4031         estimate D2E/DX2                !
 ! R34   R(19,24)                1.4019         estimate D2E/DX2                !
 ! R35   R(20,21)                1.397          estimate D2E/DX2                !
 ! R36   R(20,36)                1.0881         estimate D2E/DX2                !
 ! R37   R(21,22)                1.3933         estimate D2E/DX2                !
 ! R38   R(21,37)                1.0874         estimate D2E/DX2                !
 ! R39   R(22,23)                1.3934         estimate D2E/DX2                !
 ! R40   R(22,38)                1.087          estimate D2E/DX2                !
 ! R41   R(23,24)                1.3966         estimate D2E/DX2                !
 ! R42   R(23,39)                1.0872         estimate D2E/DX2                !
 ! R43   R(24,40)                1.0885         estimate D2E/DX2                !
 ! A1    A(1,2,3)              126.3163         estimate D2E/DX2                !
 ! A2    A(1,2,18)             125.1183         estimate D2E/DX2                !
 ! A3    A(3,2,18)             108.5592         estimate D2E/DX2                !
 ! A4    A(2,3,4)              117.0177         estimate D2E/DX2                !
 ! A5    A(3,4,5)              117.5855         estimate D2E/DX2                !
 ! A6    A(3,4,13)             119.2517         estimate D2E/DX2                !
 ! A7    A(5,4,13)             122.7751         estimate D2E/DX2                !
 ! A8    A(4,5,6)              124.0098         estimate D2E/DX2                !
 ! A9    A(4,5,10)             117.9955         estimate D2E/DX2                !
 ! A10   A(6,5,10)             117.9899         estimate D2E/DX2                !
 ! A11   A(5,6,7)              121.3678         estimate D2E/DX2                !
 ! A12   A(5,6,25)             120.3264         estimate D2E/DX2                !
 ! A13   A(7,6,25)             118.3057         estimate D2E/DX2                !
 ! A14   A(6,7,8)              119.9716         estimate D2E/DX2                !
 ! A15   A(6,7,26)             120.1061         estimate D2E/DX2                !
 ! A16   A(8,7,26)             119.922          estimate D2E/DX2                !
 ! A17   A(7,8,9)              119.6726         estimate D2E/DX2                !
 ! A18   A(7,8,27)             120.278          estimate D2E/DX2                !
 ! A19   A(9,8,27)             120.0493         estimate D2E/DX2                !
 ! A20   A(8,9,10)             120.9642         estimate D2E/DX2                !
 ! A21   A(8,9,28)             118.6293         estimate D2E/DX2                !
 ! A22   A(10,9,28)            120.4037         estimate D2E/DX2                !
 ! A23   A(5,10,9)             120.0311         estimate D2E/DX2                !
 ! A24   A(5,10,11)            119.6048         estimate D2E/DX2                !
 ! A25   A(9,10,11)            120.3584         estimate D2E/DX2                !
 ! A26   A(10,11,12)           122.0364         estimate D2E/DX2                !
 ! A27   A(10,11,29)           118.9673         estimate D2E/DX2                !
 ! A28   A(12,11,29)           118.9875         estimate D2E/DX2                !
 ! A29   A(11,12,13)           119.8211         estimate D2E/DX2                !
 ! A30   A(11,12,17)           120.3275         estimate D2E/DX2                !
 ! A31   A(13,12,17)           119.8447         estimate D2E/DX2                !
 ! A32   A(4,13,12)            117.7281         estimate D2E/DX2                !
 ! A33   A(4,13,14)            124.3543         estimate D2E/DX2                !
 ! A34   A(12,13,14)           117.9129         estimate D2E/DX2                !
 ! A35   A(13,14,15)           121.5313         estimate D2E/DX2                !
 ! A36   A(13,14,30)           120.7604         estimate D2E/DX2                !
 ! A37   A(15,14,30)           117.7046         estimate D2E/DX2                !
 ! A38   A(14,15,16)           119.8654         estimate D2E/DX2                !
 ! A39   A(14,15,31)           119.8382         estimate D2E/DX2                !
 ! A40   A(16,15,31)           120.2956         estimate D2E/DX2                !
 ! A41   A(15,16,17)           119.7642         estimate D2E/DX2                !
 ! A42   A(15,16,32)           120.1408         estimate D2E/DX2                !
 ! A43   A(17,16,32)           120.095          estimate D2E/DX2                !
 ! A44   A(12,17,16)           121.0713         estimate D2E/DX2                !
 ! A45   A(12,17,33)           120.3014         estimate D2E/DX2                !
 ! A46   A(16,17,33)           118.627          estimate D2E/DX2                !
 ! A47   A(2,18,19)            114.1564         estimate D2E/DX2                !
 ! A48   A(2,18,34)            107.8822         estimate D2E/DX2                !
 ! A49   A(2,18,35)            109.6665         estimate D2E/DX2                !
 ! A50   A(19,18,34)           110.3726         estimate D2E/DX2                !
 ! A51   A(19,18,35)           109.0968         estimate D2E/DX2                !
 ! A52   A(34,18,35)           105.2897         estimate D2E/DX2                !
 ! A53   A(18,19,20)           120.6625         estimate D2E/DX2                !
 ! A54   A(18,19,24)           120.5584         estimate D2E/DX2                !
 ! A55   A(20,19,24)           118.7754         estimate D2E/DX2                !
 ! A56   A(19,20,21)           120.5392         estimate D2E/DX2                !
 ! A57   A(19,20,36)           120.6262         estimate D2E/DX2                !
 ! A58   A(21,20,36)           118.8286         estimate D2E/DX2                !
 ! A59   A(20,21,22)           120.1253         estimate D2E/DX2                !
 ! A60   A(20,21,37)           120.078          estimate D2E/DX2                !
 ! A61   A(22,21,37)           119.7954         estimate D2E/DX2                !
 ! A62   A(21,22,23)           119.8377         estimate D2E/DX2                !
 ! A63   A(21,22,38)           120.1287         estimate D2E/DX2                !
 ! A64   A(23,22,38)           120.0336         estimate D2E/DX2                !
 ! A65   A(22,23,24)           120.1439         estimate D2E/DX2                !
 ! A66   A(22,23,39)           119.9098         estimate D2E/DX2                !
 ! A67   A(24,23,39)           119.9461         estimate D2E/DX2                !
 ! A68   A(19,24,23)           120.5638         estimate D2E/DX2                !
 ! A69   A(19,24,40)           120.3913         estimate D2E/DX2                !
 ! A70   A(23,24,40)           119.0442         estimate D2E/DX2                !
 ! D1    D(1,2,3,4)             -4.6339         estimate D2E/DX2                !
 ! D2    D(18,2,3,4)           176.2394         estimate D2E/DX2                !
 ! D3    D(1,2,18,19)           60.8681         estimate D2E/DX2                !
 ! D4    D(1,2,18,34)          -62.1983         estimate D2E/DX2                !
 ! D5    D(1,2,18,35)         -176.3755         estimate D2E/DX2                !
 ! D6    D(3,2,18,19)         -119.9922         estimate D2E/DX2                !
 ! D7    D(3,2,18,34)          116.9414         estimate D2E/DX2                !
 ! D8    D(3,2,18,35)            2.7641         estimate D2E/DX2                !
 ! D9    D(2,3,4,5)            111.9858         estimate D2E/DX2                !
 ! D10   D(2,3,4,13)           -74.9607         estimate D2E/DX2                !
 ! D11   D(3,4,5,6)             -4.9422         estimate D2E/DX2                !
 ! D12   D(3,4,5,10)           174.2452         estimate D2E/DX2                !
 ! D13   D(13,4,5,6)          -177.7325         estimate D2E/DX2                !
 ! D14   D(13,4,5,10)            1.4549         estimate D2E/DX2                !
 ! D15   D(3,4,13,12)         -174.9278         estimate D2E/DX2                !
 ! D16   D(3,4,13,14)            4.2629         estimate D2E/DX2                !
 ! D17   D(5,4,13,12)           -2.2525         estimate D2E/DX2                !
 ! D18   D(5,4,13,14)          176.9383         estimate D2E/DX2                !
 ! D19   D(4,5,6,7)            178.7079         estimate D2E/DX2                !
 ! D20   D(4,5,6,25)            -1.1615         estimate D2E/DX2                !
 ! D21   D(10,5,6,7)            -0.4795         estimate D2E/DX2                !
 ! D22   D(10,5,6,25)          179.651          estimate D2E/DX2                !
 ! D23   D(4,5,10,9)          -178.7742         estimate D2E/DX2                !
 ! D24   D(4,5,10,11)            0.354          estimate D2E/DX2                !
 ! D25   D(6,5,10,9)             0.463          estimate D2E/DX2                !
 ! D26   D(6,5,10,11)          179.5912         estimate D2E/DX2                !
 ! D27   D(5,6,7,8)              0.0644         estimate D2E/DX2                !
 ! D28   D(5,6,7,26)          -179.7706         estimate D2E/DX2                !
 ! D29   D(25,6,7,8)           179.9364         estimate D2E/DX2                !
 ! D30   D(25,6,7,26)            0.1015         estimate D2E/DX2                !
 ! D31   D(6,7,8,9)              0.3722         estimate D2E/DX2                !
 ! D32   D(6,7,8,27)          -179.4977         estimate D2E/DX2                !
 ! D33   D(26,7,8,9)          -179.7925         estimate D2E/DX2                !
 ! D34   D(26,7,8,27)            0.3376         estimate D2E/DX2                !
 ! D35   D(7,8,9,10)            -0.386          estimate D2E/DX2                !
 ! D36   D(7,8,9,28)          -179.7748         estimate D2E/DX2                !
 ! D37   D(27,8,9,10)          179.4842         estimate D2E/DX2                !
 ! D38   D(27,8,9,28)            0.0954         estimate D2E/DX2                !
 ! D39   D(8,9,10,5)            -0.0402         estimate D2E/DX2                !
 ! D40   D(8,9,10,11)         -179.1617         estimate D2E/DX2                !
 ! D41   D(28,9,10,5)          179.3378         estimate D2E/DX2                !
 ! D42   D(28,9,10,11)           0.2163         estimate D2E/DX2                !
 ! D43   D(5,10,11,12)          -1.3274         estimate D2E/DX2                !
 ! D44   D(5,10,11,29)         179.7687         estimate D2E/DX2                !
 ! D45   D(9,10,11,12)         177.7978         estimate D2E/DX2                !
 ! D46   D(9,10,11,29)          -1.1061         estimate D2E/DX2                !
 ! D47   D(10,11,12,13)          0.5008         estimate D2E/DX2                !
 ! D48   D(10,11,12,17)       -178.5608         estimate D2E/DX2                !
 ! D49   D(29,11,12,13)        179.4044         estimate D2E/DX2                !
 ! D50   D(29,11,12,17)          0.3428         estimate D2E/DX2                !
 ! D51   D(11,12,13,4)           1.2431         estimate D2E/DX2                !
 ! D52   D(11,12,13,14)       -178.0008         estimate D2E/DX2                !
 ! D53   D(17,12,13,4)        -179.6907         estimate D2E/DX2                !
 ! D54   D(17,12,13,14)          1.0653         estimate D2E/DX2                !
 ! D55   D(11,12,17,16)        178.6994         estimate D2E/DX2                !
 ! D56   D(11,12,17,33)         -1.0884         estimate D2E/DX2                !
 ! D57   D(13,12,17,16)         -0.3619         estimate D2E/DX2                !
 ! D58   D(13,12,17,33)        179.8503         estimate D2E/DX2                !
 ! D59   D(4,13,14,15)         179.6299         estimate D2E/DX2                !
 ! D60   D(4,13,14,30)           0.3488         estimate D2E/DX2                !
 ! D61   D(12,13,14,15)         -1.1807         estimate D2E/DX2                !
 ! D62   D(12,13,14,30)        179.5382         estimate D2E/DX2                !
 ! D63   D(13,14,15,16)          0.565          estimate D2E/DX2                !
 ! D64   D(13,14,15,31)       -179.1025         estimate D2E/DX2                !
 ! D65   D(30,14,15,16)        179.8673         estimate D2E/DX2                !
 ! D66   D(30,14,15,31)          0.1998         estimate D2E/DX2                !
 ! D67   D(14,15,16,17)          0.1815         estimate D2E/DX2                !
 ! D68   D(14,15,16,32)       -179.9107         estimate D2E/DX2                !
 ! D69   D(31,15,16,17)        179.8475         estimate D2E/DX2                !
 ! D70   D(31,15,16,32)         -0.2447         estimate D2E/DX2                !
 ! D71   D(15,16,17,12)         -0.2803         estimate D2E/DX2                !
 ! D72   D(15,16,17,33)        179.511          estimate D2E/DX2                !
 ! D73   D(32,16,17,12)        179.8119         estimate D2E/DX2                !
 ! D74   D(32,16,17,33)         -0.3968         estimate D2E/DX2                !
 ! D75   D(2,18,19,20)          95.2052         estimate D2E/DX2                !
 ! D76   D(2,18,19,24)         -85.5014         estimate D2E/DX2                !
 ! D77   D(34,18,19,20)       -143.0903         estimate D2E/DX2                !
 ! D78   D(34,18,19,24)         36.2031         estimate D2E/DX2                !
 ! D79   D(35,18,19,20)        -27.8608         estimate D2E/DX2                !
 ! D80   D(35,18,19,24)        151.4326         estimate D2E/DX2                !
 ! D81   D(18,19,20,21)        178.0515         estimate D2E/DX2                !
 ! D82   D(18,19,20,36)         -1.0423         estimate D2E/DX2                !
 ! D83   D(24,19,20,21)         -1.2544         estimate D2E/DX2                !
 ! D84   D(24,19,20,36)        179.6518         estimate D2E/DX2                !
 ! D85   D(18,19,24,23)       -177.9785         estimate D2E/DX2                !
 ! D86   D(18,19,24,40)          1.7193         estimate D2E/DX2                !
 ! D87   D(20,19,24,23)          1.3281         estimate D2E/DX2                !
 ! D88   D(20,19,24,40)       -178.9741         estimate D2E/DX2                !
 ! D89   D(19,20,21,22)          0.3325         estimate D2E/DX2                !
 ! D90   D(19,20,21,37)       -179.2545         estimate D2E/DX2                !
 ! D91   D(36,20,21,22)        179.4423         estimate D2E/DX2                !
 ! D92   D(36,20,21,37)         -0.1446         estimate D2E/DX2                !
 ! D93   D(20,21,22,23)          0.5374         estimate D2E/DX2                !
 ! D94   D(20,21,22,38)       -179.5333         estimate D2E/DX2                !
 ! D95   D(37,21,22,23)       -179.8744         estimate D2E/DX2                !
 ! D96   D(37,21,22,38)          0.0548         estimate D2E/DX2                !
 ! D97   D(21,22,23,24)         -0.4643         estimate D2E/DX2                !
 ! D98   D(21,22,23,39)        179.6828         estimate D2E/DX2                !
 ! D99   D(38,22,23,24)        179.6063         estimate D2E/DX2                !
 ! D100  D(38,22,23,39)         -0.2466         estimate D2E/DX2                !
 ! D101  D(22,23,24,19)         -0.4805         estimate D2E/DX2                !
 ! D102  D(22,23,24,40)        179.8177         estimate D2E/DX2                !
 ! D103  D(39,23,24,19)        179.3724         estimate D2E/DX2                !
 ! D104  D(39,23,24,40)         -0.3294         estimate D2E/DX2                !
 --------------------------------------------------------------------------------
 Trust Radius=3.00D-01 FncErr=1.00D-07 GrdErr=1.00D-06
 Number of steps in this run= 227 maximum allowed number of steps= 240.
 GradGradGradGradGradGradGradGradGradGradGradGradGradGradGradGradGradGrad

 Leave Link  103 at Wed Sep 29 16:45:36 2021, MaxMem= 1610612736 cpu:       0.0
 (Enter /sw/target/amd/app/gaussian/Gaussian09RevA.02_gcc-4.9.2/g09/l202.exe)
                          Input orientation:                          
 ---------------------------------------------------------------------
 Center     Atomic      Atomic             Coordinates (Angstroms)
 Number     Number       Type             X           Y           Z
 ---------------------------------------------------------------------
      1          8           0        3.701716    2.674017   -2.681469
      2          6           0        4.012266    2.388178   -3.829756
      3          8           0        5.275654    1.989288   -4.269618
      4          6           0        6.323695    2.003337   -3.315515
      5          6           0        6.862933    0.753283   -2.912799
      6          6           0        6.352832   -0.498972   -3.327818
      7          6           0        6.944147   -1.697634   -2.917927
      8          6           0        8.055898   -1.673893   -2.084403
      9          6           0        8.570357   -0.452244   -1.655440
     10          6           0        7.986052    0.760698   -2.059887
     11          6           0        8.525913    1.985776   -1.633820
     12          6           0        7.999168    3.216733   -2.052168
     13          6           0        6.885283    3.245523   -2.920378
     14          6           0        6.413679    4.508252   -3.351265
     15          6           0        7.006966    5.695723   -2.918619
     16          6           0        8.092206    5.651294   -2.055121
     17          6           0        8.586078    4.420581   -1.627676
     18          6           0        3.068024    2.390259   -5.013880
     19          6           0        2.451390    3.735894   -5.309887
     20          6           0        3.022102    4.589833   -6.265793
     21          6           0        2.426577    5.817112   -6.566893
     22          6           0        1.260041    6.207581   -5.912595
     23          6           0        0.694329    5.375755   -4.948429
     24          6           0        1.288650    4.148973   -4.644530
     25          1           0        5.485200   -0.549093   -3.980516
     26          1           0        6.537183   -2.648999   -3.252456
     27          1           0        8.524500   -2.602592   -1.769274
     28          1           0        9.444637   -0.453351   -1.005362
     29          1           0        9.391980    1.979342   -0.971441
     30          1           0        5.565417    4.583949   -4.024695
     31          1           0        6.613181    6.650944   -3.255505
     32          1           0        8.556544    6.572907   -1.714386
     33          1           0        9.443061    4.407123   -0.956828
     34          1           0        2.286135    1.645951   -4.822284
     35          1           0        3.595339    2.032595   -5.907376
     36          1           0        3.927586    4.301893   -6.796054
     37          1           0        2.868581    6.467696   -7.317711
     38          1           0        0.792424    7.159131   -6.152279
     39          1           0       -0.213060    5.681611   -4.433457
     40          1           0        0.833289    3.514618   -3.886225
 ---------------------------------------------------------------------
                    Distance matrix (angstroms):
                    1          2          3          4          5
     1  O    0.000000
     2  C    1.223400   0.000000
     3  O    2.338451   1.395973   0.000000
     4  C    2.779676   2.399010   1.417356   0.000000
     5  C    3.706214   3.411744   2.426545   1.419716   0.000000
     6  C    4.184978   3.750444   2.870320   2.502509   1.414420
     7  C    5.447991   5.110893   4.266654   3.773622   2.452267
     8  C    6.182209   5.991464   5.091544   4.247139   2.828531
     9  C    5.876216   5.794122   4.863134   3.719304   2.439169
    10  C    4.733148   4.644578   3.706561   2.425734   1.410287
    11  C    4.984388   5.035580   4.184689   2.770951   2.433173
    12  C    4.377061   4.443165   3.720381   2.423961   2.846104
    13  C    3.243270   3.133087   2.447341   1.419345   2.492352
    14  C    3.341824   3.238896   2.912670   2.506785   3.807082
    15  C    4.484599   4.553927   4.308166   3.775990   4.944542
    16  C    5.341619   5.517532   5.123206   4.245446   5.122230
    17  C    5.293200   5.468050   4.883640   3.716214   4.250864
    18  C    2.433562   1.514512   2.363966   3.692363   4.636331
    19  C    3.098302   2.538397   3.479836   4.687645   5.839838
    20  C    4.120632   3.429575   3.978197   5.127828   6.380726
    21  C    5.157668   4.665181   5.295937   6.348532   7.660027
    22  C    5.374758   5.147892   6.051323   7.075385   8.374995
    23  C    4.634962   4.602798   5.737376   6.762349   7.972622
    24  C    3.442671   3.344000   4.549835   5.632203   6.752942
    25  H    3.905992   3.289350   2.563371   2.767707   2.175856
    26  H    6.058085   5.664066   4.913225   4.657659   3.434677
    27  H    7.206521   7.036592   6.155654   5.333759   3.915399
    28  H    6.750623   6.749974   5.831146   4.594823   3.429209
    29  H    5.982130   6.105607   5.274676   3.861299   3.415871
    30  H    2.987554   2.696607   2.622253   2.781632   4.194504
    31  H    4.962066   5.026499   4.954637   4.657000   5.912886
    32  H    6.301266   6.529717   6.188942   5.331997   6.178393
    33  H    6.240280   6.467100   5.847031   4.590429   4.881950
    34  H    2.764755   2.124980   3.059501   4.324345   5.038855
    35  H    3.290776   2.148667   2.346825   3.763313   4.613166
    36  H    4.430667   3.531062   3.680803   4.810286   6.023999
    37  H    6.048211   5.487833   5.927985   6.919962   8.246976
    38  H    6.373911   6.206729   7.097256   8.076162   9.401074
    39  H    5.238373   5.391153   6.617104   7.583446   8.756168
    40  H    3.222719   3.373121   4.712561   5.723131   6.702919
                    6          7          8          9         10
     6  C    0.000000
     7  C    1.398018   0.000000
     8  C    2.413908   1.389718   0.000000
     9  C    2.777849   2.406123   1.393235   0.000000
    10  C    2.421120   2.804495   2.435716   1.405781   0.000000
    11  C    3.710240   4.209326   3.717138   2.438521   1.404920
    12  C    4.259597   5.100354   4.891062   3.734306   2.456082
    13  C    3.804044   4.943508   5.125412   4.255940   2.850700
    14  C    5.007648   6.243572   6.520793   5.668651   4.264290
    15  C    6.242562   7.393624   7.490489   6.468177   5.103969
    16  C    6.516974   7.487938   7.325336   6.135271   4.891750
    17  C    5.663909   6.464769   6.134517   4.872929   3.733842
    18  C    4.688329   6.010676   7.069516   7.045183   5.963936
    19  C    6.089658   7.445104   8.430899   8.266634   7.074374
    20  C    6.754362   8.131599   9.058554   8.801195   7.549352
    21  C    8.111720   9.497094  10.387354  10.058490   8.762886
    22  C    8.808828  10.186733  11.088569  10.766492   9.473706
    23  C    8.316096   9.654843  10.587392  10.336400   9.100090
    24  C    6.998790   8.315565   9.287393   9.117517   7.938260
    25  H    1.086882   2.139339   3.386578   3.864396   3.414473
    26  H    2.159232   1.087486   2.149809   3.392638   3.891976
    27  H    3.401531   2.153106   1.086911   2.153847   3.418494
    28  H    3.867187   3.385054   2.140712   1.089480   2.171039
    29  H    4.575037   4.827095   4.045976   2.656224   2.155561
    30  H    5.190544   6.525651   7.009124   6.325051   4.933274
    31  H    7.155019   8.361952   8.529702   7.539630   6.165166
    32  H    7.580961   8.511767   8.270264   7.025412   5.850351
    33  H    6.264253   6.881754   6.338328   4.986293   4.078729
    34  H    4.834475   6.041789   7.197744   7.343212   6.395589
    35  H    4.546067   5.836603   6.946205   7.000299   5.974885
    36  H    6.399906   7.754602   8.657520   8.401373   7.172342
    37  H    8.751784  10.131187  10.980949  10.604581   9.295323
    38  H    9.876349  11.258198  12.137874  11.775009  10.461161
    39  H    9.084766  10.391136  11.313583  11.067518   9.852646
    40  H    6.847341   8.089979   9.073769   8.976336   7.879187
                   11         12         13         14         15
    11  C    0.000000
    12  C    1.402758   0.000000
    13  C    2.435951   1.412571   0.000000
    14  C    3.711338   2.422695   1.415118   0.000000
    15  C    4.209705   2.807240   2.453221   1.396159   0.000000
    16  C    3.715053   2.436340   2.827201   2.409147   1.387569
    17  C    2.435555   1.404957   2.438143   2.774484   2.405435
    18  C    6.432492   5.811280   4.436856   4.294599   5.552609
    19  C    7.312743   6.454464   5.060596   4.486922   5.505667
    20  C    7.650374   6.664175   5.284235   4.472574   5.320311
    21  C    8.730191   7.628793   6.307947   5.286809   5.857012
    22  C    9.429975   8.322494   7.026414   6.000676   6.500233
    23  C    9.154905   8.149256   6.854107   6.001204   6.638666
    24  C    8.131529   7.253996   5.925472   5.297880   6.170117
    25  H    4.602008   4.921383   4.181296   5.180228   6.514686
    26  H    5.296808   6.163190   5.914122   7.158999   8.364600
    27  H    4.590367   5.849833   6.181627   7.584349   8.513867
    28  H    2.681111   4.081017   4.888685   6.269567   6.885775
    29  H    1.090349   2.153841   3.418347   4.574847   4.826104
    30  H    4.607746   3.418083   2.180126   1.085720   2.130143
    31  H    5.296432   3.893942   3.432672   2.154089   1.086740
    32  H    4.587941   3.418869   3.913951   3.396181   2.149609
    33  H    2.676266   2.168322   3.427400   3.862733   3.382850
    34  H    7.015454   6.540615   5.227622   5.233859   6.504678
    35  H    6.525031   5.971476   4.606201   4.539341   5.830127
    36  H    7.290931   6.345062   4.988463   4.253212   5.143914
    37  H    9.186927   8.038509   6.771472   5.669201   6.088857
    38  H   10.343448   9.180990   7.929971   6.816989   7.156720
    39  H    9.892765   8.898699   7.655743   6.816273   7.377242
    40  H    8.160094   7.402859   6.134485   5.693350   6.618744
                   16         17         18         19         20
    16  C    0.000000
    17  C    1.393296   0.000000
    18  C    6.680644   6.785094   0.000000
    19  C    6.788304   7.187620   1.509500   0.000000
    20  C    6.675508   7.245592   2.531308   1.403097   0.000000
    21  C    7.244510   8.017831   3.816624   2.431491   1.396969
    22  C    7.865623   8.673218   4.318383   2.809236   2.417998
    23  C    7.948316   8.615072   3.814695   2.430444   2.787767
    24  C    7.433059   7.901116   2.528965   1.401891   2.414064
    25  H    6.996315   6.312603   3.943396   5.415934   6.139862
    26  H    8.529161   7.537695   6.366459   7.854526   8.592828
    27  H    8.270140   7.024869   8.076457   9.465464  10.110690
    28  H    6.340170   4.987946   8.050809   9.218688   9.713640
    29  H    4.043143   2.653256   7.516820   8.371343   8.684479
    30  H    3.376849   3.859635   3.468102   3.473914   3.389838
    31  H    2.151217   3.393622   5.814933   5.480740   5.119166
    32  H    1.086775   2.154275   7.648859   7.632115   7.434913
    33  H    2.139864   1.088410   7.821029   8.263361   8.333499
    34  H    7.576966   7.589029   1.096382   2.152423   3.360329
    35  H    6.939500   6.994697   1.097414   2.137016   2.645096
    36  H    6.453014   6.959006   2.751243   2.169840   1.088112
    37  H    7.459733   8.322076   4.687526   3.415867   2.157885
    38  H    8.505709   9.418743   5.405224   3.896196   3.403768
    39  H    8.639145   9.321343   4.683524   3.413684   3.875010
    40  H    7.785255   8.125734   2.744053   2.166570   3.407247
                   21         22         23         24         25
    21  C    0.000000
    22  C    1.393333   0.000000
    23  C    2.411411   1.393406   0.000000
    24  C    2.788018   2.417990   1.396627   0.000000
    25  H    7.521508   8.199850   7.680698   6.334332   0.000000
    26  H    9.977856  10.647233  10.070350   8.700425   2.458932
    27  H   11.449594  12.147370  11.622074  10.305738   4.282965
    28  H   10.931719  11.637721  11.229164  10.047141   4.953569
    29  H    9.723908  10.412561  10.148950   9.157665   5.541701
    30  H    4.223242   4.973591   5.020730   4.343286   5.133859
    31  H    5.402612   5.992729   6.286884   6.044822   7.323832
    32  H    7.854587   8.425993   8.585256   8.202650   8.080308
    33  H    9.093510   9.734633   9.664959   8.953223   7.026481
    34  H    4.523490   4.801053   4.057239   2.700313   3.969988
    35  H    4.015412   4.783738   4.529034   3.375596   3.734900
    36  H    2.145094   3.395282   3.875674   3.408288   5.821124
    37  H    1.087362   2.151607   3.396057   3.875378   8.198713
    38  H    2.154850   1.086997   2.153905   3.403028   9.281994
    39  H    3.396703   2.152794   1.087244   2.156076   8.455589
    40  H    3.876342   3.397108   2.147421   1.088479   6.177613
                   26         27         28         29         30
    26  H    0.000000
    27  H    2.480204   0.000000
    28  H    4.280607   2.459563   0.000000
    29  H    5.896986   4.731086   2.433499   0.000000
    30  H    7.338680   8.092556   7.038402   5.545171   0.000000
    31  H    9.300254   9.565037   7.971906   5.895976   2.441707
    32  H    9.564886   9.175719   7.117565   4.727659   4.270869
    33  H    7.968871   7.116173   4.860716   2.428363   4.947646
    34  H    6.243586   8.141755   8.379744   8.089077   4.474557
    35  H    6.133544   7.931297   8.026453   7.613628   3.732975
    36  H    8.226907   9.699075   9.304962   8.317450   3.231482
    37  H   10.634805  12.043450  11.445136  10.147670   4.654608
    38  H   11.730756  13.201779  12.621466  11.297064   5.825773
    39  H   10.787011  12.331700  11.944065  10.860439   5.895993
    40  H    8.421772  10.052684   9.909564   9.170835   4.853419
                   31         32         33         34         35
    31  H    0.000000
    32  H    2.481490   0.000000
    33  H    4.280989   2.459762   0.000000
    34  H    6.799123   8.558735   8.589959   0.000000
    35  H    6.121188   7.925223   8.021356   1.743827   0.000000
    36  H    5.026524   7.239344   8.032938   3.693800   2.459645
    37  H    5.527850   7.985063   9.377130   5.460368   4.710344
    38  H    6.521561   8.962148  10.459434   5.864743   5.847878
    39  H    6.994622   9.224625  10.341757   4.762742   5.476463
    40  H    6.606171   8.585958   9.138167   2.545365   3.729659
                   36         37         38         39         40
    36  H    0.000000
    37  H    2.466641   0.000000
    38  H    4.290396   2.479263   0.000000
    39  H    4.962906   4.293409   2.479600   0.000000
    40  H    4.319905   4.963686   4.291753   2.467826   0.000000
 Stoichiometry    C22H16O2
 Framework group  C1[X(C22H16O2)]
 Deg. of freedom   114
 Full point group                 C1      NOp   1
 Largest Abelian subgroup         C1      NOp   1
 Largest concise Abelian subgroup C1      NOp   1
                         Standard orientation:                         
 ---------------------------------------------------------------------
 Center     Atomic      Atomic             Coordinates (Angstroms)
 Number     Number       Type             X           Y           Z
 ---------------------------------------------------------------------
      1          8           0       -0.861350   -0.754926    1.569880
      2          6           0       -0.946425   -1.118736    0.404928
      3          8           0        0.021406   -0.949703   -0.586774
      4          6           0        1.176401   -0.205412   -0.239045
      5          6           0        2.410517   -0.903288   -0.164740
      6          6           0        2.537886   -2.303702   -0.317056
      7          6           0        3.785749   -2.931416   -0.259867
      8          6           0        4.933427   -2.176844   -0.048273
      9          6           0        4.831409   -0.796814    0.113631
     10          6           0        3.583264   -0.152387    0.058243
     11          6           0        3.496975    1.242106    0.205698
     12          6           0        2.275977    1.926200    0.111314
     13          6           0        1.084351    1.206643   -0.128737
     14          6           0       -0.118128    1.941155   -0.259482
     15          6           0       -0.142081    3.331294   -0.132205
     16          6           0        1.034883    4.022722    0.116855
     17          6           0        2.235190    3.325129    0.234755
     18          6           0       -2.127204   -1.853965   -0.194192
     19          6           0       -3.426343   -1.087527   -0.135894
     20          6           0       -3.853582   -0.319252   -1.229467
     21          6           0       -5.075596    0.356393   -1.188134
     22          6           0       -5.880008    0.277938   -0.053170
     23          6           0       -5.457598   -0.467320    1.045803
     24          6           0       -4.235598   -1.142462    1.007517
     25          1           0        1.658300   -2.919740   -0.484802
     26          1           0        3.860333   -4.009287   -0.383386
     27          1           0        5.906973   -2.658714   -0.011051
     28          1           0        5.742369   -0.221375    0.274840
     29          1           0        4.409750    1.812012    0.381510
     30          1           0       -1.059491    1.435606   -0.451949
     31          1           0       -1.083516    3.866465   -0.223300
     32          1           0        1.021175    5.104677    0.218175
     33          1           0        3.148485    3.886741    0.422165
     34          1           0       -2.226280   -2.813281    0.327298
     35          1           0       -1.909810   -2.113188   -1.238156
     36          1           0       -3.246449   -0.250901   -2.129860
     37          1           0       -5.404968    0.939831   -2.044563
     38          1           0       -6.834362    0.797467   -0.023843
     39          1           0       -6.081997   -0.525119    1.933995
     40          1           0       -3.921759   -1.716888    1.877187
 ---------------------------------------------------------------------
 Rotational constants (GHZ):      0.4255615      0.1464335      0.1155611
 Leave Link  202 at Wed Sep 29 16:45:36 2021, MaxMem= 1610612736 cpu:       0.1
 (Enter /sw/target/amd/app/gaussian/Gaussian09RevA.02_gcc-4.9.2/g09/l301.exe)
 Standard basis: 6-31G(d) (6D, 7F)
 Ernie: Thresh=  0.10000D-02 Tol=  0.10000D-05 Strict=F.
 There are   392 symmetry adapted basis functions of A   symmetry.
 Integral buffers will be    131072 words long.
 Raffenetti 2 integral format.
 Two-electron integral symmetry is turned on.
   392 basis functions,   736 primitive gaussians,   392 cartesian basis functions
    82 alpha electrons       82 beta electrons
       nuclear repulsion energy      1842.1033188363 Hartrees.
 IExCor=  402 DFT=T Ex+Corr=B3LYP ExCW=0 ScaHFX=  0.200000
 ScaDFX=  0.800000  0.720000  1.000000  0.810000 ScalE2=  1.000000  1.000000
 IRadAn=      0 IRanWt=     -1 IRanGd=            0 ICorTp=0
 NAtoms=   40 NActive=   40 NUniq=   40 SFac= 7.50D-01 NAtFMM=   80 NAOKFM=F Big=F
 Leave Link  301 at Wed Sep 29 16:45:36 2021, MaxMem= 1610612736 cpu:       0.1
 (Enter /sw/target/amd/app/gaussian/Gaussian09RevA.02_gcc-4.9.2/g09/l302.exe)
 NPDir=0 NMtPBC=     1 NCelOv=     1 NCel=       1 NClECP=     1 NCelD=      1
         NCelK=      1 NCelE2=     1 NClLst=     1 CellRange=     0.0.
 One-electron integrals computed using PRISM.
 NBasis=   392 RedAO= T  NBF=   392
 NBsUse=   392 1.00D-06 NBFU=   392
 Precomputing XC quadrature grid using
 IXCGrd= 2 IRadAn=           0 IRanWt=          -1 IRanGd=           0 AccXCQ= 1.00D-10.
 NRdTot=    2550 NPtTot=      325690 NUsed=      344073 NTot=      344105
 NSgBfM=   387   387   387   387   387 NAtAll=    40    40.
 Leave Link  302 at Wed Sep 29 16:45:42 2021, MaxMem= 1610612736 cpu:       4.6
 (Enter /sw/target/amd/app/gaussian/Gaussian09RevA.02_gcc-4.9.2/g09/l303.exe)
 DipDrv:  MaxL=1.
 Leave Link  303 at Wed Sep 29 16:45:43 2021, MaxMem= 1610612736 cpu:       0.3
 (Enter /sw/target/amd/app/gaussian/Gaussian09RevA.02_gcc-4.9.2/g09/l401.exe)
 Harris functional with IExCor=  402 diagonalized for initial guess.
 ExpMin= 1.61D-01 ExpMax= 5.48D+03 ExpMxC= 8.25D+02 IAcc=1 IRadAn=         1 AccDes= 0.00D+00
 HarFok:  IExCor=  402 AccDes= 0.00D+00 IRadAn=         1 IDoV= 1
 ScaDFX=  1.000000  1.000000  1.000000  1.000000
 FoFCou: FMM=F IPFlag=           0 FMFlag=      100000 FMFlg1=           0
         NFxFlg=           0 DoJE=T BraDBF=F KetDBF=T FulRan=T
         Omega=  0.000000  0.000000  1.000000  0.000000  0.000000 ICntrl=     500 IOpCl=  0
         NMat0=    1 NMatS0=    1 NMatT0=    0 NMatD0=    1 NMtDS0=    0 NMtDT0=    0
         I1Cent=           4 NGrid=           0.
 Petite list used in FoFCou.
 Harris En= -998.562855125274    
 Initial guess orbital symmetries:
       Occupied  (A) (A) (A) (A) (A) (A) (A) (A) (A) (A) (A) (A)
                 (A) (A) (A) (A) (A) (A) (A) (A) (A) (A) (A) (A)
                 (A) (A) (A) (A) (A) (A) (A) (A) (A) (A) (A) (A)
                 (A) (A) (A) (A) (A) (A) (A) (A) (A) (A) (A) (A)
                 (A) (A) (A) (A) (A) (A) (A) (A) (A) (A) (A) (A)
                 (A) (A) (A) (A) (A) (A) (A) (A) (A) (A) (A) (A)
                 (A) (A) (A) (A) (A) (A) (A) (A) (A) (A)
       Virtual   (A) (A) (A) (A) (A) (A) (A) (A) (A) (A) (A) (A)
                 (A) (A) (A) (A) (A) (A) (A) (A) (A) (A) (A) (A)
                 (A) (A) (A) (A) (A) (A) (A) (A) (A) (A) (A) (A)
                 (A) (A) (A) (A) (A) (A) (A) (A) (A) (A) (A) (A)
                 (A) (A) (A) (A) (A) (A) (A) (A) (A) (A) (A) (A)
                 (A) (A) (A) (A) (A) (A) (A) (A) (A) (A) (A) (A)
                 (A) (A) (A) (A) (A) (A) (A) (A) (A) (A) (A) (A)
                 (A) (A) (A) (A) (A) (A) (A) (A) (A) (A) (A) (A)
                 (A) (A) (A) (A) (A) (A) (A) (A) (A) (A) (A) (A)
                 (A) (A) (A) (A) (A) (A) (A) (A) (A) (A) (A) (A)
                 (A) (A) (A) (A) (A) (A) (A) (A) (A) (A) (A) (A)
                 (A) (A) (A) (A) (A) (A) (A) (A) (A) (A) (A) (A)
                 (A) (A) (A) (A) (A) (A) (A) (A) (A) (A) (A) (A)
                 (A) (A) (A) (A) (A) (A) (A) (A) (A) (A) (A) (A)
                 (A) (A) (A) (A) (A) (A) (A) (A) (A) (A) (A) (A)
                 (A) (A) (A) (A) (A) (A) (A) (A) (A) (A) (A) (A)
                 (A) (A) (A) (A) (A) (A) (A) (A) (A) (A) (A) (A)
                 (A) (A) (A) (A) (A) (A) (A) (A) (A) (A) (A) (A)
                 (A) (A) (A) (A) (A) (A) (A) (A) (A) (A) (A) (A)
                 (A) (A) (A) (A) (A) (A) (A) (A) (A) (A) (A) (A)
                 (A) (A) (A) (A) (A) (A) (A) (A) (A) (A) (A) (A)
                 (A) (A) (A) (A) (A) (A) (A) (A) (A) (A) (A) (A)
                 (A) (A) (A) (A) (A) (A) (A) (A) (A) (A) (A) (A)
                 (A) (A) (A) (A) (A) (A) (A) (A) (A) (A) (A) (A)
                 (A) (A) (A) (A) (A) (A) (A) (A) (A) (A) (A) (A)
                 (A) (A) (A) (A) (A) (A) (A) (A) (A) (A)
 The electronic state of the initial guess is 1-A.
 Leave Link  401 at Wed Sep 29 16:45:59 2021, MaxMem= 1610612736 cpu:      18.8
 (Enter /sw/target/amd/app/gaussian/Gaussian09RevA.02_gcc-4.9.2/g09/l502.exe)
 Closed shell SCF:
 Requested convergence on RMS density matrix=1.00D-08 within  64 cycles.
 Requested convergence on MAX density matrix=1.00D-06.
 Requested convergence on             energy=1.00D-06.
 No special actions if energy rises.
 Using DIIS extrapolation, IDIIS=  1040.
 Integral symmetry usage will be decided dynamically.
       343700 words used for storage of precomputed grid.
 IEnd=      815534 IEndB=      815534 NGot=  1610612736 MDV=  1609955483
 LenX=  1609955483 LenY=  1609801378
 Fock matrices will be formed incrementally for  20 cycles.
 Integral accuracy reduced to 1.0D-05 until final iterations.

 Cycle   1  Pass 0  IDiag  1:
 FoFCou: FMM=F IPFlag=           0 FMFlag=      100000 FMFlg1=           0
         NFxFlg=           0 DoJE=F BraDBF=F KetDBF=F FulRan=T
         Omega=  0.000000  0.000000  1.000000  0.000000  0.000000 ICntrl=       0 IOpCl=  0
         NMat0=    1 NMatS0=    1 NMatT0=    0 NMatD0=    1 NMtDS0=    0 NMtDT0=    0
         I1Cent=           0 NGrid=           0.
 Symmetry not used in FoFCou.
 E= -997.863647308135    
 DIIS: error= 3.62D-02 at cycle   1 NSaved=   1.
 NSaved= 1 IEnMin= 1 EnMin= -997.863647308135     IErMin= 1 ErrMin= 3.62D-02
 ErrMax= 3.62D-02 EMaxC= 1.00D-01 BMatC= 5.52D-01 BMatP= 5.52D-01
 IDIUse=3 WtCom= 6.38D-01 WtEn= 3.62D-01
 Coeff-Com:  0.100D+01
 Coeff-En:   0.100D+01
 Coeff:      0.100D+01
 Gap=     0.114 Goal=   None    Shift=    0.000
 GapD=    0.114 DampG=1.000 DampE=0.500 DampFc=0.5000 IDamp=-1.
 Damping current iteration by 5.00D-01
 RMSDP=5.12D-03 MaxDP=2.18D-01              OVMax= 3.49D-01

 Cycle   2  Pass 0  IDiag  1:
 RMSU=  1.76D-03    CP:  9.67D-01
 E= -998.032364473026     Delta-E=       -0.168717164891 Rises=F Damp=T
 DIIS: error= 1.74D-02 at cycle   2 NSaved=   2.
 NSaved= 2 IEnMin= 2 EnMin= -998.032364473026     IErMin= 2 ErrMin= 1.74D-02
 ErrMax= 1.74D-02 EMaxC= 1.00D-01 BMatC= 1.03D-01 BMatP= 5.52D-01
 IDIUse=3 WtCom= 8.26D-01 WtEn= 1.74D-01
 Coeff-Com:  0.209D+00 0.791D+00
 Coeff-En:   0.315D+00 0.685D+00
 Coeff:      0.228D+00 0.772D+00
 Gap=     0.125 Goal=   None    Shift=    0.000
 RMSDP=2.16D-03 MaxDP=1.18D-01 DE=-1.69D-01 OVMax= 4.41D-01

 Cycle   3  Pass 0  IDiag  1:
 RMSU=  1.45D-03    CP:  9.42D-01  7.91D-01
 E= -998.298839050186     Delta-E=       -0.266474577159 Rises=F Damp=F
 DIIS: error= 2.15D-02 at cycle   3 NSaved=   3.
 NSaved= 3 IEnMin= 3 EnMin= -998.298839050186     IErMin= 2 ErrMin= 1.74D-02
 ErrMax= 2.15D-02 EMaxC= 1.00D-01 BMatC= 1.50D-01 BMatP= 1.03D-01
 IDIUse=2 WtCom= 0.00D+00 WtEn= 1.00D+00
 Coeff-En:   0.000D+00 0.426D-01 0.957D+00
 Coeff:      0.000D+00 0.426D-01 0.957D+00
 Gap=     0.110 Goal=   None    Shift=    0.000
 RMSDP=3.40D-03 MaxDP=1.95D-01 DE=-2.66D-01 OVMax= 4.01D-01

 Cycle   4  Pass 0  IDiag  1:
 RMSU=  1.32D-03    CP:  9.48D-01  1.30D+00 -2.32D-01
 E= -997.577040380606     Delta-E=        0.721798669580 Rises=F Damp=F
 DIIS: error= 5.44D-02 at cycle   4 NSaved=   4.
 NSaved= 4 IEnMin= 3 EnMin= -998.298839050186     IErMin= 2 ErrMin= 1.74D-02
 ErrMax= 5.44D-02 EMaxC= 1.00D-01 BMatC= 9.67D-01 BMatP= 1.03D-01
 IDIUse=2 WtCom= 0.00D+00 WtEn= 1.00D+00
 Coeff-En:   0.000D+00 0.000D+00 0.796D+00 0.204D+00
 Coeff:      0.000D+00 0.000D+00 0.796D+00 0.204D+00
 Gap=     0.122 Goal=   None    Shift=    0.000
 RMSDP=1.82D-03 MaxDP=1.15D-01 DE= 7.22D-01 OVMax= 2.45D-01

 Cycle   5  Pass 0  IDiag  1:
 RMSU=  2.99D-04    CP:  9.47D-01  9.53D-01  3.75D-01  5.11D-01
 E= -998.375875773154     Delta-E=       -0.798835392548 Rises=F Damp=F
 DIIS: error= 1.38D-02 at cycle   5 NSaved=   5.
 NSaved= 5 IEnMin= 5 EnMin= -998.375875773154     IErMin= 5 ErrMin= 1.38D-02
 ErrMax= 1.38D-02 EMaxC= 1.00D-01 BMatC= 7.09D-02 BMatP= 1.03D-01
 IDIUse=3 WtCom= 8.62D-01 WtEn= 1.38D-01
 Coeff-Com: -0.437D-02 0.697D-01 0.322D+00-0.842D-01 0.697D+00
 Coeff-En:   0.000D+00 0.000D+00 0.362D+00 0.000D+00 0.638D+00
 Coeff:     -0.377D-02 0.601D-01 0.328D+00-0.726D-01 0.689D+00
 Gap=     0.114 Goal=   None    Shift=    0.000
 RMSDP=7.49D-04 MaxDP=4.74D-02 DE=-7.99D-01 OVMax= 1.24D-01

 Cycle   6  Pass 0  IDiag  1:
 RMSU=  1.11D-04    CP:  9.46D-01  8.63D-01  6.39D-01  2.85D-01  7.20D-01
 E= -998.440478564177     Delta-E=       -0.064602791023 Rises=F Damp=F
 DIIS: error= 1.36D-03 at cycle   6 NSaved=   6.
 NSaved= 6 IEnMin= 6 EnMin= -998.440478564177     IErMin= 6 ErrMin= 1.36D-03
 ErrMax= 1.36D-03 EMaxC= 1.00D-01 BMatC= 1.30D-03 BMatP= 7.09D-02
 IDIUse=3 WtCom= 9.86D-01 WtEn= 1.36D-02
 Coeff-Com: -0.714D-02 0.311D-01 0.173D+00-0.654D-01 0.458D+00 0.410D+00
 Coeff-En:   0.000D+00 0.000D+00 0.000D+00 0.000D+00 0.000D+00 0.100D+01
 Coeff:     -0.704D-02 0.306D-01 0.171D+00-0.645D-01 0.452D+00 0.418D+00
 Gap=     0.116 Goal=   None    Shift=    0.000
 RMSDP=1.22D-04 MaxDP=9.60D-03 DE=-6.46D-02 OVMax= 2.41D-02

 Cycle   7  Pass 0  IDiag  1:
 RMSU=  2.98D-05    CP:  9.45D-01  8.80D-01  6.18D-01  3.00D-01  8.06D-01
                    CP:  4.54D-01
 E= -998.441604373256     Delta-E=       -0.001125809079 Rises=F Damp=F
 DIIS: error= 7.18D-04 at cycle   7 NSaved=   7.
 NSaved= 7 IEnMin= 7 EnMin= -998.441604373256     IErMin= 7 ErrMin= 7.18D-04
 ErrMax= 7.18D-04 EMaxC= 1.00D-01 BMatC= 1.26D-04 BMatP= 1.30D-03
 IDIUse=3 WtCom= 9.93D-01 WtEn= 7.18D-03
 Coeff-Com: -0.184D-02 0.685D-02 0.578D-01-0.242D-01 0.152D+00 0.232D+00
 Coeff-Com:  0.577D+00
 Coeff-En:   0.000D+00 0.000D+00 0.000D+00 0.000D+00 0.000D+00 0.987D-01
 Coeff-En:   0.901D+00
 Coeff:     -0.183D-02 0.681D-02 0.574D-01-0.241D-01 0.151D+00 0.232D+00
 Coeff:      0.579D+00
 Gap=     0.116 Goal=   None    Shift=    0.000
 RMSDP=4.26D-05 MaxDP=2.51D-03 DE=-1.13D-03 OVMax= 9.55D-03

 Cycle   8  Pass 0  IDiag  1:
 RMSU=  1.60D-05    CP:  9.46D-01  8.75D-01  6.27D-01  2.93D-01  7.91D-01
                    CP:  5.57D-01  5.53D-01
 E= -998.441728301205     Delta-E=       -0.000123927949 Rises=F Damp=F
 DIIS: error= 2.53D-04 at cycle   8 NSaved=   8.
 NSaved= 8 IEnMin= 8 EnMin= -998.441728301205     IErMin= 8 ErrMin= 2.53D-04
 ErrMax= 2.53D-04 EMaxC= 1.00D-01 BMatC= 2.63D-05 BMatP= 1.26D-04
 IDIUse=3 WtCom= 9.97D-01 WtEn= 2.53D-03
 Coeff-Com:  0.429D-03-0.210D-02 0.111D-01-0.416D-02 0.212D-01 0.906D-01
 Coeff-Com:  0.410D+00 0.472D+00
 Coeff-En:   0.000D+00 0.000D+00 0.000D+00 0.000D+00 0.000D+00 0.000D+00
 Coeff-En:   0.986D-01 0.901D+00
 Coeff:      0.427D-03-0.210D-02 0.111D-01-0.415D-02 0.212D-01 0.903D-01
 Coeff:      0.410D+00 0.474D+00
 Gap=     0.116 Goal=   None    Shift=    0.000
 RMSDP=1.61D-05 MaxDP=7.22D-04 DE=-1.24D-04 OVMax= 2.61D-03

 Cycle   9  Pass 0  IDiag  1:
 RMSU=  4.22D-06    CP:  9.45D-01  8.75D-01  6.28D-01  2.95D-01  7.91D-01
                    CP:  5.43D-01  7.25D-01  4.54D-01
 E= -998.441753001194     Delta-E=       -0.000024699989 Rises=F Damp=F
 DIIS: error= 4.36D-05 at cycle   9 NSaved=   9.
 NSaved= 9 IEnMin= 9 EnMin= -998.441753001194     IErMin= 9 ErrMin= 4.36D-05
 ErrMax= 4.36D-05 EMaxC= 1.00D-01 BMatC= 9.90D-07 BMatP= 2.63D-05
 IDIUse=1 WtCom= 1.00D+00 WtEn= 0.00D+00
 Coeff-Com:  0.431D-03-0.153D-02 0.202D-02-0.613D-03 0.310D-03 0.342D-01
 Coeff-Com:  0.183D+00 0.258D+00 0.525D+00
 Coeff:      0.431D-03-0.153D-02 0.202D-02-0.613D-03 0.310D-03 0.342D-01
 Coeff:      0.183D+00 0.258D+00 0.525D+00
 Gap=     0.116 Goal=   None    Shift=    0.000
 RMSDP=3.38D-06 MaxDP=1.42D-04 DE=-2.47D-05 OVMax= 5.35D-04

 Initial convergence to 1.0D-05 achieved.  Increase integral accuracy.
 Cycle  10  Pass 1  IDiag  1:
 E= -998.441753302854     Delta-E=       -0.000000301660 Rises=F Damp=F
 DIIS: error= 5.68D-05 at cycle   1 NSaved=   1.
 NSaved= 1 IEnMin= 1 EnMin= -998.441753302854     IErMin= 1 ErrMin= 5.68D-05
 ErrMax= 5.68D-05 EMaxC= 1.00D-01 BMatC= 5.84D-07 BMatP= 5.84D-07
 IDIUse=1 WtCom= 1.00D+00 WtEn= 0.00D+00
 Coeff-Com:  0.100D+01
 Coeff:      0.100D+01
 Gap=     0.116 Goal=   None    Shift=    0.000
 RMSDP=3.38D-06 MaxDP=1.42D-04 DE=-3.02D-07 OVMax= 3.30D-04

 Cycle  11  Pass 1  IDiag  1:
 RMSU=  1.97D-05    CP:  1.00D+00
 E= -998.441753433798     Delta-E=       -0.000000130944 Rises=F Damp=F
 DIIS: error= 4.35D-05 at cycle   2 NSaved=   2.
 NSaved= 2 IEnMin= 2 EnMin= -998.441753433798     IErMin= 2 ErrMin= 4.35D-05
 ErrMax= 4.35D-05 EMaxC= 1.00D-01 BMatC= 4.37D-07 BMatP= 5.84D-07
 IDIUse=1 WtCom= 1.00D+00 WtEn= 0.00D+00
 Coeff-Com:  0.448D+00 0.552D+00
 Coeff:      0.448D+00 0.552D+00
 Gap=     0.116 Goal=   None    Shift=    0.000
 RMSDP=3.33D-06 MaxDP=1.41D-04 DE=-1.31D-07 OVMax= 3.53D-04

 Cycle  12  Pass 1  IDiag  1:
 RMSU=  2.35D-06    CP:  1.00D+00  9.96D-01
 E= -998.441753670412     Delta-E=       -0.000000236613 Rises=F Damp=F
 DIIS: error= 3.26D-05 at cycle   3 NSaved=   3.
 NSaved= 3 IEnMin= 3 EnMin= -998.441753670412     IErMin= 3 ErrMin= 3.26D-05
 ErrMax= 3.26D-05 EMaxC= 1.00D-01 BMatC= 2.26D-07 BMatP= 4.37D-07
 IDIUse=1 WtCom= 1.00D+00 WtEn= 0.00D+00
 Coeff-Com:  0.363D-03 0.417D+00 0.582D+00
 Coeff:      0.363D-03 0.417D+00 0.582D+00
 Gap=     0.116 Goal=   None    Shift=    0.000
 RMSDP=1.50D-06 MaxDP=5.58D-05 DE=-2.37D-07 OVMax= 1.57D-04

 Cycle  13  Pass 1  IDiag  1:
 RMSU=  2.95D-07    CP:  1.00D+00  1.01D+00  5.78D-01
 E= -998.441753925150     Delta-E=       -0.000000254739 Rises=F Damp=F
 DIIS: error= 2.58D-06 at cycle   4 NSaved=   4.
 NSaved= 4 IEnMin= 4 EnMin= -998.441753925150     IErMin= 4 ErrMin= 2.58D-06
 ErrMax= 2.58D-06 EMaxC= 1.00D-01 BMatC= 6.66D-09 BMatP= 2.26D-07
 IDIUse=1 WtCom= 1.00D+00 WtEn= 0.00D+00
 Coeff-Com: -0.939D-02 0.242D+00 0.354D+00 0.414D+00
 Coeff:     -0.939D-02 0.242D+00 0.354D+00 0.414D+00
 Gap=     0.116 Goal=   None    Shift=    0.000
 RMSDP=2.48D-07 MaxDP=1.82D-05 DE=-2.55D-07 OVMax= 3.03D-05

 Cycle  14  Pass 1  IDiag  1:
 RMSU=  1.01D-07    CP:  1.00D+00  1.01D+00  5.90D-01  5.23D-01
 E= -998.441753931467     Delta-E=       -0.000000006316 Rises=F Damp=F
 DIIS: error= 8.25D-07 at cycle   5 NSaved=   5.
 NSaved= 5 IEnMin= 5 EnMin= -998.441753931467     IErMin= 5 ErrMin= 8.25D-07
 ErrMax= 8.25D-07 EMaxC= 1.00D-01 BMatC= 3.47D-10 BMatP= 6.66D-09
 IDIUse=1 WtCom= 1.00D+00 WtEn= 0.00D+00
 Coeff-Com: -0.564D-02 0.125D+00 0.184D+00 0.251D+00 0.445D+00
 Coeff:     -0.564D-02 0.125D+00 0.184D+00 0.251D+00 0.445D+00
 Gap=     0.116 Goal=   None    Shift=    0.000
 RMSDP=7.04D-08 MaxDP=3.72D-06 DE=-6.32D-09 OVMax= 1.28D-05

 Cycle  15  Pass 1  IDiag  1:
 RMSU=  4.16D-08    CP:  1.00D+00  1.01D+00  5.91D-01  5.63D-01  7.54D-01
 E= -998.441753931680     Delta-E=       -0.000000000213 Rises=F Damp=F
 DIIS: error= 4.47D-07 at cycle   6 NSaved=   6.
 NSaved= 6 IEnMin= 6 EnMin= -998.441753931680     IErMin= 6 ErrMin= 4.47D-07
 ErrMax= 4.47D-07 EMaxC= 1.00D-01 BMatC= 7.84D-11 BMatP= 3.47D-10
 IDIUse=1 WtCom= 1.00D+00 WtEn= 0.00D+00
 Coeff-Com: -0.150D-02 0.245D-01 0.373D-01 0.713D-01 0.327D+00 0.541D+00
 Coeff:     -0.150D-02 0.245D-01 0.373D-01 0.713D-01 0.327D+00 0.541D+00
 Gap=     0.116 Goal=   None    Shift=    0.000
 RMSDP=3.00D-08 MaxDP=1.92D-06 DE=-2.13D-10 OVMax= 5.60D-06

 Cycle  16  Pass 1  IDiag  1:
 RMSU=  1.24D-08    CP:  1.00D+00  1.01D+00  5.90D-01  5.63D-01  8.31D-01
                    CP:  6.35D-01
 E= -998.441753931779     Delta-E=       -0.000000000099 Rises=F Damp=F
 DIIS: error= 1.04D-07 at cycle   7 NSaved=   7.
 NSaved= 7 IEnMin= 7 EnMin= -998.441753931779     IErMin= 7 ErrMin= 1.04D-07
 ErrMax= 1.04D-07 EMaxC= 1.00D-01 BMatC= 5.22D-12 BMatP= 7.84D-11
 IDIUse=1 WtCom= 1.00D+00 WtEn= 0.00D+00
 Coeff-Com: -0.249D-03 0.516D-03 0.137D-02 0.139D-01 0.133D+00 0.300D+00
 Coeff-Com:  0.552D+00
 Coeff:     -0.249D-03 0.516D-03 0.137D-02 0.139D-01 0.133D+00 0.300D+00
 Coeff:      0.552D+00
 Gap=     0.116 Goal=   None    Shift=    0.000
 RMSDP=8.71D-09 MaxDP=5.08D-07 DE=-9.87D-11 OVMax= 1.59D-06

 SCF Done:  E(RB3LYP) =  -998.441753932     A.U. after   16 cycles
             Convg  =    0.8714D-08             -V/T =  2.0096
 KE= 9.889489186551D+02 PE=-6.002133048979D+03 EE= 2.172639057556D+03
 Leave Link  502 at Wed Sep 29 16:59:59 2021, MaxMem= 1610612736 cpu:     946.0
 (Enter /sw/target/amd/app/gaussian/Gaussian09RevA.02_gcc-4.9.2/g09/l508.exe)
 QCSCF skips out because SCF is already converged.
 Leave Link  508 at Wed Sep 29 16:59:59 2021, MaxMem= 1610612736 cpu:       0.0
 (Enter /sw/target/amd/app/gaussian/Gaussian09RevA.02_gcc-4.9.2/g09/l601.exe)
 Copying SCF densities to generalized density rwf, IOpCl= 0 IROHF=0.

 **********************************************************************

            Population analysis using the SCF density.

 **********************************************************************

 Orbital symmetries:
       Occupied  (A) (A) (A) (A) (A) (A) (A) (A) (A) (A) (A) (A)
                 (A) (A) (A) (A) (A) (A) (A) (A) (A) (A) (A) (A)
                 (A) (A) (A) (A) (A) (A) (A) (A) (A) (A) (A) (A)
                 (A) (A) (A) (A) (A) (A) (A) (A) (A) (A) (A) (A)
                 (A) (A) (A) (A) (A) (A) (A) (A) (A) (A) (A) (A)
                 (A) (A) (A) (A) (A) (A) (A) (A) (A) (A) (A) (A)
                 (A) (A) (A) (A) (A) (A) (A) (A) (A) (A)
       Virtual   (A) (A) (A) (A) (A) (A) (A) (A) (A) (A) (A) (A)
                 (A) (A) (A) (A) (A) (A) (A) (A) (A) (A) (A) (A)
                 (A) (A) (A) (A) (A) (A) (A) (A) (A) (A) (A) (A)
                 (A) (A) (A) (A) (A) (A) (A) (A) (A) (A) (A) (A)
                 (A) (A) (A) (A) (A) (A) (A) (A) (A) (A) (A) (A)
                 (A) (A) (A) (A) (A) (A) (A) (A) (A) (A) (A) (A)
                 (A) (A) (A) (A) (A) (A) (A) (A) (A) (A) (A) (A)
                 (A) (A) (A) (A) (A) (A) (A) (A) (A) (A) (A) (A)
                 (A) (A) (A) (A) (A) (A) (A) (A) (A) (A) (A) (A)
                 (A) (A) (A) (A) (A) (A) (A) (A) (A) (A) (A) (A)
                 (A) (A) (A) (A) (A) (A) (A) (A) (A) (A) (A) (A)
                 (A) (A) (A) (A) (A) (A) (A) (A) (A) (A) (A) (A)
                 (A) (A) (A) (A) (A) (A) (A) (A) (A) (A) (A) (A)
                 (A) (A) (A) (A) (A) (A) (A) (A) (A) (A) (A) (A)
                 (A) (A) (A) (A) (A) (A) (A) (A) (A) (A) (A) (A)
                 (A) (A) (A) (A) (A) (A) (A) (A) (A) (A) (A) (A)
                 (A) (A) (A) (A) (A) (A) (A) (A) (A) (A) (A) (A)
                 (A) (A) (A) (A) (A) (A) (A) (A) (A) (A) (A) (A)
                 (A) (A) (A) (A) (A) (A) (A) (A) (A) (A) (A) (A)
                 (A) (A) (A) (A) (A) (A) (A) (A) (A) (A) (A) (A)
                 (A) (A) (A) (A) (A) (A) (A) (A) (A) (A) (A) (A)
                 (A) (A) (A) (A) (A) (A) (A) (A) (A) (A) (A) (A)
                 (A) (A) (A) (A) (A) (A) (A) (A) (A) (A) (A) (A)
                 (A) (A) (A) (A) (A) (A) (A) (A) (A) (A) (A) (A)
                 (A) (A) (A) (A) (A) (A) (A) (A) (A) (A) (A) (A)
                 (A) (A) (A) (A) (A) (A) (A) (A) (A) (A)
 The electronic state is 1-A.
 Alpha  occ. eigenvalues --  -19.20585 -19.14527 -10.32678 -10.25396 -10.20733
 Alpha  occ. eigenvalues --  -10.20558 -10.20296 -10.20253 -10.19838 -10.19791
 Alpha  occ. eigenvalues --  -10.19387 -10.19379 -10.19322 -10.19306 -10.19263
 Alpha  occ. eigenvalues --  -10.19219 -10.19215 -10.19177 -10.19167 -10.19165
 Alpha  occ. eigenvalues --  -10.19137 -10.19089 -10.19070 -10.19034  -1.09741
 Alpha  occ. eigenvalues --   -1.01968  -0.88591  -0.85916  -0.85502  -0.80492
 Alpha  occ. eigenvalues --   -0.79443  -0.77636  -0.75048  -0.74810  -0.74573
 Alpha  occ. eigenvalues --   -0.72114  -0.69353  -0.65638  -0.63044  -0.61730
 Alpha  occ. eigenvalues --   -0.60728  -0.59656  -0.58908  -0.56408  -0.53581
 Alpha  occ. eigenvalues --   -0.53206  -0.51543  -0.49991  -0.49061  -0.47573
 Alpha  occ. eigenvalues --   -0.47253  -0.46665  -0.46397  -0.45640  -0.45527
 Alpha  occ. eigenvalues --   -0.43890  -0.43088  -0.42248  -0.42090  -0.41318
 Alpha  occ. eigenvalues --   -0.41120  -0.40005  -0.39716  -0.38848  -0.38221
 Alpha  occ. eigenvalues --   -0.37523  -0.36445  -0.36112  -0.35325  -0.34635
 Alpha  occ. eigenvalues --   -0.34335  -0.33811  -0.33622  -0.31458  -0.30305
 Alpha  occ. eigenvalues --   -0.28860  -0.28079  -0.25253  -0.25145  -0.24840
 Alpha  occ. eigenvalues --   -0.24564  -0.18691
 Alpha virt. eigenvalues --   -0.07114  -0.01554  -0.00830  -0.00450   0.00286
 Alpha virt. eigenvalues --    0.00888   0.04261   0.06474   0.09114   0.09446
 Alpha virt. eigenvalues --    0.10279   0.10876   0.12392   0.12519   0.13381
 Alpha virt. eigenvalues --    0.14618   0.15521   0.15719   0.15818   0.16311
 Alpha virt. eigenvalues --    0.16956   0.17361   0.18261   0.18627   0.19346
 Alpha virt. eigenvalues --    0.19503   0.20486   0.21590   0.23240   0.24870
 Alpha virt. eigenvalues --    0.25092   0.25380   0.27179   0.28691   0.30061
 Alpha virt. eigenvalues --    0.30420   0.30817   0.31694   0.32219   0.33079
 Alpha virt. eigenvalues --    0.33638   0.33777   0.34913   0.36047   0.36907
 Alpha virt. eigenvalues --    0.38863   0.46245   0.46811   0.47049   0.48684
 Alpha virt. eigenvalues --    0.49843   0.50566   0.50951   0.51594   0.52396
 Alpha virt. eigenvalues --    0.52908   0.53317   0.54050   0.54801   0.54984
 Alpha virt. eigenvalues --    0.55191   0.55873   0.56150   0.56630   0.56795
 Alpha virt. eigenvalues --    0.56930   0.57881   0.58457   0.59078   0.59514
 Alpha virt. eigenvalues --    0.59784   0.59993   0.60455   0.60800   0.60937
 Alpha virt. eigenvalues --    0.61460   0.61575   0.61776   0.61923   0.62318
 Alpha virt. eigenvalues --    0.62816   0.63316   0.63916   0.64140   0.64886
 Alpha virt. eigenvalues --    0.65652   0.65998   0.66868   0.68014   0.69376
 Alpha virt. eigenvalues --    0.70404   0.71209   0.73257   0.74570   0.75750
 Alpha virt. eigenvalues --    0.78522   0.79913   0.80492   0.81739   0.82331
 Alpha virt. eigenvalues --    0.82880   0.83301   0.83594   0.83695   0.83902
 Alpha virt. eigenvalues --    0.83933   0.84685   0.85686   0.86321   0.86766
 Alpha virt. eigenvalues --    0.87279   0.88496   0.88951   0.89774   0.90445
 Alpha virt. eigenvalues --    0.92139   0.92285   0.92917   0.93085   0.94215
 Alpha virt. eigenvalues --    0.95438   0.96229   0.96746   0.98131   0.98813
 Alpha virt. eigenvalues --    0.99573   1.00788   1.02849   1.03365   1.04979
 Alpha virt. eigenvalues --    1.05971   1.07876   1.08944   1.09225   1.10511
 Alpha virt. eigenvalues --    1.11681   1.12470   1.13498   1.14423   1.15349
 Alpha virt. eigenvalues --    1.16910   1.17737   1.18518   1.19976   1.20205
 Alpha virt. eigenvalues --    1.22541   1.24018   1.25003   1.25519   1.26113
 Alpha virt. eigenvalues --    1.26607   1.29337   1.33441   1.33899   1.35568
 Alpha virt. eigenvalues --    1.37237   1.40183   1.41024   1.42133   1.42659
 Alpha virt. eigenvalues --    1.43723   1.45105   1.45650   1.46593   1.47402
 Alpha virt. eigenvalues --    1.47886   1.48291   1.48620   1.48812   1.49671
 Alpha virt. eigenvalues --    1.49910   1.50103   1.50736   1.51139   1.53245
 Alpha virt. eigenvalues --    1.53971   1.56318   1.58886   1.60563   1.65682
 Alpha virt. eigenvalues --    1.68309   1.72747   1.75230   1.75777   1.76293
 Alpha virt. eigenvalues --    1.78035   1.78477   1.80970   1.81192   1.82400
 Alpha virt. eigenvalues --    1.83193   1.83663   1.84756   1.85785   1.86625
 Alpha virt. eigenvalues --    1.88297   1.89243   1.90962   1.91559   1.91676
 Alpha virt. eigenvalues --    1.92180   1.92607   1.93304   1.93679   1.95122
 Alpha virt. eigenvalues --    1.95310   1.97412   1.98062   1.99962   2.00085
 Alpha virt. eigenvalues --    2.01259   2.03370   2.04064   2.05216   2.05660
 Alpha virt. eigenvalues --    2.07694   2.08170   2.10005   2.12389   2.12583
 Alpha virt. eigenvalues --    2.14343   2.15190   2.16026   2.17510   2.18917
 Alpha virt. eigenvalues --    2.20233   2.20552   2.23562   2.23866   2.26946
 Alpha virt. eigenvalues --    2.27720   2.28153   2.28866   2.29734   2.30316
 Alpha virt. eigenvalues --    2.30557   2.31661   2.32514   2.35760   2.36146
 Alpha virt. eigenvalues --    2.37414   2.37673   2.39900   2.41026   2.42280
 Alpha virt. eigenvalues --    2.45488   2.46459   2.50931   2.56867   2.57480
 Alpha virt. eigenvalues --    2.58013   2.59715   2.63080   2.63922   2.65105
 Alpha virt. eigenvalues --    2.66202   2.66672   2.67705   2.68216   2.68309
 Alpha virt. eigenvalues --    2.72067   2.72482   2.73319   2.73819   2.73984
 Alpha virt. eigenvalues --    2.74533   2.75608   2.76730   2.80986   2.82946
 Alpha virt. eigenvalues --    2.83910   2.85602   2.88301   2.91048   2.94173
 Alpha virt. eigenvalues --    2.95418   2.97804   3.04784   3.05496   3.08877
 Alpha virt. eigenvalues --    3.15275   3.18987   3.31489   3.40588   3.47061
 Alpha virt. eigenvalues --    3.52227   4.07805   4.08494   4.09135   4.09743
 Alpha virt. eigenvalues --    4.10781   4.11518   4.12118   4.12763   4.13499
 Alpha virt. eigenvalues --    4.15537   4.18481   4.20320   4.25652   4.32937
 Alpha virt. eigenvalues --    4.33972   4.35509   4.39502   4.43297   4.44367
 Alpha virt. eigenvalues --    4.52190   4.58966   4.66538   4.70687   4.90664
          Condensed to atoms (all electrons):
              1          2          3          4          5          6
     1  O    8.026398   0.549876  -0.069590   0.011043  -0.000793   0.000026
     2  C    0.549876   4.396756   0.209579  -0.003379  -0.004370   0.000333
     3  O   -0.069590   0.209579   8.412375   0.185805  -0.071911  -0.003005
     4  C    0.011043  -0.003379   0.185805   5.289797   0.305795  -0.108133
     5  C   -0.000793  -0.004370  -0.071911   0.305795   4.919187   0.416165
     6  C    0.000026   0.000333  -0.003005  -0.108133   0.416165   5.176445
     7  C   -0.000001   0.000024   0.000516   0.007422  -0.000715   0.512119
     8  C   -0.000000  -0.000001  -0.000002  -0.000895  -0.038889  -0.018552
     9  C    0.000000  -0.000000  -0.000062   0.016150  -0.027153  -0.074792
    10  C   -0.000048   0.000066   0.003813   0.038247   0.428189  -0.052327
    11  C    0.000007  -0.000018  -0.000010  -0.129633  -0.013305   0.018693
    12  C   -0.000265   0.000050   0.004034   0.037450  -0.058139  -0.001848
    13  C    0.000759  -0.009160  -0.065286   0.290931   0.007328   0.014357
    14  C    0.000420   0.003555  -0.003891  -0.101525   0.014045  -0.000061
    15  C   -0.000087  -0.000006   0.000536   0.007395  -0.000330  -0.000001
    16  C    0.000001  -0.000002  -0.000006  -0.000935   0.000036   0.000000
    17  C    0.000001  -0.000007  -0.000058   0.016063   0.000159  -0.000002
    18  C   -0.075457   0.323855  -0.084991   0.003195  -0.000416  -0.000159
    19  C   -0.002647  -0.031618  -0.000494  -0.000202  -0.000012   0.000003
    20  C   -0.000071  -0.003198   0.000443  -0.000044   0.000000  -0.000000
    21  C   -0.000002  -0.000008   0.000004  -0.000000  -0.000000   0.000000
    22  C    0.000001   0.000011  -0.000000   0.000000  -0.000000   0.000000
    23  C    0.000037   0.000100   0.000001   0.000000   0.000000   0.000000
    24  C    0.003325  -0.002538   0.000140  -0.000003   0.000000  -0.000000
    25  H   -0.000104   0.000216   0.009041  -0.011469  -0.038488   0.355548
    26  H   -0.000000  -0.000000  -0.000002  -0.000156   0.002549  -0.035905
    27  H   -0.000000  -0.000000   0.000000   0.000016   0.001106   0.004142
    28  H    0.000000   0.000000   0.000000  -0.000166   0.004432   0.000538
    29  H    0.000000   0.000000   0.000002   0.000687   0.004169  -0.000211
    30  H   -0.001339   0.001850   0.004905  -0.012409   0.000096   0.000003
    31  H   -0.000001  -0.000000   0.000000  -0.000149   0.000003  -0.000000
    32  H    0.000000   0.000000   0.000000   0.000016  -0.000001  -0.000000
    33  H    0.000000   0.000000   0.000000  -0.000161   0.000008  -0.000000
    34  H   -0.001403  -0.029325   0.002197  -0.000148   0.000036  -0.000007
    35  H    0.003023  -0.029244   0.005958   0.000428  -0.000022   0.000011
    36  H    0.000011   0.000100   0.000161   0.000004  -0.000000   0.000000
    37  H    0.000000  -0.000000  -0.000000   0.000000   0.000000  -0.000000
    38  H   -0.000000   0.000000  -0.000000  -0.000000  -0.000000   0.000000
    39  H   -0.000000  -0.000002  -0.000000   0.000000   0.000000  -0.000000
    40  H    0.001503   0.000366   0.000007  -0.000001   0.000000  -0.000000
              7          8          9         10         11         12
     1  O   -0.000001  -0.000000   0.000000  -0.000048   0.000007  -0.000265
     2  C    0.000024  -0.000001  -0.000000   0.000066  -0.000018   0.000050
     3  O    0.000516  -0.000002  -0.000062   0.003813  -0.000010   0.004034
     4  C    0.007422  -0.000895   0.016150   0.038247  -0.129633   0.037450
     5  C   -0.000715  -0.038889  -0.027153   0.428189  -0.013305  -0.058139
     6  C    0.512119  -0.018552  -0.074792  -0.052327   0.018693  -0.001848
     7  C    4.899058   0.490831  -0.022170  -0.035081  -0.000688   0.000095
     8  C    0.490831   4.904732   0.520963  -0.003277   0.007764  -0.000334
     9  C   -0.022170   0.520963   5.109582   0.436828  -0.086480   0.008007
    10  C   -0.035081  -0.003277   0.436828   4.761316   0.372854   0.037301
    11  C   -0.000688   0.007764  -0.086480   0.372854   5.480784   0.373718
    12  C    0.000095  -0.000334   0.008007   0.037301   0.373718   4.763282
    13  C   -0.000360   0.000040  -0.000080  -0.057230  -0.014786   0.425883
    14  C   -0.000001   0.000000  -0.000004  -0.001782   0.018644  -0.050131
    15  C    0.000000  -0.000000   0.000000   0.000090  -0.000726  -0.035180
    16  C   -0.000000  -0.000000   0.000002  -0.000336   0.007904  -0.002615
    17  C    0.000000   0.000002  -0.000349   0.007746  -0.086215   0.434712
    18  C    0.000000   0.000000  -0.000000   0.000007  -0.000000   0.000011
    19  C    0.000000   0.000000  -0.000000  -0.000000   0.000000   0.000000
    20  C   -0.000000   0.000000   0.000000  -0.000000   0.000000   0.000000
    21  C   -0.000000  -0.000000   0.000000  -0.000000   0.000000   0.000000
    22  C    0.000000  -0.000000  -0.000000   0.000000  -0.000000  -0.000000
    23  C    0.000000  -0.000000   0.000000  -0.000000  -0.000000  -0.000000
    24  C   -0.000000   0.000000   0.000000  -0.000000   0.000000   0.000000
    25  H   -0.044748   0.004789   0.000539   0.004838  -0.000190   0.000005
    26  H    0.359535  -0.042622   0.004389   0.000970   0.000009  -0.000001
    27  H   -0.041881   0.356544  -0.035075   0.002525  -0.000208   0.000004
    28  H    0.004724  -0.045395   0.356529  -0.041461  -0.008570   0.000307
    29  H    0.000018   0.000185  -0.007349  -0.041308   0.350527  -0.041319
    30  H   -0.000000   0.000000   0.000000   0.000003  -0.000168   0.004796
    31  H   -0.000000   0.000000   0.000000  -0.000001   0.000009   0.000957
    32  H    0.000000  -0.000000  -0.000000   0.000004  -0.000209   0.002543
    33  H    0.000000   0.000000  -0.000001   0.000339  -0.008724  -0.041986
    34  H   -0.000000   0.000000   0.000000  -0.000000  -0.000000  -0.000000
    35  H    0.000000   0.000000  -0.000000  -0.000001   0.000000  -0.000001
    36  H   -0.000000   0.000000  -0.000000  -0.000000   0.000000   0.000000
[...]
   153    C   11  S      Ryd( 3S)     0.00059
   154    C   11  S      Ryd( 4S)     0.00005
   155    C   11  px     Val( 2p)     1.14067
   156    C   11  px     Ryd( 3p)     0.00410
   157    C   11  py     Val( 2p)     1.09208
   158    C   11  py     Ryd( 3p)     0.00366
   159    C   11  pz     Val( 2p)     0.99175
   160    C   11  pz     Ryd( 3p)     0.00237
   161    C   11  dxy    Ryd( 3d)     0.00083
   162    C   11  dxz    Ryd( 3d)     0.00043
   163    C   11  dyz    Ryd( 3d)     0.00053
   164    C   11  dx2y2  Ryd( 3d)     0.00067
   165    C   11  dz2    Ryd( 3d)     0.00041

   166    C   12  S      Cor( 1S)     1.99903
   167    C   12  S      Val( 2S)     0.86824
   168    C   12  S      Ryd( 3S)     0.00053
   169    C   12  S      Ryd( 4S)     0.00007
   170    C   12  px     Val( 2p)     1.08034
   171    C   12  px     Ryd( 3p)     0.00558
   172    C   12  py     Val( 2p)     1.08874
   173    C   12  py     Ryd( 3p)     0.00492
   174    C   12  pz     Val( 2p)     1.00104
   175    C   12  pz     Ryd( 3p)     0.00065
   176    C   12  dxy    Ryd( 3d)     0.00074
   177    C   12  dxz    Ryd( 3d)     0.00068
   178    C   12  dyz    Ryd( 3d)     0.00076
   179    C   12  dx2y2  Ryd( 3d)     0.00066
   180    C   12  dz2    Ryd( 3d)     0.00035

   181    C   13  S      Cor( 1S)     1.99894
   182    C   13  S      Val( 2S)     0.87093
   183    C   13  S      Ryd( 3S)     0.00066
   184    C   13  S      Ryd( 4S)     0.00007
   185    C   13  px     Val( 2p)     1.09399
   186    C   13  px     Ryd( 3p)     0.00469
   187    C   13  py     Val( 2p)     1.08955
   188    C   13  py     Ryd( 3p)     0.00528
   189    C   13  pz     Val( 2p)     1.01314
   190    C   13  pz     Ryd( 3p)     0.00088
   191    C   13  dxy    Ryd( 3d)     0.00060
   192    C   13  dxz    Ryd( 3d)     0.00061
   193    C   13  dyz    Ryd( 3d)     0.00084
   194    C   13  dx2y2  Ryd( 3d)     0.00075
   195    C   13  dz2    Ryd( 3d)     0.00036

   196    C   14  S      Cor( 1S)     1.99906
   197    C   14  S      Val( 2S)     0.95102
   198    C   14  S      Ryd( 3S)     0.00075
   199    C   14  S      Ryd( 4S)     0.00005
   200    C   14  px     Val( 2p)     1.13439
   201    C   14  px     Ryd( 3p)     0.00463
   202    C   14  py     Val( 2p)     1.11092
   203    C   14  py     Ryd( 3p)     0.00441
   204    C   14  pz     Val( 2p)     0.99489
   205    C   14  pz     Ryd( 3p)     0.00252
   206    C   14  dxy    Ryd( 3d)     0.00084
   207    C   14  dxz    Ryd( 3d)     0.00035
   208    C   14  dyz    Ryd( 3d)     0.00060
   209    C   14  dx2y2  Ryd( 3d)     0.00063
   210    C   14  dz2    Ryd( 3d)     0.00041

   211    C   15  S      Cor( 1S)     1.99911
   212    C   15  S      Val( 2S)     0.96394
   213    C   15  S      Ryd( 3S)     0.00062
   214    C   15  S      Ryd( 4S)     0.00003
   215    C   15  px     Val( 2p)     1.16432
   216    C   15  px     Ryd( 3p)     0.00500
   217    C   15  py     Val( 2p)     1.08836
   218    C   15  py     Ryd( 3p)     0.00471
   219    C   15  pz     Val( 2p)     0.99453
   220    C   15  pz     Ryd( 3p)     0.00157
   221    C   15  dxy    Ryd( 3d)     0.00075
   222    C   15  dxz    Ryd( 3d)     0.00034
   223    C   15  dyz    Ryd( 3d)     0.00067
   224    C   15  dx2y2  Ryd( 3d)     0.00075
   225    C   15  dz2    Ryd( 3d)     0.00044

   226    C   16  S      Cor( 1S)     1.99910
   227    C   16  S      Val( 2S)     0.96396
   228    C   16  S      Ryd( 3S)     0.00060
   229    C   16  S      Ryd( 4S)     0.00003
   230    C   16  px     Val( 2p)     1.06159
   231    C   16  px     Ryd( 3p)     0.00455
   232    C   16  py     Val( 2p)     1.19311
   233    C   16  py     Ryd( 3p)     0.00509
   234    C   16  pz     Val( 2p)     0.99613
   235    C   16  pz     Ryd( 3p)     0.00148
   236    C   16  dxy    Ryd( 3d)     0.00062
   237    C   16  dxz    Ryd( 3d)     0.00068
   238    C   16  dyz    Ryd( 3d)     0.00033
   239    C   16  dx2y2  Ryd( 3d)     0.00088
   240    C   16  dz2    Ryd( 3d)     0.00044

   241    C   17  S      Cor( 1S)     1.99906
   242    C   17  S      Val( 2S)     0.95118
   243    C   17  S      Ryd( 3S)     0.00069
   244    C   17  S      Ryd( 4S)     0.00004
   245    C   17  px     Val( 2p)     1.15887
   246    C   17  px     Ryd( 3p)     0.00448
   247    C   17  py     Val( 2p)     1.08122
   248    C   17  py     Ryd( 3p)     0.00430
   249    C   17  pz     Val( 2p)     1.00138
   250    C   17  pz     Ryd( 3p)     0.00215
   251    C   17  dxy    Ryd( 3d)     0.00081
   252    C   17  dxz    Ryd( 3d)     0.00050
   253    C   17  dyz    Ryd( 3d)     0.00044
   254    C   17  dx2y2  Ryd( 3d)     0.00068
   255    C   17  dz2    Ryd( 3d)     0.00041

   256    C   18  S      Cor( 1S)     1.99914
   257    C   18  S      Val( 2S)     1.05658
   258    C   18  S      Ryd( 3S)     0.00055
   259    C   18  S      Ryd( 4S)     0.00002
   260    C   18  px     Val( 2p)     1.06913
   261    C   18  px     Ryd( 3p)     0.00113
   262    C   18  py     Val( 2p)     1.15958
   263    C   18  py     Ryd( 3p)     0.00121
   264    C   18  pz     Val( 2p)     1.26235
   265    C   18  pz     Ryd( 3p)     0.00621
   266    C   18  dxy    Ryd( 3d)     0.00078
   267    C   18  dxz    Ryd( 3d)     0.00043
   268    C   18  dyz    Ryd( 3d)     0.00104
   269    C   18  dx2y2  Ryd( 3d)     0.00057
   270    C   18  dz2    Ryd( 3d)     0.00072

   271    C   19  S      Cor( 1S)     1.99900
   272    C   19  S      Val( 2S)     0.88189
   273    C   19  S      Ryd( 3S)     0.00073
   274    C   19  S      Ryd( 4S)     0.00005
   275    C   19  px     Val( 2p)     1.02539
   276    C   19  px     Ryd( 3p)     0.00412
   277    C   19  py     Val( 2p)     1.02962
   278    C   19  py     Ryd( 3p)     0.00283
   279    C   19  pz     Val( 2p)     1.09359
   280    C   19  pz     Ryd( 3p)     0.00454
   281    C   19  dxy    Ryd( 3d)     0.00047
   282    C   19  dxz    Ryd( 3d)     0.00067
   283    C   19  dyz    Ryd( 3d)     0.00067
   284    C   19  dx2y2  Ryd( 3d)     0.00053
   285    C   19  dz2    Ryd( 3d)     0.00060

   286    C   20  S      Cor( 1S)     1.99901
   287    C   20  S      Val( 2S)     0.95234
   288    C   20  S      Ryd( 3S)     0.00057
   289    C   20  S      Ryd( 4S)     0.00004
   290    C   20  px     Val( 2p)     1.06175
   291    C   20  px     Ryd( 3p)     0.00283
   292    C   20  py     Val( 2p)     1.05613
   293    C   20  py     Ryd( 3p)     0.00203
   294    C   20  pz     Val( 2p)     1.14554
   295    C   20  pz     Ryd( 3p)     0.00467
   296    C   20  dxy    Ryd( 3d)     0.00045
   297    C   20  dxz    Ryd( 3d)     0.00061
   298    C   20  dyz    Ryd( 3d)     0.00065
   299    C   20  dx2y2  Ryd( 3d)     0.00045
   300    C   20  dz2    Ryd( 3d)     0.00062

   301    C   21  S      Cor( 1S)     1.99910
   302    C   21  S      Val( 2S)     0.96083
   303    C   21  S      Ryd( 3S)     0.00058
   304    C   21  S      Ryd( 4S)     0.00003
   305    C   21  px     Val( 2p)     1.06119
   306    C   21  px     Ryd( 3p)     0.00323
   307    C   21  py     Val( 2p)     1.02296
   308    C   21  py     Ryd( 3p)     0.00215
   309    C   21  pz     Val( 2p)     1.16996
   310    C   21  pz     Ryd( 3p)     0.00509
   311    C   21  dxy    Ryd( 3d)     0.00041
   312    C   21  dxz    Ryd( 3d)     0.00069
   313    C   21  dyz    Ryd( 3d)     0.00045
   314    C   21  dx2y2  Ryd( 3d)     0.00050
   315    C   21  dz2    Ryd( 3d)     0.00073

   316    C   22  S      Cor( 1S)     1.99909
   317    C   22  S      Val( 2S)     0.96338
   318    C   22  S      Ryd( 3S)     0.00053
   319    C   22  S      Ryd( 4S)     0.00003
   320    C   22  px     Val( 2p)     1.12535
   321    C   22  px     Ryd( 3p)     0.00348
   322    C   22  py     Val( 2p)     1.07193
   323    C   22  py     Ryd( 3p)     0.00239
   324    C   22  pz     Val( 2p)     1.06180
   325    C   22  pz     Ryd( 3p)     0.00431
   326    C   22  dxy    Ryd( 3d)     0.00067
   327    C   22  dxz    Ryd( 3d)     0.00058
   328    C   22  dyz    Ryd( 3d)     0.00054
   329    C   22  dx2y2  Ryd( 3d)     0.00036
   330    C   22  dz2    Ryd( 3d)     0.00062

   331    C   23  S      Cor( 1S)     1.99910
   332    C   23  S      Val( 2S)     0.96153
   333    C   23  S      Ryd( 3S)     0.00060
   334    C   23  S      Ryd( 4S)     0.00003
   335    C   23  px     Val( 2p)     1.05328
   336    C   23  px     Ryd( 3p)     0.00318
   337    C   23  py     Val( 2p)     1.04686
   338    C   23  py     Ryd( 3p)     0.00230
   339    C   23  pz     Val( 2p)     1.15118
   340    C   23  pz     Ryd( 3p)     0.00502
   341    C   23  dxy    Ryd( 3d)     0.00045
   342    C   23  dxz    Ryd( 3d)     0.00060
   343    C   23  dyz    Ryd( 3d)     0.00064
   344    C   23  dx2y2  Ryd( 3d)     0.00047
   345    C   23  dz2    Ryd( 3d)     0.00063

   346    C   24  S      Cor( 1S)     1.99902
   347    C   24  S      Val( 2S)     0.95399
   348    C   24  S      Ryd( 3S)     0.00066
   349    C   24  S      Ryd( 4S)     0.00005
   350    C   24  px     Val( 2p)     1.06708
   351    C   24  px     Ryd( 3p)     0.00300
   352    C   24  py     Val( 2p)     1.02269
   353    C   24  py     Ryd( 3p)     0.00191
   354    C   24  pz     Val( 2p)     1.17193
   355    C   24  pz     Ryd( 3p)     0.00482
   356    C   24  dxy    Ryd( 3d)     0.00040
   357    C   24  dxz    Ryd( 3d)     0.00071
   358    C   24  dyz    Ryd( 3d)     0.00048
   359    C   24  dx2y2  Ryd( 3d)     0.00049
   360    C   24  dz2    Ryd( 3d)     0.00069

   361    H   25  S      Val( 1S)     0.76107
   362    H   25  S      Ryd( 2S)     0.00127

   363    H   26  S      Val( 1S)     0.76269
   364    H   26  S      Ryd( 2S)     0.00081

   365    H   27  S      Val( 1S)     0.76234
   366    H   27  S      Ryd( 2S)     0.00081

   367    H   28  S      Val( 1S)     0.76573
   368    H   28  S      Ryd( 2S)     0.00110

   369    H   29  S      Val( 1S)     0.76553
   370    H   29  S      Ryd( 2S)     0.00133

   371    H   30  S      Val( 1S)     0.75306
   372    H   30  S      Ryd( 2S)     0.00135

   373    H   31  S      Val( 1S)     0.76111
   374    H   31  S      Ryd( 2S)     0.00081

   375    H   32  S      Val( 1S)     0.76206
   376    H   32  S      Ryd( 2S)     0.00081

   377    H   33  S      Val( 1S)     0.76528
   378    H   33  S      Ryd( 2S)     0.00110

   379    H   34  S      Val( 1S)     0.72685
   380    H   34  S      Ryd( 2S)     0.00141

   381    H   35  S      Val( 1S)     0.73822
   382    H   35  S      Ryd( 2S)     0.00154

   383    H   36  S      Val( 1S)     0.76242
   384    H   36  S      Ryd( 2S)     0.00101

   385    H   37  S      Val( 1S)     0.76071
   386    H   37  S      Ryd( 2S)     0.00085

   387    H   38  S      Val( 1S)     0.76161
   388    H   38  S      Ryd( 2S)     0.00082

   389    H   39  S      Val( 1S)     0.75987
   390    H   39  S      Ryd( 2S)     0.00085

   391    H   40  S      Val( 1S)     0.74961
   392    H   40  S      Ryd( 2S)     0.00153

 WARNING:  1 low occupancy (<1.9990e) core orbital  found on  C    4
           1 low occupancy (<1.9990e) core orbital  found on  C    5
           1 low occupancy (<1.9990e) core orbital  found on  C   13
           1 low occupancy (<1.9990e) core orbital  found on  C   19


 Summary of Natural Population Analysis:                  
                                                          
                                       Natural Population 
                Natural  -----------------------------------------------
    Atom  No    Charge         Core      Valence    Rydberg      Total
 -----------------------------------------------------------------------
      O    1   -0.56832      1.99977     6.54814    0.02041     8.56832
      C    2    0.83402      1.99940     3.11992    0.04666     5.16598
      O    3   -0.54754      1.99971     6.53651    0.01132     8.54754
      C    4    0.35121      1.99860     3.62645    0.02374     5.64879
      C    5   -0.07888      1.99894     4.06515    0.01479     6.07888
      C    6   -0.21467      1.99906     4.20049    0.01512     6.21467
      C    7   -0.22827      1.99910     4.21428    0.01489     6.22827
      C    8   -0.22799      1.99910     4.21416    0.01473     6.22799
      C    9   -0.21335      1.99906     4.19970    0.01460     6.21335
      C   10   -0.04979      1.99903     4.03581    0.01495     6.04979
      C   11   -0.17329      1.99901     4.16066    0.01363     6.17329
      C   12   -0.05232      1.99903     4.03836    0.01494     6.05232
      C   13   -0.08129      1.99894     4.06761    0.01474     6.08129
      C   14   -0.20547      1.99906     4.19122    0.01519     6.20547
      C   15   -0.22512      1.99911     4.21114    0.01487     6.22512
      C   16   -0.22859      1.99910     4.21480    0.01469     6.22859
      C   17   -0.20622      1.99906     4.19266    0.01451     6.20622
      C   18   -0.55944      1.99914     4.54764    0.01265     6.55944
      C   19   -0.04469      1.99900     4.03049    0.01521     6.04469
      C   20   -0.22769      1.99901     4.21576    0.01293     6.22769
      C   21   -0.22789      1.99910     4.21493    0.01386     6.22789
      C   22   -0.23507      1.99909     4.22246    0.01352     6.23507
      C   23   -0.22587      1.99910     4.21285    0.01392     6.22587
      C   24   -0.22791      1.99902     4.21569    0.01320     6.22791
      H   25    0.23766      0.00000     0.76107    0.00127     0.76234
      H   26    0.23650      0.00000     0.76269    0.00081     0.76350
      H   27    0.23685      0.00000     0.76234    0.00081     0.76315
      H   28    0.23318      0.00000     0.76573    0.00110     0.76682
      H   29    0.23314      0.00000     0.76553    0.00133     0.76686
      H   30    0.24559      0.00000     0.75306    0.00135     0.75441
      H   31    0.23808      0.00000     0.76111    0.00081     0.76192
      H   32    0.23712      0.00000     0.76206    0.00081     0.76288
      H   33    0.23361      0.00000     0.76528    0.00110     0.76639
      H   34    0.27175      0.00000     0.72685    0.00141     0.72825
      H   35    0.26024      0.00000     0.73822    0.00154     0.73976
      H   36    0.23657      0.00000     0.76242    0.00101     0.76343
      H   37    0.23844      0.00000     0.76071    0.00085     0.76156
      H   38    0.23756      0.00000     0.76161    0.00082     0.76244
      H   39    0.23928      0.00000     0.75987    0.00085     0.76072
      H   40    0.24886      0.00000     0.74961    0.00153     0.75114
 =======================================================================
   * Total *    0.00000     47.97853   115.61501    0.40646   164.00000

                                 Natural Population      
 --------------------------------------------------------
   Core                      47.97853 ( 99.9553% of  48)
   Valence                  115.61501 ( 99.6681% of 116)
   Natural Minimal Basis    163.59354 ( 99.7522% of 164)
   Natural Rydberg Basis      0.40646 (  0.2478% of 164)
 --------------------------------------------------------

    Atom  No          Natural Electron Configuration
 ----------------------------------------------------------------------------
      O    1      [core]2S( 1.70)2p( 4.85)3d( 0.02)
      C    2      [core]2S( 0.79)2p( 2.33)3p( 0.03)3d( 0.01)
      O    3      [core]2S( 1.60)2p( 4.93)3d( 0.01)
      C    4      [core]2S( 0.82)2p( 2.81)3p( 0.02)3d( 0.01)
      C    5      [core]2S( 0.87)2p( 3.19)3p( 0.01)
      C    6      [core]2S( 0.95)2p( 3.25)3p( 0.01)
      C    7      [core]2S( 0.96)2p( 3.25)3p( 0.01)
      C    8      [core]2S( 0.96)2p( 3.25)3p( 0.01)
      C    9      [core]2S( 0.95)2p( 3.25)3p( 0.01)
      C   10      [core]2S( 0.87)2p( 3.17)3p( 0.01)
      C   11      [core]2S( 0.94)2p( 3.22)3p( 0.01)
      C   12      [core]2S( 0.87)2p( 3.17)3p( 0.01)
      C   13      [core]2S( 0.87)2p( 3.20)3p( 0.01)
      C   14      [core]2S( 0.95)2p( 3.24)3p( 0.01)
      C   15      [core]2S( 0.96)2p( 3.25)3p( 0.01)
      C   16      [core]2S( 0.96)2p( 3.25)3p( 0.01)
      C   17      [core]2S( 0.95)2p( 3.24)3p( 0.01)
      C   18      [core]2S( 1.06)2p( 3.49)3p( 0.01)
      C   19      [core]2S( 0.88)2p( 3.15)3p( 0.01)
      C   20      [core]2S( 0.95)2p( 3.26)3p( 0.01)
      C   21      [core]2S( 0.96)2p( 3.25)3p( 0.01)
      C   22      [core]2S( 0.96)2p( 3.26)3p( 0.01)
      C   23      [core]2S( 0.96)2p( 3.25)3p( 0.01)
      C   24      [core]2S( 0.95)2p( 3.26)3p( 0.01)
      H   25            1S( 0.76)
      H   26            1S( 0.76)
      H   27            1S( 0.76)
      H   28            1S( 0.77)
      H   29            1S( 0.77)
      H   30            1S( 0.75)
      H   31            1S( 0.76)
      H   32            1S( 0.76)
      H   33            1S( 0.77)
      H   34            1S( 0.73)
      H   35            1S( 0.74)
      H   36            1S( 0.76)
      H   37            1S( 0.76)
      H   38            1S( 0.76)
      H   39            1S( 0.76)
      H   40            1S( 0.75)


 NBO analysis skipped by request.
 Leave Link  607 at Thu Sep 30 10:42:22 2021, MaxMem= 1610612736 cpu:      30.7
 (Enter /sw/target/amd/app/gaussian/Gaussian09RevA.02_gcc-4.9.2/g09/l9999.exe)
 1\1\GINC-HERMITE\SP\RTD-B3LYP-FC\6-31G(d)\C22H16O2\JSCHLEINITZ\30-Sep-
 2021\0\\#p TD(NStates=10, Root=1) b3lyp/6-31G* volume pop=NPA density=
 current Geom=AllCheck Guess=Read\\O=C(Oc1c2ccccc2cc2c1cccc2)Cc1ccccc1_
 conf_0\\0,1\O,0,3.6180449664,2.0031948869,-2.6794524092\C,0,3.90919109
 42,2.0513648592,-3.8474869382\O,0,5.1978675508,2.0782227241,-4.3212839
 379\C,0,6.2449755857,2.0810128455,-3.3891887374\C,0,6.8206644063,0.853
 7875652,-3.0330278065\C,0,6.3597014004,-0.3997072913,-3.5411328432\C,0
 ,6.9575922227,-1.5714854686,-3.1586045542\C,0,8.052026851,-1.565129904
 6,-2.2456792954\C,0,8.5245124775,-0.3825275171,-1.7425487546\C,0,7.935
 6449338,0.8661550335,-2.1147323283\C,0,8.405266096,2.0865838235,-1.617
 0250684\C,0,7.8298667424,3.305162233,-1.994438365\C,0,6.715521337,3.31
 28194849,-2.9137108202\C,0,6.148320248,4.5657161923,-3.3027490536\C,0,
 6.6454981024,5.7402929396,-2.8023584861\C,0,7.7371938387,5.7379185795,
 -1.8862309906\C,0,8.3105576365,4.5566447073,-1.4977306079\C,0,2.923496
 9084,2.1378083178,-5.000194223\C,0,2.5558129529,3.5851480961,-5.296380
 538\C,0,2.8784393311,4.1678363067,-6.5269160982\C,0,2.5303864133,5.492
 8118091,-6.7984969799\C,0,1.860129174,6.2511836662,-5.8383284553\C,0,1
 .5419155115,5.6790302034,-4.6041166628\C,0,1.8878412494,4.3555408837,-
 4.333897416\H,0,5.5335033242,-0.408103016,-4.2436285936\H,0,6.59760520
 63,-2.5174796777,-3.5537550981\H,0,8.5104993849,-2.5058354164,-1.95345
 89113\H,0,9.3612876681,-0.3708211135,-1.0483462315\H,0,9.2424662621,2.
 0884930575,-0.9225257318\H,0,5.3241535314,4.5755908582,-4.0075462347\H
 ,0,6.2055798621,6.6860242311,-3.1065725385\H,0,8.1138402175,6.68119759
 ,-1.500193484\H,0,9.1466458562,4.5482323179,-0.8026396791\H,0,2.034781
 4714,1.5733357219,-4.700159179\H,0,3.3540301566,1.6691376406,-5.888848
 6289\H,0,3.40125078,3.5807604108,-7.27815229\H,0,2.7842026991,5.929904
 938,-7.7606001733\H,0,1.5871275749,7.2816553463,-6.049218508\H,0,1.022
 2017623,6.2639056731,-3.8498708046\H,0,1.6483132211,3.9136902928,-3.37
 03066688\\Version=AM64L-G09RevA.02\State=1-A\HF=-998.4534612\RMSD=8.68
 0e-09\Dipole=0.1218003,0.2746205,-0.548809\Quadrupole=-1.7440763,5.349
 0385,-3.6049622,-2.7886725,8.2234797,0.7332339\PG=C01 [X(C22H16O2)]\\@


 MAN IS A SINGULAR CREATURE.  HE HAS A SET OF GIFTS
 WHICH MAKE HIM UNIQUE AMONG THE ANIMALS: SO THAT, 
 UNLIKE THEM, HE IS NOT A FIGURE IN THE LANDSCAPE --
 HE IS A SHAPER OF THE LANDSCAPE.

                       -- JACOB BRONOWSKI
 Job cpu time:  0 days  9 hours 20 minutes 13.0 seconds.
 File lengths (MBytes):  RWF=    483 Int=      0 D2E=      0 Chk=     68 Scr=      1
 Normal termination of Gaussian 09 at Thu Sep 30 10:42:28 2021.
