 Entering Gaussian System, Link 0=g09
 Input=C23H27N3O4_c44b_conf_0.com
 Output=C23H27N3O4_c44b_conf_0.log
 Initial command:
 /sw/target/amd/app/gaussian/Gaussian09RevA.02_gcc-4.9.2/g09/l1.exe /home/jschleinitz/gaussian/Gau-3299875.inp -scrdir=/home/jschleinitz/gaussian/
 Entering Link 1 = /sw/target/amd/app/gaussian/Gaussian09RevA.02_gcc-4.9.2/g09/l1.exe PID=   3299884.
  
 Copyright (c) 1988,1990,1992,1993,1995,1998,2003,2009, Gaussian, Inc.
                  All Rights Reserved.
  
 This is part of the Gaussian(R) 09 program.  It is based on
 the Gaussian(R) 03 system (copyright 2003, Gaussian, Inc.),
 the Gaussian(R) 98 system (copyright 1998, Gaussian, Inc.),
 the Gaussian(R) 94 system (copyright 1995, Gaussian, Inc.),
 the Gaussian 92(TM) system (copyright 1992, Gaussian, Inc.),
 the Gaussian 90(TM) system (copyright 1990, Gaussian, Inc.),
 the Gaussian 88(TM) system (copyright 1988, Gaussian, Inc.),
 the Gaussian 86(TM) system (copyright 1986, Carnegie Mellon
 University), and the Gaussian 82(TM) system (copyright 1983,
 Carnegie Mellon University). Gaussian is a federally registered
 trademark of Gaussian, Inc.
  
 This software contains proprietary and confidential information,
 including trade secrets, belonging to Gaussian, Inc.
  
 This software is provided under written license and may be
 used, copied, transmitted, or stored only in accord with that
 written license.
  
 The following legend is applicable only to US Government
 contracts under FAR:
  
                    RESTRICTED RIGHTS LEGEND
  
 Use, reproduction and disclosure by the US Government is
 subject to restrictions as set forth in subparagraphs (a)
 and (c) of the Commercial Computer Software - Restricted
 Rights clause in FAR 52.227-19.
  
 Gaussian, Inc.
 340 Quinnipiac St., Bldg. 40, Wallingford CT 06492
  
  
 ---------------------------------------------------------------
 Warning -- This program may not be used in any manner that
 competes with the business of Gaussian, Inc. or will provide
 assistance to any competitor of Gaussian, Inc.  The licensee
 of this program is prohibited from giving any competitor of
 Gaussian, Inc. access to this program.  By using this program,
 the user acknowledges that Gaussian, Inc. is engaged in the
 business of creating and licensing software in the field of
 computational chemistry and represents and warrants to the
 licensee that it is not a competitor of Gaussian, Inc. and that
 it will not use this program in any manner prohibited above.
 ---------------------------------------------------------------
  

 Cite this work as:
 Gaussian 09, Revision A.02,
 M. J. Frisch, G. W. Trucks, H. B. Schlegel, G. E. Scuseria, 
 M. A. Robb, J. R. Cheeseman, G. Scalmani, V. Barone, B. Mennucci, 
 G. A. Petersson, H. Nakatsuji, M. Caricato, X. Li, H. P. Hratchian, 
 A. F. Izmaylov, J. Bloino, G. Zheng, J. L. Sonnenberg, M. Hada, 
 M. Ehara, K. Toyota, R. Fukuda, J. Hasegawa, M. Ishida, T. Nakajima, 
 Y. Honda, O. Kitao, H. Nakai, T. Vreven, J. A. Montgomery, Jr., 
 J. E. Peralta, F. Ogliaro, M. Bearpark, J. J. Heyd, E. Brothers, 
 K. N. Kudin, V. N. Staroverov, R. Kobayashi, J. Normand, 
 K. Raghavachari, A. Rendell, J. C. Burant, S. S. Iyengar, J. Tomasi, 
 M. Cossi, N. Rega, J. M. Millam, M. Klene, J. E. Knox, J. B. Cross, 
 V. Bakken, C. Adamo, J. Jaramillo, R. Gomperts, R. E. Stratmann, 
 O. Yazyev, A. J. Austin, R. Cammi, C. Pomelli, J. W. Ochterski, 
 R. L. Martin, K. Morokuma, V. G. Zakrzewski, G. A. Voth, 
 P. Salvador, J. J. Dannenberg, S. Dapprich, A. D. Daniels, 
 O. Farkas, J. B. Foresman, J. V. Ortiz, J. Cioslowski, 
 and D. J. Fox, Gaussian, Inc., Wallingford CT, 2009.
 
 ******************************************
 Gaussian 09:  AM64L-G09RevA.02 11-Jun-2009
                28-Sep-2021 
 ******************************************
 %nproc=9
 Will use up to    9 processors via shared memory.
 %mem=18gb
 %chk=C23H27N3O4_c44b_conf_0.chk
 -----------------------------------
 #p opt b3lyp/6-31G* scf=(xqc,tight)
 -----------------------------------
 1/14=-1,18=20,19=15,26=3,38=1/1,3;
 2/9=110,12=2,17=6,18=5,40=1/2;
 3/5=1,6=6,7=1,11=2,16=1,25=1,30=1,71=1,74=-5/1,2,3;
 4//1;
 5/5=2,8=3,13=1,32=2,38=5/2,8;
 6/7=2,8=2,9=2,10=2,28=1/1;
 7//1,2,3,16;
 1/14=-1,18=20,19=15/3(2);
 2/9=110/2;
 99//99;
 2/9=110/2;
 3/5=1,6=6,7=1,11=2,16=1,25=1,30=1,71=1,74=-5/1,2,3;
 4/5=5,16=3/1;
 5/5=2,8=3,13=1,32=2,38=5/2,8;
 7//1,2,3,16;
 1/14=-1,18=20,19=15/3(-5);
 2/9=110/2;
 6/7=2,8=2,9=2,10=2,19=2,28=1/1;
 99/9=1/99;
 Leave Link    1 at Tue Sep 28 15:18:19 2021, MaxMem= 2415919104 cpu:       0.1
 (Enter /sw/target/amd/app/gaussian/Gaussian09RevA.02_gcc-4.9.2/g09/l101.exe)
 -----------------------------------------------------------
 COc1nc(Oc2ccc3c(c2)CCC2C3CC[C@]3(C2CCC3=O)C)nc(n1)OC_conf_0
 -----------------------------------------------------------
 Symbolic Z-matrix:
 Charge =  0 Multiplicity = 1
 C                     6.51264   2.6437   -6.17133 
 O                     5.47064   2.72446  -7.13511 
 C                     4.22556   2.58542  -6.56293 
 N                     4.04067   2.97502  -5.30719 
 C                     2.7915    2.83393  -4.88485 
 O                     2.55163   3.3072   -3.59889 
 C                     1.30425   3.82493  -3.32092 
 C                     0.86968   3.73157  -2.0016 
 C                    -0.37601   4.24925  -1.63877 
 C                    -1.21237   4.84924  -2.59726 
 C                    -0.7804    4.92566  -3.92798 
 C                     0.50001   4.46893  -4.26318 
 C                    -1.62871   5.50688  -5.0252 
 C                    -3.06999   5.79761  -4.61511 
 C                    -3.11584   6.41883  -3.20837 
 C                    -2.55634   5.41014  -2.177 
 C                    -3.56121   4.28212  -1.91665 
 C                    -4.8478    4.83266  -1.32209 
 C                    -5.46974   6.00681  -2.08661 
 C                    -4.47483   6.99972  -2.73765 
 C                    -5.29283   7.66997  -3.85599 
 C                    -6.19831   6.58038  -4.4285 
 C                    -6.29002   5.58657  -3.29537 
 O                    -6.98716   4.5763   -3.34818 
 C                    -6.43148   6.74559  -1.13232 
 N                     1.79432   2.2941   -5.57753 
 C                     2.1023    1.98108  -6.82539 
 N                     3.29696   2.11671  -7.3833 
 O                     1.03957   1.52376  -7.57367 
 C                     1.40655   1.16449  -8.89858 
 H                     7.46528   2.68931  -6.7065 
 H                     6.47517   1.68933  -5.63328 
 H                     6.48411   3.48729  -5.4737 
 H                     1.49653   3.25737  -1.25184 
 H                    -0.69705   4.17452  -0.60308 
 H                     0.84273   4.60548  -5.28487 
 H                    -1.64338   4.81553  -5.87805 
 H                    -1.15798   6.4371   -5.36508 
 H                    -3.65955   4.87515  -4.65714 
 H                    -3.48548   6.46697  -5.37339 
 H                    -2.42702   7.27786  -3.24327 
 H                    -2.39597   5.96256  -1.2391 
 H                    -3.14348   3.55088  -1.21286 
 H                    -3.7803    3.71719  -2.8301 
 H                    -4.61765   5.15295  -0.297 
 H                    -5.56949   4.0121   -1.225 
 H                    -4.21772   7.7691   -1.99533 
 H                    -4.6761    8.14675  -4.62415 
 H                    -5.91333   8.4678   -3.43115 
 H                    -5.7621    6.09302  -5.30209 
 H                    -7.186     6.97602  -4.67437 
 H                    -5.88003   7.20254  -0.3024 
 H                    -7.16798   6.05412  -0.70701 
 H                    -6.99481   7.54003  -1.63319 
 H                     0.51125   0.79045  -9.40408 
 H                     2.1495    0.3595   -8.89733 
 H                     1.76747   2.033    -9.46082 
 
 NAtoms=     57 NQM=     57 NQMF=      0 NMic=      0 NMicF=      0 NTot=     57.
                    Isotopes and Nuclear Properties:
 (Nuclear quadrupole moments (NQMom) in fm**2, nuclear magnetic moments (NMagM)
  in nuclear magnetons)

  Atom         1           2           3           4           5           6           7           8           9          10
 IAtWgt=          12          16          12          14          12          16          12          12          12          12
 AtmWgt=  12.0000000  15.9949146  12.0000000  14.0030740  12.0000000  15.9949146  12.0000000  12.0000000  12.0000000  12.0000000
 NucSpn=           0           0           0           2           0           0           0           0           0           0
 AtZEff=   0.0000000   0.0000000   0.0000000   0.0000000   0.0000000   0.0000000   0.0000000   0.0000000   0.0000000   0.0000000
 NQMom=    0.0000000   0.0000000   0.0000000   2.0440000   0.0000000   0.0000000   0.0000000   0.0000000   0.0000000   0.0000000
 NMagM=    0.0000000   0.0000000   0.0000000   0.4037610   0.0000000   0.0000000   0.0000000   0.0000000   0.0000000   0.0000000

  Atom        11          12          13          14          15          16          17          18          19          20
 IAtWgt=          12          12          12          12          12          12          12          12          12          12
 AtmWgt=  12.0000000  12.0000000  12.0000000  12.0000000  12.0000000  12.0000000  12.0000000  12.0000000  12.0000000  12.0000000
 NucSpn=           0           0           0           0           0           0           0           0           0           0
 AtZEff=   0.0000000   0.0000000   0.0000000   0.0000000   0.0000000   0.0000000   0.0000000   0.0000000   0.0000000   0.0000000
 NQMom=    0.0000000   0.0000000   0.0000000   0.0000000   0.0000000   0.0000000   0.0000000   0.0000000   0.0000000   0.0000000
 NMagM=    0.0000000   0.0000000   0.0000000   0.0000000   0.0000000   0.0000000   0.0000000   0.0000000   0.0000000   0.0000000

  Atom        21          22          23          24          25          26          27          28          29          30
 IAtWgt=          12          12          12          16          12          14          12          14          16          12
 AtmWgt=  12.0000000  12.0000000  12.0000000  15.9949146  12.0000000  14.0030740  12.0000000  14.0030740  15.9949146  12.0000000
 NucSpn=           0           0           0           0           0           2           0           2           0           0
 AtZEff=   0.0000000   0.0000000   0.0000000   0.0000000   0.0000000   0.0000000   0.0000000   0.0000000   0.0000000   0.0000000
 NQMom=    0.0000000   0.0000000   0.0000000   0.0000000   0.0000000   2.0440000   0.0000000   2.0440000   0.0000000   0.0000000
 NMagM=    0.0000000   0.0000000   0.0000000   0.0000000   0.0000000   0.4037610   0.0000000   0.4037610   0.0000000   0.0000000

  Atom        31          32          33          34          35          36          37          38          39          40
 IAtWgt=           1           1           1           1           1           1           1           1           1           1
 AtmWgt=   1.0078250   1.0078250   1.0078250   1.0078250   1.0078250   1.0078250   1.0078250   1.0078250   1.0078250   1.0078250
 NucSpn=           1           1           1           1           1           1           1           1           1           1
 AtZEff=   0.0000000   0.0000000   0.0000000   0.0000000   0.0000000   0.0000000   0.0000000   0.0000000   0.0000000   0.0000000
 NQMom=    0.0000000   0.0000000   0.0000000   0.0000000   0.0000000   0.0000000   0.0000000   0.0000000   0.0000000   0.0000000
 NMagM=    2.7928460   2.7928460   2.7928460   2.7928460   2.7928460   2.7928460   2.7928460   2.7928460   2.7928460   2.7928460

  Atom        41          42          43          44          45          46          47          48          49          50
 IAtWgt=           1           1           1           1           1           1           1           1           1           1
 AtmWgt=   1.0078250   1.0078250   1.0078250   1.0078250   1.0078250   1.0078250   1.0078250   1.0078250   1.0078250   1.0078250
 NucSpn=           1           1           1           1           1           1           1           1           1           1
 AtZEff=   0.0000000   0.0000000   0.0000000   0.0000000   0.0000000   0.0000000   0.0000000   0.0000000   0.0000000   0.0000000
 NQMom=    0.0000000   0.0000000   0.0000000   0.0000000   0.0000000   0.0000000   0.0000000   0.0000000   0.0000000   0.0000000
 NMagM=    2.7928460   2.7928460   2.7928460   2.7928460   2.7928460   2.7928460   2.7928460   2.7928460   2.7928460   2.7928460

  Atom        51          52          53          54          55          56          57
 IAtWgt=           1           1           1           1           1           1           1
 AtmWgt=   1.0078250   1.0078250   1.0078250   1.0078250   1.0078250   1.0078250   1.0078250
 NucSpn=           1           1           1           1           1           1           1
 AtZEff=   0.0000000   0.0000000   0.0000000   0.0000000   0.0000000   0.0000000   0.0000000
 NQMom=    0.0000000   0.0000000   0.0000000   0.0000000   0.0000000   0.0000000   0.0000000
 NMagM=    2.7928460   2.7928460   2.7928460   2.7928460   2.7928460   2.7928460   2.7928460
 Leave Link  101 at Tue Sep 28 15:18:20 2021, MaxMem= 2415919104 cpu:       0.2
 (Enter /sw/target/amd/app/gaussian/Gaussian09RevA.02_gcc-4.9.2/g09/l103.exe)

 GradGradGradGradGradGradGradGradGradGradGradGradGradGradGradGradGradGrad
 Berny optimization.
 Initialization pass.
                           ----------------------------
                           !    Initial Parameters    !
                           ! (Angstroms and Degrees)  !
 --------------------------                            --------------------------
 ! Name  Definition              Value          Derivative Info.                !
 --------------------------------------------------------------------------------
 ! R1    R(1,2)                  1.4217         estimate D2E/DX2                !
 ! R2    R(1,31)                 1.0936         estimate D2E/DX2                !
 ! R3    R(1,32)                 1.0962         estimate D2E/DX2                !
 ! R4    R(1,33)                 1.0951         estimate D2E/DX2                !
 ! R5    R(2,3)                  1.3773         estimate D2E/DX2                !
 ! R6    R(3,4)                  1.3277         estimate D2E/DX2                !
 ! R7    R(3,28)                 1.3248         estimate D2E/DX2                !
 ! R8    R(4,5)                  1.3262         estimate D2E/DX2                !
 ! R9    R(5,6)                  1.3911         estimate D2E/DX2                !
 ! R10   R(5,26)                 1.3288         estimate D2E/DX2                !
 ! R11   R(6,7)                  1.3789         estimate D2E/DX2                !
 ! R12   R(7,8)                  1.3922         estimate D2E/DX2                !
 ! R13   R(7,12)                 1.3962         estimate D2E/DX2                !
 ! R14   R(8,9)                  1.3969         estimate D2E/DX2                !
 ! R15   R(8,34)                 1.0863         estimate D2E/DX2                !
 ! R16   R(9,10)                 1.4065         estimate D2E/DX2                !
 ! R17   R(9,35)                 1.0869         estimate D2E/DX2                !
 ! R18   R(10,11)                1.4012         estimate D2E/DX2                !
 ! R19   R(10,16)                1.5157         estimate D2E/DX2                !
 ! R20   R(11,12)                1.4001         estimate D2E/DX2                !
 ! R21   R(11,13)                1.5038         estimate D2E/DX2                !
 ! R22   R(12,36)                1.0863         estimate D2E/DX2                !
 ! R23   R(13,14)                1.5264         estimate D2E/DX2                !
 ! R24   R(13,37)                1.098          estimate D2E/DX2                !
 ! R25   R(13,38)                1.0966         estimate D2E/DX2                !
 ! R26   R(14,15)                1.5385         estimate D2E/DX2                !
 ! R27   R(14,39)                1.0956         estimate D2E/DX2                !
 ! R28   R(14,40)                1.0935         estimate D2E/DX2                !
 ! R29   R(15,16)                1.5473         estimate D2E/DX2                !
 ! R30   R(15,20)                1.5511         estimate D2E/DX2                !
 ! R31   R(15,41)                1.1016         estimate D2E/DX2                !
 ! R32   R(16,17)                1.533          estimate D2E/DX2                !
 ! R33   R(16,42)                1.1002         estimate D2E/DX2                !
 ! R34   R(17,18)                1.5205         estimate D2E/DX2                !
 ! R35   R(17,43)                1.0975         estimate D2E/DX2                !
 ! R36   R(17,44)                1.0961         estimate D2E/DX2                !
 ! R37   R(18,19)                1.5329         estimate D2E/DX2                !
 ! R38   R(18,45)                1.0983         estimate D2E/DX2                !
 ! R39   R(18,46)                1.0971         estimate D2E/DX2                !
 ! R40   R(19,20)                1.5491         estimate D2E/DX2                !
 ! R41   R(19,23)                1.5201         estimate D2E/DX2                !
 ! R42   R(19,25)                1.5432         estimate D2E/DX2                !
 ! R43   R(20,21)                1.5392         estimate D2E/DX2                !
 ! R44   R(20,47)                1.0996         estimate D2E/DX2                !
 ! R45   R(21,22)                1.528          estimate D2E/DX2                !
 ! R46   R(21,48)                1.0944         estimate D2E/DX2                !
 ! R47   R(21,49)                1.0964         estimate D2E/DX2                !
 ! R48   R(22,23)                1.51           estimate D2E/DX2                !
 ! R49   R(22,50)                1.0913         estimate D2E/DX2                !
 ! R50   R(22,51)                1.092          estimate D2E/DX2                !
 ! R51   R(23,24)                1.2286         estimate D2E/DX2                !
 ! R52   R(25,52)                1.0962         estimate D2E/DX2                !
 ! R53   R(25,53)                1.0961         estimate D2E/DX2                !
 ! R54   R(25,54)                1.0951         estimate D2E/DX2                !
 ! R55   R(26,27)                1.3229         estimate D2E/DX2                !
 ! R56   R(27,28)                1.3255         estimate D2E/DX2                !
 ! R57   R(27,29)                1.3778         estimate D2E/DX2                !
 ! R58   R(29,30)                1.421          estimate D2E/DX2                !
 ! R59   R(30,55)                1.0941         estimate D2E/DX2                !
 ! R60   R(30,56)                1.0954         estimate D2E/DX2                !
 ! R61   R(30,57)                1.0958         estimate D2E/DX2                !
 ! A1    A(2,1,31)             107.7183         estimate D2E/DX2                !
 ! A2    A(2,1,32)             110.9243         estimate D2E/DX2                !
 ! A3    A(2,1,33)             111.656          estimate D2E/DX2                !
 ! A4    A(31,1,32)            107.8338         estimate D2E/DX2                !
 ! A5    A(31,1,33)            107.597          estimate D2E/DX2                !
 ! A6    A(32,1,33)            110.9225         estimate D2E/DX2                !
 ! A7    A(1,2,3)              112.0372         estimate D2E/DX2                !
 ! A8    A(2,3,4)              119.2864         estimate D2E/DX2                !
 ! A9    A(2,3,28)             114.338          estimate D2E/DX2                !
 ! A10   A(4,3,28)             126.2916         estimate D2E/DX2                !
 ! A11   A(3,4,5)              113.6501         estimate D2E/DX2                !
 ! A12   A(4,5,6)              114.8739         estimate D2E/DX2                !
 ! A13   A(4,5,26)             125.7396         estimate D2E/DX2                !
 ! A14   A(6,5,26)             119.3866         estimate D2E/DX2                !
 ! A15   A(5,6,7)              118.0402         estimate D2E/DX2                !
 ! A16   A(6,7,8)              116.6317         estimate D2E/DX2                !
 ! A17   A(6,7,12)             123.9332         estimate D2E/DX2                !
 ! A18   A(8,7,12)             119.3851         estimate D2E/DX2                !
 ! A19   A(7,8,9)              119.9767         estimate D2E/DX2                !
 ! A20   A(7,8,34)             120.2142         estimate D2E/DX2                !
 ! A21   A(9,8,34)             119.8091         estimate D2E/DX2                !
 ! A22   A(8,9,10)             120.7544         estimate D2E/DX2                !
 ! A23   A(8,9,35)             119.0405         estimate D2E/DX2                !
 ! A24   A(10,9,35)            120.2028         estimate D2E/DX2                !
 ! A25   A(9,10,11)            119.1541         estimate D2E/DX2                !
 ! A26   A(9,10,16)            119.7468         estimate D2E/DX2                !
 ! A27   A(11,10,16)           121.0975         estimate D2E/DX2                !
 ! A28   A(10,11,12)           119.4395         estimate D2E/DX2                !
 ! A29   A(10,11,13)           122.6924         estimate D2E/DX2                !
 ! A30   A(12,11,13)           117.8579         estimate D2E/DX2                !
 ! A31   A(7,12,11)            121.0412         estimate D2E/DX2                !
 ! A32   A(7,12,36)            120.7309         estimate D2E/DX2                !
 ! A33   A(11,12,36)           118.2089         estimate D2E/DX2                !
 ! A34   A(11,13,14)           114.2202         estimate D2E/DX2                !
 ! A35   A(11,13,37)           109.3244         estimate D2E/DX2                !
 ! A36   A(11,13,38)           108.1719         estimate D2E/DX2                !
 ! A37   A(14,13,37)           108.4211         estimate D2E/DX2                !
 ! A38   A(14,13,38)           109.0892         estimate D2E/DX2                !
 ! A39   A(37,13,38)           107.4052         estimate D2E/DX2                !
 ! A40   A(13,14,15)           110.5298         estimate D2E/DX2                !
 ! A41   A(13,14,39)           109.7208         estimate D2E/DX2                !
 ! A42   A(13,14,40)           106.8022         estimate D2E/DX2                !
 ! A43   A(15,14,39)           111.0401         estimate D2E/DX2                !
 ! A44   A(15,14,40)           112.0602         estimate D2E/DX2                !
 ! A45   A(39,14,40)           106.5198         estimate D2E/DX2                !
 ! A46   A(14,15,16)           109.6015         estimate D2E/DX2                !
 ! A47   A(14,15,20)           117.0531         estimate D2E/DX2                !
 ! A48   A(14,15,41)           105.5014         estimate D2E/DX2                !
 ! A49   A(16,15,20)           111.0182         estimate D2E/DX2                !
 ! A50   A(16,15,41)           107.6593         estimate D2E/DX2                !
 ! A51   A(20,15,41)           105.3912         estimate D2E/DX2                !
 ! A52   A(10,16,15)           112.1499         estimate D2E/DX2                !
 ! A53   A(10,16,17)           110.8552         estimate D2E/DX2                !
 ! A54   A(10,16,42)           107.032          estimate D2E/DX2                !
 ! A55   A(15,16,17)           110.8469         estimate D2E/DX2                !
 ! A56   A(15,16,42)           107.0736         estimate D2E/DX2                !
 ! A57   A(17,16,42)           108.6769         estimate D2E/DX2                !
 ! A58   A(16,17,18)           110.7716         estimate D2E/DX2                !
 ! A59   A(16,17,43)           110.4684         estimate D2E/DX2                !
 ! A60   A(16,17,44)           111.6371         estimate D2E/DX2                !
 ! A61   A(18,17,43)           108.2133         estimate D2E/DX2                !
 ! A62   A(18,17,44)           110.0801         estimate D2E/DX2                !
 ! A63   A(43,17,44)           105.49           estimate D2E/DX2                !
 ! A64   A(17,18,19)           115.1894         estimate D2E/DX2                !
 ! A65   A(17,18,45)           107.0511         estimate D2E/DX2                !
 ! A66   A(17,18,46)           108.688          estimate D2E/DX2                !
 ! A67   A(19,18,45)           109.0941         estimate D2E/DX2                !
 ! A68   A(19,18,46)           110.4957         estimate D2E/DX2                !
 ! A69   A(45,18,46)           105.8648         estimate D2E/DX2                !
 ! A70   A(18,19,20)           116.1031         estimate D2E/DX2                !
 ! A71   A(18,19,23)           113.8146         estimate D2E/DX2                !
 ! A72   A(18,19,25)           108.127          estimate D2E/DX2                !
 ! A73   A(20,19,23)           100.9288         estimate D2E/DX2                !
 ! A74   A(20,19,25)           110.69           estimate D2E/DX2                !
 ! A75   A(23,19,25)           106.7253         estimate D2E/DX2                !
 ! A76   A(15,20,19)           116.7577         estimate D2E/DX2                !
 ! A77   A(15,20,21)           114.0929         estimate D2E/DX2                !
 ! A78   A(15,20,47)           105.1915         estimate D2E/DX2                !
 ! A79   A(19,20,21)           104.0731         estimate D2E/DX2                !
 ! A80   A(19,20,47)           108.3573         estimate D2E/DX2                !
 ! A81   A(21,20,47)           108.0648         estimate D2E/DX2                !
 ! A82   A(20,21,22)           106.0604         estimate D2E/DX2                !
 ! A83   A(20,21,48)           113.5911         estimate D2E/DX2                !
 ! A84   A(20,21,49)           109.64           estimate D2E/DX2                !
 ! A85   A(22,21,48)           112.4333         estimate D2E/DX2                !
 ! A86   A(22,21,49)           109.1902         estimate D2E/DX2                !
 ! A87   A(48,21,49)           105.8957         estimate D2E/DX2                !
 ! A88   A(21,22,23)           102.9523         estimate D2E/DX2                !
 ! A89   A(21,22,50)           112.427          estimate D2E/DX2                !
 ! A90   A(21,22,51)           111.2222         estimate D2E/DX2                !
 ! A91   A(23,22,50)           109.3336         estimate D2E/DX2                !
 ! A92   A(23,22,51)           110.6386         estimate D2E/DX2                !
 ! A93   A(50,22,51)           110.0649         estimate D2E/DX2                !
 ! A94   A(19,23,22)           112.4583         estimate D2E/DX2                !
 ! A95   A(19,23,24)           124.5916         estimate D2E/DX2                !
 ! A96   A(22,23,24)           122.9163         estimate D2E/DX2                !
 ! A97   A(19,25,52)           110.7454         estimate D2E/DX2                !
 ! A98   A(19,25,53)           110.8974         estimate D2E/DX2                !
 ! A99   A(19,25,54)           112.6463         estimate D2E/DX2                !
 ! A100  A(52,25,53)           107.8916         estimate D2E/DX2                !
 ! A101  A(52,25,54)           107.6156         estimate D2E/DX2                !
 ! A102  A(53,25,54)           106.8257         estimate D2E/DX2                !
 ! A103  A(5,26,27)            114.403          estimate D2E/DX2                !
 ! A104  A(26,27,28)           125.6391         estimate D2E/DX2                !
 ! A105  A(26,27,29)           114.2837         estimate D2E/DX2                !
 ! A106  A(28,27,29)           120.036          estimate D2E/DX2                !
 ! A107  A(3,28,27)            114.0365         estimate D2E/DX2                !
 ! A108  A(27,29,30)           113.0223         estimate D2E/DX2                !
 ! A109  A(29,30,55)           107.8122         estimate D2E/DX2                !
 ! A110  A(29,30,56)           111.094          estimate D2E/DX2                !
 ! A111  A(29,30,57)           111.29           estimate D2E/DX2                !
 ! A112  A(55,30,56)           107.7157         estimate D2E/DX2                !
 ! A113  A(55,30,57)           107.664          estimate D2E/DX2                !
 ! A114  A(56,30,57)           111.0788         estimate D2E/DX2                !
 ! D1    D(31,1,2,3)           175.9642         estimate D2E/DX2                !
 ! D2    D(32,1,2,3)            58.1656         estimate D2E/DX2                !
 ! D3    D(33,1,2,3)           -66.1095         estimate D2E/DX2                !
 ! D4    D(1,2,3,4)             29.1633         estimate D2E/DX2                !
 ! D5    D(1,2,3,28)          -153.9611         estimate D2E/DX2                !
 ! D6    D(2,3,4,5)            177.7764         estimate D2E/DX2                !
 ! D7    D(28,3,4,5)             1.3087         estimate D2E/DX2                !
 ! D8    D(2,3,28,27)          179.7869         estimate D2E/DX2                !
 ! D9    D(4,3,28,27)           -3.5942         estimate D2E/DX2                !
 ! D10   D(3,4,5,6)           -176.3946         estimate D2E/DX2                !
 ! D11   D(3,4,5,26)             3.583          estimate D2E/DX2                !
 ! D12   D(4,5,6,7)            147.9426         estimate D2E/DX2                !
 ! D13   D(26,5,6,7)           -32.0365         estimate D2E/DX2                !
 ! D14   D(4,5,26,27)           -5.426          estimate D2E/DX2                !
 ! D15   D(6,5,26,27)          174.5506         estimate D2E/DX2                !
 ! D16   D(5,6,7,8)            151.9516         estimate D2E/DX2                !
 ! D17   D(5,6,7,12)           -30.6443         estimate D2E/DX2                !
 ! D18   D(6,7,8,9)            179.1699         estimate D2E/DX2                !
 ! D19   D(6,7,8,34)            -0.8045         estimate D2E/DX2                !
 ! D20   D(12,7,8,9)             1.6416         estimate D2E/DX2                !
 ! D21   D(12,7,8,34)         -178.3328         estimate D2E/DX2                !
 ! D22   D(6,7,12,11)          177.4508         estimate D2E/DX2                !
 ! D23   D(6,7,12,36)           -0.9329         estimate D2E/DX2                !
 ! D24   D(8,7,12,11)           -5.2124         estimate D2E/DX2                !
 ! D25   D(8,7,12,36)          176.404          estimate D2E/DX2                !
 ! D26   D(7,8,9,10)             0.9909         estimate D2E/DX2                !
 ! D27   D(7,8,9,35)          -179.5601         estimate D2E/DX2                !
 ! D28   D(34,8,9,10)         -179.0346         estimate D2E/DX2                !
 ! D29   D(34,8,9,35)            0.4144         estimate D2E/DX2                !
 ! D30   D(8,9,10,11)           -0.1216         estimate D2E/DX2                !
 ! D31   D(8,9,10,16)         -179.6747         estimate D2E/DX2                !
 ! D32   D(35,9,10,11)        -179.5642         estimate D2E/DX2                !
 ! D33   D(35,9,10,16)           0.8826         estimate D2E/DX2                !
 ! D34   D(9,10,11,12)          -3.3542         estimate D2E/DX2                !
 ! D35   D(9,10,11,13)         177.8383         estimate D2E/DX2                !
 ! D36   D(16,10,11,12)        176.1927         estimate D2E/DX2                !
 ! D37   D(16,10,11,13)         -2.6148         estimate D2E/DX2                !
 ! D38   D(9,10,16,15)         160.9868         estimate D2E/DX2                !
 ! D39   D(9,10,16,17)         -74.5242         estimate D2E/DX2                !
 ! D40   D(9,10,16,42)          43.8421         estimate D2E/DX2                !
 ! D41   D(11,10,16,15)        -18.5575         estimate D2E/DX2                !
 ! D42   D(11,10,16,17)        105.9315         estimate D2E/DX2                !
 ! D43   D(11,10,16,42)       -135.7022         estimate D2E/DX2                !
 ! D44   D(10,11,12,7)           6.0808         estimate D2E/DX2                !
 ! D45   D(10,11,12,36)       -175.4958         estimate D2E/DX2                !
 ! D46   D(13,11,12,7)        -175.0543         estimate D2E/DX2                !
 ! D47   D(13,11,12,36)          3.3691         estimate D2E/DX2                !
 ! D48   D(10,11,13,14)         -9.2871         estimate D2E/DX2                !
 ! D49   D(10,11,13,37)       -130.9508         estimate D2E/DX2                !
 ! D50   D(10,11,13,38)        112.387          estimate D2E/DX2                !
 ! D51   D(12,11,13,14)        171.8875         estimate D2E/DX2                !
 ! D52   D(12,11,13,37)         50.2238         estimate D2E/DX2                !
 ! D53   D(12,11,13,38)        -66.4384         estimate D2E/DX2                !
 ! D54   D(11,13,14,15)         41.651          estimate D2E/DX2                !
 ! D55   D(11,13,14,39)        -81.1343         estimate D2E/DX2                !
 ! D56   D(11,13,14,40)        163.7926         estimate D2E/DX2                !
 ! D57   D(37,13,14,15)        163.8106         estimate D2E/DX2                !
 ! D58   D(37,13,14,39)         41.0253         estimate D2E/DX2                !
 ! D59   D(37,13,14,40)        -74.0477         estimate D2E/DX2                !
 ! D60   D(38,13,14,15)        -79.5168         estimate D2E/DX2                !
 ! D61   D(38,13,14,39)        157.6979         estimate D2E/DX2                !
 ! D62   D(38,13,14,40)         42.6248         estimate D2E/DX2                !
 ! D63   D(13,14,15,16)        -62.7347         estimate D2E/DX2                !
 ! D64   D(13,14,15,20)        169.7215         estimate D2E/DX2                !
 ! D65   D(13,14,15,41)         52.9197         estimate D2E/DX2                !
 ! D66   D(39,14,15,16)         59.2781         estimate D2E/DX2                !
 ! D67   D(39,14,15,20)        -68.2657         estimate D2E/DX2                !
 ! D68   D(39,14,15,41)        174.9326         estimate D2E/DX2                !
 ! D69   D(40,14,15,16)        178.2651         estimate D2E/DX2                !
 ! D70   D(40,14,15,20)         50.7213         estimate D2E/DX2                !
 ! D71   D(40,14,15,41)        -66.0805         estimate D2E/DX2                !
 ! D72   D(14,15,16,10)         50.4272         estimate D2E/DX2                !
 ! D73   D(14,15,16,17)        -74.0664         estimate D2E/DX2                !
 ! D74   D(14,15,16,42)        167.547          estimate D2E/DX2                !
 ! D75   D(20,15,16,10)       -178.7263         estimate D2E/DX2                !
 ! D76   D(20,15,16,17)         56.7801         estimate D2E/DX2                !
 ! D77   D(20,15,16,42)        -61.6065         estimate D2E/DX2                !
 ! D78   D(41,15,16,10)        -63.847          estimate D2E/DX2                !
 ! D79   D(41,15,16,17)        171.6594         estimate D2E/DX2                !
 ! D80   D(41,15,16,42)         53.2728         estimate D2E/DX2                !
 ! D81   D(14,15,20,19)         85.6619         estimate D2E/DX2                !
 ! D82   D(14,15,20,21)        -35.924          estimate D2E/DX2                !
 ! D83   D(14,15,20,47)       -154.1797         estimate D2E/DX2                !
 ! D84   D(16,15,20,19)        -41.191          estimate D2E/DX2                !
 ! D85   D(16,15,20,21)       -162.777          estimate D2E/DX2                !
 ! D86   D(16,15,20,47)         78.9673         estimate D2E/DX2                !
 ! D87   D(41,15,20,19)       -157.4761         estimate D2E/DX2                !
 ! D88   D(41,15,20,21)         80.938          estimate D2E/DX2                !
 ! D89   D(41,15,20,47)        -37.3177         estimate D2E/DX2                !
 ! D90   D(10,16,17,18)        172.5771         estimate D2E/DX2                !
 ! D91   D(10,16,17,43)         52.6839         estimate D2E/DX2                !
 ! D92   D(10,16,17,44)        -64.3643         estimate D2E/DX2                !
 ! D93   D(15,16,17,18)        -62.197          estimate D2E/DX2                !
 ! D94   D(15,16,17,43)        177.9098         estimate D2E/DX2                !
 ! D95   D(15,16,17,44)         60.8616         estimate D2E/DX2                !
 ! D96   D(42,16,17,18)         55.2129         estimate D2E/DX2                !
 ! D97   D(42,16,17,43)        -64.6803         estimate D2E/DX2                !
 ! D98   D(42,16,17,44)        178.2715         estimate D2E/DX2                !
 ! D99   D(16,17,18,19)         50.9257         estimate D2E/DX2                !
 ! D100  D(16,17,18,45)        -70.5658         estimate D2E/DX2                !
 ! D101  D(16,17,18,46)        175.5059         estimate D2E/DX2                !
 ! D102  D(43,17,18,19)        172.1595         estimate D2E/DX2                !
 ! D103  D(43,17,18,45)         50.668          estimate D2E/DX2                !
 ! D104  D(43,17,18,46)        -63.2604         estimate D2E/DX2                !
 ! D105  D(44,17,18,19)        -73.029          estimate D2E/DX2                !
 ! D106  D(44,17,18,45)        165.4795         estimate D2E/DX2                !
 ! D107  D(44,17,18,46)         51.5512         estimate D2E/DX2                !
 ! D108  D(17,18,19,20)        -35.3262         estimate D2E/DX2                !
 ! D109  D(17,18,19,23)         81.2264         estimate D2E/DX2                !
 ! D110  D(17,18,19,25)       -160.3829         estimate D2E/DX2                !
 ! D111  D(45,18,19,20)         85.0529         estimate D2E/DX2                !
 ! D112  D(45,18,19,23)       -158.3946         estimate D2E/DX2                !
 ! D113  D(45,18,19,25)        -40.0039         estimate D2E/DX2                !
 ! D114  D(46,18,19,20)       -158.9562         estimate D2E/DX2                !
 ! D115  D(46,18,19,23)        -42.4036         estimate D2E/DX2                !
 ! D116  D(46,18,19,25)         75.9871         estimate D2E/DX2                !
 ! D117  D(18,19,20,15)         30.7576         estimate D2E/DX2                !
 ! D118  D(18,19,20,21)        157.4641         estimate D2E/DX2                !
 ! D119  D(18,19,20,47)        -87.7006         estimate D2E/DX2                !
 ! D120  D(23,19,20,15)        -92.7847         estimate D2E/DX2                !
 ! D121  D(23,19,20,21)         33.9218         estimate D2E/DX2                !
 ! D122  D(23,19,20,47)        148.7571         estimate D2E/DX2                !
 ! D123  D(25,19,20,15)        154.4952         estimate D2E/DX2                !
 ! D124  D(25,19,20,21)        -78.7983         estimate D2E/DX2                !
 ! D125  D(25,19,20,47)         36.037          estimate D2E/DX2                !
 ! D126  D(18,19,23,22)       -145.8249         estimate D2E/DX2                !
 ! D127  D(18,19,23,24)         36.2416         estimate D2E/DX2                !
 ! D128  D(20,19,23,22)        -20.7224         estimate D2E/DX2                !
 ! D129  D(20,19,23,24)        161.3441         estimate D2E/DX2                !
 ! D130  D(25,19,23,22)         94.9838         estimate D2E/DX2                !
 ! D131  D(25,19,23,24)        -82.9497         estimate D2E/DX2                !
 ! D132  D(18,19,25,52)         65.2133         estimate D2E/DX2                !
 ! D133  D(18,19,25,53)        -54.54           estimate D2E/DX2                !
 ! D134  D(18,19,25,54)       -174.2112         estimate D2E/DX2                !
 ! D135  D(20,19,25,52)        -62.9948         estimate D2E/DX2                !
 ! D136  D(20,19,25,53)        177.2519         estimate D2E/DX2                !
 ! D137  D(20,19,25,54)         57.5807         estimate D2E/DX2                !
 ! D138  D(23,19,25,52)       -171.9664         estimate D2E/DX2                !
 ! D139  D(23,19,25,53)         68.2803         estimate D2E/DX2                !
 ! D140  D(23,19,25,54)        -51.3908         estimate D2E/DX2                !
 ! D141  D(15,20,21,22)         91.6663         estimate D2E/DX2                !
 ! D142  D(15,20,21,48)        -32.3233         estimate D2E/DX2                !
 ! D143  D(15,20,21,49)       -150.5637         estimate D2E/DX2                !
 ! D144  D(19,20,21,22)        -36.6894         estimate D2E/DX2                !
 ! D145  D(19,20,21,48)       -160.679          estimate D2E/DX2                !
 ! D146  D(19,20,21,49)         81.0806         estimate D2E/DX2                !
 ! D147  D(47,20,21,22)       -151.7317         estimate D2E/DX2                !
 ! D148  D(47,20,21,48)         84.2787         estimate D2E/DX2                !
 ! D149  D(47,20,21,49)        -33.9617         estimate D2E/DX2                !
 ! D150  D(20,21,22,23)         23.0766         estimate D2E/DX2                !
 ! D151  D(20,21,22,50)        -94.4674         estimate D2E/DX2                !
 ! D152  D(20,21,22,51)        141.5856         estimate D2E/DX2                !
 ! D153  D(48,21,22,23)        147.7858         estimate D2E/DX2                !
 ! D154  D(48,21,22,50)         30.2418         estimate D2E/DX2                !
 ! D155  D(48,21,22,51)        -93.7052         estimate D2E/DX2                !
 ! D156  D(49,21,22,23)        -94.9925         estimate D2E/DX2                !
 ! D157  D(49,21,22,50)        147.4635         estimate D2E/DX2                !
 ! D158  D(49,21,22,51)         23.5165         estimate D2E/DX2                !
 ! D159  D(21,22,23,19)         -1.0756         estimate D2E/DX2                !
 ! D160  D(21,22,23,24)        176.8979         estimate D2E/DX2                !
 ! D161  D(50,22,23,19)        118.6307         estimate D2E/DX2                !
 ! D162  D(50,22,23,24)        -63.3958         estimate D2E/DX2                !
 ! D163  D(51,22,23,19)       -119.9921         estimate D2E/DX2                !
 ! D164  D(51,22,23,24)         57.9814         estimate D2E/DX2                !
 ! D165  D(5,26,27,28)           2.6973         estimate D2E/DX2                !
 ! D166  D(5,26,27,29)        -174.9545         estimate D2E/DX2                !
 ! D167  D(26,27,28,3)           1.401          estimate D2E/DX2                !
 ! D168  D(29,27,28,3)         178.9285         estimate D2E/DX2                !
 ! D169  D(26,27,29,30)       -178.5397         estimate D2E/DX2                !
 ! D170  D(28,27,29,30)          3.6647         estimate D2E/DX2                !
 ! D171  D(27,29,30,55)        178.4813         estimate D2E/DX2                !
 ! D172  D(27,29,30,56)         60.6733         estimate D2E/DX2                !
 ! D173  D(27,29,30,57)        -63.662          estimate D2E/DX2                !
 --------------------------------------------------------------------------------
 Trust Radius=3.00D-01 FncErr=1.00D-07 GrdErr=1.00D-06
 Number of steps in this run= 342 maximum allowed number of steps= 342.
 GradGradGradGradGradGradGradGradGradGradGradGradGradGradGradGradGradGrad

 Leave Link  103 at Tue Sep 28 15:18:20 2021, MaxMem= 2415919104 cpu:       0.0
 (Enter /sw/target/amd/app/gaussian/Gaussian09RevA.02_gcc-4.9.2/g09/l202.exe)
 Stoichiometry    C23H27N3O4
 Framework group  C1[X(C23H27N3O4)]
 Deg. of freedom   165
 Full point group                 C1      NOp   1
 Largest Abelian subgroup         C1      NOp   1
 Largest concise Abelian subgroup C1      NOp   1
                         Standard orientation:                         
 ---------------------------------------------------------------------
 Center     Atomic      Atomic             Coordinates (Angstroms)
 Number     Number       Type             X           Y           Z
 ---------------------------------------------------------------------
      1          6           0        7.637134   -1.239596    0.888120
      2          8           0        7.053860    0.053211    0.986185
      3          6           0        5.820252    0.111185    0.376435
      4          7           0        5.072621   -0.984473    0.317760
      5          6           0        3.890028   -0.791751   -0.250587
      6          8           0        3.054643   -1.904108   -0.254875
      7          6           0        1.694429   -1.693531   -0.172814
      8          6           0        0.877374   -2.656881   -0.758102
      9          6           0       -0.511841   -2.522132   -0.700766
     10          6           0       -1.101254   -1.409453   -0.074077
     11          6           0       -0.276418   -0.432068    0.498307
     12          6           0        1.111536   -0.616465    0.497685
     13          6           0       -0.819742    0.811709    1.145720
     14          6           0       -2.315510    1.027275    0.930818
     15          6           0       -3.078355   -0.300872    1.075856
     16          6           0       -2.611263   -1.289965   -0.018548
     17          6           0       -3.178292   -0.896594   -1.387382
     18          6           0       -4.697661   -0.954614   -1.378561
     19          6           0       -5.372639   -0.201980   -0.226231
     20          6           0       -4.626494   -0.222821    1.131121
     21          6           0       -5.167231    1.011727    1.874446
     22          6           0       -5.362595    2.092714    0.812301
     23          6           0       -5.500478    1.294247   -0.461868
     24          8           0       -5.730160    1.811493   -1.552345
     25          6           0       -6.806298   -0.750854   -0.068797
     26          7           0        3.465742    0.344403   -0.793474
     27          6           0        4.290137    1.366867   -0.635658
     28          7           0        5.476217    1.318760   -0.045925
     29          8           0        3.800205    2.567075   -1.102495
     30          6           0        4.719535    3.639748   -0.949724
     31          1           0        8.637295   -1.187688    1.327434
     32          1           0        7.746116   -1.541443   -0.160081
     33          1           0        7.066031   -1.984443    1.452199
     34          1           0        1.316463   -3.514543   -1.259659
     35          1           0       -1.135352   -3.286882   -1.156498
     36          1           0        1.727082    0.116230    1.011709
     37          1           0       -0.283615    1.687510    0.757041
     38          1           0       -0.616725    0.753760    2.221755
     39          1           0       -2.486817    1.473650   -0.054920
     40          1           0       -2.637177    1.768242    1.667821
     41          1           0       -2.771328   -0.711811    2.050787
     42          1           0       -3.003204   -2.281386    0.253475
     43          1           0       -2.813420   -1.580040   -2.164739
     44          1           0       -2.841528    0.100797   -1.692898
     45          1           0       -4.979175   -2.015099   -1.328775
     46          1           0       -5.068945   -0.590799   -2.344666
     47          1           0       -4.940592   -1.119137    1.685234
     48          1           0       -4.525093    1.344494    2.695824
     49          1           0       -6.136270    0.773321    2.328508
     50          1           0       -4.500606    2.757026    0.730891
     51          1           0       -6.267218    2.674283    1.001896
     52          1           0       -6.787743   -1.800942    0.245280
     53          1           0       -7.353575   -0.692508   -1.016709
     54          1           0       -7.392156   -0.194172    0.670276
     55          1           0        4.257985    4.538459   -1.369597
     56          1           0        5.643919    3.448947   -1.505683
     57          1           0        4.929091    3.836596    0.107644
 ---------------------------------------------------------------------
 Rotational constants (GHZ):      0.3854582      0.0605266      0.0563267
 Leave Link  202 at Tue Sep 28 15:18:20 2021, MaxMem= 2415919104 cpu:       0.1
 (Enter /sw/target/amd/app/gaussian/Gaussian09RevA.02_gcc-4.9.2/g09/l301.exe)
 Standard basis: 6-31G(d) (6D, 7F)
 Ernie: Thresh=  0.10000D-02 Tol=  0.10000D-05 Strict=F.
 There are   504 symmetry adapted basis functions of A   symmetry.
 Integral buffers will be    131072 words long.
 Raffenetti 2 integral format.
 Two-electron integral symmetry is turned on.
   504 basis functions,   948 primitive gaussians,   504 cartesian basis functions
   109 alpha electrons      109 beta electrons
       nuclear repulsion energy      2885.5014553738 Hartrees.
 IExCor=  402 DFT=T Ex+Corr=B3LYP ExCW=0 ScaHFX=  0.200000
 ScaDFX=  0.800000  0.720000  1.000000  0.810000 ScalE2=  1.000000  1.000000
 IRadAn=      0 IRanWt=     -1 IRanGd=            0 ICorTp=0
 NAtoms=   57 NActive=   57 NUniq=   57 SFac= 7.50D-01 NAtFMM=   80 NAOKFM=F Big=F
 Leave Link  301 at Tue Sep 28 15:18:21 2021, MaxMem= 2415919104 cpu:       0.1
 (Enter /sw/target/amd/app/gaussian/Gaussian09RevA.02_gcc-4.9.2/g09/l302.exe)
 NPDir=0 NMtPBC=     1 NCelOv=     1 NCel=       1 NClECP=     1 NCelD=      1
         NCelK=      1 NCelE2=     1 NClLst=     1 CellRange=     0.0.
 One-electron integrals computed using PRISM.
 NBasis=   504 RedAO= T  NBF=   504
 NBsUse=   504 1.00D-06 NBFU=   504
 Precomputing XC quadrature grid using
 IXCGrd= 2 IRadAn=           0 IRanWt=          -1 IRanGd=           0 AccXCQ= 1.00D-10.
 NRdTot=    3675 NPtTot=      470238 NUsed=      496717 NTot=      496749
 NSgBfM=   493   494   495   495   495 NAtAll=    57    57.
 Leave Link  302 at Tue Sep 28 15:18:29 2021, MaxMem= 2415919104 cpu:       8.7
 (Enter /sw/target/amd/app/gaussian/Gaussian09RevA.02_gcc-4.9.2/g09/l303.exe)
 DipDrv:  MaxL=1.
 Leave Link  303 at Tue Sep 28 15:18:30 2021, MaxMem= 2415919104 cpu:       0.5
 (Enter /sw/target/amd/app/gaussian/Gaussian09RevA.02_gcc-4.9.2/g09/l401.exe)
 Harris functional with IExCor=  402 diagonalized for initial guess.
 ExpMin= 1.61D-01 ExpMax= 5.48D+03 ExpMxC= 8.25D+02 IAcc=1 IRadAn=         1 AccDes= 0.00D+00
 HarFok:  IExCor=  402 AccDes= 0.00D+00 IRadAn=         1 IDoV= 1
 ScaDFX=  1.000000  1.000000  1.000000  1.000000
 FoFCou: FMM=F IPFlag=           0 FMFlag=      100000 FMFlg1=           0
         NFxFlg=           0 DoJE=T BraDBF=F KetDBF=T FulRan=T
         Omega=  0.000000  0.000000  1.000000  0.000000  0.000000 ICntrl=     500 IOpCl=  0
         NMat0=    1 NMatS0=    1 NMatT0=    0 NMatD0=    1 NMtDS0=    0 NMtDT0=    0
         I1Cent=           4 NGrid=           0.
 Petite list used in FoFCou.
 Harris En= -1357.98145147349    
 Initial guess orbital symmetries:
       Occupied  (A) (A) (A) (A) (A) (A) (A) (A) (A) (A) (A) (A)
                 (A) (A) (A) (A) (A) (A) (A) (A) (A) (A) (A) (A)
                 (A) (A) (A) (A) (A) (A) (A) (A) (A) (A) (A) (A)
                 (A) (A) (A) (A) (A) (A) (A) (A) (A) (A) (A) (A)
                 (A) (A) (A) (A) (A) (A) (A) (A) (A) (A) (A) (A)
                 (A) (A) (A) (A) (A) (A) (A) (A) (A) (A) (A) (A)
                 (A) (A) (A) (A) (A) (A) (A) (A) (A) (A) (A) (A)
                 (A) (A) (A) (A) (A) (A) (A) (A) (A) (A) (A) (A)
                 (A) (A) (A) (A) (A) (A) (A) (A) (A) (A) (A) (A)
                 (A)
       Virtual   (A) (A) (A) (A) (A) (A) (A) (A) (A) (A) (A) (A)
                 (A) (A) (A) (A) (A) (A) (A) (A) (A) (A) (A) (A)
                 (A) (A) (A) (A) (A) (A) (A) (A) (A) (A) (A) (A)
                 (A) (A) (A) (A) (A) (A) (A) (A) (A) (A) (A) (A)
                 (A) (A) (A) (A) (A) (A) (A) (A) (A) (A) (A) (A)
                 (A) (A) (A) (A) (A) (A) (A) (A) (A) (A) (A) (A)
                 (A) (A) (A) (A) (A) (A) (A) (A) (A) (A) (A) (A)
                 (A) (A) (A) (A) (A) (A) (A) (A) (A) (A) (A) (A)
                 (A) (A) (A) (A) (A) (A) (A) (A) (A) (A) (A) (A)
                 (A) (A) (A) (A) (A) (A) (A) (A) (A) (A) (A) (A)
                 (A) (A) (A) (A) (A) (A) (A) (A) (A) (A) (A) (A)
                 (A) (A) (A) (A) (A) (A) (A) (A) (A) (A) (A) (A)
                 (A) (A) (A) (A) (A) (A) (A) (A) (A) (A) (A) (A)
                 (A) (A) (A) (A) (A) (A) (A) (A) (A) (A) (A) (A)
                 (A) (A) (A) (A) (A) (A) (A) (A) (A) (A) (A) (A)
                 (A) (A) (A) (A) (A) (A) (A) (A) (A) (A) (A) (A)
                 (A) (A) (A) (A) (A) (A) (A) (A) (A) (A) (A) (A)
                 (A) (A) (A) (A) (A) (A) (A) (A) (A) (A) (A) (A)
                 (A) (A) (A) (A) (A) (A) (A) (A) (A) (A) (A) (A)
                 (A) (A) (A) (A) (A) (A) (A) (A) (A) (A) (A) (A)
                 (A) (A) (A) (A) (A) (A) (A) (A) (A) (A) (A) (A)
                 (A) (A) (A) (A) (A) (A) (A) (A) (A) (A) (A) (A)
                 (A) (A) (A) (A) (A) (A) (A) (A) (A) (A) (A) (A)
                 (A) (A) (A) (A) (A) (A) (A) (A) (A) (A) (A) (A)
                 (A) (A) (A) (A) (A) (A) (A) (A) (A) (A) (A) (A)
                 (A) (A) (A) (A) (A) (A) (A) (A) (A) (A) (A) (A)
                 (A) (A) (A) (A) (A) (A) (A) (A) (A) (A) (A) (A)
                 (A) (A) (A) (A) (A) (A) (A) (A) (A) (A) (A) (A)
                 (A) (A) (A) (A) (A) (A) (A) (A) (A) (A) (A) (A)
                 (A) (A) (A) (A) (A) (A) (A) (A) (A) (A) (A) (A)
                 (A) (A) (A) (A) (A) (A) (A) (A) (A) (A) (A) (A)
                 (A) (A) (A) (A) (A) (A) (A) (A) (A) (A) (A) (A)
                 (A) (A) (A) (A) (A) (A) (A) (A) (A) (A) (A)
 The electronic state of the initial guess is 1-A.
 Leave Link  401 at Tue Sep 28 15:18:53 2021, MaxMem= 2415919104 cpu:      33.7
 (Enter /sw/target/amd/app/gaussian/Gaussian09RevA.02_gcc-4.9.2/g09/l502.exe)
 Closed shell SCF:
 Requested convergence on RMS density matrix=1.00D-08 within  64 cycles.
 Requested convergence on MAX density matrix=1.00D-06.
 Requested convergence on             energy=1.00D-06.
 No special actions if energy rises.
 Using DIIS extrapolation, IDIIS=  1040.
 Integral symmetry usage will be decided dynamically.
       496191 words used for storage of precomputed grid.
 IEnd=     1272129 IEndB=     1272129 NGot=  2415919104 MDV=  2414905720
 LenX=  2414905720 LenY=  2414651200
 Fock matrices will be formed incrementally for  20 cycles.
 Integral accuracy reduced to 1.0D-05 until final iterations.

 Cycle   1  Pass 0  IDiag  1:
 FoFCou: FMM=F IPFlag=           0 FMFlag=      100000 FMFlg1=           0
         NFxFlg=           0 DoJE=F BraDBF=F KetDBF=F FulRan=T
         Omega=  0.000000  0.000000  1.000000  0.000000  0.000000 ICntrl=       0 IOpCl=  0
         NMat0=    1 NMatS0=    1 NMatT0=    0 NMatD0=    1 NMtDS0=    0 NMtDT0=    0
         I1Cent=           0 NGrid=           0.
 Symmetry not used in FoFCou.
 E= -1357.12600634214    
 DIIS: error= 1.78D-02 at cycle   1 NSaved=   1.
 NSaved= 1 IEnMin= 1 EnMin= -1357.12600634214     IErMin= 1 ErrMin= 1.78D-02
 ErrMax= 1.78D-02 EMaxC= 1.00D-01 BMatC= 7.61D-01 BMatP= 7.61D-01
 IDIUse=3 WtCom= 8.22D-01 WtEn= 1.78D-01
 Coeff-Com:  0.100D+01
 Coeff-En:   0.100D+01
 Coeff:      0.100D+01
 Gap=     0.240 Goal=   None    Shift=    0.000
 GapD=    0.240 DampG=1.000 DampE=0.500 DampFc=0.5000 IDamp=-1.
 Damping current iteration by 5.00D-01
 RMSDP=3.90D-03 MaxDP=1.85D-01              OVMax= 1.94D-01

 Cycle   2  Pass 0  IDiag  1:
 RMSU=  1.36D-03    CP:  9.81D-01
 E= -1357.42519881435     Delta-E=       -0.299192472210 Rises=F Damp=T
 DIIS: error= 6.74D-03 at cycle   2 NSaved=   2.
 NSaved= 2 IEnMin= 2 EnMin= -1357.42519881435     IErMin= 2 ErrMin= 6.74D-03
 ErrMax= 6.74D-03 EMaxC= 1.00D-01 BMatC= 6.11D-02 BMatP= 7.61D-01
 IDIUse=3 WtCom= 9.33D-01 WtEn= 6.74D-02
 Coeff-Com:  0.120D+00 0.880D+00
 Coeff-En:   0.186D+00 0.814D+00
 Coeff:      0.124D+00 0.876D+00
 Gap=     0.230 Goal=   None    Shift=    0.000
 RMSDP=1.08D-03 MaxDP=5.08D-02 DE=-2.99D-01 OVMax= 1.78D-01

 Cycle   3  Pass 0  IDiag  1:
 RMSU=  7.27D-04    CP:  9.74D-01  8.36D-01
 E= -1357.81907979339     Delta-E=       -0.393880979039 Rises=F Damp=F
 DIIS: error= 1.22D-02 at cycle   3 NSaved=   3.
 NSaved= 3 IEnMin= 3 EnMin= -1357.81907979339     IErMin= 2 ErrMin= 6.74D-03
 ErrMax= 1.22D-02 EMaxC= 1.00D-01 BMatC= 4.89D-02 BMatP= 6.11D-02
 IDIUse=3 WtCom= 8.78D-01 WtEn= 1.22D-01
 Coeff-Com:  0.188D-01 0.466D+00 0.515D+00
 Coeff-En:   0.000D+00 0.000D+00 0.100D+01
 Coeff:      0.165D-01 0.410D+00 0.574D+00
 Gap=     0.207 Goal=   None    Shift=    0.000
 RMSDP=7.00D-04 MaxDP=6.38D-02 DE=-3.94D-01 OVMax= 9.60D-02

 Cycle   4  Pass 0  IDiag  1:
 RMSU=  3.45D-04    CP:  9.77D-01  8.93D-01  5.26D-01
 E= -1357.84310822794     Delta-E=       -0.024028434545 Rises=F Damp=F
 DIIS: error= 8.85D-03 at cycle   4 NSaved=   4.
 NSaved= 4 IEnMin= 4 EnMin= -1357.84310822794     IErMin= 2 ErrMin= 6.74D-03
 ErrMax= 8.85D-03 EMaxC= 1.00D-01 BMatC= 2.31D-02 BMatP= 4.89D-02
 IDIUse=3 WtCom= 9.12D-01 WtEn= 8.85D-02
 Coeff-Com: -0.843D-03 0.127D+00 0.403D+00 0.471D+00
 Coeff-En:   0.000D+00 0.000D+00 0.347D+00 0.653D+00
 Coeff:     -0.769D-03 0.116D+00 0.398D+00 0.487D+00
 Gap=     0.195 Goal=   None    Shift=    0.000
 RMSDP=3.32D-04 MaxDP=3.08D-02 DE=-2.40D-02 OVMax= 3.29D-02

 Cycle   5  Pass 0  IDiag  1:
 RMSU=  9.88D-05    CP:  9.76D-01  8.71D-01  6.68D-01  4.69D-01
 E= -1357.86222127203     Delta-E=       -0.019113044093 Rises=F Damp=F
 DIIS: error= 1.44D-03 at cycle   5 NSaved=   5.
 NSaved= 5 IEnMin= 5 EnMin= -1357.86222127203     IErMin= 5 ErrMin= 1.44D-03
 ErrMax= 1.44D-03 EMaxC= 1.00D-01 BMatC= 1.09D-03 BMatP= 2.31D-02
 IDIUse=3 WtCom= 9.86D-01 WtEn= 1.44D-02
 Coeff-Com: -0.819D-03 0.205D-01 0.166D+00 0.271D+00 0.544D+00
 Coeff-En:   0.000D+00 0.000D+00 0.000D+00 0.000D+00 0.100D+01
 Coeff:     -0.807D-03 0.202D-01 0.164D+00 0.267D+00 0.550D+00
 Gap=     0.183 Goal=   None    Shift=    0.000
 RMSDP=7.66D-05 MaxDP=5.94D-03 DE=-1.91D-02 OVMax= 7.20D-03

 Cycle   6  Pass 0  IDiag  1:
 RMSU=  2.71D-05    CP:  9.76D-01  8.72D-01  6.74D-01  5.26D-01  5.72D-01
 E= -1357.86307815092     Delta-E=       -0.000856878889 Rises=F Damp=F
 DIIS: error= 3.95D-04 at cycle   6 NSaved=   6.
 NSaved= 6 IEnMin= 6 EnMin= -1357.86307815092     IErMin= 6 ErrMin= 3.95D-04
 ErrMax= 3.95D-04 EMaxC= 1.00D-01 BMatC= 9.40D-05 BMatP= 1.09D-03
 IDIUse=3 WtCom= 9.96D-01 WtEn= 3.95D-03
 Coeff-Com: -0.208D-03 0.730D-03 0.577D-01 0.107D+00 0.307D+00 0.527D+00
 Coeff-En:   0.000D+00 0.000D+00 0.000D+00 0.000D+00 0.000D+00 0.100D+01
 Coeff:     -0.207D-03 0.727D-03 0.575D-01 0.107D+00 0.306D+00 0.529D+00
 Gap=     0.183 Goal=   None    Shift=    0.000
 RMSDP=2.12D-05 MaxDP=1.52D-03 DE=-8.57D-04 OVMax= 2.36D-03

 Cycle   7  Pass 0  IDiag  1:
 RMSU=  1.01D-05    CP:  9.76D-01  8.73D-01  6.72D-01  5.30D-01  6.17D-01
                    CP:  6.29D-01
 E= -1357.86314572923     Delta-E=       -0.000067578311 Rises=F Damp=F
 DIIS: error= 1.20D-04 at cycle   7 NSaved=   7.
 NSaved= 7 IEnMin= 7 EnMin= -1357.86314572923     IErMin= 7 ErrMin= 1.20D-04
 ErrMax= 1.20D-04 EMaxC= 1.00D-01 BMatC= 1.12D-05 BMatP= 9.40D-05
 IDIUse=3 WtCom= 9.99D-01 WtEn= 1.20D-03
 Coeff-Com: -0.437D-04-0.100D-02 0.229D-01 0.445D-01 0.150D+00 0.329D+00
 Coeff-Com:  0.454D+00
 Coeff-En:   0.000D+00 0.000D+00 0.000D+00 0.000D+00 0.000D+00 0.551D-01
 Coeff-En:   0.945D+00
 Coeff:     -0.437D-04-0.100D-02 0.229D-01 0.444D-01 0.150D+00 0.329D+00
 Coeff:      0.455D+00
 Gap=     0.183 Goal=   None    Shift=    0.000
 RMSDP=8.90D-06 MaxDP=4.52D-04 DE=-6.76D-05 OVMax= 1.25D-03

 Initial convergence to 1.0D-05 achieved.  Increase integral accuracy.
 Cycle   8  Pass 1  IDiag  1:
 E= -1357.86329666983     Delta-E=       -0.000150940600 Rises=F Damp=F
 DIIS: error= 3.55D-05 at cycle   1 NSaved=   1.
 NSaved= 1 IEnMin= 1 EnMin= -1357.86329666983     IErMin= 1 ErrMin= 3.55D-05
 ErrMax= 3.55D-05 EMaxC= 1.00D-01 BMatC= 1.73D-06 BMatP= 1.73D-06
 IDIUse=1 WtCom= 1.00D+00 WtEn= 0.00D+00
 Coeff-Com:  0.100D+01
 Coeff:      0.100D+01
 Gap=     0.183 Goal=   None    Shift=    0.000
 RMSDP=8.90D-06 MaxDP=4.52D-04 DE=-1.51D-04 OVMax= 8.81D-04

 Cycle   9  Pass 1  IDiag  1:
 RMSU=  1.41D-05    CP:  1.00D+00
 E= -1357.86329486339     Delta-E=        0.000001806441 Rises=F Damp=F
 DIIS: error= 8.87D-05 at cycle   2 NSaved=   2.
 NSaved= 2 IEnMin= 1 EnMin= -1357.86329666983     IErMin= 1 ErrMin= 3.55D-05
 ErrMax= 8.87D-05 EMaxC= 1.00D-01 BMatC= 3.82D-06 BMatP= 1.73D-06
 IDIUse=1 WtCom= 1.00D+00 WtEn= 0.00D+00
 Coeff-Com:  0.615D+00 0.385D+00
 Coeff:      0.615D+00 0.385D+00
 Gap=     0.183 Goal=   None    Shift=    0.000
 RMSDP=4.93D-06 MaxDP=3.56D-04 DE= 1.81D-06 OVMax= 7.30D-04

 Cycle  10  Pass 1  IDiag  1:
 RMSU=  3.35D-06    CP:  1.00D+00  9.32D-01
 E= -1357.86329828087     Delta-E=       -0.000003417476 Rises=F Damp=F
 DIIS: error= 2.65D-05 at cycle   3 NSaved=   3.
 NSaved= 3 IEnMin= 3 EnMin= -1357.86329828087     IErMin= 3 ErrMin= 2.65D-05
 ErrMax= 2.65D-05 EMaxC= 1.00D-01 BMatC= 2.52D-07 BMatP= 1.73D-06
 IDIUse=1 WtCom= 1.00D+00 WtEn= 0.00D+00
 Coeff-Com:  0.818D-01 0.207D+00 0.711D+00
 Coeff:      0.818D-01 0.207D+00 0.711D+00
 Gap=     0.183 Goal=   None    Shift=    0.000
 RMSDP=1.22D-06 MaxDP=1.01D-04 DE=-3.42D-06 OVMax= 1.34D-04

 Cycle  11  Pass 1  IDiag  1:
 RMSU=  5.58D-07    CP:  1.00D+00  9.52D-01  8.23D-01
 E= -1357.86329847564     Delta-E=       -0.000000194774 Rises=F Damp=F
 DIIS: error= 7.86D-06 at cycle   4 NSaved=   4.
 NSaved= 4 IEnMin= 4 EnMin= -1357.86329847564     IErMin= 4 ErrMin= 7.86D-06
 ErrMax= 7.86D-06 EMaxC= 1.00D-01 BMatC= 4.27D-08 BMatP= 2.52D-07
 IDIUse=1 WtCom= 1.00D+00 WtEn= 0.00D+00
 Coeff-Com: -0.671D-02 0.887D-01 0.420D+00 0.499D+00
 Coeff:     -0.671D-02 0.887D-01 0.420D+00 0.499D+00
 Gap=     0.183 Goal=   None    Shift=    0.000
 RMSDP=4.11D-07 MaxDP=2.95D-05 DE=-1.95D-07 OVMax= 3.39D-05

 Cycle  12  Pass 1  IDiag  1:
 RMSU=  1.51D-07    CP:  1.00D+00  9.54D-01  8.28D-01  5.60D-01
 E= -1357.86329851041     Delta-E=       -0.000000034771 Rises=F Damp=F
 DIIS: error= 1.98D-06 at cycle   5 NSaved=   5.
 NSaved= 5 IEnMin= 5 EnMin= -1357.86329851041     IErMin= 5 ErrMin= 1.98D-06
 ErrMax= 1.98D-06 EMaxC= 1.00D-01 BMatC= 2.04D-09 BMatP= 4.27D-08
 IDIUse=1 WtCom= 1.00D+00 WtEn= 0.00D+00
 Coeff-Com: -0.643D-02 0.457D-01 0.224D+00 0.298D+00 0.439D+00
 Coeff:     -0.643D-02 0.457D-01 0.224D+00 0.298D+00 0.439D+00
 Gap=     0.183 Goal=   None    Shift=    0.000
 RMSDP=1.12D-07 MaxDP=8.05D-06 DE=-3.48D-08 OVMax= 1.15D-05

 Cycle  13  Pass 1  IDiag  1:
 RMSU=  5.17D-08    CP:  1.00D+00  9.54D-01  8.31D-01  5.56D-01  6.08D-01
 E= -1357.86329851202     Delta-E=       -0.000000001605 Rises=F Damp=F
 DIIS: error= 5.96D-07 at cycle   6 NSaved=   6.
 NSaved= 6 IEnMin= 6 EnMin= -1357.86329851202     IErMin= 6 ErrMin= 5.96D-07
 ErrMax= 5.96D-07 EMaxC= 1.00D-01 BMatC= 1.77D-10 BMatP= 2.04D-09
 IDIUse=1 WtCom= 1.00D+00 WtEn= 0.00D+00
 Coeff-Com: -0.312D-02 0.180D-01 0.888D-01 0.127D+00 0.261D+00 0.509D+00
 Coeff:     -0.312D-02 0.180D-01 0.888D-01 0.127D+00 0.261D+00 0.509D+00
 Gap=     0.183 Goal=   None    Shift=    0.000
 RMSDP=3.40D-08 MaxDP=2.32D-06 DE=-1.61D-09 OVMax= 4.44D-06

 Cycle  14  Pass 1  IDiag  1:
 RMSU=  1.81D-08    CP:  1.00D+00  9.54D-01  8.29D-01  5.57D-01  6.49D-01
                    CP:  7.57D-01
 E= -1357.86329851228     Delta-E=       -0.000000000260 Rises=F Damp=F
 DIIS: error= 1.64D-07 at cycle   7 NSaved=   7.
 NSaved= 7 IEnMin= 7 EnMin= -1357.86329851228     IErMin= 7 ErrMin= 1.64D-07
 ErrMax= 1.64D-07 EMaxC= 1.00D-01 BMatC= 1.79D-11 BMatP= 1.77D-10
 IDIUse=1 WtCom= 1.00D+00 WtEn= 0.00D+00
 Coeff-Com: -0.709D-03 0.271D-02 0.134D-01 0.229D-01 0.678D-01 0.277D+00
 Coeff-Com:  0.617D+00
 Coeff:     -0.709D-03 0.271D-02 0.134D-01 0.229D-01 0.678D-01 0.277D+00
 Coeff:      0.617D+00
 Gap=     0.183 Goal=   None    Shift=    0.000
 RMSDP=1.04D-08 MaxDP=6.62D-07 DE=-2.60D-10 OVMax= 1.01D-06

 Cycle  15  Pass 1  IDiag  1:
 RMSU=  4.97D-09    CP:  1.00D+00  9.54D-01  8.30D-01  5.59D-01  6.49D-01
                    CP:  8.11D-01  7.77D-01
 E= -1357.86329851226     Delta-E=        0.000000000013 Rises=F Damp=F
 DIIS: error= 2.72D-08 at cycle   8 NSaved=   8.
 NSaved= 8 IEnMin= 7 EnMin= -1357.86329851228     IErMin= 8 ErrMin= 2.72D-08
 ErrMax= 2.72D-08 EMaxC= 1.00D-01 BMatC= 1.66D-12 BMatP= 1.79D-11
 IDIUse=1 WtCom= 1.00D+00 WtEn= 0.00D+00
 Coeff-Com: -0.417D-04-0.435D-03-0.228D-02-0.112D-02 0.648D-02 0.894D-01
 Coeff-Com:  0.313D+00 0.595D+00
 Coeff:     -0.417D-04-0.435D-03-0.228D-02-0.112D-02 0.648D-02 0.894D-01
 Coeff:      0.313D+00 0.595D+00
 Gap=     0.183 Goal=   None    Shift=    0.000
 RMSDP=3.22D-09 MaxDP=1.79D-07 DE= 1.27D-11 OVMax= 2.47D-07

 SCF Done:  E(RB3LYP) =  -1357.86329851     A.U. after   15 cycles
             Convg  =    0.3224D-08             -V/T =  2.0092
 KE= 1.345494475206D+03 PE=-8.929204411021D+03 EE= 3.340345181928D+03
 Leave Link  502 at Tue Sep 28 15:42:56 2021, MaxMem= 2415919104 cpu:    2593.3
 (Enter /sw/target/amd/app/gaussian/Gaussian09RevA.02_gcc-4.9.2/g09/l508.exe)
 QCSCF skips out because SCF is already converged.
 Leave Link  508 at Tue Sep 28 15:42:57 2021, MaxMem= 2415919104 cpu:       0.0
 (Enter /sw/target/amd/app/gaussian/Gaussian09RevA.02_gcc-4.9.2/g09/l601.exe)
 Copying SCF densities to generalized density rwf, IOpCl= 0 IROHF=0.

 **********************************************************************

            Population analysis using the SCF density.

 **********************************************************************

 Orbital symmetries:
       Occupied  (A) (A) (A) (A) (A) (A) (A) (A) (A) (A) (A) (A)
                 (A) (A) (A) (A) (A) (A) (A) (A) (A) (A) (A) (A)
                 (A) (A) (A) (A) (A) (A) (A) (A) (A) (A) (A) (A)
                 (A) (A) (A) (A) (A) (A) (A) (A) (A) (A) (A) (A)
                 (A) (A) (A) (A) (A) (A) (A) (A) (A) (A) (A) (A)
                 (A) (A) (A) (A) (A) (A) (A) (A) (A) (A) (A) (A)
                 (A) (A) (A) (A) (A) (A) (A) (A) (A) (A) (A) (A)
                 (A) (A) (A) (A) (A) (A) (A) (A) (A) (A) (A) (A)
                 (A) (A) (A) (A) (A) (A) (A) (A) (A) (A) (A) (A)
                 (A)
       Virtual   (A) (A) (A) (A) (A) (A) (A) (A) (A) (A) (A) (A)
                 (A) (A) (A) (A) (A) (A) (A) (A) (A) (A) (A) (A)
                 (A) (A) (A) (A) (A) (A) (A) (A) (A) (A) (A) (A)
                 (A) (A) (A) (A) (A) (A) (A) (A) (A) (A) (A) (A)
                 (A) (A) (A) (A) (A) (A) (A) (A) (A) (A) (A) (A)
                 (A) (A) (A) (A) (A) (A) (A) (A) (A) (A) (A) (A)
                 (A) (A) (A) (A) (A) (A) (A) (A) (A) (A) (A) (A)
                 (A) (A) (A) (A) (A) (A) (A) (A) (A) (A) (A) (A)
                 (A) (A) (A) (A) (A) (A) (A) (A) (A) (A) (A) (A)
                 (A) (A) (A) (A) (A) (A) (A) (A) (A) (A) (A) (A)
                 (A) (A) (A) (A) (A) (A) (A) (A) (A) (A) (A) (A)
                 (A) (A) (A) (A) (A) (A) (A) (A) (A) (A) (A) (A)
                 (A) (A) (A) (A) (A) (A) (A) (A) (A) (A) (A) (A)
                 (A) (A) (A) (A) (A) (A) (A) (A) (A) (A) (A) (A)
                 (A) (A) (A) (A) (A) (A) (A) (A) (A) (A) (A) (A)
                 (A) (A) (A) (A) (A) (A) (A) (A) (A) (A) (A) (A)
                 (A) (A) (A) (A) (A) (A) (A) (A) (A) (A) (A) (A)
                 (A) (A) (A) (A) (A) (A) (A) (A) (A) (A) (A) (A)
                 (A) (A) (A) (A) (A) (A) (A) (A) (A) (A) (A) (A)
                 (A) (A) (A) (A) (A) (A) (A) (A) (A) (A) (A) (A)
                 (A) (A) (A) (A) (A) (A) (A) (A) (A) (A) (A) (A)
                 (A) (A) (A) (A) (A) (A) (A) (A) (A) (A) (A) (A)
                 (A) (A) (A) (A) (A) (A) (A) (A) (A) (A) (A) (A)
                 (A) (A) (A) (A) (A) (A) (A) (A) (A) (A) (A) (A)
                 (A) (A) (A) (A) (A) (A) (A) (A) (A) (A) (A) (A)
                 (A) (A) (A) (A) (A) (A) (A) (A) (A) (A) (A) (A)
                 (A) (A) (A) (A) (A) (A) (A) (A) (A) (A) (A) (A)
                 (A) (A) (A) (A) (A) (A) (A) (A) (A) (A) (A) (A)
                 (A) (A) (A) (A) (A) (A) (A) (A) (A) (A) (A) (A)
                 (A) (A) (A) (A) (A) (A) (A) (A) (A) (A) (A) (A)
                 (A) (A) (A) (A) (A) (A) (A) (A) (A) (A) (A) (A)
                 (A) (A) (A) (A) (A) (A) (A) (A) (A) (A) (A) (A)
                 (A) (A) (A) (A) (A) (A) (A) (A) (A) (A) (A)
 The electronic state is 1-A.
 Alpha  occ. eigenvalues --  -19.20672 -19.20121 -19.19767 -19.13004 -14.34928
 Alpha  occ. eigenvalues --  -14.34655 -14.34493 -10.33880 -10.33438 -10.33291
 Alpha  occ. eigenvalues --  -10.26289 -10.24841 -10.24045 -10.24008 -10.19801
 Alpha  occ. eigenvalues --  -10.19188 -10.19143 -10.19120 -10.18955 -10.18728
 Alpha  occ. eigenvalues --  -10.18701 -10.18673 -10.18656 -10.18633 -10.18571
 Alpha  occ. eigenvalues --  -10.18518 -10.18466 -10.18341 -10.17749 -10.17697
 Alpha  occ. eigenvalues --   -1.11128  -1.09360  -1.08784  -1.02338  -1.01221
 Alpha  occ. eigenvalues --   -0.91500  -0.91132  -0.87328  -0.85443  -0.81283
 Alpha  occ. eigenvalues --   -0.79529  -0.76956  -0.75181  -0.73696  -0.73560
 Alpha  occ. eigenvalues --   -0.72555  -0.71790  -0.69151  -0.66907  -0.65635
 Alpha  occ. eigenvalues --   -0.64484  -0.63260  -0.61465  -0.60837  -0.59564
 Alpha  occ. eigenvalues --   -0.58669  -0.57397  -0.55427  -0.53634  -0.52204
 Alpha  occ. eigenvalues --   -0.51069  -0.50823  -0.50082  -0.49458  -0.48100
 Alpha  occ. eigenvalues --   -0.47890  -0.47766  -0.46373  -0.46082  -0.45055
 Alpha  occ. eigenvalues --   -0.44668  -0.44437  -0.44058  -0.43734  -0.42927
 Alpha  occ. eigenvalues --   -0.42390  -0.41875  -0.41381  -0.40632  -0.40286
 Alpha  occ. eigenvalues --   -0.39990  -0.39575  -0.39217  -0.38474  -0.38243
 Alpha  occ. eigenvalues --   -0.37386  -0.37134  -0.36656  -0.36438  -0.36051
 Alpha  occ. eigenvalues --   -0.35932  -0.35526  -0.35096  -0.34463  -0.33807
 Alpha  occ. eigenvalues --   -0.33473  -0.32765  -0.32363  -0.31237  -0.30516
 Alpha  occ. eigenvalues --   -0.29426  -0.29190  -0.28936  -0.28723  -0.28377
 Alpha  occ. eigenvalues --   -0.28171  -0.23726  -0.23190  -0.22021
 Alpha virt. eigenvalues --   -0.03689  -0.02763  -0.01872  -0.00092   0.01528
 Alpha virt. eigenvalues --    0.06844   0.08921   0.09369   0.10396   0.10404
 Alpha virt. eigenvalues --    0.10683   0.11645   0.12114   0.12370   0.12578
 Alpha virt. eigenvalues --    0.13126   0.13569   0.13598   0.14624   0.14826
 Alpha virt. eigenvalues --    0.15392   0.15443   0.15547   0.15846   0.16322
 Alpha virt. eigenvalues --    0.16581   0.17127   0.17352   0.17572   0.17724
 Alpha virt. eigenvalues --    0.17996   0.18709   0.19105   0.19682   0.20228
 Alpha virt. eigenvalues --    0.20747   0.21158   0.21550   0.22041   0.22357
 Alpha virt. eigenvalues --    0.23323   0.23673   0.24800   0.25044   0.25446
 Alpha virt. eigenvalues --    0.25661   0.26529   0.26861   0.27912   0.28447
 Alpha virt. eigenvalues --    0.28887   0.29501   0.29744   0.29828   0.30362
 Alpha virt. eigenvalues --    0.31626   0.32592   0.33780   0.35786   0.36177
 Alpha virt. eigenvalues --    0.37141   0.38810   0.40080   0.41908   0.42376
 Alpha virt. eigenvalues --    0.47105   0.48605   0.49153   0.49388   0.49918
 Alpha virt. eigenvalues --    0.51194   0.52050   0.52375   0.52693   0.52762
 Alpha virt. eigenvalues --    0.53242   0.53675   0.54212   0.54330   0.54757
 Alpha virt. eigenvalues --    0.55314   0.56313   0.56564   0.57136   0.57593
 Alpha virt. eigenvalues --    0.58264   0.58359   0.59271   0.59505   0.60649
 Alpha virt. eigenvalues --    0.60870   0.61269   0.61334   0.62112   0.62537
 Alpha virt. eigenvalues --    0.63410   0.64074   0.64204   0.64285   0.64677
 Alpha virt. eigenvalues --    0.65310   0.65589   0.66493   0.67231   0.67545
 Alpha virt. eigenvalues --    0.68145   0.68716   0.69340   0.69660   0.70269
 Alpha virt. eigenvalues --    0.71351   0.71876   0.73493   0.73872   0.74579
 Alpha virt. eigenvalues --    0.75718   0.76635   0.77340   0.78218   0.78729
 Alpha virt. eigenvalues --    0.79935   0.80812   0.81152   0.81602   0.81786
 Alpha virt. eigenvalues --    0.82568   0.82935   0.83254   0.84115   0.84652
 Alpha virt. eigenvalues --    0.85073   0.85346   0.85493   0.85926   0.86296
 Alpha virt. eigenvalues --    0.86683   0.86828   0.87042   0.87807   0.88481
 Alpha virt. eigenvalues --    0.88730   0.89197   0.90111   0.90512   0.90775
 Alpha virt. eigenvalues --    0.91214   0.92057   0.92472   0.93025   0.93475
 Alpha virt. eigenvalues --    0.93733   0.94400   0.94701   0.95070   0.95575
 Alpha virt. eigenvalues --    0.96017   0.96538   0.96993   0.97343   0.97947
 Alpha virt. eigenvalues --    0.98472   0.99037   0.99550   1.00687   1.01089
 Alpha virt. eigenvalues --    1.01827   1.02380   1.03601   1.04259   1.06176
 Alpha virt. eigenvalues --    1.06468   1.06839   1.07237   1.08109   1.09612
 Alpha virt. eigenvalues --    1.11469   1.12047   1.12828   1.14011   1.14151
 Alpha virt. eigenvalues --    1.15074   1.17338   1.19258   1.20131   1.20884
 Alpha virt. eigenvalues --    1.21549   1.22922   1.23568   1.24567   1.25353
 Alpha virt. eigenvalues --    1.27115   1.28897   1.29627   1.31616   1.33181
 Alpha virt. eigenvalues --    1.33355   1.35701   1.36358   1.37277   1.38045
 Alpha virt. eigenvalues --    1.39418   1.40685   1.43674   1.43981   1.45271
 Alpha virt. eigenvalues --    1.45704   1.46977   1.47935   1.48125   1.48944
 Alpha virt. eigenvalues --    1.49292   1.50005   1.50810   1.51827   1.54136
 Alpha virt. eigenvalues --    1.54443   1.54752   1.56834   1.58171   1.59122
 Alpha virt. eigenvalues --    1.60741   1.62339   1.64159   1.66635   1.67694
 Alpha virt. eigenvalues --    1.69474   1.70378   1.70695   1.71171   1.73233
 Alpha virt. eigenvalues --    1.73972   1.75353   1.76225   1.76855   1.77514
 Alpha virt. eigenvalues --    1.78539   1.79380   1.79568   1.79917   1.81515
 Alpha virt. eigenvalues --    1.82121   1.82934   1.84207   1.84509   1.84818
 Alpha virt. eigenvalues --    1.85424   1.86107   1.86553   1.86766   1.88741
 Alpha virt. eigenvalues --    1.89411   1.89670   1.90470   1.91807   1.92991
 Alpha virt. eigenvalues --    1.93752   1.94101   1.95175   1.95597   1.96198
 Alpha virt. eigenvalues --    1.97043   1.98223   1.98976   1.99544   1.99883
 Alpha virt. eigenvalues --    2.01478   2.02175   2.02434   2.02868   2.03843
 Alpha virt. eigenvalues --    2.04492   2.05741   2.06208   2.07338   2.07832
 Alpha virt. eigenvalues --    2.08168   2.09883   2.10709   2.11130   2.11637
 Alpha virt. eigenvalues --    2.12470   2.14106   2.14377   2.15702   2.17941
 Alpha virt. eigenvalues --    2.18620   2.19227   2.19659   2.20783   2.21143
 Alpha virt. eigenvalues --    2.21595   2.22858   2.23922   2.24294   2.26550
 Alpha virt. eigenvalues --    2.26884   2.27594   2.27995   2.28547   2.29739
 Alpha virt. eigenvalues --    2.30747   2.30930   2.31569   2.33604   2.35396
 Alpha virt. eigenvalues --    2.37234   2.37483   2.38061   2.39085   2.39764
 Alpha virt. eigenvalues --    2.41989   2.42137   2.43326   2.44004   2.44626
 Alpha virt. eigenvalues --    2.45762   2.46580   2.47129   2.48317   2.49586
 Alpha virt. eigenvalues --    2.51108   2.51651   2.52620   2.54433   2.54984
 Alpha virt. eigenvalues --    2.56427   2.57352   2.59654   2.60195   2.62837
 Alpha virt. eigenvalues --    2.64393   2.65566   2.66461   2.66846   2.67504
 Alpha virt. eigenvalues --    2.68239   2.68775   2.69777   2.72015   2.72253
 Alpha virt. eigenvalues --    2.75177   2.76902   2.77006   2.77950   2.79972
 Alpha virt. eigenvalues --    2.81141   2.81702   2.84085   2.84410   2.86685
 Alpha virt. eigenvalues --    2.87279   2.88092   2.90320   2.93001   2.97309
 Alpha virt. eigenvalues --    3.01537   3.02021   3.03058   3.07619   3.14101
 Alpha virt. eigenvalues --    3.19970   3.23331   3.32611   3.42674   3.47509
 Alpha virt. eigenvalues --    4.04137   4.04830   4.09961   4.10727   4.11286
 Alpha virt. eigenvalues --    4.12941   4.14336   4.15002   4.17867   4.22182
 Alpha virt. eigenvalues --    4.23791   4.26011   4.26098   4.27877   4.29996
 Alpha virt. eigenvalues --    4.32328   4.35057   4.39672   4.41516   4.44169
 Alpha virt. eigenvalues --    4.48555   4.54583   4.57008   4.63319   4.65170
 Alpha virt. eigenvalues --    4.66820   4.71363   4.78428   4.83753   4.86646
          Condensed to atoms (all electrons):
 Mulliken atomic charges:
              1
     1  C   -0.220777
     2  O   -0.464410
     3  C    0.669003
     4  N   -0.480951
     5  C    0.639444
     6  O   -0.541105
     7  C    0.368222
     8  C   -0.179872
     9  C   -0.191003
    10  C    0.121397
    11  C    0.113122
    12  C   -0.201525
    13  C   -0.350103
    14  C   -0.298859
    15  C   -0.096763
    16  C   -0.177682
    17  C   -0.276493
    18  C   -0.278994
    19  C    0.034657
    20  C   -0.126881
    21  C   -0.302571
    22  C   -0.349990
    23  C    0.441103
    24  O   -0.475771
    25  C   -0.466334
    26  N   -0.461384
    27  C    0.678374
    28  N   -0.492644
    29  O   -0.463045
    30  C   -0.213120
    31  H    0.166091
    32  H    0.158939
    33  H    0.181056
    34  H    0.137667
    35  H    0.126135
    36  H    0.129443
    37  H    0.159322
    38  H    0.149898
    39  H    0.149525
    40  H    0.137339
    41  H    0.125234
    42  H    0.125177
    43  H    0.139493
    44  H    0.149635
    45  H    0.124429
    46  H    0.159856
    47  H    0.120156
    48  H    0.142092
    49  H    0.143074
    50  H    0.179557
    51  H    0.172406
    52  H    0.151934
    53  H    0.167036
    54  H    0.145592
    55  H    0.165423
    56  H    0.168980
    57  H    0.169466
 Sum of Mulliken atomic charges =  -0.00000
 Mulliken charges with hydrogens summed into heavy atoms:
              1
     1  C    0.285308
     2  O   -0.464410
     3  C    0.669003
     4  N   -0.480951
     5  C    0.639444
     6  O   -0.541105
     7  C    0.368222
     8  C   -0.042205
     9  C   -0.064868
    10  C    0.121397
    11  C    0.113122
    12  C   -0.072082
    13  C   -0.040883
    14  C   -0.011995
    15  C    0.028471
    16  C   -0.052505
    17  C    0.012636
    18  C    0.005292
    19  C    0.034657
    20  C   -0.006725
    21  C   -0.017405
    22  C    0.001973
    23  C    0.441103
    24  O   -0.475771
    25  C   -0.001772
    26  N   -0.461384
    27  C    0.678374
    28  N   -0.492644
    29  O   -0.463045
    30  C    0.290748
 Sum of Mulliken charges with hydrogens summed into heavy atoms =  -0.00000
 Electronic spatial extent (au):  <R**2>=          18503.8234
 Charge=             -0.0000 electrons
 Dipole moment (field-independent basis, Debye):
    X=              0.8290    Y=             -0.5462    Z=              2.5514  Tot=              2.7377
 Quadrupole moment (field-independent basis, Debye-Ang):
   XX=           -162.3706   YY=           -168.2968   ZZ=           -177.5810
   XY=              9.2347   XZ=            -16.4319   YZ=              6.6886
 Traceless Quadrupole moment (field-independent basis, Debye-Ang):
   XX=              7.0455   YY=              1.1194   ZZ=             -8.1649
   XY=              9.2347   XZ=            -16.4319   YZ=              6.6886
 Octapole moment (field-independent basis, Debye-Ang**2):
  XXX=            194.9433  YYY=             43.6836  ZZZ=              1.8718  XYY=             57.4870
  XXY=            -83.0064  XXZ=             61.3785  XZZ=             39.0782  YZZ=             -3.1375
  YYZ=             -8.3841  XYZ=            -48.9285
 Hexadecapole moment (field-independent basis, Debye-Ang**3):
 XXXX=         -19366.7817 YYYY=          -2508.0192 ZZZZ=          -1120.9579 XXXY=           -211.6644
 XXXZ=           -520.7083 YYYX=            224.4193 YYYZ=             -6.4865 ZZZX=              4.4338
 ZZZY=             -7.6119 XXYY=          -3761.2460 XXZZ=          -3678.5294 YYZZ=           -632.8534
 XXYZ=             55.4832 YYXZ=            -93.6046 ZZXY=             41.6127
 N-N= 2.885501455374D+03 E-N=-8.929204384974D+03  KE= 1.345494475206D+03
 No NMR shielding tensors so no spin-rotation constants.
 Leave Link  601 at Tue Sep 28 15:43:02 2021, MaxMem= 2415919104 cpu:       5.0
 (Enter /sw/target/amd/app/gaussian/Gaussian09RevA.02_gcc-4.9.2/g09/l701.exe)
 Compute integral first derivatives.
 ... and contract with generalized density number  0.
 Leave Link  701 at Tue Sep 28 15:43:07 2021, MaxMem= 2415919104 cpu:       4.2
 (Enter /sw/target/amd/app/gaussian/Gaussian09RevA.02_gcc-4.9.2/g09/l702.exe)
 L702 exits ... SP integral derivatives will be done elsewhere.
[...]
   325    C   22  pz     Ryd( 3p)     0.00179
   326    C   22  dxy    Ryd( 3d)     0.00105
   327    C   22  dxz    Ryd( 3d)     0.00093
   328    C   22  dyz    Ryd( 3d)     0.00053
   329    C   22  dx2y2  Ryd( 3d)     0.00059
   330    C   22  dz2    Ryd( 3d)     0.00094

   331    C   23  S      Cor( 1S)     1.99924
   332    C   23  S      Val( 2S)     0.82197
   333    C   23  S      Ryd( 3S)     0.00867
   334    C   23  S      Ryd( 4S)     0.00022
   335    C   23  px     Val( 2p)     1.12565
   336    C   23  px     Ryd( 3p)     0.00671
   337    C   23  py     Val( 2p)     0.84073
   338    C   23  py     Ryd( 3p)     0.01278
   339    C   23  pz     Val( 2p)     0.90177
   340    C   23  pz     Ryd( 3p)     0.00795
   341    C   23  dxy    Ryd( 3d)     0.00134
   342    C   23  dxz    Ryd( 3d)     0.00091
   343    C   23  dyz    Ryd( 3d)     0.00123
   344    C   23  dx2y2  Ryd( 3d)     0.00068
   345    C   23  dz2    Ryd( 3d)     0.00097

   346    O   24  S      Cor( 1S)     1.99980
   347    O   24  S      Val( 2S)     1.68834
   348    O   24  S      Ryd( 3S)     0.00037
   349    O   24  S      Ryd( 4S)     0.00007
   350    O   24  px     Val( 2p)     1.75408
   351    O   24  px     Ryd( 3p)     0.00509
   352    O   24  py     Val( 2p)     1.47082
   353    O   24  py     Ryd( 3p)     0.00091
   354    O   24  pz     Val( 2p)     1.38982
   355    O   24  pz     Ryd( 3p)     0.00163
   356    O   24  dxy    Ryd( 3d)     0.00273
   357    O   24  dxz    Ryd( 3d)     0.00143
   358    O   24  dyz    Ryd( 3d)     0.00398
   359    O   24  dx2y2  Ryd( 3d)     0.00232
   360    O   24  dz2    Ryd( 3d)     0.00189

   361    C   25  S      Cor( 1S)     1.99936
   362    C   25  S      Val( 2S)     1.09828
   363    C   25  S      Ryd( 3S)     0.00078
   364    C   25  S      Ryd( 4S)     0.00001
   365    C   25  px     Val( 2p)     1.09416
   366    C   25  px     Ryd( 3p)     0.00229
   367    C   25  py     Val( 2p)     1.22324
   368    C   25  py     Ryd( 3p)     0.00143
   369    C   25  pz     Val( 2p)     1.23939
   370    C   25  pz     Ryd( 3p)     0.00236
   371    C   25  dxy    Ryd( 3d)     0.00032
   372    C   25  dxz    Ryd( 3d)     0.00095
   373    C   25  dyz    Ryd( 3d)     0.00057
   374    C   25  dx2y2  Ryd( 3d)     0.00106
   375    C   25  dz2    Ryd( 3d)     0.00055

   376    N   26  S      Cor( 1S)     1.99925
   377    N   26  S      Val( 2S)     1.39021
   378    N   26  S      Ryd( 3S)     0.00081
   379    N   26  S      Ryd( 4S)     0.00004
   380    N   26  px     Val( 2p)     1.62402
   381    N   26  px     Ryd( 3p)     0.00267
   382    N   26  py     Val( 2p)     1.24044
   383    N   26  py     Ryd( 3p)     0.00227
   384    N   26  pz     Val( 2p)     1.31739
   385    N   26  pz     Ryd( 3p)     0.00088
   386    N   26  dxy    Ryd( 3d)     0.00385
   387    N   26  dxz    Ryd( 3d)     0.00375
   388    N   26  dyz    Ryd( 3d)     0.00058
   389    N   26  dx2y2  Ryd( 3d)     0.00336
   390    N   26  dz2    Ryd( 3d)     0.00241

   391    C   27  S      Cor( 1S)     1.99921
   392    C   27  S      Val( 2S)     0.74406
   393    C   27  S      Ryd( 3S)     0.00230
   394    C   27  S      Ryd( 4S)     0.00040
   395    C   27  px     Val( 2p)     0.85327
   396    C   27  px     Ryd( 3p)     0.01757
   397    C   27  py     Val( 2p)     0.75181
   398    C   27  py     Ryd( 3p)     0.00536
   399    C   27  pz     Val( 2p)     0.84699
   400    C   27  pz     Ryd( 3p)     0.00112
   401    C   27  dxy    Ryd( 3d)     0.00227
   402    C   27  dxz    Ryd( 3d)     0.00173
   403    C   27  dyz    Ryd( 3d)     0.00244
   404    C   27  dx2y2  Ryd( 3d)     0.00260
   405    C   27  dz2    Ryd( 3d)     0.00056

   406    N   28  S      Cor( 1S)     1.99926
   407    N   28  S      Val( 2S)     1.39242
   408    N   28  S      Ryd( 3S)     0.00086
   409    N   28  S      Ryd( 4S)     0.00006
   410    N   28  px     Val( 2p)     1.42613
   411    N   28  px     Ryd( 3p)     0.00274
   412    N   28  py     Val( 2p)     1.44989
   413    N   28  py     Ryd( 3p)     0.00274
   414    N   28  pz     Val( 2p)     1.32236
   415    N   28  pz     Ryd( 3p)     0.00089
   416    N   28  dxy    Ryd( 3d)     0.00323
   417    N   28  dxz    Ryd( 3d)     0.00217
   418    N   28  dyz    Ryd( 3d)     0.00207
   419    N   28  dx2y2  Ryd( 3d)     0.00390
   420    N   28  dz2    Ryd( 3d)     0.00223

   421    O   29  S      Cor( 1S)     1.99972
   422    O   29  S      Val( 2S)     1.59703
   423    O   29  S      Ryd( 3S)     0.00148
   424    O   29  S      Ryd( 4S)     0.00007
   425    O   29  px     Val( 2p)     1.71512
   426    O   29  px     Ryd( 3p)     0.00174
   427    O   29  py     Val( 2p)     1.39552
   428    O   29  py     Ryd( 3p)     0.00100
   429    O   29  pz     Val( 2p)     1.78061
   430    O   29  pz     Ryd( 3p)     0.00208
   431    O   29  dxy    Ryd( 3d)     0.00131
   432    O   29  dxz    Ryd( 3d)     0.00169
   433    O   29  dyz    Ryd( 3d)     0.00057
   434    O   29  dx2y2  Ryd( 3d)     0.00141
   435    O   29  dz2    Ryd( 3d)     0.00084

   436    C   30  S      Cor( 1S)     1.99941
   437    C   30  S      Val( 2S)     1.11067
   438    C   30  S      Ryd( 3S)     0.00146
   439    C   30  S      Ryd( 4S)     0.00003
   440    C   30  px     Val( 2p)     1.01102
   441    C   30  px     Ryd( 3p)     0.00318
   442    C   30  py     Val( 2p)     0.94594
   443    C   30  py     Ryd( 3p)     0.00243
   444    C   30  pz     Val( 2p)     1.24024
   445    C   30  pz     Ryd( 3p)     0.00031
   446    C   30  dxy    Ryd( 3d)     0.00197
   447    C   30  dxz    Ryd( 3d)     0.00152
   448    C   30  dyz    Ryd( 3d)     0.00070
   449    C   30  dx2y2  Ryd( 3d)     0.00099
   450    C   30  dz2    Ryd( 3d)     0.00109

   451    H   31  S      Val( 1S)     0.77503
   452    H   31  S      Ryd( 2S)     0.00061

   453    H   32  S      Val( 1S)     0.77725
   454    H   32  S      Ryd( 2S)     0.00134

   455    H   33  S      Val( 1S)     0.77730
   456    H   33  S      Ryd( 2S)     0.00134

   457    H   34  S      Val( 1S)     0.75073
   458    H   34  S      Ryd( 2S)     0.00107

   459    H   35  S      Val( 1S)     0.76479
   460    H   35  S      Ryd( 2S)     0.00101

   461    H   36  S      Val( 1S)     0.75284
   462    H   36  S      Ryd( 2S)     0.00112

   463    H   37  S      Val( 1S)     0.74779
   464    H   37  S      Ryd( 2S)     0.00121

   465    H   38  S      Val( 1S)     0.75642
   466    H   38  S      Ryd( 2S)     0.00163

   467    H   39  S      Val( 1S)     0.75991
   468    H   39  S      Ryd( 2S)     0.00140

   469    H   40  S      Val( 1S)     0.76331
   470    H   40  S      Ryd( 2S)     0.00148

   471    H   41  S      Val( 1S)     0.75245
   472    H   41  S      Ryd( 2S)     0.00210

   473    H   42  S      Val( 1S)     0.75251
   474    H   42  S      Ryd( 2S)     0.00203

   475    H   43  S      Val( 1S)     0.75412
   476    H   43  S      Ryd( 2S)     0.00116

   477    H   44  S      Val( 1S)     0.76016
   478    H   44  S      Ryd( 2S)     0.00150

   479    H   45  S      Val( 1S)     0.76329
   480    H   45  S      Ryd( 2S)     0.00165

   481    H   46  S      Val( 1S)     0.74403
   482    H   46  S      Ryd( 2S)     0.00170

   483    H   47  S      Val( 1S)     0.74667
   484    H   47  S      Ryd( 2S)     0.00239

   485    H   48  S      Val( 1S)     0.75376
   486    H   48  S      Ryd( 2S)     0.00107

   487    H   49  S      Val( 1S)     0.75576
   488    H   49  S      Ryd( 2S)     0.00128

   489    H   50  S      Val( 1S)     0.75915
   490    H   50  S      Ryd( 2S)     0.00444

   491    H   51  S      Val( 1S)     0.75956
   492    H   51  S      Ryd( 2S)     0.00463

   493    H   52  S      Val( 1S)     0.77175
   494    H   52  S      Ryd( 2S)     0.00201

   495    H   53  S      Val( 1S)     0.75694
   496    H   53  S      Ryd( 2S)     0.00097

   497    H   54  S      Val( 1S)     0.76656
   498    H   54  S      Ryd( 2S)     0.00079

   499    H   55  S      Val( 1S)     0.77466
   500    H   55  S      Ryd( 2S)     0.00061

   501    H   56  S      Val( 1S)     0.77738
   502    H   56  S      Ryd( 2S)     0.00134

   503    H   57  S      Val( 1S)     0.77787
   504    H   57  S      Ryd( 2S)     0.00135

 WARNING:  1 low occupancy (<1.9990e) core orbital  found on  C    7
           1 low occupancy (<1.9990e) core orbital  found on  C    8
           1 low occupancy (<1.9990e) core orbital  found on  C   10
           1 low occupancy (<1.9990e) core orbital  found on  C   11
           1 low occupancy (<1.9990e) core orbital  found on  C   12


 Summary of Natural Population Analysis:                  
                                                          
                                       Natural Population 
                Natural  -----------------------------------------------
    Atom  No    Charge         Core      Valence    Rydberg      Total
 -----------------------------------------------------------------------
      C    1   -0.32099      1.99941     4.30792    0.01366     6.32099
      O    2   -0.50166      1.99972     6.48984    0.01210     8.50166
      C    3    0.77081      1.99922     3.19372    0.03626     5.22919
      N    4   -0.61184      1.99926     5.59167    0.02092     7.61184
      C    5    0.77079      1.99917     3.19388    0.03615     5.22921
      O    6   -0.49710      1.99967     6.48525    0.01218     8.49710
      C    7    0.29636      1.99867     3.68315    0.02182     5.70364
      C    8   -0.25907      1.99898     4.24634    0.01375     6.25907
      C    9   -0.21215      1.99904     4.20028    0.01284     6.21215
      C   10   -0.03414      1.99898     4.01944    0.01572     6.03414
      C   11   -0.01824      1.99898     4.00519    0.01407     6.01824
      C   12   -0.24074      1.99892     4.22939    0.01243     6.24074
      C   13   -0.46467      1.99928     4.45385    0.01154     6.46467
      C   14   -0.45782      1.99930     4.44521    0.01330     6.45782
      C   15   -0.24844      1.99918     4.23301    0.01624     6.24844
      C   16   -0.26185      1.99915     4.24702    0.01568     6.26185
      C   17   -0.44598      1.99929     4.43379    0.01290     6.44598
      C   18   -0.45579      1.99923     4.44177    0.01479     6.45579
      C   19   -0.07399      1.99902     4.05845    0.01652     6.07399
      C   20   -0.23474      1.99914     4.21918    0.01643     6.23474
      C   21   -0.45753      1.99932     4.44574    0.01247     6.45753
      C   22   -0.47150      1.99924     4.46113    0.01113     6.47150
      C   23    0.26919      1.99924     3.69013    0.04145     5.73081
      O   24   -0.32326      1.99980     6.30306    0.02040     8.32326
      C   25   -0.66476      1.99936     4.65506    0.01033     6.66476
      N   26   -0.59192      1.99925     5.57205    0.02062     7.59192
      C   27    0.76831      1.99921     3.19612    0.03635     5.23169
      N   28   -0.61095      1.99926     5.59081    0.02088     7.61095
      O   29   -0.50018      1.99972     6.48828    0.01218     8.50018
      C   30   -0.32097      1.99941     4.30788    0.01368     6.32097
      H   31    0.22436      0.00000     0.77503    0.00061     0.77564
      H   32    0.22141      0.00000     0.77725    0.00134     0.77859
      H   33    0.22136      0.00000     0.77730    0.00134     0.77864
      H   34    0.24820      0.00000     0.75073    0.00107     0.75180
      H   35    0.23420      0.00000     0.76479    0.00101     0.76580
      H   36    0.24604      0.00000     0.75284    0.00112     0.75396
      H   37    0.25101      0.00000     0.74779    0.00121     0.74899
      H   38    0.24195      0.00000     0.75642    0.00163     0.75805
      H   39    0.23868      0.00000     0.75991    0.00140     0.76132
      H   40    0.23520      0.00000     0.76331    0.00148     0.76480
      H   41    0.24545      0.00000     0.75245    0.00210     0.75455
      H   42    0.24546      0.00000     0.75251    0.00203     0.75454
      H   43    0.24472      0.00000     0.75412    0.00116     0.75528
      H   44    0.23834      0.00000     0.76016    0.00150     0.76166
      H   45    0.23506      0.00000     0.76329    0.00165     0.76494
      H   46    0.25427      0.00000     0.74403    0.00170     0.74573
      H   47    0.25095      0.00000     0.74667    0.00239     0.74905
      H   48    0.24517      0.00000     0.75376    0.00107     0.75483
      H   49    0.24296      0.00000     0.75576    0.00128     0.75704
      H   50    0.23641      0.00000     0.75915    0.00444     0.76359
      H   51    0.23582      0.00000     0.75956    0.00463     0.76418
      H   52    0.22625      0.00000     0.77175    0.00201     0.77375
      H   53    0.24208      0.00000     0.75694    0.00097     0.75792
      H   54    0.23265      0.00000     0.76656    0.00079     0.76735
      H   55    0.22474      0.00000     0.77466    0.00061     0.77526
      H   56    0.22128      0.00000     0.77738    0.00134     0.77872
      H   57    0.22078      0.00000     0.77787    0.00135     0.77922
 =======================================================================
   * Total *    0.00000     59.97741   157.44057    0.58201   218.00000

                                 Natural Population      
 --------------------------------------------------------
   Core                      59.97741 ( 99.9624% of  60)
   Valence                  157.44057 ( 99.6459% of 158)
   Natural Minimal Basis    217.41799 ( 99.7330% of 218)
   Natural Rydberg Basis      0.58201 (  0.2670% of 218)
 --------------------------------------------------------

    Atom  No          Natural Electron Configuration
 ----------------------------------------------------------------------------
      C    1      [core]2S( 1.11)2p( 3.20)3p( 0.01)3d( 0.01)
      O    2      [core]2S( 1.60)2p( 4.89)3d( 0.01)
      C    3      [core]2S( 0.74)2p( 2.45)3p( 0.02)3d( 0.01)
      N    4      [core]2S( 1.39)2p( 4.20)3p( 0.01)3d( 0.01)
      C    5      [core]2S( 0.74)2p( 2.45)3p( 0.02)3d( 0.01)
      O    6      [core]2S( 1.57)2p( 4.92)3p( 0.01)3d( 0.01)
      C    7      [core]2S( 0.84)2p( 2.85)3p( 0.01)3d( 0.01)
      C    8      [core]2S( 0.96)2p( 3.29)3p( 0.01)
      C    9      [core]2S( 0.94)2p( 3.26)3p( 0.01)
      C   10      [core]2S( 0.86)2p( 3.16)3p( 0.01)
      C   11      [core]2S( 0.87)2p( 3.14)3p( 0.01)
      C   12      [core]2S( 0.95)2p( 3.28)3p( 0.01)
      C   13      [core]2S( 1.02)2p( 3.43)3p( 0.01)
      C   14      [core]2S( 1.02)2p( 3.43)3p( 0.01)
      C   15      [core]2S( 0.95)2p( 3.28)3p( 0.01)
      C   16      [core]2S( 0.95)2p( 3.30)3p( 0.01)
      C   17      [core]2S( 1.02)2p( 3.41)3p( 0.01)
      C   18      [core]2S( 1.01)2p( 3.43)3p( 0.01)
      C   19      [core]2S( 0.93)2p( 3.13)3p( 0.01)
      C   20      [core]2S( 0.96)2p( 3.26)3p( 0.01)
      C   21      [core]2S( 1.03)2p( 3.41)3p( 0.01)
      C   22      [core]2S( 1.06)2p( 3.40)3p( 0.01)
      C   23      [core]2S( 0.82)2p( 2.87)3S( 0.01)3p( 0.03)3d( 0.01)
      O   24      [core]2S( 1.69)2p( 4.61)3p( 0.01)3d( 0.01)
      C   25      [core]2S( 1.10)2p( 3.56)3p( 0.01)
      N   26      [core]2S( 1.39)2p( 4.18)3p( 0.01)3d( 0.01)
      C   27      [core]2S( 0.74)2p( 2.45)3p( 0.02)3d( 0.01)
      N   28      [core]2S( 1.39)2p( 4.20)3p( 0.01)3d( 0.01)
      O   29      [core]2S( 1.60)2p( 4.89)3d( 0.01)
      C   30      [core]2S( 1.11)2p( 3.20)3p( 0.01)3d( 0.01)
      H   31            1S( 0.78)
      H   32            1S( 0.78)
      H   33            1S( 0.78)
      H   34            1S( 0.75)
      H   35            1S( 0.76)
      H   36            1S( 0.75)
      H   37            1S( 0.75)
      H   38            1S( 0.76)
      H   39            1S( 0.76)
      H   40            1S( 0.76)
      H   41            1S( 0.75)
      H   42            1S( 0.75)
      H   43            1S( 0.75)
      H   44            1S( 0.76)
      H   45            1S( 0.76)
      H   46            1S( 0.74)
      H   47            1S( 0.75)
      H   48            1S( 0.75)
      H   49            1S( 0.76)
      H   50            1S( 0.76)
      H   51            1S( 0.76)
      H   52            1S( 0.77)
      H   53            1S( 0.76)
      H   54            1S( 0.77)
      H   55            1S( 0.77)
      H   56            1S( 0.78)
      H   57            1S( 0.78)


 NBO analysis skipped by request.
 Leave Link  607 at Wed Sep 29 17:43:12 2021, MaxMem= 2415919104 cpu:      56.9
 (Enter /sw/target/amd/app/gaussian/Gaussian09RevA.02_gcc-4.9.2/g09/l9999.exe)
 1\1\GINC-HERMITE\SP\RTD-B3LYP-FC\6-31G(d)\C23H27N3O4\JSCHLEINITZ\29-Se
 p-2021\0\\#p TD(NStates=10, Root=1) b3lyp/6-31G* volume pop=NPA densit
 y=current Geom=AllCheck Guess=Read\\COc1nc(Oc2ccc3c(c2)CCC2C3CC[C@]3(C
 2CCC3=O)C)nc(n1)OC_conf_0\\0,1\C,0,6.6752796199,2.4931903238,-6.069989
 4901\O,0,5.6276436444,1.8618737544,-6.8211485803\C,0,4.3709260053,2.12
 38103662,-6.4614128643\N,0,4.1441659499,2.9482580156,-5.4417088995\C,0
 ,2.8404559794,3.1237184263,-5.182112264\O,0,2.6180284575,3.949594399,-
 4.1443870161\C,0,1.3181791084,4.2808746476,-3.7430207565\C,0,0.9618892
 604,3.9720101282,-2.4337283656\C,0,-0.2861763022,4.3773964585,-1.97088
 73592\C,0,-1.1821970284,5.0821179492,-2.7872519708\C,0,-0.7972167248,5
 .3953523723,-4.1029691197\C,0,0.4601628362,4.992927824,-4.5699605014\C
 ,0,-1.6975226983,6.207544578,-5.014968346\C,0,-3.1552763838,6.28829888
 3,-4.5403514832\C,0,-3.2066541369,6.6134707538,-3.0331827217\C,0,-2.55
 33797475,5.4548666135,-2.2421390018\C,0,-3.4877609507,4.2228842957,-2.
 2025216335\C,0,-4.8262734021,4.5491899959,-1.5362349842\C,0,-5.5237261
 478,5.798375798,-2.094743041\C,0,-4.5917371702,6.9971464764,-2.4286018
 12\C,0,-5.4575915519,7.8806020933,-3.3744028292\C,0,-6.3271867182,6.89
 53380975,-4.1864740695\C,0,-6.2602049585,5.5640776451,-3.4241164708\O,
 0,-6.7244550975,4.5099387754,-3.8031483592\C,0,-6.6255404252,6.2327126
 551,-1.0895098643\N,0,1.8199398722,2.5741715073,-5.8239255235\C,0,2.19
 86678727,1.7691920868,-6.829736545\N,0,3.4459647835,1.4977883342,-7.20
 45623132\O,0,1.1834229004,1.21083799,-7.4885166842\C,0,1.505311477,0.3
 339765904,-8.5781186871\H,0,7.6005757715,2.1419230493,-6.5281993214\H,
 0,6.6307920404,2.19936053,-5.0181347148\H,0,6.6010916753,3.5815968612,
 -6.1376714042\H,0,1.657492845,3.4315049091,-1.8000488675\H,0,-0.574070
 8799,4.1421346962,-0.9483980061\H,0,0.7648724947,5.2288304483,-5.58470
 76564\H,0,-1.6553395974,5.8006840668,-6.033054044\H,0,-1.2928195555,7.
 2291408732,-5.0841113975\H,0,-3.6673094221,5.3433011548,-4.7575356875\
 H,0,-3.6643569944,7.0604685346,-5.1259747846\H,0,-2.5731320119,7.50414
 05236,-2.8985494293\H,0,-2.4205567503,5.7899484903,-1.2014088131\H,0,-
 2.9955698464,3.4098421335,-1.6554804092\H,0,-3.6495886478,3.8439741027
 ,-3.2185129615\H,0,-4.6562190207,4.7024712475,-0.4609978221\H,0,-5.513
 1351749,3.6996203768,-1.6319480979\H,0,-4.3748479105,7.5449531742,-1.5
 020118502\H,0,-4.8429345571,8.5247438859,-4.0109169278\H,0,-6.09121585
 78,8.5475273504,-2.7810395634\H,0,-5.9566120293,6.7284774131,-5.203386
 7515\H,0,-7.3721868315,7.2104844293,-4.2875314958\H,0,-6.1650753041,6.
 5413861603,-0.1435329438\H,0,-7.2999843537,5.3937687751,-0.8863214192\
 H,0,-7.232656582,7.067847133,-1.4542707709\H,0,0.5415429947,0.00026829
 17,-8.9644453312\H,0,2.0963830936,-0.5172803473,-8.2306129389\H,0,2.06
 75955385,0.8643033056,-9.3510485204\\Version=AM64L-G09RevA.02\State=1-
 A\HF=-1357.885637\RMSD=7.890e-09\Dipole=0.2335603,0.7185615,0.1805624\
 Quadrupole=-4.5628462,1.2007559,3.3620904,-8.5827323,-3.7168218,1.9780
 425\PG=C01 [X(C23H27N3O4)]\\@


 THE ONLY TROUBLE WITH A SURE THING IS THE UNCERTAINTY.
     -- FROM A TEABAG (BELONGING TO W.H.?)
 Job cpu time:  0 days 18 hours 28 minutes 48.9 seconds.
 File lengths (MBytes):  RWF=    828 Int=      0 D2E=      0 Chk=    113 Scr=      1
 Normal termination of Gaussian 09 at Wed Sep 29 17:43:27 2021.
