 Entering Gaussian System, Link 0=g09
 Input=C23H30O3_9b76_conf_0.com
 Output=C23H30O3_9b76_conf_0.log
 Initial command:
 /sw/target/amd/app/gaussian/Gaussian09RevA.02_gcc-4.9.2/g09/l1.exe /home/jschleinitz/gaussian/Gau-913950.inp -scrdir=/home/jschleinitz/gaussian/
 Entering Link 1 = /sw/target/amd/app/gaussian/Gaussian09RevA.02_gcc-4.9.2/g09/l1.exe PID=    913976.
  
 Copyright (c) 1988,1990,1992,1993,1995,1998,2003,2009, Gaussian, Inc.
                  All Rights Reserved.
  
 This is part of the Gaussian(R) 09 program.  It is based on
 the Gaussian(R) 03 system (copyright 2003, Gaussian, Inc.),
 the Gaussian(R) 98 system (copyright 1998, Gaussian, Inc.),
 the Gaussian(R) 94 system (copyright 1995, Gaussian, Inc.),
 the Gaussian 92(TM) system (copyright 1992, Gaussian, Inc.),
 the Gaussian 90(TM) system (copyright 1990, Gaussian, Inc.),
 the Gaussian 88(TM) system (copyright 1988, Gaussian, Inc.),
 the Gaussian 86(TM) system (copyright 1986, Carnegie Mellon
 University), and the Gaussian 82(TM) system (copyright 1983,
 Carnegie Mellon University). Gaussian is a federally registered
 trademark of Gaussian, Inc.
  
 This software contains proprietary and confidential information,
 including trade secrets, belonging to Gaussian, Inc.
  
 This software is provided under written license and may be
 used, copied, transmitted, or stored only in accord with that
 written license.
  
 The following legend is applicable only to US Government
 contracts under FAR:
  
                    RESTRICTED RIGHTS LEGEND
  
 Use, reproduction and disclosure by the US Government is
 subject to restrictions as set forth in subparagraphs (a)
 and (c) of the Commercial Computer Software - Restricted
 Rights clause in FAR 52.227-19.
  
 Gaussian, Inc.
 340 Quinnipiac St., Bldg. 40, Wallingford CT 06492
  
  
 ---------------------------------------------------------------
 Warning -- This program may not be used in any manner that
 competes with the business of Gaussian, Inc. or will provide
 assistance to any competitor of Gaussian, Inc.  The licensee
 of this program is prohibited from giving any competitor of
 Gaussian, Inc. access to this program.  By using this program,
 the user acknowledges that Gaussian, Inc. is engaged in the
 business of creating and licensing software in the field of
 computational chemistry and represents and warrants to the
 licensee that it is not a competitor of Gaussian, Inc. and that
 it will not use this program in any manner prohibited above.
 ---------------------------------------------------------------
  

 Cite this work as:
 Gaussian 09, Revision A.02,
 M. J. Frisch, G. W. Trucks, H. B. Schlegel, G. E. Scuseria, 
 M. A. Robb, J. R. Cheeseman, G. Scalmani, V. Barone, B. Mennucci, 
 G. A. Petersson, H. Nakatsuji, M. Caricato, X. Li, H. P. Hratchian, 
 A. F. Izmaylov, J. Bloino, G. Zheng, J. L. Sonnenberg, M. Hada, 
 M. Ehara, K. Toyota, R. Fukuda, J. Hasegawa, M. Ishida, T. Nakajima, 
 Y. Honda, O. Kitao, H. Nakai, T. Vreven, J. A. Montgomery, Jr., 
 J. E. Peralta, F. Ogliaro, M. Bearpark, J. J. Heyd, E. Brothers, 
 K. N. Kudin, V. N. Staroverov, R. Kobayashi, J. Normand, 
 K. Raghavachari, A. Rendell, J. C. Burant, S. S. Iyengar, J. Tomasi, 
 M. Cossi, N. Rega, J. M. Millam, M. Klene, J. E. Knox, J. B. Cross, 
 V. Bakken, C. Adamo, J. Jaramillo, R. Gomperts, R. E. Stratmann, 
 O. Yazyev, A. J. Austin, R. Cammi, C. Pomelli, J. W. Ochterski, 
 R. L. Martin, K. Morokuma, V. G. Zakrzewski, G. A. Voth, 
 P. Salvador, J. J. Dannenberg, S. Dapprich, A. D. Daniels, 
 O. Farkas, J. B. Foresman, J. V. Ortiz, J. Cioslowski, 
 and D. J. Fox, Gaussian, Inc., Wallingford CT, 2009.
 
 ******************************************
 Gaussian 09:  AM64L-G09RevA.02 11-Jun-2009
                29-Sep-2021 
 ******************************************
 %nproc=9
 Will use up to    9 processors via shared memory.
 %mem=18gb
 %chk=C23H30O3_9b76_conf_0.chk
 -----------------------------------
 #p opt b3lyp/6-31G* scf=(xqc,tight)
 -----------------------------------
 1/14=-1,18=20,19=15,26=3,38=1/1,3;
 2/9=110,12=2,17=6,18=5,40=1/2;
 3/5=1,6=6,7=1,11=2,16=1,25=1,30=1,71=1,74=-5/1,2,3;
 4//1;
 5/5=2,8=3,13=1,32=2,38=5/2,8;
 6/7=2,8=2,9=2,10=2,28=1/1;
 7//1,2,3,16;
 1/14=-1,18=20,19=15/3(2);
 2/9=110/2;
 99//99;
 2/9=110/2;
 3/5=1,6=6,7=1,11=2,16=1,25=1,30=1,71=1,74=-5/1,2,3;
 4/5=5,16=3/1;
 5/5=2,8=3,13=1,32=2,38=5/2,8;
 7//1,2,3,16;
 1/14=-1,18=20,19=15/3(-5);
 2/9=110/2;
 6/7=2,8=2,9=2,10=2,19=2,28=1/1;
 99/9=1/99;
 Leave Link    1 at Wed Sep 29 03:36:30 2021, MaxMem= 2415919104 cpu:       0.1
 (Enter /sw/target/amd/app/gaussian/Gaussian09RevA.02_gcc-4.9.2/g09/l101.exe)
 --------------------------------------------------------
 O=C(C(C)(C)C)Oc1ccc2c(c1)CCC1C2CC[C@]2(C1CCC2=O)C_conf_0
 --------------------------------------------------------
 Symbolic Z-matrix:
 Charge =  0 Multiplicity = 1
 O                     3.55921   0.77863  -4.27893 
 C                     2.96503   0.48812  -3.24629 
 C                     1.44123   0.45038  -3.11353 
 C                     0.96889  -0.95037  -3.51105 
 C                     0.99939   0.7785   -1.67809 
 C                     0.83597   1.50061  -4.05782 
 O                     3.55486   0.0889   -2.0482 
 C                     4.93116   0.27611  -1.85466 
 C                     5.59701  -0.68842  -1.10639 
 C                     6.95097  -0.5177   -0.82687 
 C                     7.64243   0.61054  -1.3028 
 C                     6.9558    1.58587  -2.04719 
 C                     5.58971   1.42001  -2.29755 
 C                     7.65273   2.76354  -2.67819 
 C                     9.08849   2.98797  -2.20443 
 C                     9.82185   1.65112  -2.0344 
 C                     9.11416   0.76895  -0.9863 
 C                     9.30672   1.25126   0.46577 
 C                     10.43522   2.25732   0.67792 
 C                     11.66001   2.05691  -0.22275 
 C                     11.32268   1.707    -1.69484 
 C                     12.15468   2.65082  -2.5719 
 C                     12.36268   3.91863  -1.76626 
 C                     12.38099   3.39135  -0.35981 
 O                     12.86869   4.00903   0.57864 
 C                     12.61288   1.0174    0.37619 
 H                     1.39435  -1.71355  -2.84927 
 H                     1.28218  -1.19837  -4.53195 
 H                    -0.12225  -1.03031  -3.4632 
 H                     1.33124   0.01311  -0.96647 
 H                    -0.09044   0.84378  -1.60097 
 H                     1.42174   1.7353   -1.34777 
 H                     1.09781   1.30148  -5.10336 
 H                     1.20396   2.50498  -3.81653 
 H                    -0.2571    1.51575  -3.98653 
 H                     5.07005  -1.5651   -0.74174 
 H                     7.47083  -1.27302  -0.24075 
 H                     5.0551    2.1819   -2.85845 
 H                     7.07367   3.67799  -2.50014 
 H                     7.66651   2.5924   -3.76251 
 H                     9.06214   3.55718  -1.27277 
 H                     9.59078   3.62454  -2.94014 
 H                     9.74935   1.13984  -3.00746 
 H                     9.57012  -0.22963  -1.06297 
 H                     9.49051   0.37318   1.09892 
 H                     8.38489   1.7005    0.86012 
 H                     10.73184   2.24055   1.73531 
 H                     10.03248   3.26865   0.54025 
 H                     11.69132   0.69006  -1.90504 
 H                     11.70329   2.84832  -3.5491 
 H                     13.13216   2.18851  -2.76325 
 H                     11.52806   4.61615  -1.87245 
 H                     13.30447   4.41041  -2.0187 
 H                     12.13222   0.03479   0.43691 
 H                     12.9275   1.30052   1.38678 
 H                     13.52195   0.91365  -0.22696 
 
 NAtoms=     56 NQM=     56 NQMF=      0 NMic=      0 NMicF=      0 NTot=     56.
                    Isotopes and Nuclear Properties:
 (Nuclear quadrupole moments (NQMom) in fm**2, nuclear magnetic moments (NMagM)
  in nuclear magnetons)

  Atom         1           2           3           4           5           6           7           8           9          10
 IAtWgt=          16          12          12          12          12          12          16          12          12          12
 AtmWgt=  15.9949146  12.0000000  12.0000000  12.0000000  12.0000000  12.0000000  15.9949146  12.0000000  12.0000000  12.0000000
 NucSpn=           0           0           0           0           0           0           0           0           0           0
 AtZEff=   0.0000000   0.0000000   0.0000000   0.0000000   0.0000000   0.0000000   0.0000000   0.0000000   0.0000000   0.0000000
 NQMom=    0.0000000   0.0000000   0.0000000   0.0000000   0.0000000   0.0000000   0.0000000   0.0000000   0.0000000   0.0000000
 NMagM=    0.0000000   0.0000000   0.0000000   0.0000000   0.0000000   0.0000000   0.0000000   0.0000000   0.0000000   0.0000000

  Atom        11          12          13          14          15          16          17          18          19          20
 IAtWgt=          12          12          12          12          12          12          12          12          12          12
 AtmWgt=  12.0000000  12.0000000  12.0000000  12.0000000  12.0000000  12.0000000  12.0000000  12.0000000  12.0000000  12.0000000
 NucSpn=           0           0           0           0           0           0           0           0           0           0
 AtZEff=   0.0000000   0.0000000   0.0000000   0.0000000   0.0000000   0.0000000   0.0000000   0.0000000   0.0000000   0.0000000
 NQMom=    0.0000000   0.0000000   0.0000000   0.0000000   0.0000000   0.0000000   0.0000000   0.0000000   0.0000000   0.0000000
 NMagM=    0.0000000   0.0000000   0.0000000   0.0000000   0.0000000   0.0000000   0.0000000   0.0000000   0.0000000   0.0000000

  Atom        21          22          23          24          25          26          27          28          29          30
 IAtWgt=          12          12          12          12          16          12           1           1           1           1
 AtmWgt=  12.0000000  12.0000000  12.0000000  12.0000000  15.9949146  12.0000000   1.0078250   1.0078250   1.0078250   1.0078250
 NucSpn=           0           0           0           0           0           0           1           1           1           1
 AtZEff=   0.0000000   0.0000000   0.0000000   0.0000000   0.0000000   0.0000000   0.0000000   0.0000000   0.0000000   0.0000000
 NQMom=    0.0000000   0.0000000   0.0000000   0.0000000   0.0000000   0.0000000   0.0000000   0.0000000   0.0000000   0.0000000
 NMagM=    0.0000000   0.0000000   0.0000000   0.0000000   0.0000000   0.0000000   2.7928460   2.7928460   2.7928460   2.7928460

  Atom        31          32          33          34          35          36          37          38          39          40
 IAtWgt=           1           1           1           1           1           1           1           1           1           1
 AtmWgt=   1.0078250   1.0078250   1.0078250   1.0078250   1.0078250   1.0078250   1.0078250   1.0078250   1.0078250   1.0078250
 NucSpn=           1           1           1           1           1           1           1           1           1           1
 AtZEff=   0.0000000   0.0000000   0.0000000   0.0000000   0.0000000   0.0000000   0.0000000   0.0000000   0.0000000   0.0000000
 NQMom=    0.0000000   0.0000000   0.0000000   0.0000000   0.0000000   0.0000000   0.0000000   0.0000000   0.0000000   0.0000000
 NMagM=    2.7928460   2.7928460   2.7928460   2.7928460   2.7928460   2.7928460   2.7928460   2.7928460   2.7928460   2.7928460

  Atom        41          42          43          44          45          46          47          48          49          50
 IAtWgt=           1           1           1           1           1           1           1           1           1           1
 AtmWgt=   1.0078250   1.0078250   1.0078250   1.0078250   1.0078250   1.0078250   1.0078250   1.0078250   1.0078250   1.0078250
 NucSpn=           1           1           1           1           1           1           1           1           1           1
 AtZEff=   0.0000000   0.0000000   0.0000000   0.0000000   0.0000000   0.0000000   0.0000000   0.0000000   0.0000000   0.0000000
 NQMom=    0.0000000   0.0000000   0.0000000   0.0000000   0.0000000   0.0000000   0.0000000   0.0000000   0.0000000   0.0000000
 NMagM=    2.7928460   2.7928460   2.7928460   2.7928460   2.7928460   2.7928460   2.7928460   2.7928460   2.7928460   2.7928460

  Atom        51          52          53          54          55          56
 IAtWgt=           1           1           1           1           1           1
 AtmWgt=   1.0078250   1.0078250   1.0078250   1.0078250   1.0078250   1.0078250
 NucSpn=           1           1           1           1           1           1
 AtZEff=   0.0000000   0.0000000   0.0000000   0.0000000   0.0000000   0.0000000
 NQMom=    0.0000000   0.0000000   0.0000000   0.0000000   0.0000000   0.0000000
 NMagM=    2.7928460   2.7928460   2.7928460   2.7928460   2.7928460   2.7928460
 Leave Link  101 at Wed Sep 29 03:36:30 2021, MaxMem= 2415919104 cpu:       0.2
 (Enter /sw/target/amd/app/gaussian/Gaussian09RevA.02_gcc-4.9.2/g09/l103.exe)

 GradGradGradGradGradGradGradGradGradGradGradGradGradGradGradGradGradGrad
 Berny optimization.
 Initialization pass.
                           ----------------------------
                           !    Initial Parameters    !
                           ! (Angstroms and Degrees)  !
 --------------------------                            --------------------------
 ! Name  Definition              Value          Derivative Info.                !
 --------------------------------------------------------------------------------
 ! R1    R(1,2)                  1.2263         estimate D2E/DX2                !
 ! R2    R(2,3)                  1.53           estimate D2E/DX2                !
 ! R3    R(2,7)                  1.3938         estimate D2E/DX2                !
 ! R4    R(3,4)                  1.5308         estimate D2E/DX2                !
 ! R5    R(3,5)                  1.5373         estimate D2E/DX2                !
 ! R6    R(3,6)                  1.5366         estimate D2E/DX2                !
 ! R7    R(4,27)                 1.0961         estimate D2E/DX2                !
 ! R8    R(4,28)                 1.0963         estimate D2E/DX2                !
 ! R9    R(4,29)                 1.0951         estimate D2E/DX2                !
 ! R10   R(5,30)                 1.0965         estimate D2E/DX2                !
 ! R11   R(5,31)                 1.0945         estimate D2E/DX2                !
 ! R12   R(5,32)                 1.0968         estimate D2E/DX2                !
 ! R13   R(6,33)                 1.0961         estimate D2E/DX2                !
 ! R14   R(6,34)                 1.0965         estimate D2E/DX2                !
 ! R15   R(6,35)                 1.0955         estimate D2E/DX2                !
 ! R16   R(7,8)                  1.4024         estimate D2E/DX2                !
 ! R17   R(8,9)                  1.3905         estimate D2E/DX2                !
 ! R18   R(8,13)                 1.3922         estimate D2E/DX2                !
 ! R19   R(9,10)                 1.393          estimate D2E/DX2                !
 ! R20   R(9,36)                 1.0859         estimate D2E/DX2                !
 ! R21   R(10,11)                1.4063         estimate D2E/DX2                !
 ! R22   R(10,37)                1.0883         estimate D2E/DX2                !
 ! R23   R(11,12)                1.406          estimate D2E/DX2                !
 ! R24   R(11,17)                1.5137         estimate D2E/DX2                !
 ! R25   R(12,13)                1.3987         estimate D2E/DX2                !
 ! R26   R(12,14)                1.5069         estimate D2E/DX2                !
 ! R27   R(13,38)                1.0867         estimate D2E/DX2                !
 ! R28   R(14,15)                1.5285         estimate D2E/DX2                !
 ! R29   R(14,39)                1.0969         estimate D2E/DX2                !
 ! R30   R(14,40)                1.0978         estimate D2E/DX2                !
 ! R31   R(15,16)                1.5342         estimate D2E/DX2                !
 ! R32   R(15,41)                1.0921         estimate D2E/DX2                !
 ! R33   R(15,42)                1.0949         estimate D2E/DX2                !
 ! R34   R(16,17)                1.5419         estimate D2E/DX2                !
 ! R35   R(16,21)                1.5398         estimate D2E/DX2                !
 ! R36   R(16,43)                1.1016         estimate D2E/DX2                !
 ! R37   R(17,18)                1.5421         estimate D2E/DX2                !
 ! R38   R(17,44)                1.1004         estimate D2E/DX2                !
 ! R39   R(18,19)                1.5267         estimate D2E/DX2                !
 ! R40   R(18,45)                1.098          estimate D2E/DX2                !
 ! R41   R(18,46)                1.0987         estimate D2E/DX2                !
 ! R42   R(19,20)                1.5334         estimate D2E/DX2                !
 ! R43   R(19,47)                1.0983         estimate D2E/DX2                !
 ! R44   R(19,48)                1.0972         estimate D2E/DX2                !
 ! R45   R(20,21)                1.5503         estimate D2E/DX2                !
 ! R46   R(20,24)                1.5229         estimate D2E/DX2                !
 ! R47   R(20,26)                1.5321         estimate D2E/DX2                !
 ! R48   R(21,22)                1.5337         estimate D2E/DX2                !
 ! R49   R(21,49)                1.1019         estimate D2E/DX2                !
 ! R50   R(22,23)                1.5165         estimate D2E/DX2                !
 ! R51   R(22,50)                1.0944         estimate D2E/DX2                !
 ! R52   R(22,51)                1.0981         estimate D2E/DX2                !
 ! R53   R(23,24)                1.5021         estimate D2E/DX2                !
 ! R54   R(23,52)                1.0929         estimate D2E/DX2                !
 ! R55   R(23,53)                1.092          estimate D2E/DX2                !
 ! R56   R(24,25)                1.2248         estimate D2E/DX2                !
 ! R57   R(26,54)                1.0956         estimate D2E/DX2                !
 ! R58   R(26,55)                1.0956         estimate D2E/DX2                !
 ! R59   R(26,56)                1.0959         estimate D2E/DX2                !
 ! A1    A(1,2,3)              124.1577         estimate D2E/DX2                !
 ! A2    A(1,2,7)              125.9191         estimate D2E/DX2                !
 ! A3    A(3,2,7)              109.8651         estimate D2E/DX2                !
 ! A4    A(2,3,4)              107.8989         estimate D2E/DX2                !
 ! A5    A(2,3,5)              111.2225         estimate D2E/DX2                !
 ! A6    A(2,3,6)              108.791          estimate D2E/DX2                !
 ! A7    A(4,3,5)              110.4326         estimate D2E/DX2                !
 ! A8    A(4,3,6)              110.1395         estimate D2E/DX2                !
 ! A9    A(5,3,6)              108.3446         estimate D2E/DX2                !
 ! A10   A(3,4,27)             111.1352         estimate D2E/DX2                !
 ! A11   A(3,4,28)             111.1401         estimate D2E/DX2                !
 ! A12   A(3,4,29)             111.2777         estimate D2E/DX2                !
 ! A13   A(27,4,28)            107.0862         estimate D2E/DX2                !
 ! A14   A(27,4,29)            108.0321         estimate D2E/DX2                !
 ! A15   A(28,4,29)            107.9938         estimate D2E/DX2                !
 ! A16   A(3,5,30)             111.716          estimate D2E/DX2                !
 ! A17   A(3,5,31)             111.3893         estimate D2E/DX2                !
 ! A18   A(3,5,32)             110.8996         estimate D2E/DX2                !
 ! A19   A(30,5,31)            107.2925         estimate D2E/DX2                !
 ! A20   A(30,5,32)            107.2732         estimate D2E/DX2                !
 ! A21   A(31,5,32)            108.0702         estimate D2E/DX2                !
 ! A22   A(3,6,33)             111.5889         estimate D2E/DX2                !
 ! A23   A(3,6,34)             111.0157         estimate D2E/DX2                !
 ! A24   A(3,6,35)             111.2528         estimate D2E/DX2                !
 ! A25   A(33,6,34)            107.2262         estimate D2E/DX2                !
 ! A26   A(33,6,35)            107.6347         estimate D2E/DX2                !
 ! A27   A(34,6,35)            107.9308         estimate D2E/DX2                !
 ! A28   A(2,7,8)              119.7158         estimate D2E/DX2                !
 ! A29   A(7,8,9)              116.8462         estimate D2E/DX2                !
 ! A30   A(7,8,13)             122.0052         estimate D2E/DX2                !
 ! A31   A(9,8,13)             120.9702         estimate D2E/DX2                !
 ! A32   A(8,9,10)             119.2348         estimate D2E/DX2                !
 ! A33   A(8,9,36)             120.5521         estimate D2E/DX2                !
 ! A34   A(10,9,36)            120.2131         estimate D2E/DX2                !
 ! A35   A(9,10,11)            120.5527         estimate D2E/DX2                !
 ! A36   A(9,10,37)            119.1645         estimate D2E/DX2                !
 ! A37   A(11,10,37)           120.2812         estimate D2E/DX2                !
 ! A38   A(10,11,12)           119.7095         estimate D2E/DX2                !
 ! A39   A(10,11,17)           119.4242         estimate D2E/DX2                !
 ! A40   A(12,11,17)           120.8588         estimate D2E/DX2                !
 ! A41   A(11,12,13)           119.3062         estimate D2E/DX2                !
 ! A42   A(11,12,14)           122.5447         estimate D2E/DX2                !
 ! A43   A(13,12,14)           117.9972         estimate D2E/DX2                !
 ! A44   A(8,13,12)            120.1636         estimate D2E/DX2                !
 ! A45   A(8,13,38)            120.5            estimate D2E/DX2                !
 ! A46   A(12,13,38)           119.3233         estimate D2E/DX2                !
 ! A47   A(12,14,15)           114.7971         estimate D2E/DX2                !
 ! A48   A(12,14,39)           109.8401         estimate D2E/DX2                !
 ! A49   A(12,14,40)           107.3109         estimate D2E/DX2                !
 ! A50   A(15,14,39)           108.8539         estimate D2E/DX2                !
 ! A51   A(15,14,40)           108.4961         estimate D2E/DX2                !
 ! A52   A(39,14,40)           107.2716         estimate D2E/DX2                !
 ! A53   A(14,15,16)           110.8186         estimate D2E/DX2                !
 ! A54   A(14,15,41)           108.5589         estimate D2E/DX2                !
 ! A55   A(14,15,42)           107.9407         estimate D2E/DX2                !
 ! A56   A(16,15,41)           111.7858         estimate D2E/DX2                !
 ! A57   A(16,15,42)           111.2097         estimate D2E/DX2                !
 ! A58   A(41,15,42)           106.3363         estimate D2E/DX2                !
 ! A59   A(15,16,17)           110.7604         estimate D2E/DX2                !
 ! A60   A(15,16,21)           117.305          estimate D2E/DX2                !
 ! A61   A(15,16,43)           105.9655         estimate D2E/DX2                !
 ! A62   A(17,16,21)           108.5551         estimate D2E/DX2                !
 ! A63   A(17,16,43)           107.7387         estimate D2E/DX2                !
 ! A64   A(21,16,43)           106.0089         estimate D2E/DX2                !
 ! A65   A(11,17,16)           111.3453         estimate D2E/DX2                !
 ! A66   A(11,17,18)           110.5491         estimate D2E/DX2                !
 ! A67   A(11,17,44)           107.0568         estimate D2E/DX2                !
 ! A68   A(16,17,18)           113.8154         estimate D2E/DX2                !
 ! A69   A(16,17,44)           106.3582         estimate D2E/DX2                !
 ! A70   A(18,17,44)           107.3181         estimate D2E/DX2                !
 ! A71   A(17,18,19)           115.4196         estimate D2E/DX2                !
 ! A72   A(17,18,45)           108.2849         estimate D2E/DX2                !
 ! A73   A(17,18,46)           111.1669         estimate D2E/DX2                !
 ! A74   A(19,18,45)           108.8521         estimate D2E/DX2                !
 ! A75   A(19,18,46)           107.5108         estimate D2E/DX2                !
 ! A76   A(45,18,46)           105.0966         estimate D2E/DX2                !
 ! A77   A(18,19,20)           115.003          estimate D2E/DX2                !
 ! A78   A(18,19,47)           108.8656         estimate D2E/DX2                !
 ! A79   A(18,19,48)           108.5808         estimate D2E/DX2                !
 ! A80   A(20,19,47)           110.3499         estimate D2E/DX2                !
 ! A81   A(20,19,48)           109.873          estimate D2E/DX2                !
 ! A82   A(47,19,48)           103.5316         estimate D2E/DX2                !
 ! A83   A(19,20,21)           114.4209         estimate D2E/DX2                !
 ! A84   A(19,20,24)           108.4495         estimate D2E/DX2                !
 ! A85   A(19,20,26)           110.8439         estimate D2E/DX2                !
 ! A86   A(21,20,24)           102.4345         estimate D2E/DX2                !
 ! A87   A(21,20,26)           110.6961         estimate D2E/DX2                !
 ! A88   A(24,20,26)           109.5881         estimate D2E/DX2                !
 ! A89   A(16,21,20)           115.4477         estimate D2E/DX2                !
 ! A90   A(16,21,22)           115.1492         estimate D2E/DX2                !
 ! A91   A(16,21,49)           104.5085         estimate D2E/DX2                !
 ! A92   A(20,21,22)           106.6236         estimate D2E/DX2                !
 ! A93   A(20,21,49)           108.4604         estimate D2E/DX2                !
 ! A94   A(22,21,49)           106.1027         estimate D2E/DX2                !
 ! A95   A(21,22,23)           106.5642         estimate D2E/DX2                !
 ! A96   A(21,22,50)           113.4489         estimate D2E/DX2                !
 ! A97   A(21,22,51)           108.8722         estimate D2E/DX2                !
 ! A98   A(23,22,50)           112.3382         estimate D2E/DX2                !
 ! A99   A(23,22,51)           108.8115         estimate D2E/DX2                !
 ! A100  A(50,22,51)           106.7099         estimate D2E/DX2                !
 ! A101  A(22,23,24)           101.8658         estimate D2E/DX2                !
 ! A102  A(22,23,52)           112.1606         estimate D2E/DX2                !
 ! A103  A(22,23,53)           111.8374         estimate D2E/DX2                !
 ! A104  A(24,23,52)           108.9245         estimate D2E/DX2                !
 ! A105  A(24,23,53)           111.3465         estimate D2E/DX2                !
 ! A106  A(52,23,53)           110.4101         estimate D2E/DX2                !
 ! A107  A(20,24,23)           112.7102         estimate D2E/DX2                !
 ! A108  A(20,24,25)           124.1559         estimate D2E/DX2                !
 ! A109  A(23,24,25)           123.041          estimate D2E/DX2                !
 ! A110  A(20,26,54)           110.9364         estimate D2E/DX2                !
 ! A111  A(20,26,55)           111.3371         estimate D2E/DX2                !
 ! A112  A(20,26,56)           111.4074         estimate D2E/DX2                !
 ! A113  A(54,26,55)           107.8567         estimate D2E/DX2                !
 ! A114  A(54,26,56)           108.0313         estimate D2E/DX2                !
 ! A115  A(55,26,56)           107.0926         estimate D2E/DX2                !
 ! D1    D(1,2,3,4)             88.184          estimate D2E/DX2                !
 ! D2    D(1,2,3,5)           -150.5529         estimate D2E/DX2                !
 ! D3    D(1,2,3,6)            -31.2934         estimate D2E/DX2                !
 ! D4    D(7,2,3,4)            -89.1849         estimate D2E/DX2                !
 ! D5    D(7,2,3,5)             32.0782         estimate D2E/DX2                !
 ! D6    D(7,2,3,6)            151.3376         estimate D2E/DX2                !
 ! D7    D(1,2,7,8)             14.2409         estimate D2E/DX2                !
 ! D8    D(3,2,7,8)           -168.4476         estimate D2E/DX2                !
 ! D9    D(2,3,4,27)            61.1825         estimate D2E/DX2                !
 ! D10   D(2,3,4,28)           -57.9745         estimate D2E/DX2                !
 ! D11   D(2,3,4,29)          -178.3734         estimate D2E/DX2                !
 ! D12   D(5,3,4,27)           -60.5708         estimate D2E/DX2                !
 ! D13   D(5,3,4,28)          -179.7279         estimate D2E/DX2                !
 ! D14   D(5,3,4,29)            59.8733         estimate D2E/DX2                !
 ! D15   D(6,3,4,27)           179.8018         estimate D2E/DX2                !
 ! D16   D(6,3,4,28)            60.6447         estimate D2E/DX2                !
 ! D17   D(6,3,4,29)           -59.7541         estimate D2E/DX2                !
 ! D18   D(2,3,5,30)           -65.3045         estimate D2E/DX2                !
 ! D19   D(2,3,5,31)           174.7205         estimate D2E/DX2                !
 ! D20   D(2,3,5,32)            54.3127         estimate D2E/DX2                !
 ! D21   D(4,3,5,30)            54.4644         estimate D2E/DX2                !
 ! D22   D(4,3,5,31)           -65.5106         estimate D2E/DX2                !
 ! D23   D(4,3,5,32)           174.0816         estimate D2E/DX2                !
 ! D24   D(6,3,5,30)           175.1698         estimate D2E/DX2                !
 ! D25   D(6,3,5,31)            55.1948         estimate D2E/DX2                !
 ! D26   D(6,3,5,32)           -65.213          estimate D2E/DX2                !
 ! D27   D(2,3,6,33)            60.4062         estimate D2E/DX2                !
 ! D28   D(2,3,6,34)           -59.1451         estimate D2E/DX2                !
 ! D29   D(2,3,6,35)          -179.3633         estimate D2E/DX2                !
 ! D30   D(4,3,6,33)           -57.6648         estimate D2E/DX2                !
 ! D31   D(4,3,6,34)          -177.2161         estimate D2E/DX2                !
 ! D32   D(4,3,6,35)            62.5658         estimate D2E/DX2                !
 ! D33   D(5,3,6,33)          -178.5519         estimate D2E/DX2                !
 ! D34   D(5,3,6,34)            61.8968         estimate D2E/DX2                !
 ! D35   D(5,3,6,35)           -58.3214         estimate D2E/DX2                !
 ! D36   D(2,7,8,9)           -145.684          estimate D2E/DX2                !
 ! D37   D(2,7,8,13)            39.1279         estimate D2E/DX2                !
 ! D38   D(7,8,9,10)          -176.8204         estimate D2E/DX2                !
 ! D39   D(7,8,9,36)             3.1053         estimate D2E/DX2                !
 ! D40   D(13,8,9,10)           -1.5792         estimate D2E/DX2                !
 ! D41   D(13,8,9,36)          178.3465         estimate D2E/DX2                !
 ! D42   D(7,8,13,12)          178.0019         estimate D2E/DX2                !
 ! D43   D(7,8,13,38)           -3.3177         estimate D2E/DX2                !
 ! D44   D(9,8,13,12)            3.0095         estimate D2E/DX2                !
 ! D45   D(9,8,13,38)         -178.31           estimate D2E/DX2                !
 ! D46   D(8,9,10,11)           -0.4856         estimate D2E/DX2                !
 ! D47   D(8,9,10,37)          179.9703         estimate D2E/DX2                !
 ! D48   D(36,9,10,11)         179.5884         estimate D2E/DX2                !
 ! D49   D(36,9,10,37)           0.0443         estimate D2E/DX2                !
 ! D50   D(9,10,11,12)           1.1156         estimate D2E/DX2                !
 ! D51   D(9,10,11,17)        -179.8737         estimate D2E/DX2                !
 ! D52   D(37,10,11,12)       -179.3454         estimate D2E/DX2                !
 ! D53   D(37,10,11,17)         -0.3346         estimate D2E/DX2                !
 ! D54   D(10,11,12,13)          0.2959         estimate D2E/DX2                !
 ! D55   D(10,11,12,14)       -175.1312         estimate D2E/DX2                !
 ! D56   D(17,11,12,13)       -178.7003         estimate D2E/DX2                !
 ! D57   D(17,11,12,14)          5.8725         estimate D2E/DX2                !
 ! D58   D(10,11,17,16)        155.1117         estimate D2E/DX2                !
 ! D59   D(10,11,17,18)        -77.3361         estimate D2E/DX2                !
 ! D60   D(10,11,17,44)         39.2501         estimate D2E/DX2                !
 ! D61   D(12,11,17,16)        -25.8892         estimate D2E/DX2                !
 ! D62   D(12,11,17,18)        101.663          estimate D2E/DX2                !
 ! D63   D(12,11,17,44)       -141.7508         estimate D2E/DX2                !
 ! D64   D(11,12,13,8)          -2.331          estimate D2E/DX2                !
 ! D65   D(11,12,13,38)        178.973          estimate D2E/DX2                !
 ! D66   D(14,12,13,8)         173.3037         estimate D2E/DX2                !
 ! D67   D(14,12,13,38)         -5.3923         estimate D2E/DX2                !
 ! D68   D(11,12,14,15)        -12.6746         estimate D2E/DX2                !
 ! D69   D(11,12,14,39)       -135.7085         estimate D2E/DX2                !
 ! D70   D(11,12,14,40)        107.9916         estimate D2E/DX2                !
 ! D71   D(13,12,14,15)        171.8414         estimate D2E/DX2                !
 ! D72   D(13,12,14,39)         48.8075         estimate D2E/DX2                !
 ! D73   D(13,12,14,40)        -67.4924         estimate D2E/DX2                !
 ! D74   D(12,14,15,16)         39.4344         estimate D2E/DX2                !
 ! D75   D(12,14,15,41)        -83.693          estimate D2E/DX2                !
 ! D76   D(12,14,15,42)        161.4362         estimate D2E/DX2                !
 ! D77   D(39,14,15,16)        162.9956         estimate D2E/DX2                !
 ! D78   D(39,14,15,41)         39.8682         estimate D2E/DX2                !
 ! D79   D(39,14,15,42)        -75.0027         estimate D2E/DX2                !
 ! D80   D(40,14,15,16)        -80.5776         estimate D2E/DX2                !
 ! D81   D(40,14,15,41)        156.295          estimate D2E/DX2                !
 ! D82   D(40,14,15,42)         41.4242         estimate D2E/DX2                !
 ! D83   D(14,15,16,17)        -60.4971         estimate D2E/DX2                !
 ! D84   D(14,15,16,21)        174.1449         estimate D2E/DX2                !
 ! D85   D(14,15,16,43)         56.077          estimate D2E/DX2                !
 ! D86   D(41,15,16,17)         60.7463         estimate D2E/DX2                !
 ! D87   D(41,15,16,21)        -64.6116         estimate D2E/DX2                !
 ! D88   D(41,15,16,43)        177.3205         estimate D2E/DX2                !
 ! D89   D(42,15,16,17)        179.4333         estimate D2E/DX2                !
 ! D90   D(42,15,16,21)         54.0753         estimate D2E/DX2                !
 ! D91   D(42,15,16,43)        -63.9926         estimate D2E/DX2                !
 ! D92   D(15,16,17,11)         52.8672         estimate D2E/DX2                !
 ! D93   D(15,16,17,18)        -72.8951         estimate D2E/DX2                !
 ! D94   D(15,16,17,44)        169.1573         estimate D2E/DX2                !
 ! D95   D(21,16,17,11)       -176.9879         estimate D2E/DX2                !
 ! D96   D(21,16,17,18)         57.2497         estimate D2E/DX2                !
 ! D97   D(21,16,17,44)        -60.6978         estimate D2E/DX2                !
 ! D98   D(43,16,17,11)        -62.6068         estimate D2E/DX2                !
 ! D99   D(43,16,17,18)        171.6309         estimate D2E/DX2                !
 ! D100  D(43,16,17,44)         53.6833         estimate D2E/DX2                !
 ! D101  D(15,16,21,20)         76.7037         estimate D2E/DX2                !
 ! D102  D(15,16,21,22)        -48.2843         estimate D2E/DX2                !
 ! D103  D(15,16,21,49)       -164.2601         estimate D2E/DX2                !
 ! D104  D(17,16,21,20)        -49.7425         estimate D2E/DX2                !
 ! D105  D(17,16,21,22)       -174.7306         estimate D2E/DX2                !
 ! D106  D(17,16,21,49)         69.2937         estimate D2E/DX2                !
 ! D107  D(43,16,21,20)       -165.2518         estimate D2E/DX2                !
 ! D108  D(43,16,21,22)         69.7602         estimate D2E/DX2                !
 ! D109  D(43,16,21,49)        -46.2155         estimate D2E/DX2                !
 ! D110  D(11,17,18,19)       -141.959          estimate D2E/DX2                !
 ! D111  D(11,17,18,45)         95.7769         estimate D2E/DX2                !
 ! D112  D(11,17,18,46)        -19.1895         estimate D2E/DX2                !
 ! D113  D(16,17,18,19)        -15.7767         estimate D2E/DX2                !
 ! D114  D(16,17,18,45)       -138.0408         estimate D2E/DX2                !
 ! D115  D(16,17,18,46)        106.9928         estimate D2E/DX2                !
 ! D116  D(44,17,18,19)        101.6168         estimate D2E/DX2                !
 ! D117  D(44,17,18,45)        -20.6473         estimate D2E/DX2                !
 ! D118  D(44,17,18,46)       -135.6137         estimate D2E/DX2                !
 ! D119  D(17,18,19,20)        -34.3728         estimate D2E/DX2                !
 ! D120  D(17,18,19,47)       -158.7652         estimate D2E/DX2                !
 ! D121  D(17,18,19,48)         89.1653         estimate D2E/DX2                !
 ! D122  D(45,18,19,20)         87.5877         estimate D2E/DX2                !
 ! D123  D(45,18,19,47)        -36.8047         estimate D2E/DX2                !
 ! D124  D(45,18,19,48)       -148.8742         estimate D2E/DX2                !
 ! D125  D(46,18,19,20)       -159.0646         estimate D2E/DX2                !
 ! D126  D(46,18,19,47)         76.5431         estimate D2E/DX2                !
 ! D127  D(46,18,19,48)        -35.5265         estimate D2E/DX2                !
 ! D128  D(18,19,20,21)         41.6832         estimate D2E/DX2                !
 ! D129  D(18,19,20,24)        155.3099         estimate D2E/DX2                !
 ! D130  D(18,19,20,26)        -84.346          estimate D2E/DX2                !
 ! D131  D(47,19,20,21)        165.2916         estimate D2E/DX2                !
 ! D132  D(47,19,20,24)        -81.0817         estimate D2E/DX2                !
 ! D133  D(47,19,20,26)         39.2625         estimate D2E/DX2                !
 ! D134  D(48,19,20,21)        -81.166          estimate D2E/DX2                !
 ! D135  D(48,19,20,24)         32.4607         estimate D2E/DX2                !
 ! D136  D(48,19,20,26)        152.8048         estimate D2E/DX2                !
 ! D137  D(19,20,21,16)          1.5417         estimate D2E/DX2                !
 ! D138  D(19,20,21,22)        130.8312         estimate D2E/DX2                !
 ! D139  D(19,20,21,49)       -115.2884         estimate D2E/DX2                !
 ! D140  D(24,20,21,16)       -115.5897         estimate D2E/DX2                !
 ! D141  D(24,20,21,22)         13.6999         estimate D2E/DX2                !
 ! D142  D(24,20,21,49)        127.5802         estimate D2E/DX2                !
 ! D143  D(26,20,21,16)        127.6478         estimate D2E/DX2                !
 ! D144  D(26,20,21,22)       -103.0626         estimate D2E/DX2                !
 ! D145  D(26,20,21,49)         10.8177         estimate D2E/DX2                !
 ! D146  D(19,20,24,23)       -115.1676         estimate D2E/DX2                !
 ! D147  D(19,20,24,25)         61.4143         estimate D2E/DX2                !
 ! D148  D(21,20,24,23)          6.1557         estimate D2E/DX2                !
 ! D149  D(21,20,24,25)       -177.2623         estimate D2E/DX2                !
 ! D150  D(26,20,24,23)        123.7104         estimate D2E/DX2                !
 ! D151  D(26,20,24,25)        -59.7076         estimate D2E/DX2                !
 ! D152  D(19,20,26,54)         63.2474         estimate D2E/DX2                !
 ! D153  D(19,20,26,55)        -56.8799         estimate D2E/DX2                !
 ! D154  D(19,20,26,56)       -176.3568         estimate D2E/DX2                !
 ! D155  D(21,20,26,54)        -64.8316         estimate D2E/DX2                !
 ! D156  D(21,20,26,55)        175.0411         estimate D2E/DX2                !
 ! D157  D(21,20,26,56)         55.5642         estimate D2E/DX2                !
 ! D158  D(24,20,26,54)       -177.0881         estimate D2E/DX2                !
 ! D159  D(24,20,26,55)         62.7846         estimate D2E/DX2                !
 ! D160  D(24,20,26,56)        -56.6924         estimate D2E/DX2                !
 ! D161  D(16,21,22,23)        100.6288         estimate D2E/DX2                !
 ! D162  D(16,21,22,50)        -23.5125         estimate D2E/DX2                !
 ! D163  D(16,21,22,51)       -142.1644         estimate D2E/DX2                !
 ! D164  D(20,21,22,23)        -28.8326         estimate D2E/DX2                !
 ! D165  D(20,21,22,50)       -152.974          estimate D2E/DX2                !
 ! D166  D(20,21,22,51)         88.3741         estimate D2E/DX2                !
 ! D167  D(49,21,22,23)       -144.3094         estimate D2E/DX2                !
 ! D168  D(49,21,22,50)         91.5492         estimate D2E/DX2                !
 ! D169  D(49,21,22,51)        -27.1027         estimate D2E/DX2                !
 ! D170  D(21,22,23,24)         31.0707         estimate D2E/DX2                !
 ! D171  D(21,22,23,52)        -85.2511         estimate D2E/DX2                !
 ! D172  D(21,22,23,53)        150.077          estimate D2E/DX2                !
 ! D173  D(50,22,23,24)        155.8949         estimate D2E/DX2                !
 ! D174  D(50,22,23,52)         39.5731         estimate D2E/DX2                !
 ! D175  D(50,22,23,53)        -85.0988         estimate D2E/DX2                !
 ! D176  D(51,22,23,24)        -86.1763         estimate D2E/DX2                !
 ! D177  D(51,22,23,52)        157.5018         estimate D2E/DX2                !
 ! D178  D(51,22,23,53)         32.83           estimate D2E/DX2                !
 ! D179  D(22,23,24,20)        -23.3118         estimate D2E/DX2                !
 ! D180  D(22,23,24,25)        160.0623         estimate D2E/DX2                !
 ! D181  D(52,23,24,20)         95.3411         estimate D2E/DX2                !
 ! D182  D(52,23,24,25)        -81.2848         estimate D2E/DX2                !
 ! D183  D(53,23,24,20)       -142.666          estimate D2E/DX2                !
 ! D184  D(53,23,24,25)         40.7081         estimate D2E/DX2                !
 --------------------------------------------------------------------------------
 Trust Radius=3.00D-01 FncErr=1.00D-07 GrdErr=1.00D-06
 Number of steps in this run= 336 maximum allowed number of steps= 336.
 GradGradGradGradGradGradGradGradGradGradGradGradGradGradGradGradGradGrad

 Leave Link  103 at Wed Sep 29 03:36:31 2021, MaxMem= 2415919104 cpu:       0.0
 (Enter /sw/target/amd/app/gaussian/Gaussian09RevA.02_gcc-4.9.2/g09/l202.exe)
 Stoichiometry    C23H30O3
 Framework group  C1[X(C23H30O3)]
 Deg. of freedom   162
 Full point group                 C1      NOp   1
 Largest Abelian subgroup         C1      NOp   1
 Largest concise Abelian subgroup C1      NOp   1
                         Standard orientation:                         
 ---------------------------------------------------------------------
 Center     Atomic      Atomic             Coordinates (Angstroms)
 Number     Number       Type             X           Y           Z
 ---------------------------------------------------------------------
      1          8           0        4.333665   -1.357392   -0.919650
      2          6           0        4.722181   -0.395644   -0.265511
      3          6           0        6.146802   -0.240369    0.270549
      4          6           0        6.984551    0.445382   -0.811657
      5          6           0        6.166490    0.584557    1.567649
      6          6           0        6.715581   -1.634801    0.575580
      7          8           0        3.971292    0.735256    0.050621
      8          6           0        2.579924    0.716988   -0.123919
      9          6           0        1.980475    1.908966   -0.515619
     10          6           0        0.594046    1.964902   -0.638827
     11          6           0       -0.192965    0.828394   -0.380917
     12          6           0        0.423037   -0.367749    0.027287
     13          6           0        1.813237   -0.405609    0.176589
     14          6           0       -0.344014   -1.650854    0.217173
     15          6           0       -1.864219   -1.492778    0.231700
     16          6           0       -2.315643   -0.465471   -0.814605
     17          6           0       -1.697130    0.917063   -0.525467
     18          6           0       -2.316513    1.634212    0.691194
     19          6           0       -3.650885    1.071376    1.174259
     20          6           0       -4.564285    0.529486    0.068136
     21          6           0       -3.830945   -0.290154   -1.024430
     22          6           0       -4.619958   -1.593741   -1.198645
     23          6           0       -5.272293   -1.886284    0.138726
     24          6           0       -5.501112   -0.503765    0.679768
     25          8           0       -6.311423   -0.258681    1.564869
     26          6           0       -5.386039    1.658522   -0.562155
     27          1           0        6.590485    1.441297   -1.044671
     28          1           0        6.974560   -0.131225   -1.744027
     29          1           0        8.026776    0.558734   -0.495152
     30          1           0        5.850334    1.620163    1.394684
     31          1           0        7.169875    0.619193    2.003486
     32          1           0        5.486038    0.156629    2.313851
     33          1           0        6.749733   -2.261790   -0.322805
     34          1           0        6.097127   -2.158856    1.314000
     35          1           0        7.734047   -1.569825    0.973858
     36          1           0        2.583390    2.788105   -0.722600
     37          1           0        0.126072    2.898477   -0.944980
     38          1           0        2.288026   -1.325100    0.508268
     39          1           0       -0.029411   -2.138391    1.148069
     40          1           0       -0.071307   -2.319859   -0.609449
     41          1           0       -2.174476   -1.208133    1.239376
     42          1           0       -2.307320   -2.475288    0.039040
     43          1           0       -1.914292   -0.817860   -1.778064
     44          1           0       -1.900256    1.538684   -1.410485
     45          1           0       -2.450056    2.693655    0.435393
     46          1           0       -1.627255    1.631097    1.546768
     47          1           0       -4.172236    1.843418    1.756053
     48          1           0       -3.451707    0.284367    1.912430
     49          1           0       -3.916533    0.249141   -1.981545
     50          1           0       -4.008485   -2.428627   -1.554661
     51          1           0       -5.405986   -1.435603   -1.948966
     52          1           0       -4.603490   -2.425177    0.814519
     53          1           0       -6.213162   -2.428177    0.021865
     54          1           0       -4.734660    2.389096   -1.054317
     55          1           0       -5.977464    2.189879    0.191713
     56          1           0       -6.088584    1.272743   -1.309532
 ---------------------------------------------------------------------
 Rotational constants (GHZ):      0.6699972      0.0754774      0.0723422
 Leave Link  202 at Wed Sep 29 03:36:31 2021, MaxMem= 2415919104 cpu:       0.1
 (Enter /sw/target/amd/app/gaussian/Gaussian09RevA.02_gcc-4.9.2/g09/l301.exe)
 Standard basis: 6-31G(d) (6D, 7F)
 Ernie: Thresh=  0.10000D-02 Tol=  0.10000D-05 Strict=F.
 There are   450 symmetry adapted basis functions of A   symmetry.
 Integral buffers will be    131072 words long.
 Raffenetti 2 integral format.
 Two-electron integral symmetry is turned on.
   450 basis functions,   848 primitive gaussians,   450 cartesian basis functions
    96 alpha electrons       96 beta electrons
       nuclear repulsion energy      2355.9839074079 Hartrees.
 IExCor=  402 DFT=T Ex+Corr=B3LYP ExCW=0 ScaHFX=  0.200000
 ScaDFX=  0.800000  0.720000  1.000000  0.810000 ScalE2=  1.000000  1.000000
 IRadAn=      0 IRanWt=     -1 IRanGd=            0 ICorTp=0
 NAtoms=   56 NActive=   56 NUniq=   56 SFac= 7.50D-01 NAtFMM=   80 NAOKFM=F Big=F
 Leave Link  301 at Wed Sep 29 03:36:31 2021, MaxMem= 2415919104 cpu:       0.1
 (Enter /sw/target/amd/app/gaussian/Gaussian09RevA.02_gcc-4.9.2/g09/l302.exe)
 NPDir=0 NMtPBC=     1 NCelOv=     1 NCel=       1 NClECP=     1 NCelD=      1
         NCelK=      1 NCelE2=     1 NClLst=     1 CellRange=     0.0.
 One-electron integrals computed using PRISM.
 NBasis=   450 RedAO= T  NBF=   450
 NBsUse=   450 1.00D-06 NBFU=   450
 Precomputing XC quadrature grid using
 IXCGrd= 2 IRadAn=           0 IRanWt=          -1 IRanGd=           0 AccXCQ= 1.00D-10.
 NRdTot=    3598 NPtTot=      459784 NUsed=      485711 NTot=      485743
 NSgBfM=   436   439   439   440   440 NAtAll=    56    56.
 Leave Link  302 at Wed Sep 29 03:36:41 2021, MaxMem= 2415919104 cpu:       8.2
 (Enter /sw/target/amd/app/gaussian/Gaussian09RevA.02_gcc-4.9.2/g09/l303.exe)
 DipDrv:  MaxL=1.
 Leave Link  303 at Wed Sep 29 03:36:42 2021, MaxMem= 2415919104 cpu:       0.4
 (Enter /sw/target/amd/app/gaussian/Gaussian09RevA.02_gcc-4.9.2/g09/l401.exe)
 Harris functional with IExCor=  402 diagonalized for initial guess.
 ExpMin= 1.61D-01 ExpMax= 5.48D+03 ExpMxC= 8.25D+02 IAcc=1 IRadAn=         1 AccDes= 0.00D+00
 HarFok:  IExCor=  402 AccDes= 0.00D+00 IRadAn=         1 IDoV= 1
 ScaDFX=  1.000000  1.000000  1.000000  1.000000
 FoFCou: FMM=F IPFlag=           0 FMFlag=      100000 FMFlg1=           0
         NFxFlg=           0 DoJE=T BraDBF=F KetDBF=T FulRan=T
         Omega=  0.000000  0.000000  1.000000  0.000000  0.000000 ICntrl=     500 IOpCl=  0
         NMat0=    1 NMatS0=    1 NMatT0=    0 NMatD0=    1 NMtDS0=    0 NMtDT0=    0
         I1Cent=           4 NGrid=           0.
 Petite list used in FoFCou.
 Harris En= -1120.37623245381    
 Initial guess orbital symmetries:
       Occupied  (A) (A) (A) (A) (A) (A) (A) (A) (A) (A) (A) (A)
                 (A) (A) (A) (A) (A) (A) (A) (A) (A) (A) (A) (A)
                 (A) (A) (A) (A) (A) (A) (A) (A) (A) (A) (A) (A)
                 (A) (A) (A) (A) (A) (A) (A) (A) (A) (A) (A) (A)
                 (A) (A) (A) (A) (A) (A) (A) (A) (A) (A) (A) (A)
                 (A) (A) (A) (A) (A) (A) (A) (A) (A) (A) (A) (A)
                 (A) (A) (A) (A) (A) (A) (A) (A) (A) (A) (A) (A)
                 (A) (A) (A) (A) (A) (A) (A) (A) (A) (A) (A) (A)
       Virtual   (A) (A) (A) (A) (A) (A) (A) (A) (A) (A) (A) (A)
                 (A) (A) (A) (A) (A) (A) (A) (A) (A) (A) (A) (A)
                 (A) (A) (A) (A) (A) (A) (A) (A) (A) (A) (A) (A)
                 (A) (A) (A) (A) (A) (A) (A) (A) (A) (A) (A) (A)
                 (A) (A) (A) (A) (A) (A) (A) (A) (A) (A) (A) (A)
                 (A) (A) (A) (A) (A) (A) (A) (A) (A) (A) (A) (A)
                 (A) (A) (A) (A) (A) (A) (A) (A) (A) (A) (A) (A)
                 (A) (A) (A) (A) (A) (A) (A) (A) (A) (A) (A) (A)
                 (A) (A) (A) (A) (A) (A) (A) (A) (A) (A) (A) (A)
                 (A) (A) (A) (A) (A) (A) (A) (A) (A) (A) (A) (A)
                 (A) (A) (A) (A) (A) (A) (A) (A) (A) (A) (A) (A)
                 (A) (A) (A) (A) (A) (A) (A) (A) (A) (A) (A) (A)
                 (A) (A) (A) (A) (A) (A) (A) (A) (A) (A) (A) (A)
                 (A) (A) (A) (A) (A) (A) (A) (A) (A) (A) (A) (A)
                 (A) (A) (A) (A) (A) (A) (A) (A) (A) (A) (A) (A)
                 (A) (A) (A) (A) (A) (A) (A) (A) (A) (A) (A) (A)
                 (A) (A) (A) (A) (A) (A) (A) (A) (A) (A) (A) (A)
                 (A) (A) (A) (A) (A) (A) (A) (A) (A) (A) (A) (A)
                 (A) (A) (A) (A) (A) (A) (A) (A) (A) (A) (A) (A)
                 (A) (A) (A) (A) (A) (A) (A) (A) (A) (A) (A) (A)
                 (A) (A) (A) (A) (A) (A) (A) (A) (A) (A) (A) (A)
                 (A) (A) (A) (A) (A) (A) (A) (A) (A) (A) (A) (A)
                 (A) (A) (A) (A) (A) (A) (A) (A) (A) (A) (A) (A)
                 (A) (A) (A) (A) (A) (A) (A) (A) (A) (A) (A) (A)
                 (A) (A) (A) (A) (A) (A) (A) (A) (A) (A) (A) (A)
                 (A) (A) (A) (A) (A) (A) (A) (A) (A) (A) (A) (A)
                 (A) (A) (A) (A) (A) (A) (A) (A) (A) (A) (A) (A)
                 (A) (A) (A) (A) (A) (A) (A) (A) (A) (A) (A) (A)
                 (A) (A) (A) (A) (A) (A) (A) (A) (A) (A) (A) (A)
                 (A) (A) (A) (A) (A) (A)
 The electronic state of the initial guess is 1-A.
 Leave Link  401 at Wed Sep 29 03:37:01 2021, MaxMem= 2415919104 cpu:      30.8
 (Enter /sw/target/amd/app/gaussian/Gaussian09RevA.02_gcc-4.9.2/g09/l502.exe)
 Closed shell SCF:
 Requested convergence on RMS density matrix=1.00D-08 within  64 cycles.
 Requested convergence on MAX density matrix=1.00D-06.
 Requested convergence on             energy=1.00D-06.
 No special actions if energy rises.
 Using DIIS extrapolation, IDIIS=  1040.
 Integral symmetry usage will be decided dynamically.
       485194 words used for storage of precomputed grid.
 IEnd=     1105708 IEndB=     1105708 NGot=  2415919104 MDV=  2415020571
 LenX=  2415020571 LenY=  2414817621
 Fock matrices will be formed incrementally for  20 cycles.
 Integral accuracy reduced to 1.0D-05 until final iterations.

 Cycle   1  Pass 0  IDiag  1:
 FoFCou: FMM=F IPFlag=           0 FMFlag=      100000 FMFlg1=           0
         NFxFlg=           0 DoJE=F BraDBF=F KetDBF=F FulRan=T
         Omega=  0.000000  0.000000  1.000000  0.000000  0.000000 ICntrl=       0 IOpCl=  0
         NMat0=    1 NMatS0=    1 NMatT0=    0 NMatD0=    1 NMtDS0=    0 NMtDT0=    0
         I1Cent=           0 NGrid=           0.
 Symmetry not used in FoFCou.
 E= -1119.42613913330    
 DIIS: error= 3.23D-02 at cycle   1 NSaved=   1.
 NSaved= 1 IEnMin= 1 EnMin= -1119.42613913330     IErMin= 1 ErrMin= 3.23D-02
 ErrMax= 3.23D-02 EMaxC= 1.00D-01 BMatC= 7.75D-01 BMatP= 7.75D-01
 IDIUse=3 WtCom= 6.77D-01 WtEn= 3.23D-01
 Coeff-Com:  0.100D+01
 Coeff-En:   0.100D+01
 Coeff:      0.100D+01
 Gap=     0.249 Goal=   None    Shift=    0.000
 GapD=    0.249 DampG=1.000 DampE=0.500 DampFc=0.5000 IDamp=-1.
 Damping current iteration by 5.00D-01
 RMSDP=4.55D-03 MaxDP=1.94D-01              OVMax= 2.14D-01

 Cycle   2  Pass 0  IDiag  1:
 RMSU=  1.59D-03    CP:  9.78D-01
 E= -1119.71230899994     Delta-E=       -0.286169866635 Rises=F Damp=T
 DIIS: error= 1.01D-02 at cycle   2 NSaved=   2.
 NSaved= 2 IEnMin= 2 EnMin= -1119.71230899994     IErMin= 2 ErrMin= 1.01D-02
 ErrMax= 1.01D-02 EMaxC= 1.00D-01 BMatC= 8.82D-02 BMatP= 7.75D-01
 IDIUse=3 WtCom= 8.99D-01 WtEn= 1.01D-01
 Coeff-Com:  0.164D+00 0.836D+00
 Coeff-En:   0.242D+00 0.758D+00
 Coeff:      0.172D+00 0.828D+00
 Gap=     0.215 Goal=   None    Shift=    0.000
 RMSDP=1.38D-03 MaxDP=7.57D-02 DE=-2.86D-01 OVMax= 1.92D-01

 Cycle   3  Pass 0  IDiag  1:
 RMSU=  9.25D-04    CP:  9.70D-01  8.14D-01
 E= -1120.10915775855     Delta-E=       -0.396848758614 Rises=F Damp=F
 DIIS: error= 1.58D-02 at cycle   3 NSaved=   3.
 NSaved= 3 IEnMin= 3 EnMin= -1120.10915775855     IErMin= 2 ErrMin= 1.01D-02
 ErrMax= 1.58D-02 EMaxC= 1.00D-01 BMatC= 1.16D-01 BMatP= 8.82D-02
 IDIUse=2 WtCom= 0.00D+00 WtEn= 1.00D+00
 Coeff-En:   0.000D+00 0.000D+00 0.100D+01
 Coeff:      0.000D+00 0.000D+00 0.100D+01
 Gap=     0.244 Goal=   None    Shift=    0.000
 RMSDP=2.28D-03 MaxDP=1.76D-01 DE=-3.97D-01 OVMax= 3.22D-01

 Cycle   4  Pass 0  IDiag  1:
 RMSU=  9.70D-04    CP:  9.76D-01  1.06D+00 -3.23D-01
 E= -1119.58414642196     Delta-E=        0.525011336596 Rises=F Damp=F
 DIIS: error= 3.84D-02 at cycle   4 NSaved=   4.
 NSaved= 4 IEnMin= 3 EnMin= -1120.10915775855     IErMin= 2 ErrMin= 1.01D-02
 ErrMax= 3.84D-02 EMaxC= 1.00D-01 BMatC= 7.74D-01 BMatP= 8.82D-02
 IDIUse=2 WtCom= 0.00D+00 WtEn= 1.00D+00
 Coeff-En:   0.000D+00 0.000D+00 0.808D+00 0.192D+00
 Coeff:      0.000D+00 0.000D+00 0.808D+00 0.192D+00
 Gap=     0.227 Goal=   None    Shift=    0.000
 RMSDP=1.22D-03 MaxDP=9.11D-02 DE= 5.25D-01 OVMax= 1.65D-01

 Cycle   5  Pass 0  IDiag  1:
 RMSU=  1.77D-04    CP:  9.75D-01  8.79D-01  3.09D-01  4.52D-01
 E= -1120.15848614680     Delta-E=       -0.574339724840 Rises=F Damp=F
 DIIS: error= 1.04D-02 at cycle   5 NSaved=   5.
 NSaved= 5 IEnMin= 5 EnMin= -1120.15848614680     IErMin= 2 ErrMin= 1.01D-02
 ErrMax= 1.04D-02 EMaxC= 1.00D-01 BMatC= 5.97D-02 BMatP= 8.82D-02
 IDIUse=3 WtCom= 8.96D-01 WtEn= 1.04D-01
 Coeff-Com:  0.175D-02 0.352D-01 0.355D+00-0.573D-01 0.665D+00
 Coeff-En:   0.000D+00 0.000D+00 0.374D+00 0.000D+00 0.626D+00
 Coeff:      0.157D-02 0.315D-01 0.357D+00-0.513D-01 0.661D+00
 Gap=     0.218 Goal=   None    Shift=    0.000
 RMSDP=4.90D-04 MaxDP=3.05D-02 DE=-5.74D-01 OVMax= 5.07D-02

 Cycle   6  Pass 0  IDiag  1:
 RMSU=  7.12D-05    CP:  9.73D-01  8.37D-01  5.94D-01  2.52D-01  6.67D-01
 E= -1120.20680701986     Delta-E=       -0.048320873066 Rises=F Damp=F
 DIIS: error= 1.10D-03 at cycle   6 NSaved=   6.
 NSaved= 6 IEnMin= 6 EnMin= -1120.20680701986     IErMin= 6 ErrMin= 1.10D-03
 ErrMax= 1.10D-03 EMaxC= 1.00D-01 BMatC= 9.85D-04 BMatP= 5.97D-02
 IDIUse=3 WtCom= 9.89D-01 WtEn= 1.10D-02
 Coeff-Com: -0.301D-02 0.163D-01 0.181D+00-0.615D-01 0.456D+00 0.412D+00
 Coeff-En:   0.000D+00 0.000D+00 0.000D+00 0.000D+00 0.000D+00 0.100D+01
 Coeff:     -0.298D-02 0.161D-01 0.179D+00-0.608D-01 0.451D+00 0.418D+00
 Gap=     0.209 Goal=   None    Shift=    0.000
 RMSDP=6.83D-05 MaxDP=4.32D-03 DE=-4.83D-02 OVMax= 7.08D-03

 Cycle   7  Pass 0  IDiag  1:
 RMSU=  1.91D-05    CP:  9.73D-01  8.44D-01  5.80D-01  2.57D-01  7.44D-01
                    CP:  4.60D-01
 E= -1120.20759774489     Delta-E=       -0.000790725028 Rises=F Damp=F
 DIIS: error= 2.42D-04 at cycle   7 NSaved=   7.
 NSaved= 7 IEnMin= 7 EnMin= -1120.20759774489     IErMin= 7 ErrMin= 2.42D-04
 ErrMax= 2.42D-04 EMaxC= 1.00D-01 BMatC= 3.85D-05 BMatP= 9.85D-04
 IDIUse=3 WtCom= 9.98D-01 WtEn= 2.42D-03
 Coeff-Com: -0.784D-03 0.367D-02 0.604D-01-0.236D-01 0.155D+00 0.185D+00
 Coeff-Com:  0.620D+00
 Coeff-En:   0.000D+00 0.000D+00 0.000D+00 0.000D+00 0.000D+00 0.000D+00
 Coeff-En:   0.100D+01
 Coeff:     -0.783D-03 0.366D-02 0.603D-01-0.235D-01 0.154D+00 0.185D+00
 Coeff:      0.621D+00
 Gap=     0.209 Goal=   None    Shift=    0.000
 RMSDP=1.84D-05 MaxDP=1.20D-03 DE=-7.91D-04 OVMax= 1.19D-03

 Cycle   8  Pass 0  IDiag  1:
 RMSU=  8.17D-06    CP:  9.73D-01  8.44D-01  5.84D-01  2.53D-01  7.49D-01
                    CP:  5.05D-01  5.73D-01
 E= -1120.20762426028     Delta-E=       -0.000026515394 Rises=F Damp=F
 DIIS: error= 1.04D-04 at cycle   8 NSaved=   8.
 NSaved= 8 IEnMin= 8 EnMin= -1120.20762426028     IErMin= 8 ErrMin= 1.04D-04
 ErrMax= 1.04D-04 EMaxC= 1.00D-01 BMatC= 8.43D-06 BMatP= 3.85D-05
 IDIUse=3 WtCom= 9.99D-01 WtEn= 1.04D-03
 Coeff-Com:  0.163D-03-0.526D-03 0.130D-01-0.519D-02 0.281D-01 0.501D-01
 Coeff-Com:  0.396D+00 0.518D+00
 Coeff-En:   0.000D+00 0.000D+00 0.000D+00 0.000D+00 0.000D+00 0.000D+00
 Coeff-En:   0.879D-01 0.912D+00
 Coeff:      0.163D-03-0.525D-03 0.130D-01-0.518D-02 0.281D-01 0.501D-01
 Coeff:      0.396D+00 0.519D+00
 Gap=     0.209 Goal=   None    Shift=    0.000
 RMSDP=7.55D-06 MaxDP=3.88D-04 DE=-2.65D-05 OVMax= 5.69D-04

 Initial convergence to 1.0D-05 achieved.  Increase integral accuracy.
 Cycle   9  Pass 1  IDiag  1:
 E= -1120.20760287846     Delta-E=        0.000021381827 Rises=F Damp=F
 DIIS: error= 7.29D-05 at cycle   1 NSaved=   1.
 NSaved= 1 IEnMin= 1 EnMin= -1120.20760287846     IErMin= 1 ErrMin= 7.29D-05
 ErrMax= 7.29D-05 EMaxC= 1.00D-01 BMatC= 1.13D-06 BMatP= 1.13D-06
 IDIUse=1 WtCom= 1.00D+00 WtEn= 0.00D+00
 Coeff-Com:  0.100D+01
 Coeff:      0.100D+01
 Gap=     0.209 Goal=   None    Shift=    0.000
 RMSDP=7.55D-06 MaxDP=3.88D-04 DE= 2.14D-05 OVMax= 4.92D-04

 Cycle  10  Pass 1  IDiag  1:
 RMSU=  1.39D-05    CP:  1.00D+00
 E= -1120.20760227931     Delta-E=        0.000000599143 Rises=F Damp=F
 DIIS: error= 6.10D-05 at cycle   2 NSaved=   2.
 NSaved= 2 IEnMin= 1 EnMin= -1120.20760287846     IErMin= 2 ErrMin= 6.10D-05
 ErrMax= 6.10D-05 EMaxC= 1.00D-01 BMatC= 2.10D-06 BMatP= 1.13D-06
 IDIUse=1 WtCom= 1.00D+00 WtEn= 0.00D+00
 Coeff-Com:  0.594D+00 0.406D+00
 Coeff:      0.594D+00 0.406D+00
 Gap=     0.209 Goal=   None    Shift=    0.000
 RMSDP=3.79D-06 MaxDP=2.72D-04 DE= 5.99D-07 OVMax= 3.96D-04

 Cycle  11  Pass 1  IDiag  1:
 RMSU=  2.61D-06    CP:  1.00D+00  9.58D-01
 E= -1120.20760389329     Delta-E=       -0.000001613978 Rises=F Damp=F
 DIIS: error= 2.17D-05 at cycle   3 NSaved=   3.
 NSaved= 3 IEnMin= 3 EnMin= -1120.20760389329     IErMin= 3 ErrMin= 2.17D-05
 ErrMax= 2.17D-05 EMaxC= 1.00D-01 BMatC= 1.98D-07 BMatP= 1.13D-06
 IDIUse=1 WtCom= 1.00D+00 WtEn= 0.00D+00
 Coeff-Com:  0.454D-01 0.233D+00 0.722D+00
 Coeff:      0.454D-01 0.233D+00 0.722D+00
 Gap=     0.209 Goal=   None    Shift=    0.000
 RMSDP=1.21D-06 MaxDP=8.87D-05 DE=-1.61D-06 OVMax= 9.65D-05

 Cycle  12  Pass 1  IDiag  1:
 RMSU=  5.74D-07    CP:  1.00D+00  9.76D-01  7.76D-01
 E= -1120.20760402978     Delta-E=       -0.000000136490 Rises=F Damp=F
 DIIS: error= 5.96D-06 at cycle   4 NSaved=   4.
 NSaved= 4 IEnMin= 4 EnMin= -1120.20760402978     IErMin= 4 ErrMin= 5.96D-06
 ErrMax= 5.96D-06 EMaxC= 1.00D-01 BMatC= 3.37D-08 BMatP= 1.98D-07
 IDIUse=1 WtCom= 1.00D+00 WtEn= 0.00D+00
 Coeff-Com: -0.798D-02 0.122D+00 0.455D+00 0.431D+00
 Coeff:     -0.798D-02 0.122D+00 0.455D+00 0.431D+00
 Gap=     0.209 Goal=   None    Shift=    0.000
 RMSDP=4.33D-07 MaxDP=2.40D-05 DE=-1.36D-07 OVMax= 2.48D-05

 Cycle  13  Pass 1  IDiag  1:
 RMSU=  1.45D-07    CP:  1.00D+00  9.77D-01  7.89D-01  5.35D-01
 E= -1120.20760405666     Delta-E=       -0.000000026882 Rises=F Damp=F
 DIIS: error= 1.23D-06 at cycle   5 NSaved=   5.
 NSaved= 5 IEnMin= 5 EnMin= -1120.20760405666     IErMin= 5 ErrMin= 1.23D-06
 ErrMax= 1.23D-06 EMaxC= 1.00D-01 BMatC= 1.38D-09 BMatP= 3.37D-08
 IDIUse=1 WtCom= 1.00D+00 WtEn= 0.00D+00
 Coeff-Com: -0.696D-02 0.576D-01 0.220D+00 0.251D+00 0.478D+00
 Coeff:     -0.696D-02 0.576D-01 0.220D+00 0.251D+00 0.478D+00
 Gap=     0.209 Goal=   None    Shift=    0.000
 RMSDP=9.83D-08 MaxDP=6.19D-06 DE=-2.69D-08 OVMax= 8.57D-06

 Cycle  14  Pass 1  IDiag  1:
 RMSU=  5.01D-08    CP:  1.00D+00  9.78D-01  7.90D-01  5.25D-01  6.72D-01
 E= -1120.20760405790     Delta-E=       -0.000000001236 Rises=F Damp=F
 DIIS: error= 3.93D-07 at cycle   6 NSaved=   6.
 NSaved= 6 IEnMin= 6 EnMin= -1120.20760405790     IErMin= 6 ErrMin= 3.93D-07
 ErrMax= 3.93D-07 EMaxC= 1.00D-01 BMatC= 1.12D-10 BMatP= 1.38D-09
 IDIUse=1 WtCom= 1.00D+00 WtEn= 0.00D+00
 Coeff-Com: -0.328D-02 0.222D-01 0.853D-01 0.106D+00 0.269D+00 0.521D+00
 Coeff:     -0.328D-02 0.222D-01 0.853D-01 0.106D+00 0.269D+00 0.521D+00
 Gap=     0.209 Goal=   None    Shift=    0.000
 RMSDP=2.98D-08 MaxDP=1.68D-06 DE=-1.24D-09 OVMax= 2.68D-06

 Cycle  15  Pass 1  IDiag  1:
 RMSU=  1.75D-08    CP:  1.00D+00  9.78D-01  7.88D-01  5.32D-01  6.83D-01
                    CP:  7.96D-01
 E= -1120.20760405791     Delta-E=       -0.000000000009 Rises=F Damp=F
 DIIS: error= 2.01D-07 at cycle   7 NSaved=   7.
 NSaved= 7 IEnMin= 7 EnMin= -1120.20760405791     IErMin= 7 ErrMin= 2.01D-07
 ErrMax= 2.01D-07 EMaxC= 1.00D-01 BMatC= 1.72D-11 BMatP= 1.12D-10
 IDIUse=1 WtCom= 1.00D+00 WtEn= 0.00D+00
 Coeff-Com: -0.761D-03 0.369D-02 0.140D-01 0.219D-01 0.773D-01 0.309D+00
 Coeff-Com:  0.575D+00
 Coeff:     -0.761D-03 0.369D-02 0.140D-01 0.219D-01 0.773D-01 0.309D+00
 Coeff:      0.575D+00
 Gap=     0.209 Goal=   None    Shift=    0.000
 RMSDP=1.07D-08 MaxDP=9.33D-07 DE=-9.09D-12 OVMax= 1.21D-06

 Cycle  16  Pass 1  IDiag  1:
 RMSU=  5.56D-09    CP:  1.00D+00  9.78D-01  7.88D-01  5.34D-01  6.90D-01
                    CP:  8.33D-01  7.41D-01
 E= -1120.20760405802     Delta-E=       -0.000000000111 Rises=F Damp=F
 DIIS: error= 7.27D-08 at cycle   8 NSaved=   8.
 NSaved= 8 IEnMin= 8 EnMin= -1120.20760405802     IErMin= 8 ErrMin= 7.27D-08
 ErrMax= 7.27D-08 EMaxC= 1.00D-01 BMatC= 2.87D-12 BMatP= 1.72D-11
 IDIUse=1 WtCom= 1.00D+00 WtEn= 0.00D+00
 Coeff-Com: -0.975D-04-0.373D-03-0.159D-02 0.852D-03 0.148D-01 0.127D+00
 Coeff-Com:  0.364D+00 0.495D+00
 Coeff:     -0.975D-04-0.373D-03-0.159D-02 0.852D-03 0.148D-01 0.127D+00
 Coeff:      0.364D+00 0.495D+00
 Gap=     0.209 Goal=   None    Shift=    0.000
 RMSDP=4.44D-09 MaxDP=2.71D-07 DE=-1.11D-10 OVMax= 4.77D-07

 SCF Done:  E(RB3LYP) =  -1120.20760406     A.U. after   16 cycles
             Convg  =    0.4444D-08             -V/T =  2.0094
 KE= 1.109826736987D+03 PE=-7.313131632753D+03 EE= 2.727113384300D+03
 Leave Link  502 at Wed Sep 29 03:50:40 2021, MaxMem= 2415919104 cpu:    1599.2
 (Enter /sw/target/amd/app/gaussian/Gaussian09RevA.02_gcc-4.9.2/g09/l508.exe)
 QCSCF skips out because SCF is already converged.
 Leave Link  508 at Wed Sep 29 03:50:40 2021, MaxMem= 2415919104 cpu:       0.0
 (Enter /sw/target/amd/app/gaussian/Gaussian09RevA.02_gcc-4.9.2/g09/l601.exe)
 Copying SCF densities to generalized density rwf, IOpCl= 0 IROHF=0.

 **********************************************************************

            Population analysis using the SCF density.

 **********************************************************************

 Orbital symmetries:
       Occupied  (A) (A) (A) (A) (A) (A) (A) (A) (A) (A) (A) (A)
                 (A) (A) (A) (A) (A) (A) (A) (A) (A) (A) (A) (A)
                 (A) (A) (A) (A) (A) (A) (A) (A) (A) (A) (A) (A)
                 (A) (A) (A) (A) (A) (A) (A) (A) (A) (A) (A) (A)
                 (A) (A) (A) (A) (A) (A) (A) (A) (A) (A) (A) (A)
                 (A) (A) (A) (A) (A) (A) (A) (A) (A) (A) (A) (A)
                 (A) (A) (A) (A) (A) (A) (A) (A) (A) (A) (A) (A)
                 (A) (A) (A) (A) (A) (A) (A) (A) (A) (A) (A) (A)
       Virtual   (A) (A) (A) (A) (A) (A) (A) (A) (A) (A) (A) (A)
                 (A) (A) (A) (A) (A) (A) (A) (A) (A) (A) (A) (A)
                 (A) (A) (A) (A) (A) (A) (A) (A) (A) (A) (A) (A)
                 (A) (A) (A) (A) (A) (A) (A) (A) (A) (A) (A) (A)
                 (A) (A) (A) (A) (A) (A) (A) (A) (A) (A) (A) (A)
                 (A) (A) (A) (A) (A) (A) (A) (A) (A) (A) (A) (A)
                 (A) (A) (A) (A) (A) (A) (A) (A) (A) (A) (A) (A)
                 (A) (A) (A) (A) (A) (A) (A) (A) (A) (A) (A) (A)
                 (A) (A) (A) (A) (A) (A) (A) (A) (A) (A) (A) (A)
                 (A) (A) (A) (A) (A) (A) (A) (A) (A) (A) (A) (A)
                 (A) (A) (A) (A) (A) (A) (A) (A) (A) (A) (A) (A)
                 (A) (A) (A) (A) (A) (A) (A) (A) (A) (A) (A) (A)
                 (A) (A) (A) (A) (A) (A) (A) (A) (A) (A) (A) (A)
                 (A) (A) (A) (A) (A) (A) (A) (A) (A) (A) (A) (A)
                 (A) (A) (A) (A) (A) (A) (A) (A) (A) (A) (A) (A)
                 (A) (A) (A) (A) (A) (A) (A) (A) (A) (A) (A) (A)
                 (A) (A) (A) (A) (A) (A) (A) (A) (A) (A) (A) (A)
                 (A) (A) (A) (A) (A) (A) (A) (A) (A) (A) (A) (A)
                 (A) (A) (A) (A) (A) (A) (A) (A) (A) (A) (A) (A)
                 (A) (A) (A) (A) (A) (A) (A) (A) (A) (A) (A) (A)
                 (A) (A) (A) (A) (A) (A) (A) (A) (A) (A) (A) (A)
                 (A) (A) (A) (A) (A) (A) (A) (A) (A) (A) (A) (A)
                 (A) (A) (A) (A) (A) (A) (A) (A) (A) (A) (A) (A)
                 (A) (A) (A) (A) (A) (A) (A) (A) (A) (A) (A) (A)
                 (A) (A) (A) (A) (A) (A) (A) (A) (A) (A) (A) (A)
                 (A) (A) (A) (A) (A) (A) (A) (A) (A) (A) (A) (A)
                 (A) (A) (A) (A) (A) (A) (A) (A) (A) (A) (A) (A)
                 (A) (A) (A) (A) (A) (A) (A) (A) (A) (A) (A) (A)
                 (A) (A) (A) (A) (A) (A) (A) (A) (A) (A) (A) (A)
                 (A) (A) (A) (A) (A) (A)
 The electronic state is 1-A.
 Alpha  occ. eigenvalues --  -19.20267 -19.14496 -19.12967 -10.32184 -10.26157
 Alpha  occ. eigenvalues --  -10.24879 -10.21374 -10.19722 -10.19579 -10.19190
 Alpha  occ. eigenvalues --  -10.19122 -10.19105 -10.19054 -10.18978 -10.18935
 Alpha  occ. eigenvalues --  -10.18879 -10.18691 -10.18655 -10.18628 -10.18541
 Alpha  occ. eigenvalues --  -10.18485 -10.18404 -10.18371 -10.18096 -10.17806
 Alpha  occ. eigenvalues --  -10.17687  -1.09762  -1.02560  -1.01980  -0.87625
 Alpha  occ. eigenvalues --   -0.85752  -0.82858  -0.81252  -0.79664  -0.77278
 Alpha  occ. eigenvalues --   -0.75144  -0.73665  -0.72358  -0.69392  -0.69067
 Alpha  occ. eigenvalues --   -0.68299  -0.66314  -0.65489  -0.63548  -0.61517
 Alpha  occ. eigenvalues --   -0.60293  -0.58704  -0.56816  -0.54501  -0.53381
 Alpha  occ. eigenvalues --   -0.50712  -0.50223  -0.48850  -0.48774  -0.48487
 Alpha  occ. eigenvalues --   -0.47387  -0.46678  -0.45862  -0.45341  -0.44730
 Alpha  occ. eigenvalues --   -0.44368  -0.43900  -0.43253  -0.42587  -0.42362
 Alpha  occ. eigenvalues --   -0.41579  -0.41220  -0.40755  -0.39803  -0.39592
 Alpha  occ. eigenvalues --   -0.39150  -0.38992  -0.38613  -0.38326  -0.37845
 Alpha  occ. eigenvalues --   -0.37220  -0.36798  -0.36602  -0.36252  -0.35742
 Alpha  occ. eigenvalues --   -0.35436  -0.34758  -0.34038  -0.33930  -0.33431
 Alpha  occ. eigenvalues --   -0.33115  -0.32814  -0.32295  -0.31204  -0.30419
 Alpha  occ. eigenvalues --   -0.29570  -0.29310  -0.27243  -0.24267  -0.23099
 Alpha  occ. eigenvalues --   -0.22703
 Alpha virt. eigenvalues --   -0.01761  -0.01523  -0.00429   0.01793   0.06002
 Alpha virt. eigenvalues --    0.08050   0.08291   0.09375   0.09523   0.10426
 Alpha virt. eigenvalues --    0.12176   0.12467   0.12956   0.13620   0.13798
 Alpha virt. eigenvalues --    0.14312   0.14629   0.14751   0.15005   0.15391
 Alpha virt. eigenvalues --    0.15824   0.15969   0.16722   0.17126   0.17212
 Alpha virt. eigenvalues --    0.17677   0.18181   0.18393   0.18663   0.18933
 Alpha virt. eigenvalues --    0.19650   0.19778   0.19945   0.20208   0.20681
 Alpha virt. eigenvalues --    0.21046   0.21675   0.22026   0.22120   0.23126
 Alpha virt. eigenvalues --    0.23691   0.23906   0.24479   0.24845   0.25112
 Alpha virt. eigenvalues --    0.25785   0.26413   0.27549   0.28266   0.28385
 Alpha virt. eigenvalues --    0.29176   0.30164   0.31567   0.32280   0.33881
 Alpha virt. eigenvalues --    0.34656   0.35719   0.36346   0.37228   0.38304
 Alpha virt. eigenvalues --    0.40140   0.40974   0.47672   0.48497   0.49854
 Alpha virt. eigenvalues --    0.50048   0.50424   0.51365   0.51832   0.52529
 Alpha virt. eigenvalues --    0.53045   0.53533   0.54015   0.54423   0.54791
 Alpha virt. eigenvalues --    0.55776   0.56104   0.56796   0.56962   0.57742
 Alpha virt. eigenvalues --    0.59291   0.59849   0.60061   0.60616   0.61269
 Alpha virt. eigenvalues --    0.61400   0.61949   0.62415   0.62955   0.63832
 Alpha virt. eigenvalues --    0.64432   0.65646   0.65773   0.66588   0.67132
 Alpha virt. eigenvalues --    0.68775   0.69143   0.69496   0.70057   0.70383
 Alpha virt. eigenvalues --    0.70619   0.70787   0.71846   0.72064   0.72470
 Alpha virt. eigenvalues --    0.73800   0.75172   0.75995   0.77101   0.77211
 Alpha virt. eigenvalues --    0.78315   0.79980   0.80468   0.81057   0.81111
 Alpha virt. eigenvalues --    0.82390   0.82744   0.83061   0.84064   0.84619
 Alpha virt. eigenvalues --    0.84963   0.85454   0.85615   0.86122   0.86351
 Alpha virt. eigenvalues --    0.87084   0.87300   0.87415   0.87748   0.88156
 Alpha virt. eigenvalues --    0.88721   0.88822   0.89479   0.89792   0.90048
 Alpha virt. eigenvalues --    0.90993   0.91178   0.92275   0.92694   0.92786
 Alpha virt. eigenvalues --    0.93427   0.93810   0.94560   0.94704   0.95010
 Alpha virt. eigenvalues --    0.95671   0.96182   0.96871   0.97156   0.97987
 Alpha virt. eigenvalues --    0.98419   0.98589   0.99323   0.99480   1.00510
 Alpha virt. eigenvalues --    1.01057   1.02334   1.03190   1.03774   1.04418
 Alpha virt. eigenvalues --    1.06502   1.08182   1.09051   1.11049   1.12021
 Alpha virt. eigenvalues --    1.13001   1.13735   1.14763   1.15441   1.16878
 Alpha virt. eigenvalues --    1.18356   1.18524   1.21323   1.22139   1.23042
 Alpha virt. eigenvalues --    1.25608   1.26977   1.28221   1.29991   1.30679
 Alpha virt. eigenvalues --    1.34055   1.34993   1.35084   1.38241   1.38475
 Alpha virt. eigenvalues --    1.40294   1.42659   1.45655   1.46596   1.47375
 Alpha virt. eigenvalues --    1.48399   1.49991   1.50559   1.52550   1.53668
 Alpha virt. eigenvalues --    1.54633   1.56864   1.59659   1.62686   1.64877
 Alpha virt. eigenvalues --    1.65007   1.66633   1.66863   1.67943   1.68960
 Alpha virt. eigenvalues --    1.71257   1.71945   1.72799   1.73567   1.74295
 Alpha virt. eigenvalues --    1.75997   1.76289   1.77055   1.77918   1.79264
 Alpha virt. eigenvalues --    1.79294   1.79590   1.80889   1.82853   1.83036
 Alpha virt. eigenvalues --    1.83791   1.83819   1.85343   1.85719   1.86556
 Alpha virt. eigenvalues --    1.87410   1.87731   1.88484   1.88590   1.88997
 Alpha virt. eigenvalues --    1.90150   1.90686   1.92113   1.93049   1.93785
 Alpha virt. eigenvalues --    1.94827   1.95057   1.96723   1.97427   1.98500
 Alpha virt. eigenvalues --    1.99214   2.00441   2.01482   2.01859   2.02301
 Alpha virt. eigenvalues --    2.03062   2.03670   2.04220   2.04854   2.06960
 Alpha virt. eigenvalues --    2.08294   2.09171   2.09490   2.09891   2.10494
 Alpha virt. eigenvalues --    2.11983   2.13302   2.14121   2.15009   2.15549
 Alpha virt. eigenvalues --    2.16953   2.17789   2.19339   2.21134   2.21795
 Alpha virt. eigenvalues --    2.23380   2.24528   2.24927   2.26043   2.26340
 Alpha virt. eigenvalues --    2.26418   2.27034   2.27601   2.29103   2.29587
 Alpha virt. eigenvalues --    2.30792   2.30985   2.32626   2.33936   2.35151
 Alpha virt. eigenvalues --    2.36058   2.37748   2.38826   2.40170   2.41595
 Alpha virt. eigenvalues --    2.42643   2.45330   2.45751   2.48322   2.48939
 Alpha virt. eigenvalues --    2.50705   2.53123   2.53169   2.54850   2.55644
 Alpha virt. eigenvalues --    2.56623   2.57861   2.59302   2.61421   2.63945
 Alpha virt. eigenvalues --    2.64890   2.65185   2.65819   2.66774   2.67494
 Alpha virt. eigenvalues --    2.69024   2.70268   2.73557   2.75339   2.77239
 Alpha virt. eigenvalues --    2.78060   2.79391   2.80094   2.80862   2.82926
 Alpha virt. eigenvalues --    2.85081   2.86193   2.86806   2.91257   2.93231
 Alpha virt. eigenvalues --    2.97613   3.00396   3.02175   3.08283   3.08614
 Alpha virt. eigenvalues --    3.09871   3.27405   3.43635   4.08384   4.10446
 Alpha virt. eigenvalues --    4.11591   4.13247   4.14141   4.17566   4.18502
 Alpha virt. eigenvalues --    4.22681   4.24443   4.28468   4.30787   4.31530
 Alpha virt. eigenvalues --    4.34828   4.36450   4.39245   4.42346   4.45052
 Alpha virt. eigenvalues --    4.48442   4.52458   4.55442   4.61376   4.64751
 Alpha virt. eigenvalues --    4.71739   4.79165   4.83387   4.89879
          Condensed to atoms (all electrons):
 Mulliken atomic charges:
              1
     1  O   -0.469722
     2  C    0.639100
     3  C   -0.003250
     4  C   -0.450941
     5  C   -0.440137
     6  C   -0.438694
     7  O   -0.542888
     8  C    0.360766
     9  C   -0.175573
    10  C   -0.191752
    11  C    0.108832
    12  C    0.110611
    13  C   -0.208743
    14  C   -0.347214
    15  C   -0.295572
    16  C   -0.102380
    17  C   -0.171970
    18  C   -0.273732
    19  C   -0.289009
    20  C    0.050272
    21  C   -0.131715
    22  C   -0.298172
    23  C   -0.350193
    24  C    0.431105
    25  O   -0.473652
    26  C   -0.462552
    27  H    0.154677
    28  H    0.160886
    29  H    0.152318
    30  H    0.159165
    31  H    0.141877
    32  H    0.145205
    33  H    0.164094
    34  H    0.145062
    35  H    0.141241
    36  H    0.136359
    37  H    0.127063
    38  H    0.144512
    39  H    0.148901
    40  H    0.161908
    41  H    0.143359
    42  H    0.138021
    43  H    0.126519
    44  H    0.129165
    45  H    0.137961
    46  H    0.148218
    47  H    0.153408
    48  H    0.144175
    49  H    0.126296
    50  H    0.142010
    51  H    0.143099
    52  H    0.174591
    53  H    0.170577
    54  H    0.146648
    55  H    0.165735
    56  H    0.144124
 Sum of Mulliken atomic charges =  -0.00000
 Mulliken charges with hydrogens summed into heavy atoms:
              1
     1  O   -0.469722
     2  C    0.639100
     3  C   -0.003250
     4  C    0.016940
     5  C    0.006110
     6  C    0.011704
     7  O   -0.542888
     8  C    0.360766
     9  C   -0.039214
    10  C   -0.064688
    11  C    0.108832
    12  C    0.110611
    13  C   -0.064231
    14  C   -0.036406
    15  C   -0.014191
    16  C    0.024139
    17  C   -0.042805
    18  C    0.012447
    19  C    0.008575
    20  C    0.050272
    21  C   -0.005419
    22  C   -0.013063
    23  C   -0.005026
    24  C    0.431105
    25  O   -0.473652
    26  C   -0.006045
 Sum of Mulliken charges with hydrogens summed into heavy atoms =  -0.00000
 Electronic spatial extent (au):  <R**2>=          14749.4559
 Charge=             -0.0000 electrons
 Dipole moment (field-independent basis, Debye):
    X=              1.8753    Y=              0.5576    Z=             -0.9311  Tot=              2.1667
 Quadrupole moment (field-independent basis, Debye-Ang):
   XX=           -165.1570   YY=           -150.6784   ZZ=           -159.7550
   XY=              5.8977   XZ=             18.9197   YZ=             -3.7782
 Traceless Quadrupole moment (field-independent basis, Debye-Ang):
   XX=             -6.6268   YY=              7.8517   ZZ=             -1.2249
   XY=              5.8977   XZ=             18.9197   YZ=             -3.7782
 Octapole moment (field-independent basis, Debye-Ang**2):
  XXX=            297.7903  YYY=              5.4812  ZZZ=             -0.7058  XYY=            -20.7121
  XXY=              8.2349  XXZ=            -79.9263  XZZ=             19.8679  YZZ=             -1.1832
  YYZ=              0.9950  XYZ=            -16.5278
 Hexadecapole moment (field-independent basis, Debye-Ang**3):
 XXXX=         -17686.1026 YYYY=          -1612.3757 ZZZZ=           -833.0969 XXXY=            105.4043
 XXXZ=            700.7228 YYYX=             41.1886 YYYZ=            -15.1829 ZZZX=             -4.9204
 ZZZY=              5.2056 XXYY=          -3120.9155 XXZZ=          -3176.9830 YYZZ=           -412.1697
 XXYZ=            -15.8700 YYXZ=            -17.5570 ZZXY=             -7.9045
 N-N= 2.355983907408D+03 E-N=-7.313131635389D+03  KE= 1.109826736987D+03
 No NMR shielding tensors so no spin-rotation constants.
 Leave Link  601 at Wed Sep 29 03:50:43 2021, MaxMem= 2415919104 cpu:       4.4
 (Enter /sw/target/amd/app/gaussian/Gaussian09RevA.02_gcc-4.9.2/g09/l701.exe)
 Compute integral first derivatives.
 ... and contract with generalized density number  0.
 Leave Link  701 at Wed Sep 29 03:50:48 2021, MaxMem= 2415919104 cpu:       3.7
 (Enter /sw/target/amd/app/gaussian/Gaussian09RevA.02_gcc-4.9.2/g09/l702.exe)
 L702 exits ... SP integral derivatives will be done elsewhere.
 Leave Link  702 at Wed Sep 29 03:50:48 2021, MaxMem= 2415919104 cpu:       0.1
[...]
   266    C   18  dxy    Ryd( 3d)     0.00100
   267    C   18  dxz    Ryd( 3d)     0.00092
   268    C   18  dyz    Ryd( 3d)     0.00098
   269    C   18  dx2y2  Ryd( 3d)     0.00028
   270    C   18  dz2    Ryd( 3d)     0.00036

   271    C   19  S      Cor( 1S)     1.99924
   272    C   19  S      Val( 2S)     1.01896
   273    C   19  S      Ryd( 3S)     0.00105
   274    C   19  S      Ryd( 4S)     0.00002
   275    C   19  px     Val( 2p)     1.09516
   276    C   19  px     Ryd( 3p)     0.00336
   277    C   19  py     Val( 2p)     1.17754
   278    C   19  py     Ryd( 3p)     0.00428
   279    C   19  pz     Val( 2p)     1.14957
   280    C   19  pz     Ryd( 3p)     0.00233
   281    C   19  dxy    Ryd( 3d)     0.00089
   282    C   19  dxz    Ryd( 3d)     0.00087
   283    C   19  dyz    Ryd( 3d)     0.00113
   284    C   19  dx2y2  Ryd( 3d)     0.00038
   285    C   19  dz2    Ryd( 3d)     0.00027

   286    C   20  S      Cor( 1S)     1.99903
   287    C   20  S      Val( 2S)     0.92840
   288    C   20  S      Ryd( 3S)     0.00078
   289    C   20  S      Ryd( 4S)     0.00002
   290    C   20  px     Val( 2p)     1.06260
   291    C   20  px     Ryd( 3p)     0.00432
   292    C   20  py     Val( 2p)     1.03785
   293    C   20  py     Ryd( 3p)     0.00331
   294    C   20  pz     Val( 2p)     1.03193
   295    C   20  pz     Ryd( 3p)     0.00409
   296    C   20  dxy    Ryd( 3d)     0.00116
   297    C   20  dxz    Ryd( 3d)     0.00084
   298    C   20  dyz    Ryd( 3d)     0.00101
   299    C   20  dx2y2  Ryd( 3d)     0.00077
   300    C   20  dz2    Ryd( 3d)     0.00061

   301    C   21  S      Cor( 1S)     1.99914
   302    C   21  S      Val( 2S)     0.95638
   303    C   21  S      Ryd( 3S)     0.00110
   304    C   21  S      Ryd( 4S)     0.00002
   305    C   21  px     Val( 2p)     1.04857
   306    C   21  px     Ryd( 3p)     0.00257
   307    C   21  py     Val( 2p)     1.10365
   308    C   21  py     Ryd( 3p)     0.00427
   309    C   21  pz     Val( 2p)     1.11420
   310    C   21  pz     Ryd( 3p)     0.00428
   311    C   21  dxy    Ryd( 3d)     0.00071
   312    C   21  dxz    Ryd( 3d)     0.00054
   313    C   21  dyz    Ryd( 3d)     0.00114
   314    C   21  dx2y2  Ryd( 3d)     0.00069
   315    C   21  dz2    Ryd( 3d)     0.00067

   316    C   22  S      Cor( 1S)     1.99932
   317    C   22  S      Val( 2S)     1.03311
   318    C   22  S      Ryd( 3S)     0.00059
   319    C   22  S      Ryd( 4S)     0.00002
   320    C   22  px     Val( 2p)     1.18262
   321    C   22  px     Ryd( 3p)     0.00352
   322    C   22  py     Val( 2p)     1.12451
   323    C   22  py     Ryd( 3p)     0.00287
   324    C   22  pz     Val( 2p)     1.10293
   325    C   22  pz     Ryd( 3p)     0.00217
   326    C   22  dxy    Ryd( 3d)     0.00073
   327    C   22  dxz    Ryd( 3d)     0.00085
   328    C   22  dyz    Ryd( 3d)     0.00080
   329    C   22  dx2y2  Ryd( 3d)     0.00059
   330    C   22  dz2    Ryd( 3d)     0.00051

   331    C   23  S      Cor( 1S)     1.99923
   332    C   23  S      Val( 2S)     1.06056
   333    C   23  S      Ryd( 3S)     0.00056
   334    C   23  S      Ryd( 4S)     0.00002
   335    C   23  px     Val( 2p)     1.24757
   336    C   23  px     Ryd( 3p)     0.00247
   337    C   23  py     Val( 2p)     1.12659
   338    C   23  py     Ryd( 3p)     0.00169
   339    C   23  pz     Val( 2p)     1.02440
   340    C   23  pz     Ryd( 3p)     0.00224
   341    C   23  dxy    Ryd( 3d)     0.00106
   342    C   23  dxz    Ryd( 3d)     0.00059
   343    C   23  dyz    Ryd( 3d)     0.00081
   344    C   23  dx2y2  Ryd( 3d)     0.00092
   345    C   23  dz2    Ryd( 3d)     0.00070

   346    C   24  S      Cor( 1S)     1.99924
   347    C   24  S      Val( 2S)     0.82025
   348    C   24  S      Ryd( 3S)     0.00789
   349    C   24  S      Ryd( 4S)     0.00021
   350    C   24  px     Val( 2p)     1.10324
   351    C   24  px     Ryd( 3p)     0.00652
   352    C   24  py     Val( 2p)     0.97195
   353    C   24  py     Ryd( 3p)     0.00257
   354    C   24  pz     Val( 2p)     0.78636
   355    C   24  pz     Ryd( 3p)     0.01815
   356    C   24  dxy    Ryd( 3d)     0.00044
   357    C   24  dxz    Ryd( 3d)     0.00180
   358    C   24  dyz    Ryd( 3d)     0.00129
   359    C   24  dx2y2  Ryd( 3d)     0.00039
   360    C   24  dz2    Ryd( 3d)     0.00121

   361    O   25  S      Cor( 1S)     1.99980
   362    O   25  S      Val( 2S)     1.68896
   363    O   25  S      Ryd( 3S)     0.00035
   364    O   25  S      Ryd( 4S)     0.00006
   365    O   25  px     Val( 2p)     1.70609
   366    O   25  px     Ryd( 3p)     0.00484
   367    O   25  py     Val( 2p)     1.27951
   368    O   25  py     Ryd( 3p)     0.00252
   369    O   25  pz     Val( 2p)     1.62845
   370    O   25  pz     Ryd( 3p)     0.00029
   371    O   25  dxy    Ryd( 3d)     0.00006
   372    O   25  dxz    Ryd( 3d)     0.00394
   373    O   25  dyz    Ryd( 3d)     0.00284
   374    O   25  dx2y2  Ryd( 3d)     0.00005
   375    O   25  dz2    Ryd( 3d)     0.00545

   376    C   26  S      Cor( 1S)     1.99935
   377    C   26  S      Val( 2S)     1.09812
   378    C   26  S      Ryd( 3S)     0.00082
   379    C   26  S      Ryd( 4S)     0.00002
   380    C   26  px     Val( 2p)     1.14446
   381    C   26  px     Ryd( 3p)     0.00247
   382    C   26  py     Val( 2p)     1.16943
   383    C   26  py     Ryd( 3p)     0.00185
   384    C   26  pz     Val( 2p)     1.24448
   385    C   26  pz     Ryd( 3p)     0.00203
   386    C   26  dxy    Ryd( 3d)     0.00076
   387    C   26  dxz    Ryd( 3d)     0.00084
   388    C   26  dyz    Ryd( 3d)     0.00091
   389    C   26  dx2y2  Ryd( 3d)     0.00052
   390    C   26  dz2    Ryd( 3d)     0.00043

   391    H   27  S      Val( 1S)     0.75572
   392    H   27  S      Ryd( 2S)     0.00114

   393    H   28  S      Val( 1S)     0.76307
   394    H   28  S      Ryd( 2S)     0.00091

   395    H   29  S      Val( 1S)     0.76465
   396    H   29  S      Ryd( 2S)     0.00104

   397    H   30  S      Val( 1S)     0.75391
   398    H   30  S      Ryd( 2S)     0.00106

   399    H   31  S      Val( 1S)     0.76443
   400    H   31  S      Ryd( 2S)     0.00105

   401    H   32  S      Val( 1S)     0.76383
   402    H   32  S      Ryd( 2S)     0.00092

   403    H   33  S      Val( 1S)     0.75592
   404    H   33  S      Ryd( 2S)     0.00105

   405    H   34  S      Val( 1S)     0.75678
   406    H   34  S      Ryd( 2S)     0.00105

   407    H   35  S      Val( 1S)     0.76946
   408    H   35  S      Ryd( 2S)     0.00091

   409    H   36  S      Val( 1S)     0.75350
   410    H   36  S      Ryd( 2S)     0.00117

   411    H   37  S      Val( 1S)     0.76460
   412    H   37  S      Ryd( 2S)     0.00101

   413    H   38  S      Val( 1S)     0.74804
   414    H   38  S      Ryd( 2S)     0.00118

   415    H   39  S      Val( 1S)     0.75166
   416    H   39  S      Ryd( 2S)     0.00122

   417    H   40  S      Val( 1S)     0.75393
   418    H   40  S      Ryd( 2S)     0.00166

   419    H   41  S      Val( 1S)     0.76311
   420    H   41  S      Ryd( 2S)     0.00150

   421    H   42  S      Val( 1S)     0.76214
   422    H   42  S      Ryd( 2S)     0.00165

   423    H   43  S      Val( 1S)     0.75140
   424    H   43  S      Ryd( 2S)     0.00211

   425    H   44  S      Val( 1S)     0.74203
   426    H   44  S      Ryd( 2S)     0.00171

   427    H   45  S      Val( 1S)     0.76832
   428    H   45  S      Ryd( 2S)     0.00147

   429    H   46  S      Val( 1S)     0.75069
   430    H   46  S      Ryd( 2S)     0.00127

   431    H   47  S      Val( 1S)     0.75227
   432    H   47  S      Ryd( 2S)     0.00143

   433    H   48  S      Val( 1S)     0.75374
   434    H   48  S      Ryd( 2S)     0.00152

   435    H   49  S      Val( 1S)     0.74707
   436    H   49  S      Ryd( 2S)     0.00219

   437    H   50  S      Val( 1S)     0.75461
   438    H   50  S      Ryd( 2S)     0.00139

   439    H   51  S      Val( 1S)     0.75581
   440    H   51  S      Ryd( 2S)     0.00124

   441    H   52  S      Val( 1S)     0.76325
   442    H   52  S      Ryd( 2S)     0.00499

   443    H   53  S      Val( 1S)     0.75871
   444    H   53  S      Ryd( 2S)     0.00458

   445    H   54  S      Val( 1S)     0.77272
   446    H   54  S      Ryd( 2S)     0.00191

   447    H   55  S      Val( 1S)     0.75690
   448    H   55  S      Ryd( 2S)     0.00116

   449    H   56  S      Val( 1S)     0.76625
   450    H   56  S      Ryd( 2S)     0.00086

 WARNING:  1 low occupancy (<1.9990e) core orbital  found on  C    8
           1 low occupancy (<1.9990e) core orbital  found on  C    9
           1 low occupancy (<1.9990e) core orbital  found on  C   11
           1 low occupancy (<1.9990e) core orbital  found on  C   12
           1 low occupancy (<1.9990e) core orbital  found on  C   13


 Summary of Natural Population Analysis:                  
                                                          
                                       Natural Population 
                Natural  -----------------------------------------------
    Atom  No    Charge         Core      Valence    Rydberg      Total
 -----------------------------------------------------------------------
      O    1   -0.58030      1.99977     6.56069    0.01984     8.58030
      C    2    0.84767      1.99928     3.10417    0.04888     5.15233
      C    3   -0.15143      1.99905     4.14004    0.01234     6.15143
      C    4   -0.66892      1.99938     4.65978    0.00976     6.66892
      C    5   -0.66950      1.99938     4.66039    0.00973     6.66950
      C    6   -0.67002      1.99940     4.65953    0.01110     6.67002
      O    7   -0.55052      1.99969     6.53983    0.01100     8.55052
      C    8    0.29861      1.99869     3.68097    0.02173     5.70139
      C    9   -0.26104      1.99899     4.24828    0.01377     6.26104
      C   10   -0.21671      1.99905     4.20482    0.01284     6.21671
      C   11   -0.03624      1.99897     4.02255    0.01473     6.03624
      C   12   -0.01954      1.99898     4.00623    0.01433     6.01954
      C   13   -0.24918      1.99894     4.23781    0.01244     6.24918
      C   14   -0.46317      1.99927     4.45203    0.01187     6.46317
      C   15   -0.45475      1.99930     4.44233    0.01313     6.45475
      C   16   -0.24981      1.99919     4.23551    0.01511     6.24981
      C   17   -0.26380      1.99917     4.24943    0.01520     6.26380
      C   18   -0.45101      1.99930     4.43939    0.01231     6.45101
      C   19   -0.45505      1.99924     4.44123    0.01458     6.45505
      C   20   -0.07672      1.99903     4.06078    0.01691     6.07672
      C   21   -0.23793      1.99914     4.22280    0.01599     6.23793
      C   22   -0.45514      1.99932     4.44317    0.01265     6.45514
      C   23   -0.46941      1.99923     4.45912    0.01106     6.46941
      C   24    0.27850      1.99924     3.68179    0.04047     5.72150
      O   25   -0.32321      1.99980     6.30302    0.02039     8.32321
      C   26   -0.66650      1.99935     4.65649    0.01065     6.66650
      H   27    0.24314      0.00000     0.75572    0.00114     0.75686
      H   28    0.23602      0.00000     0.76307    0.00091     0.76398
      H   29    0.23432      0.00000     0.76465    0.00104     0.76568
      H   30    0.24503      0.00000     0.75391    0.00106     0.75497
      H   31    0.23451      0.00000     0.76443    0.00105     0.76549
      H   32    0.23525      0.00000     0.76383    0.00092     0.76475
      H   33    0.24303      0.00000     0.75592    0.00105     0.75697
      H   34    0.24217      0.00000     0.75678    0.00105     0.75783
      H   35    0.22963      0.00000     0.76946    0.00091     0.77037
      H   36    0.24533      0.00000     0.75350    0.00117     0.75467
      H   37    0.23439      0.00000     0.76460    0.00101     0.76561
      H   38    0.25079      0.00000     0.74804    0.00118     0.74921
      H   39    0.24712      0.00000     0.75166    0.00122     0.75288
      H   40    0.24441      0.00000     0.75393    0.00166     0.75559
      H   41    0.23539      0.00000     0.76311    0.00150     0.76461
      H   42    0.23621      0.00000     0.76214    0.00165     0.76379
      H   43    0.24648      0.00000     0.75140    0.00211     0.75352
      H   44    0.25626      0.00000     0.74203    0.00171     0.74374
      H   45    0.23021      0.00000     0.76832    0.00147     0.76979
      H   46    0.24804      0.00000     0.75069    0.00127     0.75196
      H   47    0.24630      0.00000     0.75227    0.00143     0.75370
      H   48    0.24474      0.00000     0.75374    0.00152     0.75526
      H   49    0.25073      0.00000     0.74707    0.00219     0.74927
      H   50    0.24399      0.00000     0.75461    0.00139     0.75601
      H   51    0.24295      0.00000     0.75581    0.00124     0.75705
      H   52    0.23176      0.00000     0.76325    0.00499     0.76824
      H   53    0.23671      0.00000     0.75871    0.00458     0.76329
      H   54    0.22537      0.00000     0.77272    0.00191     0.77463
      H   55    0.24194      0.00000     0.75690    0.00116     0.75806
      H   56    0.23289      0.00000     0.76625    0.00086     0.76711
 =======================================================================
   * Total *    0.00000     51.98015   139.55068    0.46917   192.00000

                                 Natural Population      
 --------------------------------------------------------
   Core                      51.98015 ( 99.9618% of  52)
   Valence                  139.55068 ( 99.6791% of 140)
   Natural Minimal Basis    191.53083 ( 99.7556% of 192)
   Natural Rydberg Basis      0.46917 (  0.2444% of 192)
 --------------------------------------------------------

    Atom  No          Natural Electron Configuration
 ----------------------------------------------------------------------------
      O    1      [core]2S( 1.70)2p( 4.86)3d( 0.02)
      C    2      [core]2S( 0.78)2p( 2.32)3S( 0.01)3p( 0.03)3d( 0.01)
      C    3      [core]2S( 0.94)2p( 3.20)3p( 0.01)
      C    4      [core]2S( 1.10)2p( 3.56)3p( 0.01)
      C    5      [core]2S( 1.10)2p( 3.56)3p( 0.01)
      C    6      [core]2S( 1.09)2p( 3.57)3p( 0.01)
      O    7      [core]2S( 1.59)2p( 4.95)3d( 0.01)
      C    8      [core]2S( 0.83)2p( 2.85)3p( 0.01)3d( 0.01)
      C    9      [core]2S( 0.96)2p( 3.29)3p( 0.01)
      C   10      [core]2S( 0.94)2p( 3.26)3p( 0.01)
      C   11      [core]2S( 0.86)2p( 3.16)3p( 0.01)
      C   12      [core]2S( 0.87)2p( 3.14)3p( 0.01)
      C   13      [core]2S( 0.95)2p( 3.29)3p( 0.01)
      C   14      [core]2S( 1.02)2p( 3.43)3p( 0.01)
      C   15      [core]2S( 1.02)2p( 3.42)3p( 0.01)
      C   16      [core]2S( 0.95)2p( 3.28)3p( 0.01)
      C   17      [core]2S( 0.96)2p( 3.29)3p( 0.01)
      C   18      [core]2S( 1.03)2p( 3.41)3p( 0.01)
      C   19      [core]2S( 1.02)2p( 3.42)3p( 0.01)
      C   20      [core]2S( 0.93)2p( 3.13)3p( 0.01)
      C   21      [core]2S( 0.96)2p( 3.27)3p( 0.01)
      C   22      [core]2S( 1.03)2p( 3.41)3p( 0.01)
      C   23      [core]2S( 1.06)2p( 3.40)3p( 0.01)
      C   24      [core]2S( 0.82)2p( 2.86)3S( 0.01)3p( 0.03)3d( 0.01)
      O   25      [core]2S( 1.69)2p( 4.61)3p( 0.01)3d( 0.01)
      C   26      [core]2S( 1.10)2p( 3.56)3p( 0.01)
      H   27            1S( 0.76)
      H   28            1S( 0.76)
      H   29            1S( 0.76)
      H   30            1S( 0.75)
      H   31            1S( 0.76)
      H   32            1S( 0.76)
      H   33            1S( 0.76)
      H   34            1S( 0.76)
      H   35            1S( 0.77)
      H   36            1S( 0.75)
      H   37            1S( 0.76)
      H   38            1S( 0.75)
      H   39            1S( 0.75)
      H   40            1S( 0.75)
      H   41            1S( 0.76)
      H   42            1S( 0.76)
      H   43            1S( 0.75)
      H   44            1S( 0.74)
      H   45            1S( 0.77)
      H   46            1S( 0.75)
      H   47            1S( 0.75)
      H   48            1S( 0.75)
      H   49            1S( 0.75)
      H   50            1S( 0.75)
      H   51            1S( 0.76)
      H   52            1S( 0.76)
      H   53            1S( 0.76)
      H   54            1S( 0.77)
      H   55            1S( 0.76)
      H   56            1S( 0.77)


 NBO analysis skipped by request.
 Leave Link  607 at Thu Sep 30 07:23:58 2021, MaxMem= 2415919104 cpu:      52.9
 (Enter /sw/target/amd/app/gaussian/Gaussian09RevA.02_gcc-4.9.2/g09/l9999.exe)
 1\1\GINC-HERMITE\SP\RTD-B3LYP-FC\6-31G(d)\C23H30O3\JSCHLEINITZ\30-Sep-
 2021\0\\#p TD(NStates=10, Root=1) b3lyp/6-31G* volume pop=NPA density=
 current Geom=AllCheck Guess=Read\\O=C(C(C)(C)C)Oc1ccc2c(c1)CCC1C2CC[C@
 ]2(C1CCC2=O)C_conf_0\\0,1\O,0,3.3812065193,1.011999922,-4.2155196082\C
 ,0,2.845072599,0.7167724547,-3.1749110971\C,0,1.3347342456,0.585874695
 3,-2.9482295161\C,0,1.0140687568,-0.8556661145,-2.4933223537\C,0,0.900
 7915586,1.5870329472,-1.8538559205\C,0,0.6126667989,0.8975031657,-4.26
 84879453\O,0,3.5285265456,0.4460327406,-2.0161936933\C,0,4.92480001,0.
 4886145508,-1.9759929617\C,0,5.5602883556,-0.5867198426,-1.3578024496\
 C,0,6.9418687289,-0.5554281445,-1.2108559555\C,0,7.7138851296,0.525001
 8124,-1.6694391649\C,0,7.0544797015,1.5907870431,-2.3047436944\C,0,5.6
 590107029,1.5709227096,-2.4429703889\C,0,7.8319522191,2.7561574045,-2.
 8778329363\C,0,9.1888503638,2.9494275679,-2.1974393141\C,0,9.987518917
 7,1.6320163404,-2.2003275082\C,0,9.2301549469,0.4739562627,-1.48049777
 61\C,0,9.6410100017,0.3335255757,0.025990279\C,0,10.2281376426,1.61108
 23678,0.6359245487\C,0,11.494422892,2.0553863331,-0.1311437741\C,0,11.
 4319888896,1.7334879888,-1.6537366135\C,0,12.3037871779,2.8326612574,-
 2.3339649716\C,0,12.2490741721,4.0725824358,-1.4206825766\C,0,11.71133
 43109,3.5756378953,-0.0751077555\O,0,11.4886480709,4.2737180579,0.8915
 19421\C,0,12.7534464778,1.4129299953,0.5026554568\H,0,1.5118058347,-1.
 0960757699,-1.5499121658\H,0,1.3285668145,-1.5882476859,-3.2456741539\
 H,0,-0.0672651156,-0.9644816216,-2.3504993929\H,0,1.4042285916,1.38436
 83401,-0.90455376\H,0,-0.1809644987,1.5106430304,-1.6944151306\H,0,1.1
 241920848,2.6189137397,-2.1488854562\H,0,0.9171123955,0.2063424589,-5.
 0601614357\H,0,0.835158766,1.9120666702,-4.6126560835\H,0,-0.470503696
 4,0.8089198139,-4.1278536251\H,0,4.9705804991,-1.4247833173,-0.9999937
 279\H,0,7.4365715297,-1.3976053809,-0.7322566491\H,0,5.1549762948,2.39
 89605189,-2.9281687581\H,0,7.2348296149,3.6735371678,-2.806019195\H,0,
 7.991783716,2.5847556471,-3.9535841486\H,0,9.0311773758,3.3209784153,-
 1.1784446346\H,0,9.7461136761,3.725850719,-2.7340156594\H,0,10.0781975
 024,1.3443993041,-3.2589436827\H,0,9.5631491487,-0.4525383386,-1.96902
 95495\H,0,10.385641563,-0.4684719203,0.1155718949\H,0,8.7779436875,0.0
 111023149,0.6172162058\H,0,10.476405269,1.4399418176,1.6896589155\H,0,
 9.4798493851,2.4103479695,0.6368053916\H,0,11.892965474,0.7530095099,-
 1.8333505434\H,0,11.9622496393,3.0452584777,-3.3527003434\H,0,13.33611
 21199,2.4771516413,-2.4219849914\H,0,11.5695825565,4.8501604752,-1.788
 7028622\H,0,13.2202723132,4.5593572687,-1.2759620275\H,0,12.6485353274
 ,0.3216922441,0.5278776078\H,0,12.8882858078,1.7708562906,1.5288377881
 \H,0,13.664890457,1.6443248272,-0.0611950715\\Version=AM64L-G09RevA.02
 \State=1-A\HF=-1120.2199048\RMSD=6.872e-09\Dipole=0.0826931,-0.6442928
 ,-0.0871397\Quadrupole=11.0284354,-1.3413829,-9.6870524,-2.7743829,-8.
 2399449,-6.9581118\PG=C01 [X(C23H30O3)]\\@


 ... FOR AFTERWARDS A MAN FINDS PLEASURE IN HIS PAINS,
 WHEN HE HAS SUFFERED LONG AND WANDERED FAR.

                                    -- HOMER
 Job cpu time:  0 days 16 hours 27 minutes 24.6 seconds.
 File lengths (MBytes):  RWF=    659 Int=      0 D2E=      0 Chk=     91 Scr=      1
 Normal termination of Gaussian 09 at Thu Sep 30 07:24:10 2021.
