 Entering Gaussian System, Link 0=g09
 Input=C23H32N2O3_ffa0_conf_0.com
 Output=C23H32N2O3_ffa0_conf_0.log
 Initial command:
 /sw/target/amd/app/gaussian/Gaussian09RevA.02_gcc-4.9.2/g09/l1.exe /home/jschleinitz/gaussian/Gau-36341.inp -scrdir=/home/jschleinitz/gaussian/
 Entering Link 1 = /sw/target/amd/app/gaussian/Gaussian09RevA.02_gcc-4.9.2/g09/l1.exe PID=     36343.
  
 Copyright (c) 1988,1990,1992,1993,1995,1998,2003,2009, Gaussian, Inc.
                  All Rights Reserved.
  
 This is part of the Gaussian(R) 09 program.  It is based on
 the Gaussian(R) 03 system (copyright 2003, Gaussian, Inc.),
 the Gaussian(R) 98 system (copyright 1998, Gaussian, Inc.),
 the Gaussian(R) 94 system (copyright 1995, Gaussian, Inc.),
 the Gaussian 92(TM) system (copyright 1992, Gaussian, Inc.),
 the Gaussian 90(TM) system (copyright 1990, Gaussian, Inc.),
 the Gaussian 88(TM) system (copyright 1988, Gaussian, Inc.),
 the Gaussian 86(TM) system (copyright 1986, Carnegie Mellon
 University), and the Gaussian 82(TM) system (copyright 1983,
 Carnegie Mellon University). Gaussian is a federally registered
 trademark of Gaussian, Inc.
  
 This software contains proprietary and confidential information,
 including trade secrets, belonging to Gaussian, Inc.
  
 This software is provided under written license and may be
 used, copied, transmitted, or stored only in accord with that
 written license.
  
 The following legend is applicable only to US Government
 contracts under FAR:
  
                    RESTRICTED RIGHTS LEGEND
  
 Use, reproduction and disclosure by the US Government is
 subject to restrictions as set forth in subparagraphs (a)
 and (c) of the Commercial Computer Software - Restricted
 Rights clause in FAR 52.227-19.
  
 Gaussian, Inc.
 340 Quinnipiac St., Bldg. 40, Wallingford CT 06492
  
  
 ---------------------------------------------------------------
 Warning -- This program may not be used in any manner that
 competes with the business of Gaussian, Inc. or will provide
 assistance to any competitor of Gaussian, Inc.  The licensee
 of this program is prohibited from giving any competitor of
 Gaussian, Inc. access to this program.  By using this program,
 the user acknowledges that Gaussian, Inc. is engaged in the
 business of creating and licensing software in the field of
 computational chemistry and represents and warrants to the
 licensee that it is not a competitor of Gaussian, Inc. and that
 it will not use this program in any manner prohibited above.
 ---------------------------------------------------------------
  

 Cite this work as:
 Gaussian 09, Revision A.02,
 M. J. Frisch, G. W. Trucks, H. B. Schlegel, G. E. Scuseria, 
 M. A. Robb, J. R. Cheeseman, G. Scalmani, V. Barone, B. Mennucci, 
 G. A. Petersson, H. Nakatsuji, M. Caricato, X. Li, H. P. Hratchian, 
 A. F. Izmaylov, J. Bloino, G. Zheng, J. L. Sonnenberg, M. Hada, 
 M. Ehara, K. Toyota, R. Fukuda, J. Hasegawa, M. Ishida, T. Nakajima, 
 Y. Honda, O. Kitao, H. Nakai, T. Vreven, J. A. Montgomery, Jr., 
 J. E. Peralta, F. Ogliaro, M. Bearpark, J. J. Heyd, E. Brothers, 
 K. N. Kudin, V. N. Staroverov, R. Kobayashi, J. Normand, 
 K. Raghavachari, A. Rendell, J. C. Burant, S. S. Iyengar, J. Tomasi, 
 M. Cossi, N. Rega, J. M. Millam, M. Klene, J. E. Knox, J. B. Cross, 
 V. Bakken, C. Adamo, J. Jaramillo, R. Gomperts, R. E. Stratmann, 
 O. Yazyev, A. J. Austin, R. Cammi, C. Pomelli, J. W. Ochterski, 
 R. L. Martin, K. Morokuma, V. G. Zakrzewski, G. A. Voth, 
 P. Salvador, J. J. Dannenberg, S. Dapprich, A. D. Daniels, 
 O. Farkas, J. B. Foresman, J. V. Ortiz, J. Cioslowski, 
 and D. J. Fox, Gaussian, Inc., Wallingford CT, 2009.
 
 ******************************************
 Gaussian 09:  AM64L-G09RevA.02 11-Jun-2009
                30-Sep-2021 
 ******************************************
 %nproc=10
 Will use up to   10 processors via shared memory.
 %mem=20gb
 %chk=C23H32N2O3_ffa0_conf_0.chk
 -----------------------------------
 #p opt b3lyp/6-31G* scf=(xqc,tight)
 -----------------------------------
 1/14=-1,18=20,19=15,26=3,38=1/1,3;
 2/9=110,12=2,17=6,18=5,40=1/2;
 3/5=1,6=6,7=1,11=2,16=1,25=1,30=1,71=1,74=-5/1,2,3;
 4//1;
 5/5=2,8=3,13=1,32=2,38=5/2,8;
 6/7=2,8=2,9=2,10=2,28=1/1;
 7//1,2,3,16;
 1/14=-1,18=20,19=15/3(2);
 2/9=110/2;
 99//99;
 2/9=110/2;
 3/5=1,6=6,7=1,11=2,16=1,25=1,30=1,71=1,74=-5/1,2,3;
 4/5=5,16=3/1;
 5/5=2,8=3,13=1,32=2,38=5/2,8;
 7//1,2,3,16;
 1/14=-1,18=20,19=15/3(-5);
 2/9=110/2;
 6/7=2,8=2,9=2,10=2,19=2,28=1/1;
 99/9=1/99;
 Leave Link    1 at Thu Sep 30 19:13:50 2021, MaxMem= 2684354560 cpu:       0.1
 (Enter /sw/target/amd/app/gaussian/Gaussian09RevA.02_gcc-4.9.2/g09/l101.exe)
 ----------------------------------------------------
 COCO[C@@H](c1ccnc2c1cc(OC)cc2)C1CC2CCN1CC2CCC_conf_0
 ----------------------------------------------------
 Symbolic Z-matrix:
 Charge =  0 Multiplicity = 1
 C                     8.15585  -4.12155   5.76526 
 O                     6.99088  -3.43467   5.32401 
 C                     7.08774  -2.03073   5.52282 
 O                     7.29817  -1.67571   6.87799 
 C                     6.10496  -1.55406   7.67633 
 C                     5.98407  -2.85737   8.48295 
 C                     6.69697  -2.98386   9.68898 
 C                     6.68973  -4.18815   10.3608 
 N                     6.06705  -5.28829   9.91329 
 C                     5.40882  -5.20815   8.75132 
 C                     5.28925  -4.00957   7.99401 
 C                     4.527    -4.07601   6.7934 
 C                     4.00031  -5.279     6.31337 
 O                     3.31499  -5.45416   5.14391 
 C                     3.464    -4.43704   4.16138 
 C                     4.16338  -6.43319   7.06597 
 C                     4.85104  -6.38177   8.27462 
 C                     6.31441  -0.23896   8.53045 
 C                     5.21612   0.01457   9.58527 
 C                     4.88918   1.51931   9.66214 
 C                     4.24818   1.8453    8.29645 
 C                     5.26721   1.53895   7.18588 
 N                     6.5393    1.00845   7.72034 
 C                     7.13855   2.01571   8.63443 
 C                     6.1498    2.41793   9.75158 
 C                     6.79539   2.58644   11.14 
 C                     7.31785   1.33381   11.83959 
 C                     8.04916   1.68788   13.12922 
 H                     8.34948  -3.94016   6.82698 
 H                     9.02257  -3.82092   5.17053 
 H                     7.99288  -5.19484   5.63238 
 H                     6.18263  -1.55988   5.12231 
 H                     7.92901  -1.65198   4.9328 
 H                     5.21368  -1.40138   7.0597 
 H                     7.28635  -2.179     10.10768 
 H                     7.22595  -4.308     11.29684 
 H                     4.38912  -3.17649   6.20497 
 H                     3.03973  -4.81432   3.22497 
 H                     4.51727  -4.20228   3.97527 
 H                     2.90263  -3.54229   4.44568 
 H                     3.77159  -7.38102   6.70638 
 H                     4.97973  -7.29688   8.85166 
 H                     7.2647   -0.38958   9.05876 
 H                     5.53725  -0.36325   10.55812 
 H                     4.30212  -0.53825   9.33229 
 H                     4.18622   1.73206   10.47401 
 H                     3.94878   2.89976   8.25555 
 H                     3.33943   1.2501    8.14877 
 H                     5.46875   2.45261   6.61164 
 H                     4.83674   0.83481   6.46503 
 H                     7.41887   2.9048    8.05438 
 H                     8.08469   1.63739   9.04002 
 H                     5.8137    3.43653   9.49986 
 H                     6.0623    3.06818   11.80054 
 H                     7.62302   3.30201   11.03908 
 H                     7.99826   0.77738   11.18798 
 H                     6.48561   0.67637   12.10277 
 H                     8.90636   2.33957   12.93246 
 H                     8.41763   0.7802    13.61772 
 H                     7.38131   2.20075   13.82934 
 
 NAtoms=     60 NQM=     60 NQMF=      0 NMic=      0 NMicF=      0 NTot=     60.
                    Isotopes and Nuclear Properties:
 (Nuclear quadrupole moments (NQMom) in fm**2, nuclear magnetic moments (NMagM)
  in nuclear magnetons)

  Atom         1           2           3           4           5           6           7           8           9          10
 IAtWgt=          12          16          12          16          12          12          12          12          14          12
 AtmWgt=  12.0000000  15.9949146  12.0000000  15.9949146  12.0000000  12.0000000  12.0000000  12.0000000  14.0030740  12.0000000
 NucSpn=           0           0           0           0           0           0           0           0           2           0
 AtZEff=   0.0000000   0.0000000   0.0000000   0.0000000   0.0000000   0.0000000   0.0000000   0.0000000   0.0000000   0.0000000
 NQMom=    0.0000000   0.0000000   0.0000000   0.0000000   0.0000000   0.0000000   0.0000000   0.0000000   2.0440000   0.0000000
 NMagM=    0.0000000   0.0000000   0.0000000   0.0000000   0.0000000   0.0000000   0.0000000   0.0000000   0.4037610   0.0000000

  Atom        11          12          13          14          15          16          17          18          19          20
 IAtWgt=          12          12          12          16          12          12          12          12          12          12
 AtmWgt=  12.0000000  12.0000000  12.0000000  15.9949146  12.0000000  12.0000000  12.0000000  12.0000000  12.0000000  12.0000000
 NucSpn=           0           0           0           0           0           0           0           0           0           0
 AtZEff=   0.0000000   0.0000000   0.0000000   0.0000000   0.0000000   0.0000000   0.0000000   0.0000000   0.0000000   0.0000000
 NQMom=    0.0000000   0.0000000   0.0000000   0.0000000   0.0000000   0.0000000   0.0000000   0.0000000   0.0000000   0.0000000
 NMagM=    0.0000000   0.0000000   0.0000000   0.0000000   0.0000000   0.0000000   0.0000000   0.0000000   0.0000000   0.0000000

  Atom        21          22          23          24          25          26          27          28          29          30
 IAtWgt=          12          12          14          12          12          12          12          12           1           1
 AtmWgt=  12.0000000  12.0000000  14.0030740  12.0000000  12.0000000  12.0000000  12.0000000  12.0000000   1.0078250   1.0078250
 NucSpn=           0           0           2           0           0           0           0           0           1           1
 AtZEff=   0.0000000   0.0000000   0.0000000   0.0000000   0.0000000   0.0000000   0.0000000   0.0000000   0.0000000   0.0000000
 NQMom=    0.0000000   0.0000000   2.0440000   0.0000000   0.0000000   0.0000000   0.0000000   0.0000000   0.0000000   0.0000000
 NMagM=    0.0000000   0.0000000   0.4037610   0.0000000   0.0000000   0.0000000   0.0000000   0.0000000   2.7928460   2.7928460

  Atom        31          32          33          34          35          36          37          38          39          40
 IAtWgt=           1           1           1           1           1           1           1           1           1           1
 AtmWgt=   1.0078250   1.0078250   1.0078250   1.0078250   1.0078250   1.0078250   1.0078250   1.0078250   1.0078250   1.0078250
 NucSpn=           1           1           1           1           1           1           1           1           1           1
 AtZEff=   0.0000000   0.0000000   0.0000000   0.0000000   0.0000000   0.0000000   0.0000000   0.0000000   0.0000000   0.0000000
 NQMom=    0.0000000   0.0000000   0.0000000   0.0000000   0.0000000   0.0000000   0.0000000   0.0000000   0.0000000   0.0000000
 NMagM=    2.7928460   2.7928460   2.7928460   2.7928460   2.7928460   2.7928460   2.7928460   2.7928460   2.7928460   2.7928460

  Atom        41          42          43          44          45          46          47          48          49          50
 IAtWgt=           1           1           1           1           1           1           1           1           1           1
 AtmWgt=   1.0078250   1.0078250   1.0078250   1.0078250   1.0078250   1.0078250   1.0078250   1.0078250   1.0078250   1.0078250
 NucSpn=           1           1           1           1           1           1           1           1           1           1
 AtZEff=   0.0000000   0.0000000   0.0000000   0.0000000   0.0000000   0.0000000   0.0000000   0.0000000   0.0000000   0.0000000
 NQMom=    0.0000000   0.0000000   0.0000000   0.0000000   0.0000000   0.0000000   0.0000000   0.0000000   0.0000000   0.0000000
 NMagM=    2.7928460   2.7928460   2.7928460   2.7928460   2.7928460   2.7928460   2.7928460   2.7928460   2.7928460   2.7928460

  Atom        51          52          53          54          55          56          57          58          59          60
 IAtWgt=           1           1           1           1           1           1           1           1           1           1
 AtmWgt=   1.0078250   1.0078250   1.0078250   1.0078250   1.0078250   1.0078250   1.0078250   1.0078250   1.0078250   1.0078250
 NucSpn=           1           1           1           1           1           1           1           1           1           1
 AtZEff=   0.0000000   0.0000000   0.0000000   0.0000000   0.0000000   0.0000000   0.0000000   0.0000000   0.0000000   0.0000000
 NQMom=    0.0000000   0.0000000   0.0000000   0.0000000   0.0000000   0.0000000   0.0000000   0.0000000   0.0000000   0.0000000
 NMagM=    2.7928460   2.7928460   2.7928460   2.7928460   2.7928460   2.7928460   2.7928460   2.7928460   2.7928460   2.7928460
 Leave Link  101 at Thu Sep 30 19:13:51 2021, MaxMem= 2684354560 cpu:       0.2
 (Enter /sw/target/amd/app/gaussian/Gaussian09RevA.02_gcc-4.9.2/g09/l103.exe)

 GradGradGradGradGradGradGradGradGradGradGradGradGradGradGradGradGradGrad
 Berny optimization.
 Initialization pass.
                           ----------------------------
                           !    Initial Parameters    !
                           ! (Angstroms and Degrees)  !
 --------------------------                            --------------------------
 ! Name  Definition              Value          Derivative Info.                !
 --------------------------------------------------------------------------------
 ! R1    R(1,2)                  1.4226         estimate D2E/DX2                !
 ! R2    R(1,29)                 1.0944         estimate D2E/DX2                !
 ! R3    R(1,30)                 1.0933         estimate D2E/DX2                !
 ! R4    R(1,31)                 1.0937         estimate D2E/DX2                !
 ! R5    R(2,3)                  1.4212         estimate D2E/DX2                !
 ! R6    R(3,4)                  1.4166         estimate D2E/DX2                !
 ! R7    R(3,32)                 1.0961         estimate D2E/DX2                !
 ! R8    R(3,33)                 1.0951         estimate D2E/DX2                !
 ! R9    R(4,5)                  1.4408         estimate D2E/DX2                !
 ! R10   R(5,6)                  1.5375         estimate D2E/DX2                !
 ! R11   R(5,18)                 1.5821         estimate D2E/DX2                !
 ! R12   R(5,34)                 1.0945         estimate D2E/DX2                !
 ! R13   R(6,7)                  1.4067         estimate D2E/DX2                !
 ! R14   R(6,11)                 1.4316         estimate D2E/DX2                !
 ! R15   R(7,8)                  1.379          estimate D2E/DX2                !
 ! R16   R(7,35)                 1.0819         estimate D2E/DX2                !
 ! R17   R(8,9)                  1.341          estimate D2E/DX2                !
 ! R18   R(8,36)                 1.0854         estimate D2E/DX2                !
 ! R19   R(9,10)                 1.3379         estimate D2E/DX2                !
 ! R20   R(10,11)                1.4228         estimate D2E/DX2                !
 ! R21   R(10,17)                1.3841         estimate D2E/DX2                !
 ! R22   R(11,12)                1.4237         estimate D2E/DX2                !
 ! R23   R(12,13)                1.3982         estimate D2E/DX2                !
 ! R24   R(12,37)                1.0837         estimate D2E/DX2                !
 ! R25   R(13,14)                1.3667         estimate D2E/DX2                !
 ! R26   R(13,16)                1.3875         estimate D2E/DX2                !
 ! R27   R(14,15)                1.422          estimate D2E/DX2                !
 ! R28   R(15,38)                1.0951         estimate D2E/DX2                !
 ! R29   R(15,39)                1.0951         estimate D2E/DX2                !
 ! R30   R(15,40)                1.0939         estimate D2E/DX2                !
 ! R31   R(16,17)                1.3915         estimate D2E/DX2                !
 ! R32   R(16,41)                1.0868         estimate D2E/DX2                !
 ! R33   R(17,42)                1.0895         estimate D2E/DX2                !
 ! R34   R(18,19)                1.5438         estimate D2E/DX2                !
 ! R35   R(18,23)                1.5043         estimate D2E/DX2                !
 ! R36   R(18,43)                1.0976         estimate D2E/DX2                !
 ! R37   R(19,20)                1.5418         estimate D2E/DX2                !
 ! R38   R(19,44)                1.0919         estimate D2E/DX2                !
 ! R39   R(19,45)                1.0977         estimate D2E/DX2                !
 ! R40   R(20,21)                1.5435         estimate D2E/DX2                !
 ! R41   R(20,25)                1.5507         estimate D2E/DX2                !
 ! R42   R(20,46)                1.0948         estimate D2E/DX2                !
 ! R43   R(21,22)                1.5381         estimate D2E/DX2                !
 ! R44   R(21,47)                1.0969         estimate D2E/DX2                !
 ! R45   R(21,48)                1.0963         estimate D2E/DX2                !
 ! R46   R(22,23)                1.4783         estimate D2E/DX2                !
 ! R47   R(22,49)                1.0978         estimate D2E/DX2                !
 ! R48   R(22,50)                1.0958         estimate D2E/DX2                !
 ! R49   R(23,24)                1.4863         estimate D2E/DX2                !
 ! R50   R(24,25)                1.5451         estimate D2E/DX2                !
 ! R51   R(24,51)                1.098          estimate D2E/DX2                !
 ! R52   R(24,52)                1.0967         estimate D2E/DX2                !
 ! R53   R(25,26)                1.5404         estimate D2E/DX2                !
 ! R54   R(25,53)                1.1018         estimate D2E/DX2                !
 ! R55   R(26,27)                1.5269         estimate D2E/DX2                !
 ! R56   R(26,54)                1.0981         estimate D2E/DX2                !
 ! R57   R(26,55)                1.0987         estimate D2E/DX2                !
 ! R58   R(27,28)                1.5242         estimate D2E/DX2                !
 ! R59   R(27,56)                1.0941         estimate D2E/DX2                !
 ! R60   R(27,57)                1.0928         estimate D2E/DX2                !
 ! R61   R(28,58)                1.0946         estimate D2E/DX2                !
 ! R62   R(28,59)                1.0947         estimate D2E/DX2                !
 ! R63   R(28,60)                1.0951         estimate D2E/DX2                !
 ! A1    A(2,1,29)             111.4567         estimate D2E/DX2                !
 ! A2    A(2,1,30)             110.3472         estimate D2E/DX2                !
 ! A3    A(2,1,31)             108.3081         estimate D2E/DX2                !
 ! A4    A(29,1,30)            109.9936         estimate D2E/DX2                !
 ! A5    A(29,1,31)            107.8718         estimate D2E/DX2                !
 ! A6    A(30,1,31)            108.7766         estimate D2E/DX2                !
 ! A7    A(1,2,3)              112.1953         estimate D2E/DX2                !
 ! A8    A(2,3,4)              113.0476         estimate D2E/DX2                !
 ! A9    A(2,3,32)             108.4792         estimate D2E/DX2                !
 ! A10   A(2,3,33)             108.5803         estimate D2E/DX2                !
 ! A11   A(4,3,32)             111.3804         estimate D2E/DX2                !
 ! A12   A(4,3,33)             108.3375         estimate D2E/DX2                !
 ! A13   A(32,3,33)            106.7937         estimate D2E/DX2                !
 ! A14   A(3,4,5)              115.354          estimate D2E/DX2                !
 ! A15   A(4,5,6)              106.5136         estimate D2E/DX2                !
 ! A16   A(4,5,18)             105.0516         estimate D2E/DX2                !
 ! A17   A(4,5,34)             111.9622         estimate D2E/DX2                !
 ! A18   A(6,5,18)             115.5831         estimate D2E/DX2                !
 ! A19   A(6,5,34)             110.4751         estimate D2E/DX2                !
 ! A20   A(18,5,34)            107.2187         estimate D2E/DX2                !
 ! A21   A(5,6,7)              119.0899         estimate D2E/DX2                !
 ! A22   A(5,6,11)             122.7681         estimate D2E/DX2                !
 ! A23   A(7,6,11)             117.8024         estimate D2E/DX2                !
 ! A24   A(6,7,8)              119.574          estimate D2E/DX2                !
 ! A25   A(6,7,35)             122.7518         estimate D2E/DX2                !
 ! A26   A(8,7,35)             117.6454         estimate D2E/DX2                !
 ! A27   A(7,8,9)              123.8003         estimate D2E/DX2                !
 ! A28   A(7,8,36)             120.9286         estimate D2E/DX2                !
 ! A29   A(9,8,36)             115.2522         estimate D2E/DX2                !
 ! A30   A(8,9,10)             117.9793         estimate D2E/DX2                !
 ! A31   A(9,10,11)            123.648          estimate D2E/DX2                !
 ! A32   A(9,10,17)            116.5267         estimate D2E/DX2                !
 ! A33   A(11,10,17)           119.809          estimate D2E/DX2                !
 ! A34   A(6,11,10)            117.0926         estimate D2E/DX2                !
 ! A35   A(6,11,12)            125.8343         estimate D2E/DX2                !
 ! A36   A(10,11,12)           117.0352         estimate D2E/DX2                !
 ! A37   A(11,12,13)           122.0967         estimate D2E/DX2                !
 ! A38   A(11,12,37)           119.1622         estimate D2E/DX2                !
 ! A39   A(13,12,37)           118.6732         estimate D2E/DX2                !
 ! A40   A(12,13,14)           126.3631         estimate D2E/DX2                !
 ! A41   A(12,13,16)           119.0263         estimate D2E/DX2                !
 ! A42   A(14,13,16)           114.6105         estimate D2E/DX2                !
 ! A43   A(13,14,15)           116.5515         estimate D2E/DX2                !
 ! A44   A(14,15,38)           107.6864         estimate D2E/DX2                !
 ! A45   A(14,15,39)           111.8121         estimate D2E/DX2                !
 ! A46   A(14,15,40)           110.5923         estimate D2E/DX2                !
 ! A47   A(38,15,39)           107.5281         estimate D2E/DX2                !
 ! A48   A(38,15,40)           107.7719         estimate D2E/DX2                !
 ! A49   A(39,15,40)           111.2496         estimate D2E/DX2                !
 ! A50   A(13,16,17)           119.899          estimate D2E/DX2                !
 ! A51   A(13,16,41)           120.2404         estimate D2E/DX2                !
 ! A52   A(17,16,41)           119.8513         estimate D2E/DX2                !
 ! A53   A(10,17,16)           121.9803         estimate D2E/DX2                !
 ! A54   A(10,17,42)           118.8289         estimate D2E/DX2                !
 ! A55   A(16,17,42)           119.1685         estimate D2E/DX2                !
 ! A56   A(5,18,19)            114.2816         estimate D2E/DX2                !
 ! A57   A(5,18,23)            114.7311         estimate D2E/DX2                !
 ! A58   A(5,18,43)            105.0937         estimate D2E/DX2                !
 ! A59   A(19,18,23)           109.7637         estimate D2E/DX2                !
 ! A60   A(19,18,43)           108.0351         estimate D2E/DX2                !
 ! A61   A(23,18,43)           104.097          estimate D2E/DX2                !
 ! A62   A(18,19,20)           110.1949         estimate D2E/DX2                !
 ! A63   A(18,19,44)           110.042          estimate D2E/DX2                !
 ! A64   A(18,19,45)           110.6216         estimate D2E/DX2                !
 ! A65   A(20,19,44)           110.8334         estimate D2E/DX2                !
 ! A66   A(20,19,45)           109.0526         estimate D2E/DX2                !
 ! A67   A(44,19,45)           106.0184         estimate D2E/DX2                !
 ! A68   A(19,20,21)           104.4828         estimate D2E/DX2                !
 ! A69   A(19,20,25)           113.3329         estimate D2E/DX2                !
 ! A70   A(19,20,46)           111.272          estimate D2E/DX2                !
 ! A71   A(21,20,25)           105.4414         estimate D2E/DX2                !
 ! A72   A(21,20,46)           110.3929         estimate D2E/DX2                !
 ! A73   A(25,20,46)           111.5059         estimate D2E/DX2                !
 ! A74   A(20,21,22)           108.7642         estimate D2E/DX2                !
 ! A75   A(20,21,47)           110.4496         estimate D2E/DX2                !
 ! A76   A(20,21,48)           110.4129         estimate D2E/DX2                !
 ! A77   A(22,21,47)           110.2057         estimate D2E/DX2                !
 ! A78   A(22,21,48)           110.1077         estimate D2E/DX2                !
 ! A79   A(47,21,48)           106.895          estimate D2E/DX2                !
 ! A80   A(21,22,23)           112.3678         estimate D2E/DX2                !
 ! A81   A(21,22,49)           109.4853         estimate D2E/DX2                !
 ! A82   A(21,22,50)           110.0424         estimate D2E/DX2                !
 ! A83   A(23,22,49)           109.2574         estimate D2E/DX2                !
 ! A84   A(23,22,50)           110.1992         estimate D2E/DX2                !
 ! A85   A(49,22,50)           105.2376         estimate D2E/DX2                !
 ! A86   A(18,23,22)           111.3242         estimate D2E/DX2                !
 ! A87   A(18,23,24)           106.9198         estimate D2E/DX2                !
 ! A88   A(22,23,24)           109.0316         estimate D2E/DX2                !
 ! A89   A(23,24,25)           111.2882         estimate D2E/DX2                !
 ! A90   A(23,24,51)           109.0747         estimate D2E/DX2                !
 ! A91   A(23,24,52)           109.9674         estimate D2E/DX2                !
 ! A92   A(25,24,51)           109.5449         estimate D2E/DX2                !
 ! A93   A(25,24,52)           111.9908         estimate D2E/DX2                !
 ! A94   A(51,24,52)           104.7408         estimate D2E/DX2                !
 ! A95   A(20,25,24)           109.1263         estimate D2E/DX2                !
 ! A96   A(20,25,26)           117.1343         estimate D2E/DX2                !
 ! A97   A(20,25,53)           105.9375         estimate D2E/DX2                !
 ! A98   A(24,25,26)           114.3278         estimate D2E/DX2                !
 ! A99   A(24,25,53)           105.7054         estimate D2E/DX2                !
 ! A100  A(26,25,53)           103.4527         estimate D2E/DX2                !
 ! A101  A(25,26,27)           117.8153         estimate D2E/DX2                !
 ! A102  A(25,26,54)           108.0816         estimate D2E/DX2                !
 ! A103  A(25,26,55)           107.7071         estimate D2E/DX2                !
 ! A104  A(27,26,54)           108.2234         estimate D2E/DX2                !
 ! A105  A(27,26,55)           108.58           estimate D2E/DX2                !
 ! A106  A(54,26,55)           105.8083         estimate D2E/DX2                !
 ! A107  A(26,27,28)           111.1771         estimate D2E/DX2                !
 ! A108  A(26,27,56)           110.9234         estimate D2E/DX2                !
 ! A109  A(26,27,57)           110.0796         estimate D2E/DX2                !
 ! A110  A(28,27,56)           108.8834         estimate D2E/DX2                !
 ! A111  A(28,27,57)           107.5405         estimate D2E/DX2                !
 ! A112  A(56,27,57)           108.1238         estimate D2E/DX2                !
 ! A113  A(27,28,58)           111.2186         estimate D2E/DX2                !
 ! A114  A(27,28,59)           110.2711         estimate D2E/DX2                !
 ! A115  A(27,28,60)           110.9229         estimate D2E/DX2                !
 ! A116  A(58,28,59)           108.0754         estimate D2E/DX2                !
 ! A117  A(58,28,60)           108.2807         estimate D2E/DX2                !
 ! A118  A(59,28,60)           107.9579         estimate D2E/DX2                !
 ! D1    D(29,1,2,3)            58.5449         estimate D2E/DX2                !
 ! D2    D(30,1,2,3)           -63.9742         estimate D2E/DX2                !
 ! D3    D(31,1,2,3)           177.0587         estimate D2E/DX2                !
 ! D4    D(1,2,3,4)            -58.4929         estimate D2E/DX2                !
 ! D5    D(1,2,3,32)           177.458          estimate D2E/DX2                !
 ! D6    D(1,2,3,33)            61.7538         estimate D2E/DX2                !
 ! D7    D(2,3,4,5)            -85.6428         estimate D2E/DX2                !
 ! D8    D(32,3,4,5)            36.8015         estimate D2E/DX2                !
 ! D9    D(33,3,4,5)           153.9719         estimate D2E/DX2                !
 ! D10   D(3,4,5,6)            100.3759         estimate D2E/DX2                !
 ! D11   D(3,4,5,18)          -136.5225         estimate D2E/DX2                !
 ! D12   D(3,4,5,34)           -20.4848         estimate D2E/DX2                !
 ! D13   D(4,5,6,7)             83.8039         estimate D2E/DX2                !
 ! D14   D(4,5,6,11)           -89.3541         estimate D2E/DX2                !
 ! D15   D(18,5,6,7)           -32.4431         estimate D2E/DX2                !
 ! D16   D(18,5,6,11)          154.3989         estimate D2E/DX2                !
 ! D17   D(34,5,6,7)          -154.3871         estimate D2E/DX2                !
 ! D18   D(34,5,6,11)           32.4549         estimate D2E/DX2                !
 ! D19   D(4,5,18,19)         -173.655          estimate D2E/DX2                !
 ! D20   D(4,5,18,23)           58.305          estimate D2E/DX2                !
 ! D21   D(4,5,18,43)          -55.3962         estimate D2E/DX2                !
 ! D22   D(6,5,18,19)          -56.5849         estimate D2E/DX2                !
 ! D23   D(6,5,18,23)          175.3751         estimate D2E/DX2                !
 ! D24   D(6,5,18,43)           61.6739         estimate D2E/DX2                !
 ! D25   D(34,5,18,19)          67.0838         estimate D2E/DX2                !
 ! D26   D(34,5,18,23)         -60.9562         estimate D2E/DX2                !
 ! D27   D(34,5,18,43)        -174.6574         estimate D2E/DX2                !
 ! D28   D(5,6,7,8)           -174.3548         estimate D2E/DX2                !
 ! D29   D(5,6,7,35)             3.6441         estimate D2E/DX2                !
 ! D30   D(11,6,7,8)            -0.8574         estimate D2E/DX2                !
 ! D31   D(11,6,7,35)          177.1415         estimate D2E/DX2                !
 ! D32   D(5,6,11,10)          171.4237         estimate D2E/DX2                !
 ! D33   D(5,6,11,12)           -6.2611         estimate D2E/DX2                !
 ! D34   D(7,6,11,10)           -1.8174         estimate D2E/DX2                !
 ! D35   D(7,6,11,12)         -179.5022         estimate D2E/DX2                !
 ! D36   D(6,7,8,9)              2.123          estimate D2E/DX2                !
 ! D37   D(6,7,8,36)          -179.5343         estimate D2E/DX2                !
 ! D38   D(35,7,8,9)          -175.9771         estimate D2E/DX2                !
 ! D39   D(35,7,8,36)            2.3656         estimate D2E/DX2                !
 ! D40   D(7,8,9,10)            -0.4086         estimate D2E/DX2                !
 ! D41   D(36,8,9,10)         -178.8368         estimate D2E/DX2                !
 ! D42   D(8,9,10,11)           -2.5986         estimate D2E/DX2                !
 ! D43   D(8,9,10,17)          175.926          estimate D2E/DX2                !
 ! D44   D(9,10,11,6)            3.6961         estimate D2E/DX2                !
 ! D45   D(9,10,11,12)        -178.411          estimate D2E/DX2                !
 ! D46   D(17,10,11,6)        -174.7825         estimate D2E/DX2                !
 ! D47   D(17,10,11,12)          3.1104         estimate D2E/DX2                !
 ! D48   D(9,10,17,16)        -178.8022         estimate D2E/DX2                !
 ! D49   D(9,10,17,42)          -0.536          estimate D2E/DX2                !
 ! D50   D(11,10,17,16)         -0.2177         estimate D2E/DX2                !
 ! D51   D(11,10,17,42)        178.0485         estimate D2E/DX2                !
 ! D52   D(6,11,12,13)         172.8633         estimate D2E/DX2                !
 ! D53   D(6,11,12,37)          -4.0993         estimate D2E/DX2                !
 ! D54   D(10,11,12,13)         -4.8227         estimate D2E/DX2                !
 ! D55   D(10,11,12,37)        178.2148         estimate D2E/DX2                !
 ! D56   D(11,12,13,14)       -176.5977         estimate D2E/DX2                !
 ! D57   D(11,12,13,16)          3.5286         estimate D2E/DX2                !
 ! D58   D(37,12,13,14)          0.3791         estimate D2E/DX2                !
 ! D59   D(37,12,13,16)       -179.4945         estimate D2E/DX2                !
 ! D60   D(12,13,14,15)         18.6074         estimate D2E/DX2                !
 ! D61   D(16,13,14,15)       -161.5141         estimate D2E/DX2                !
 ! D62   D(12,13,16,17)         -0.431          estimate D2E/DX2                !
 ! D63   D(12,13,16,41)       -179.3212         estimate D2E/DX2                !
 ! D64   D(14,13,16,17)        179.6809         estimate D2E/DX2                !
 ! D65   D(14,13,16,41)          0.7908         estimate D2E/DX2                !
 ! D66   D(13,14,15,38)        168.2171         estimate D2E/DX2                !
 ! D67   D(13,14,15,39)         50.3052         estimate D2E/DX2                !
 ! D68   D(13,14,15,40)        -74.2636         estimate D2E/DX2                !
 ! D69   D(13,16,17,10)         -1.203          estimate D2E/DX2                !
 ! D70   D(13,16,17,42)       -179.4635         estimate D2E/DX2                !
 ! D71   D(41,16,17,10)        177.6915         estimate D2E/DX2                !
 ! D72   D(41,16,17,42)         -0.569          estimate D2E/DX2                !
 ! D73   D(5,18,19,20)        -141.3564         estimate D2E/DX2                !
 ! D74   D(5,18,19,44)          96.126          estimate D2E/DX2                !
 ! D75   D(5,18,19,45)         -20.6896         estimate D2E/DX2                !
 ! D76   D(23,18,19,20)        -10.8312         estimate D2E/DX2                !
 ! D77   D(23,18,19,44)       -133.3488         estimate D2E/DX2                !
 ! D78   D(23,18,19,45)        109.8357         estimate D2E/DX2                !
 ! D79   D(43,18,19,20)        102.0718         estimate D2E/DX2                !
 ! D80   D(43,18,19,44)        -20.4458         estimate D2E/DX2                !
 ! D81   D(43,18,19,45)       -137.2614         estimate D2E/DX2                !
 ! D82   D(5,18,23,22)          78.8965         estimate D2E/DX2                !
 ! D83   D(5,18,23,24)        -162.1143         estimate D2E/DX2                !
 ! D84   D(19,18,23,22)        -51.388          estimate D2E/DX2                !
 ! D85   D(19,18,23,24)         67.6012         estimate D2E/DX2                !
 ! D86   D(43,18,23,22)       -166.819          estimate D2E/DX2                !
 ! D87   D(43,18,23,24)        -47.8298         estimate D2E/DX2                !
 ! D88   D(18,19,20,21)         66.6083         estimate D2E/DX2                !
 ! D89   D(18,19,20,25)        -47.653          estimate D2E/DX2                !
 ! D90   D(18,19,20,46)       -174.2635         estimate D2E/DX2                !
 ! D91   D(44,19,20,21)       -171.3408         estimate D2E/DX2                !
 ! D92   D(44,19,20,25)         74.3979         estimate D2E/DX2                !
 ! D93   D(44,19,20,46)        -52.2126         estimate D2E/DX2                !
 ! D94   D(45,19,20,21)        -54.9956         estimate D2E/DX2                !
 ! D95   D(45,19,20,25)       -169.2569         estimate D2E/DX2                !
 ! D96   D(45,19,20,46)         64.1327         estimate D2E/DX2                !
 ! D97   D(19,20,21,22)        -60.5075         estimate D2E/DX2                !
 ! D98   D(19,20,21,47)        178.4286         estimate D2E/DX2                !
 ! D99   D(19,20,21,48)         60.4128         estimate D2E/DX2                !
 ! D100  D(25,20,21,22)         59.211          estimate D2E/DX2                !
 ! D101  D(25,20,21,47)        -61.8529         estimate D2E/DX2                !
 ! D102  D(25,20,21,48)       -179.8688         estimate D2E/DX2                !
 ! D103  D(46,20,21,22)        179.7713         estimate D2E/DX2                !
 ! D104  D(46,20,21,47)         58.7074         estimate D2E/DX2                !
 ! D105  D(46,20,21,48)        -59.3085         estimate D2E/DX2                !
 ! D106  D(19,20,25,24)         50.1774         estimate D2E/DX2                !
 ! D107  D(19,20,25,26)        -81.7106         estimate D2E/DX2                !
 ! D108  D(19,20,25,53)        163.5677         estimate D2E/DX2                !
 ! D109  D(21,20,25,24)        -63.5078         estimate D2E/DX2                !
 ! D110  D(21,20,25,26)        164.6043         estimate D2E/DX2                !
 ! D111  D(21,20,25,53)         49.8825         estimate D2E/DX2                !
 ! D112  D(46,20,25,24)        176.6643         estimate D2E/DX2                !
 ! D113  D(46,20,25,26)         44.7763         estimate D2E/DX2                !
 ! D114  D(46,20,25,53)        -69.9454         estimate D2E/DX2                !
 ! D115  D(20,21,22,23)          0.9434         estimate D2E/DX2                !
 ! D116  D(20,21,22,49)       -120.6521         estimate D2E/DX2                !
 ! D117  D(20,21,22,50)        124.144          estimate D2E/DX2                !
 ! D118  D(47,21,22,23)        122.1568         estimate D2E/DX2                !
 ! D119  D(47,21,22,49)          0.5613         estimate D2E/DX2                !
 ! D120  D(47,21,22,50)       -114.6426         estimate D2E/DX2                !
 ! D121  D(48,21,22,23)       -120.1642         estimate D2E/DX2                !
 ! D122  D(48,21,22,49)        118.2403         estimate D2E/DX2                !
 ! D123  D(48,21,22,50)          3.0363         estimate D2E/DX2                !
 ! D124  D(21,22,23,18)         57.6368         estimate D2E/DX2                !
 ! D125  D(21,22,23,24)        -60.0827         estimate D2E/DX2                !
 ! D126  D(49,22,23,18)        179.3622         estimate D2E/DX2                !
 ! D127  D(49,22,23,24)         61.6427         estimate D2E/DX2                !
 ! D128  D(50,22,23,18)        -65.4758         estimate D2E/DX2                !
 ! D129  D(50,22,23,24)        176.8046         estimate D2E/DX2                !
 ! D130  D(18,23,24,25)        -65.1351         estimate D2E/DX2                !
 ! D131  D(18,23,24,51)        173.8916         estimate D2E/DX2                !
 ! D132  D(18,23,24,52)         59.5559         estimate D2E/DX2                !
 ! D133  D(22,23,24,25)         55.3296         estimate D2E/DX2                !
 ! D134  D(22,23,24,51)        -65.6436         estimate D2E/DX2                !
 ! D135  D(22,23,24,52)       -179.9793         estimate D2E/DX2                !
 ! D136  D(23,24,25,20)          6.3747         estimate D2E/DX2                !
 ! D137  D(23,24,25,26)        139.7326         estimate D2E/DX2                !
 ! D138  D(23,24,25,53)       -107.1671         estimate D2E/DX2                !
 ! D139  D(51,24,25,20)        127.072          estimate D2E/DX2                !
 ! D140  D(51,24,25,26)        -99.5701         estimate D2E/DX2                !
 ! D141  D(51,24,25,53)         13.5301         estimate D2E/DX2                !
 ! D142  D(52,24,25,20)       -117.1711         estimate D2E/DX2                !
 ! D143  D(52,24,25,26)         16.1868         estimate D2E/DX2                !
 ! D144  D(52,24,25,53)        129.2871         estimate D2E/DX2                !
 ! D145  D(20,25,26,27)         60.8305         estimate D2E/DX2                !
 ! D146  D(20,25,26,54)        -62.1393         estimate D2E/DX2                !
 ! D147  D(20,25,26,55)       -176.0345         estimate D2E/DX2                !
 ! D148  D(24,25,26,27)        -68.6448         estimate D2E/DX2                !
 ! D149  D(24,25,26,54)        168.3854         estimate D2E/DX2                !
 ! D150  D(24,25,26,55)         54.4902         estimate D2E/DX2                !
 ! D151  D(53,25,26,27)        176.9242         estimate D2E/DX2                !
 ! D152  D(53,25,26,54)         53.9545         estimate D2E/DX2                !
 ! D153  D(53,25,26,55)        -59.9407         estimate D2E/DX2                !
 ! D154  D(25,26,27,28)        174.2048         estimate D2E/DX2                !
 ! D155  D(25,26,27,56)         52.8923         estimate D2E/DX2                !
 ! D156  D(25,26,27,57)        -66.7342         estimate D2E/DX2                !
 ! D157  D(54,26,27,28)        -62.8972         estimate D2E/DX2                !
 ! D158  D(54,26,27,56)        175.7903         estimate D2E/DX2                !
 ! D159  D(54,26,27,57)         56.1638         estimate D2E/DX2                !
 ! D160  D(55,26,27,28)         51.5117         estimate D2E/DX2                !
 ! D161  D(55,26,27,56)        -69.8008         estimate D2E/DX2                !
 ! D162  D(55,26,27,57)        170.5727         estimate D2E/DX2                !
 ! D163  D(26,27,28,58)        -60.0809         estimate D2E/DX2                !
 ! D164  D(26,27,28,59)       -179.9621         estimate D2E/DX2                !
 ! D165  D(26,27,28,60)         60.4946         estimate D2E/DX2                !
 ! D166  D(56,27,28,58)         62.418          estimate D2E/DX2                !
 ! D167  D(56,27,28,59)        -57.4631         estimate D2E/DX2                !
 ! D168  D(56,27,28,60)       -177.0065         estimate D2E/DX2                !
 ! D169  D(57,27,28,58)        179.3487         estimate D2E/DX2                !
 ! D170  D(57,27,28,59)         59.4676         estimate D2E/DX2                !
 ! D171  D(57,27,28,60)        -60.0758         estimate D2E/DX2                !
 --------------------------------------------------------------------------------
 Trust Radius=3.00D-01 FncErr=1.00D-07 GrdErr=1.00D-06
 Number of steps in this run= 360 maximum allowed number of steps= 360.
 GradGradGradGradGradGradGradGradGradGradGradGradGradGradGradGradGradGrad

 Leave Link  103 at Thu Sep 30 19:13:52 2021, MaxMem= 2684354560 cpu:       0.0
 (Enter /sw/target/amd/app/gaussian/Gaussian09RevA.02_gcc-4.9.2/g09/l202.exe)
 Stoichiometry    C23H32N2O3
 Framework group  C1[X(C23H32N2O3)]
 Deg. of freedom   174
 Full point group                 C1      NOp   1
 Largest Abelian subgroup         C1      NOp   1
 Largest concise Abelian subgroup C1      NOp   1
                         Standard orientation:                         
 ---------------------------------------------------------------------
 Center     Atomic      Atomic             Coordinates (Angstroms)
 Number     Number       Type             X           Y           Z
 ---------------------------------------------------------------------
      1          6           0       -2.700345   -0.258368    2.994750
      2          8           0       -2.567068   -1.241670    1.975427
      3          6           0       -1.257987   -1.793136    1.929284
      4          8           0       -0.253292   -0.819056    1.708885
      5          6           0       -0.001567   -0.493872    0.328025
      6          6           0       -0.739870    0.825374    0.048125
      7          6           0       -0.115511    2.041879    0.378314
      8          6           0       -0.812486    3.223864    0.241037
      9          7           0       -2.090855    3.294085   -0.157876
     10          6           0       -2.722076    2.150315   -0.446353
     11          6           0       -2.097222    0.872740   -0.404383
     12          6           0       -2.892792   -0.249146   -0.772287
     13          6           0       -4.255013   -0.130222   -1.064219
     14          8           0       -5.112223   -1.152290   -1.361812
     15          6           0       -4.697109   -2.459632   -0.986812
     16          6           0       -4.835669    1.129925   -1.065840
     17          6           0       -4.064002    2.249611   -0.770581
     18          6           0        1.574239   -0.435231    0.200423
     19          6           0        2.082185    0.052691   -1.173295
     20          6           0        3.331924   -0.746596   -1.593204
     21          6           0        2.813715   -2.182822   -1.818937
     22          6           0        2.217726   -2.706566   -0.501314
     23          7           0        2.284347   -1.704774    0.583698
     24          6           0        3.706547   -1.348228    0.827529
     25          6           0        4.393296   -0.862603   -0.468611
     26          6           0        5.343584    0.333942   -0.273294
     27          6           0        4.725983    1.682546    0.089049
     28          6           0        5.803036    2.719767    0.384788
     29          1           0       -1.989603    0.561965    2.855012
     30          1           0       -2.559988   -0.710813    3.980089
     31          1           0       -3.709757    0.159032    2.939588
     32          1           0       -1.235913   -2.571542    1.157953
     33          1           0       -1.054099   -2.288372    2.884516
     34          1           0       -0.352345   -1.279823   -0.348109
     35          1           0        0.891252    2.095439    0.770775
     36          1           0       -0.349763    4.175584    0.482262
     37          1           0       -2.443350   -1.235216   -0.780754
     38          1           0       -5.559719   -3.125847   -1.092943
     39          1           0       -4.375854   -2.500132    0.059274
     40          1           0       -3.911728   -2.820964   -1.657003
     41          1           0       -5.895204    1.244106   -1.279249
     42          1           0       -4.534088    3.232447   -0.766622
     43          1           0        1.895612    0.290274    0.958837
     44          1           0        2.300300    1.121870   -1.133423
     45          1           0        1.304795   -0.069537   -1.938624
     46          1           0        3.766577   -0.348454   -2.515772
     47          1           0        3.629105   -2.836500   -2.152201
     48          1           0        2.052719   -2.195148   -2.608002
     49          1           0        2.754594   -3.612494   -0.191128
     50          1           0        1.181286   -3.025632   -0.658572
     51          1           0        4.235616   -2.228420    1.215952
     52          1           0        3.773842   -0.605013    1.631216
     53          1           0        5.068037   -1.678858   -0.772460
     54          1           0        5.926878    0.459932   -1.195096
     55          1           0        6.069272    0.060759    0.505123
     56          1           0        4.072962    1.591295    0.962204
     57          1           0        4.127844    2.057510   -0.745066
     58          1           0        6.433703    2.407974    1.223387
     59          1           0        5.344490    3.679591    0.643170
     60          1           0        6.445235    2.876528   -0.488263
 ---------------------------------------------------------------------
 Rotational constants (GHZ):      0.2978289      0.1054761      0.0936453
 Leave Link  202 at Thu Sep 30 19:13:52 2021, MaxMem= 2684354560 cpu:       0.1
 (Enter /sw/target/amd/app/gaussian/Gaussian09RevA.02_gcc-4.9.2/g09/l301.exe)
 Standard basis: 6-31G(d) (6D, 7F)
 Ernie: Thresh=  0.10000D-02 Tol=  0.10000D-05 Strict=F.
 There are   484 symmetry adapted basis functions of A   symmetry.
 Integral buffers will be    131072 words long.
 Raffenetti 2 integral format.
 Two-electron integral symmetry is turned on.
   484 basis functions,   912 primitive gaussians,   484 cartesian basis functions
   104 alpha electrons      104 beta electrons
       nuclear repulsion energy      2800.5587754980 Hartrees.
 IExCor=  402 DFT=T Ex+Corr=B3LYP ExCW=0 ScaHFX=  0.200000
 ScaDFX=  0.800000  0.720000  1.000000  0.810000 ScalE2=  1.000000  1.000000
 IRadAn=      0 IRanWt=     -1 IRanGd=            0 ICorTp=0
 NAtoms=   60 NActive=   60 NUniq=   60 SFac= 7.50D-01 NAtFMM=   80 NAOKFM=F Big=T
 Leave Link  301 at Thu Sep 30 19:13:52 2021, MaxMem= 2684354560 cpu:       0.1
 (Enter /sw/target/amd/app/gaussian/Gaussian09RevA.02_gcc-4.9.2/g09/l302.exe)
 NPDir=0 NMtPBC=     1 NCelOv=     1 NCel=       1 NClECP=     1 NCelD=      1
         NCelK=      1 NCelE2=     1 NClLst=     1 CellRange=     0.0.
 One-electron integrals computed using PRISM.
 NBasis=   484 RedAO= T  NBF=   484
 NBsUse=   484 1.00D-06 NBFU=   484
 Precomputing XC quadrature grid using
 IXCGrd= 2 IRadAn=           0 IRanWt=          -1 IRanGd=           0 AccXCQ= 1.00D-10.
 NRdTot=    3839 NPtTot=      489584 NUsed=      517250 NTot=      517282
 NSgBfM=   477   477   477   477   477 NAtAll=    60    60.
 Leave Link  302 at Thu Sep 30 19:14:03 2021, MaxMem= 2684354560 cpu:      10.4
 (Enter /sw/target/amd/app/gaussian/Gaussian09RevA.02_gcc-4.9.2/g09/l303.exe)
 DipDrv:  MaxL=1.
 Leave Link  303 at Thu Sep 30 19:14:04 2021, MaxMem= 2684354560 cpu:       0.5
 (Enter /sw/target/amd/app/gaussian/Gaussian09RevA.02_gcc-4.9.2/g09/l401.exe)
 Harris functional with IExCor=  402 diagonalized for initial guess.
 ExpMin= 1.61D-01 ExpMax= 5.48D+03 ExpMxC= 8.25D+02 IAcc=1 IRadAn=         1 AccDes= 0.00D+00
 HarFok:  IExCor=  402 AccDes= 0.00D+00 IRadAn=         1 IDoV= 1
 ScaDFX=  1.000000  1.000000  1.000000  1.000000
 FoFCou: FMM=F IPFlag=           0 FMFlag=      100000 FMFlg1=           1
         NFxFlg=           0 DoJE=T BraDBF=F KetDBF=T FulRan=T
         Omega=  0.000000  0.000000  1.000000  0.000000  0.000000 ICntrl=     500 IOpCl=  0
         NMat0=    1 NMatS0=    1 NMatT0=    0 NMatD0=    1 NMtDS0=    0 NMtDT0=    0
         I1Cent=           4 NGrid=           0.
 Petite list used in FoFCou.
 Harris En= -1230.93335575385    
 Initial guess orbital symmetries:
       Occupied  (A) (A) (A) (A) (A) (A) (A) (A) (A) (A) (A) (A)
                 (A) (A) (A) (A) (A) (A) (A) (A) (A) (A) (A) (A)
                 (A) (A) (A) (A) (A) (A) (A) (A) (A) (A) (A) (A)
                 (A) (A) (A) (A) (A) (A) (A) (A) (A) (A) (A) (A)
                 (A) (A) (A) (A) (A) (A) (A) (A) (A) (A) (A) (A)
                 (A) (A) (A) (A) (A) (A) (A) (A) (A) (A) (A) (A)
                 (A) (A) (A) (A) (A) (A) (A) (A) (A) (A) (A) (A)
                 (A) (A) (A) (A) (A) (A) (A) (A) (A) (A) (A) (A)
                 (A) (A) (A) (A) (A) (A) (A) (A)
       Virtual   (A) (A) (A) (A) (A) (A) (A) (A) (A) (A) (A) (A)
                 (A) (A) (A) (A) (A) (A) (A) (A) (A) (A) (A) (A)
                 (A) (A) (A) (A) (A) (A) (A) (A) (A) (A) (A) (A)
                 (A) (A) (A) (A) (A) (A) (A) (A) (A) (A) (A) (A)
                 (A) (A) (A) (A) (A) (A) (A) (A) (A) (A) (A) (A)
                 (A) (A) (A) (A) (A) (A) (A) (A) (A) (A) (A) (A)
                 (A) (A) (A) (A) (A) (A) (A) (A) (A) (A) (A) (A)
                 (A) (A) (A) (A) (A) (A) (A) (A) (A) (A) (A) (A)
                 (A) (A) (A) (A) (A) (A) (A) (A) (A) (A) (A) (A)
                 (A) (A) (A) (A) (A) (A) (A) (A) (A) (A) (A) (A)
                 (A) (A) (A) (A) (A) (A) (A) (A) (A) (A) (A) (A)
                 (A) (A) (A) (A) (A) (A) (A) (A) (A) (A) (A) (A)
                 (A) (A) (A) (A) (A) (A) (A) (A) (A) (A) (A) (A)
                 (A) (A) (A) (A) (A) (A) (A) (A) (A) (A) (A) (A)
                 (A) (A) (A) (A) (A) (A) (A) (A) (A) (A) (A) (A)
                 (A) (A) (A) (A) (A) (A) (A) (A) (A) (A) (A) (A)
                 (A) (A) (A) (A) (A) (A) (A) (A) (A) (A) (A) (A)
                 (A) (A) (A) (A) (A) (A) (A) (A) (A) (A) (A) (A)
                 (A) (A) (A) (A) (A) (A) (A) (A) (A) (A) (A) (A)
                 (A) (A) (A) (A) (A) (A) (A) (A) (A) (A) (A) (A)
                 (A) (A) (A) (A) (A) (A) (A) (A) (A) (A) (A) (A)
                 (A) (A) (A) (A) (A) (A) (A) (A) (A) (A) (A) (A)
                 (A) (A) (A) (A) (A) (A) (A) (A) (A) (A) (A) (A)
                 (A) (A) (A) (A) (A) (A) (A) (A) (A) (A) (A) (A)
                 (A) (A) (A) (A) (A) (A) (A) (A) (A) (A) (A) (A)
                 (A) (A) (A) (A) (A) (A) (A) (A) (A) (A) (A) (A)
                 (A) (A) (A) (A) (A) (A) (A) (A) (A) (A) (A) (A)
                 (A) (A) (A) (A) (A) (A) (A) (A) (A) (A) (A) (A)
                 (A) (A) (A) (A) (A) (A) (A) (A) (A) (A) (A) (A)
                 (A) (A) (A) (A) (A) (A) (A) (A) (A) (A) (A) (A)
                 (A) (A) (A) (A) (A) (A) (A) (A) (A) (A) (A) (A)
                 (A) (A) (A) (A) (A) (A) (A) (A)
 The electronic state of the initial guess is 1-A.
 Leave Link  401 at Thu Sep 30 19:14:25 2021, MaxMem= 2684354560 cpu:      37.7
 (Enter /sw/target/amd/app/gaussian/Gaussian09RevA.02_gcc-4.9.2/g09/l502.exe)
 Closed shell SCF:
 Requested convergence on RMS density matrix=1.00D-08 within  64 cycles.
 Requested convergence on MAX density matrix=1.00D-06.
 Requested convergence on             energy=1.00D-06.
 No special actions if energy rises.
 Using DIIS extrapolation, IDIIS=  1040.
 Integral symmetry usage will be decided dynamically.
       516697 words used for storage of precomputed grid.
 IEnd=     1233527 IEndB=     1233527 NGot=  2684354560 MDV=  2683359998
 LenX=  2683359998 LenY=  2683125258
 Fock matrices will be formed incrementally for  20 cycles.
 Integral accuracy reduced to 1.0D-05 until final iterations.

 Cycle   1  Pass 0  IDiag  1:
 FoFCou: FMM=T IPFlag=           0 FMFlag=      100000 FMFlg1=           1
         NFxFlg=           0 DoJE=F BraDBF=F KetDBF=F FulRan=T
         Omega=  0.000000  0.000000  1.000000  0.000000  0.000000 ICntrl=       0 IOpCl=  0
         NMat0=    1 NMatS0=    1 NMatT0=    0 NMatD0=    1 NMtDS0=    0 NMtDT0=    0
         I1Cent=           0 NGrid=           0.
 Symmetry not used in FoFCou.
 FMM levels:  10  Number of levels for PrismC:   9
 E= -1230.18370674882    
 DIIS: error= 2.81D-02 at cycle   1 NSaved=   1.
 NSaved= 1 IEnMin= 1 EnMin= -1230.18370674882     IErMin= 1 ErrMin= 2.81D-02
 ErrMax= 2.81D-02 EMaxC= 1.00D-01 BMatC= 6.06D-01 BMatP= 6.06D-01
 IDIUse=3 WtCom= 7.19D-01 WtEn= 2.81D-01
 Coeff-Com:  0.100D+01
 Coeff-En:   0.100D+01
 Coeff:      0.100D+01
 Gap=     0.174 Goal=   None    Shift=    0.000
 GapD=    0.174 DampG=1.000 DampE=0.500 DampFc=0.5000 IDamp=-1.
 Damping current iteration by 5.00D-01
 RMSDP=4.14D-03 MaxDP=1.60D-01              OVMax= 1.84D-01

 Cycle   2  Pass 0  IDiag  1:
 RMSU=  1.44D-03    CP:  9.76D-01
 E= -1230.47162882250     Delta-E=       -0.287922073683 Rises=F Damp=T
 DIIS: error= 5.64D-03 at cycle   2 NSaved=   2.
 NSaved= 2 IEnMin= 2 EnMin= -1230.47162882250     IErMin= 2 ErrMin= 5.64D-03
 ErrMax= 5.64D-03 EMaxC= 1.00D-01 BMatC= 4.14D-02 BMatP= 6.06D-01
 IDIUse=3 WtCom= 9.44D-01 WtEn= 5.64D-02
 Coeff-Com:  0.569D-01 0.943D+00
 Coeff-En:   0.882D-01 0.912D+00
 Coeff:      0.587D-01 0.941D+00
 Gap=     0.175 Goal=   None    Shift=    0.000
 RMSDP=1.06D-03 MaxDP=4.22D-02 DE=-2.88D-01 OVMax= 1.41D-01

 Cycle   3  Pass 0  IDiag  1:
 RMSU=  7.15D-04    CP:  9.70D-01  8.59D-01
 E= -1230.80081526745     Delta-E=       -0.329186444949 Rises=F Damp=F
 DIIS: error= 4.27D-03 at cycle   3 NSaved=   3.
 NSaved= 3 IEnMin= 3 EnMin= -1230.80081526745     IErMin= 3 ErrMin= 4.27D-03
 ErrMax= 4.27D-03 EMaxC= 1.00D-01 BMatC= 2.84D-02 BMatP= 4.14D-02
 IDIUse=3 WtCom= 9.57D-01 WtEn= 4.27D-02
 Coeff-Com: -0.207D-01 0.448D+00 0.573D+00
 Coeff-En:   0.000D+00 0.000D+00 0.100D+01
 Coeff:     -0.198D-01 0.429D+00 0.591D+00
 Gap=     0.159 Goal=   None    Shift=    0.000
 RMSDP=6.17D-04 MaxDP=3.89D-02 DE=-3.29D-01 OVMax= 1.03D-01

 Cycle   4  Pass 0  IDiag  1:
 RMSU=  3.27D-04    CP:  9.71D-01  9.43D-01  6.32D-01
 E= -1230.81565808076     Delta-E=       -0.014842813307 Rises=F Damp=F
 DIIS: error= 3.89D-03 at cycle   4 NSaved=   4.
 NSaved= 4 IEnMin= 4 EnMin= -1230.81565808076     IErMin= 4 ErrMin= 3.89D-03
 ErrMax= 3.89D-03 EMaxC= 1.00D-01 BMatC= 1.24D-02 BMatP= 2.84D-02
 IDIUse=3 WtCom= 9.61D-01 WtEn= 3.89D-02
 Coeff-Com: -0.182D-01 0.159D+00 0.404D+00 0.455D+00
 Coeff-En:   0.000D+00 0.000D+00 0.346D+00 0.654D+00
 Coeff:     -0.175D-01 0.153D+00 0.402D+00 0.463D+00
 Gap=     0.152 Goal=   None    Shift=    0.000
 RMSDP=3.35D-04 MaxDP=2.40D-02 DE=-1.48D-02 OVMax= 6.09D-02

 Cycle   5  Pass 0  IDiag  1:
 RMSU=  1.14D-04    CP:  9.71D-01  9.17D-01  7.27D-01  4.10D-01
 E= -1230.82766273748     Delta-E=       -0.012004656724 Rises=F Damp=F
 DIIS: error= 1.11D-03 at cycle   5 NSaved=   5.
 NSaved= 5 IEnMin= 5 EnMin= -1230.82766273748     IErMin= 5 ErrMin= 1.11D-03
 ErrMax= 1.11D-03 EMaxC= 1.00D-01 BMatC= 1.17D-03 BMatP= 1.24D-02
 IDIUse=3 WtCom= 9.89D-01 WtEn= 1.11D-02
 Coeff-Com: -0.730D-02 0.364D-01 0.169D+00 0.288D+00 0.513D+00
 Coeff-En:   0.000D+00 0.000D+00 0.000D+00 0.688D-01 0.931D+00
 Coeff:     -0.722D-02 0.360D-01 0.167D+00 0.286D+00 0.518D+00
 Gap=     0.157 Goal=   None    Shift=    0.000
 RMSDP=1.00D-04 MaxDP=6.80D-03 DE=-1.20D-02 OVMax= 1.47D-02

 Cycle   6  Pass 0  IDiag  1:
 RMSU=  2.91D-05    CP:  9.70D-01  9.23D-01  7.32D-01  5.14D-01  5.21D-01
 E= -1230.82878642898     Delta-E=       -0.001123691498 Rises=F Damp=F
 DIIS: error= 2.75D-04 at cycle   6 NSaved=   6.
 NSaved= 6 IEnMin= 6 EnMin= -1230.82878642898     IErMin= 6 ErrMin= 2.75D-04
 ErrMax= 2.75D-04 EMaxC= 1.00D-01 BMatC= 8.06D-05 BMatP= 1.17D-03
 IDIUse=3 WtCom= 9.97D-01 WtEn= 2.75D-03
 Coeff-Com: -0.199D-02 0.409D-02 0.520D-01 0.111D+00 0.285D+00 0.550D+00
 Coeff-En:   0.000D+00 0.000D+00 0.000D+00 0.000D+00 0.000D+00 0.100D+01
 Coeff:     -0.198D-02 0.408D-02 0.519D-01 0.110D+00 0.285D+00 0.551D+00
 Gap=     0.156 Goal=   None    Shift=    0.000
 RMSDP=2.19D-05 MaxDP=9.81D-04 DE=-1.12D-03 OVMax= 3.46D-03

 Cycle   7  Pass 0  IDiag  1:
 RMSU=  9.00D-06    CP:  9.70D-01  9.22D-01  7.33D-01  5.08D-01  5.77D-01
                    CP:  6.31D-01
 E= -1230.82885573583     Delta-E=       -0.000069306847 Rises=F Damp=F
 DIIS: error= 8.74D-05 at cycle   7 NSaved=   7.
 NSaved= 7 IEnMin= 7 EnMin= -1230.82885573583     IErMin= 7 ErrMin= 8.74D-05
 ErrMax= 8.74D-05 EMaxC= 1.00D-01 BMatC= 6.32D-06 BMatP= 8.06D-05
 IDIUse=1 WtCom= 1.00D+00 WtEn= 0.00D+00
 Coeff-Com: -0.701D-03 0.391D-03 0.205D-01 0.468D-01 0.135D+00 0.317D+00
 Coeff-Com:  0.482D+00
 Coeff:     -0.701D-03 0.391D-03 0.205D-01 0.468D-01 0.135D+00 0.317D+00
 Coeff:      0.482D+00
 Gap=     0.156 Goal=   None    Shift=    0.000
 RMSDP=7.73D-06 MaxDP=3.92D-04 DE=-6.93D-05 OVMax= 1.08D-03

 Initial convergence to 1.0D-05 achieved.  Increase integral accuracy.
 Cycle   8  Pass 1  IDiag  1:
 E= -1230.82881070808     Delta-E=        0.000045027752 Rises=F Damp=F
 DIIS: error= 7.99D-05 at cycle   1 NSaved=   1.
 NSaved= 1 IEnMin= 1 EnMin= -1230.82881070808     IErMin= 1 ErrMin= 7.99D-05
 ErrMax= 7.99D-05 EMaxC= 1.00D-01 BMatC= 2.40D-06 BMatP= 2.40D-06
 IDIUse=1 WtCom= 1.00D+00 WtEn= 0.00D+00
 Coeff-Com:  0.100D+01
 Coeff:      0.100D+01
 Gap=     0.156 Goal=   None    Shift=    0.000
 RMSDP=7.73D-06 MaxDP=3.92D-04 DE= 4.50D-05 OVMax= 9.31D-04

 Cycle   9  Pass 1  IDiag  1:
 RMSU=  2.72D-05    CP:  1.00D+00
 E= -1230.82881066680     Delta-E=        0.000000041277 Rises=F Damp=F
 DIIS: error= 5.77D-05 at cycle   2 NSaved=   2.
 NSaved= 2 IEnMin= 1 EnMin= -1230.82881070808     IErMin= 2 ErrMin= 5.77D-05
 ErrMax= 5.77D-05 EMaxC= 1.00D-01 BMatC= 2.50D-06 BMatP= 2.40D-06
 IDIUse=1 WtCom= 1.00D+00 WtEn= 0.00D+00
 Coeff-Com:  0.507D+00 0.493D+00
 Coeff:      0.507D+00 0.493D+00
 Gap=     0.156 Goal=   None    Shift=    0.000
 RMSDP=5.70D-06 MaxDP=3.26D-04 DE= 4.13D-08 OVMax= 9.44D-04

 Cycle  10  Pass 1  IDiag  1:
 RMSU=  4.00D-06    CP:  1.00D+00  9.84D-01
 E= -1230.82881255346     Delta-E=       -0.000001886655 Rises=F Damp=F
 DIIS: error= 3.17D-05 at cycle   3 NSaved=   3.
 NSaved= 3 IEnMin= 3 EnMin= -1230.82881255346     IErMin= 3 ErrMin= 3.17D-05
 ErrMax= 3.17D-05 EMaxC= 1.00D-01 BMatC= 7.04D-07 BMatP= 2.40D-06
 IDIUse=1 WtCom= 1.00D+00 WtEn= 0.00D+00
 Coeff-Com:  0.958D-02 0.344D+00 0.646D+00
 Coeff:      0.958D-02 0.344D+00 0.646D+00
 Gap=     0.156 Goal=   None    Shift=    0.000
 RMSDP=2.13D-06 MaxDP=1.26D-04 DE=-1.89D-06 OVMax= 3.89D-04

 Cycle  11  Pass 1  IDiag  1:
 RMSU=  5.11D-07    CP:  1.00D+00  9.98D-01  6.60D-01
 E= -1230.82881326889     Delta-E=       -0.000000715434 Rises=F Damp=F
 DIIS: error= 4.53D-06 at cycle   4 NSaved=   4.
 NSaved= 4 IEnMin= 4 EnMin= -1230.82881326889     IErMin= 4 ErrMin= 4.53D-06
 ErrMax= 4.53D-06 EMaxC= 1.00D-01 BMatC= 3.26D-08 BMatP= 7.04D-07
 IDIUse=1 WtCom= 1.00D+00 WtEn= 0.00D+00
 Coeff-Com: -0.711D-02 0.195D+00 0.388D+00 0.424D+00
 Coeff:     -0.711D-02 0.195D+00 0.388D+00 0.424D+00
 Gap=     0.156 Goal=   None    Shift=    0.000
 RMSDP=4.86D-07 MaxDP=2.97D-05 DE=-7.15D-07 OVMax= 7.54D-05

 Cycle  12  Pass 1  IDiag  1:
 RMSU=  2.02D-07    CP:  1.00D+00  9.99D-01  6.72D-01  4.63D-01
 E= -1230.82881329949     Delta-E=       -0.000000030599 Rises=F Damp=F
 DIIS: error= 1.76D-06 at cycle   5 NSaved=   5.
 NSaved= 5 IEnMin= 5 EnMin= -1230.82881329949     IErMin= 5 ErrMin= 1.76D-06
 ErrMax= 1.76D-06 EMaxC= 1.00D-01 BMatC= 2.26D-09 BMatP= 3.26D-08
 IDIUse=1 WtCom= 1.00D+00 WtEn= 0.00D+00
 Coeff-Com: -0.486D-02 0.965D-01 0.193D+00 0.265D+00 0.450D+00
 Coeff:     -0.486D-02 0.965D-01 0.193D+00 0.265D+00 0.450D+00
 Gap=     0.156 Goal=   None    Shift=    0.000
 RMSDP=1.51D-07 MaxDP=1.12D-05 DE=-3.06D-08 OVMax= 2.31D-05

 Cycle  13  Pass 1  IDiag  1:
 RMSU=  6.83D-08    CP:  1.00D+00  9.99D-01  6.71D-01  5.32D-01  6.36D-01
 E= -1230.82881330164     Delta-E=       -0.000000002151 Rises=F Damp=F
 DIIS: error= 4.47D-07 at cycle   6 NSaved=   6.
 NSaved= 6 IEnMin= 6 EnMin= -1230.82881330164     IErMin= 6 ErrMin= 4.47D-07
 ErrMax= 4.47D-07 EMaxC= 1.00D-01 BMatC= 2.54D-10 BMatP= 2.26D-09
 IDIUse=1 WtCom= 1.00D+00 WtEn= 0.00D+00
 Coeff-Com: -0.214D-02 0.338D-01 0.677D-01 0.110D+00 0.282D+00 0.509D+00
 Coeff:     -0.214D-02 0.338D-01 0.677D-01 0.110D+00 0.282D+00 0.509D+00
 Gap=     0.156 Goal=   None    Shift=    0.000
 RMSDP=4.33D-08 MaxDP=2.72D-06 DE=-2.15D-09 OVMax= 6.28D-06

 Cycle  14  Pass 1  IDiag  1:
 RMSU=  2.10D-08    CP:  1.00D+00  9.99D-01  6.70D-01  5.29D-01  6.86D-01
                    CP:  7.13D-01
 E= -1230.82881330192     Delta-E=       -0.000000000275 Rises=F Damp=F
 DIIS: error= 7.48D-08 at cycle   7 NSaved=   7.
 NSaved= 7 IEnMin= 7 EnMin= -1230.82881330192     IErMin= 7 ErrMin= 7.48D-08
 ErrMax= 7.48D-08 EMaxC= 1.00D-01 BMatC= 9.35D-12 BMatP= 2.54D-10
 IDIUse=1 WtCom= 1.00D+00 WtEn= 0.00D+00
 Coeff-Com: -0.209D-03 0.817D-03 0.150D-02 0.956D-02 0.495D-01 0.195D+00
 Coeff-Com:  0.744D+00
 Coeff:     -0.209D-03 0.817D-03 0.150D-02 0.956D-02 0.495D-01 0.195D+00
 Coeff:      0.744D+00
 Gap=     0.156 Goal=   None    Shift=    0.000
 RMSDP=1.04D-08 MaxDP=4.66D-07 DE=-2.75D-10 OVMax= 1.21D-06

 Cycle  15  Pass 1  IDiag  1:
 RMSU=  5.13D-09    CP:  1.00D+00  9.99D-01  6.70D-01  5.32D-01  6.92D-01
                    CP:  7.66D-01  8.49D-01
 E= -1230.82881330185     Delta-E=        0.000000000065 Rises=F Damp=F
 DIIS: error= 4.87D-08 at cycle   8 NSaved=   8.
 NSaved= 8 IEnMin= 7 EnMin= -1230.82881330192     IErMin= 8 ErrMin= 4.87D-08
 ErrMax= 4.87D-08 EMaxC= 1.00D-01 BMatC= 2.17D-12 BMatP= 9.35D-12
 IDIUse=1 WtCom= 1.00D+00 WtEn= 0.00D+00
 Coeff-Com:  0.435D-04-0.211D-02-0.434D-02-0.318D-02 0.538D-02 0.667D-01
 Coeff-Com:  0.419D+00 0.519D+00
 Coeff:      0.435D-04-0.211D-02-0.434D-02-0.318D-02 0.538D-02 0.667D-01
 Coeff:      0.419D+00 0.519D+00
 Gap=     0.156 Goal=   None    Shift=    0.000
 RMSDP=3.75D-09 MaxDP=1.81D-07 DE= 6.50D-11 OVMax= 4.51D-07

 SCF Done:  E(RB3LYP) =  -1230.82881330     A.U. after   15 cycles
             Convg  =    0.3749D-08             -V/T =  2.0094
 KE= 1.219405709592D+03 PE=-8.460951775931D+03 EE= 3.210158477539D+03
 Leave Link  502 at Thu Sep 30 19:28:24 2021, MaxMem= 2684354560 cpu:    1665.7
 (Enter /sw/target/amd/app/gaussian/Gaussian09RevA.02_gcc-4.9.2/g09/l508.exe)
 QCSCF skips out because SCF is already converged.
 Leave Link  508 at Thu Sep 30 19:28:24 2021, MaxMem= 2684354560 cpu:       0.0
 (Enter /sw/target/amd/app/gaussian/Gaussian09RevA.02_gcc-4.9.2/g09/l601.exe)
 Copying SCF densities to generalized density rwf, IOpCl= 0 IROHF=0.

 **********************************************************************

            Population analysis using the SCF density.

 **********************************************************************

 Orbital symmetries:
       Occupied  (A) (A) (A) (A) (A) (A) (A) (A) (A) (A) (A) (A)
                 (A) (A) (A) (A) (A) (A) (A) (A) (A) (A) (A) (A)
                 (A) (A) (A) (A) (A) (A) (A) (A) (A) (A) (A) (A)
                 (A) (A) (A) (A) (A) (A) (A) (A) (A) (A) (A) (A)
                 (A) (A) (A) (A) (A) (A) (A) (A) (A) (A) (A) (A)
                 (A) (A) (A) (A) (A) (A) (A) (A) (A) (A) (A) (A)
                 (A) (A) (A) (A) (A) (A) (A) (A) (A) (A) (A) (A)
                 (A) (A) (A) (A) (A) (A) (A) (A) (A) (A) (A) (A)
                 (A) (A) (A) (A) (A) (A) (A) (A)
       Virtual   (A) (A) (A) (A) (A) (A) (A) (A) (A) (A) (A) (A)
                 (A) (A) (A) (A) (A) (A) (A) (A) (A) (A) (A) (A)
                 (A) (A) (A) (A) (A) (A) (A) (A) (A) (A) (A) (A)
                 (A) (A) (A) (A) (A) (A) (A) (A) (A) (A) (A) (A)
                 (A) (A) (A) (A) (A) (A) (A) (A) (A) (A) (A) (A)
                 (A) (A) (A) (A) (A) (A) (A) (A) (A) (A) (A) (A)
                 (A) (A) (A) (A) (A) (A) (A) (A) (A) (A) (A) (A)
                 (A) (A) (A) (A) (A) (A) (A) (A) (A) (A) (A) (A)
                 (A) (A) (A) (A) (A) (A) (A) (A) (A) (A) (A) (A)
                 (A) (A) (A) (A) (A) (A) (A) (A) (A) (A) (A) (A)
                 (A) (A) (A) (A) (A) (A) (A) (A) (A) (A) (A) (A)
                 (A) (A) (A) (A) (A) (A) (A) (A) (A) (A) (A) (A)
                 (A) (A) (A) (A) (A) (A) (A) (A) (A) (A) (A) (A)
                 (A) (A) (A) (A) (A) (A) (A) (A) (A) (A) (A) (A)
                 (A) (A) (A) (A) (A) (A) (A) (A) (A) (A) (A) (A)
                 (A) (A) (A) (A) (A) (A) (A) (A) (A) (A) (A) (A)
                 (A) (A) (A) (A) (A) (A) (A) (A) (A) (A) (A) (A)
                 (A) (A) (A) (A) (A) (A) (A) (A) (A) (A) (A) (A)
                 (A) (A) (A) (A) (A) (A) (A) (A) (A) (A) (A) (A)
                 (A) (A) (A) (A) (A) (A) (A) (A) (A) (A) (A) (A)
                 (A) (A) (A) (A) (A) (A) (A) (A) (A) (A) (A) (A)
                 (A) (A) (A) (A) (A) (A) (A) (A) (A) (A) (A) (A)
                 (A) (A) (A) (A) (A) (A) (A) (A) (A) (A) (A) (A)
                 (A) (A) (A) (A) (A) (A) (A) (A) (A) (A) (A) (A)
                 (A) (A) (A) (A) (A) (A) (A) (A) (A) (A) (A) (A)
                 (A) (A) (A) (A) (A) (A) (A) (A) (A) (A) (A) (A)
                 (A) (A) (A) (A) (A) (A) (A) (A) (A) (A) (A) (A)
                 (A) (A) (A) (A) (A) (A) (A) (A) (A) (A) (A) (A)
                 (A) (A) (A) (A) (A) (A) (A) (A) (A) (A) (A) (A)
                 (A) (A) (A) (A) (A) (A) (A) (A) (A) (A) (A) (A)
                 (A) (A) (A) (A) (A) (A) (A) (A) (A) (A) (A) (A)
                 (A) (A) (A) (A) (A) (A) (A) (A)
 The electronic state is 1-A.
 Alpha  occ. eigenvalues --  -19.17685 -19.15648 -19.14970 -14.32166 -14.31665
 Alpha  occ. eigenvalues --  -10.27893 -10.25151 -10.24555 -10.23601 -10.21850
 Alpha  occ. eigenvalues --  -10.21642 -10.21267 -10.21150 -10.20832 -10.20554
 Alpha  occ. eigenvalues --  -10.20340 -10.20158 -10.19165 -10.18902 -10.18730
 Alpha  occ. eigenvalues --  -10.18561 -10.18377 -10.18168 -10.18069 -10.17992
 Alpha  occ. eigenvalues --  -10.17888 -10.17705 -10.17370  -1.06160  -1.05951
 Alpha  occ. eigenvalues --   -1.00334  -0.93557  -0.92612  -0.84098  -0.81565
 Alpha  occ. eigenvalues --   -0.80883  -0.78201  -0.76543  -0.75802  -0.74844
 Alpha  occ. eigenvalues --   -0.73140  -0.72072  -0.70173  -0.69024  -0.67179
 Alpha  occ. eigenvalues --   -0.63780  -0.62476  -0.61927  -0.61393  -0.61361
 Alpha  occ. eigenvalues --   -0.60445  -0.57789  -0.56692  -0.53281  -0.52641
 Alpha  occ. eigenvalues --   -0.51850  -0.51316  -0.50403  -0.49604  -0.48743
 Alpha  occ. eigenvalues --   -0.48397  -0.47700  -0.47129  -0.46709  -0.46190
 Alpha  occ. eigenvalues --   -0.46128  -0.45057  -0.43286  -0.42708  -0.42331
 Alpha  occ. eigenvalues --   -0.41823  -0.41579  -0.40965  -0.40700  -0.40500
 Alpha  occ. eigenvalues --   -0.40277  -0.39854  -0.39433  -0.39111  -0.37979
 Alpha  occ. eigenvalues --   -0.37253  -0.37087  -0.36053  -0.35985  -0.35774
 Alpha  occ. eigenvalues --   -0.35459  -0.35141  -0.35090  -0.34503  -0.33339
 Alpha  occ. eigenvalues --   -0.32960  -0.32784  -0.31133  -0.31008  -0.30051
 Alpha  occ. eigenvalues --   -0.29792  -0.29463  -0.28911  -0.26689  -0.26194
 Alpha  occ. eigenvalues --   -0.24393  -0.23481  -0.20796  -0.20664
 Alpha virt. eigenvalues --   -0.05072  -0.00162   0.02837   0.06099   0.06387
 Alpha virt. eigenvalues --    0.08109   0.09729   0.09808   0.10007   0.10906
 Alpha virt. eigenvalues --    0.11104   0.11763   0.12124   0.12330   0.13221
 Alpha virt. eigenvalues --    0.13576   0.13866   0.14223   0.14608   0.14894
 Alpha virt. eigenvalues --    0.15233   0.15769   0.15928   0.16452   0.16636
 Alpha virt. eigenvalues --    0.16997   0.17592   0.17834   0.17935   0.18392
 Alpha virt. eigenvalues --    0.18576   0.18899   0.19093   0.19293   0.19489
 Alpha virt. eigenvalues --    0.20306   0.20464   0.21050   0.21316   0.21819
 Alpha virt. eigenvalues --    0.22052   0.22794   0.23545   0.23980   0.24346
 Alpha virt. eigenvalues --    0.24833   0.25309   0.25546   0.26544   0.26984
 Alpha virt. eigenvalues --    0.27685   0.28146   0.28384   0.29529   0.29645
 Alpha virt. eigenvalues --    0.31916   0.33250   0.33825   0.34568   0.34850
 Alpha virt. eigenvalues --    0.35860   0.36864   0.38565   0.40015   0.45891
 Alpha virt. eigenvalues --    0.46710   0.48252   0.48746   0.48964   0.49692
 Alpha virt. eigenvalues --    0.50882   0.51399   0.52200   0.52403   0.53064
 Alpha virt. eigenvalues --    0.53395   0.53626   0.54098   0.54428   0.54751
 Alpha virt. eigenvalues --    0.55228   0.55565   0.55760   0.56555   0.57183
 Alpha virt. eigenvalues --    0.57956   0.58436   0.59052   0.59450   0.59531
 Alpha virt. eigenvalues --    0.61068   0.61232   0.61441   0.62242   0.62686
 Alpha virt. eigenvalues --    0.63115   0.63657   0.64415   0.64943   0.65458
 Alpha virt. eigenvalues --    0.65799   0.66418   0.67443   0.67638   0.68158
 Alpha virt. eigenvalues --    0.68687   0.69233   0.70013   0.70806   0.71048
 Alpha virt. eigenvalues --    0.71829   0.73482   0.74827   0.75601   0.76430
 Alpha virt. eigenvalues --    0.76604   0.78450   0.78786   0.79619   0.80448
 Alpha virt. eigenvalues --    0.80948   0.81717   0.82233   0.83429   0.84016
 Alpha virt. eigenvalues --    0.84512   0.84678   0.84995   0.85243   0.85661
 Alpha virt. eigenvalues --    0.86143   0.86413   0.86598   0.86763   0.87016
 Alpha virt. eigenvalues --    0.87997   0.88134   0.88592   0.89196   0.89312
 Alpha virt. eigenvalues --    0.90016   0.90488   0.90679   0.91329   0.91589
 Alpha virt. eigenvalues --    0.92190   0.92979   0.93496   0.93499   0.93805
 Alpha virt. eigenvalues --    0.94321   0.94997   0.95474   0.95830   0.96725
 Alpha virt. eigenvalues --    0.96987   0.97828   0.98095   0.98382   0.99029
 Alpha virt. eigenvalues --    0.99887   1.01439   1.01897   1.02394   1.03128
 Alpha virt. eigenvalues --    1.04092   1.04833   1.05306   1.06983   1.07627
 Alpha virt. eigenvalues --    1.08208   1.08327   1.08685   1.10032   1.11543
 Alpha virt. eigenvalues --    1.13397   1.14211   1.15051   1.17550   1.18219
 Alpha virt. eigenvalues --    1.19110   1.19388   1.21604   1.22102   1.23502
 Alpha virt. eigenvalues --    1.25543   1.26669   1.27195   1.27789   1.29975
 Alpha virt. eigenvalues --    1.30668   1.33633   1.33862   1.34429   1.36078
 Alpha virt. eigenvalues --    1.38008   1.38531   1.39799   1.40838   1.41433
 Alpha virt. eigenvalues --    1.44900   1.45977   1.46880   1.47698   1.48559
 Alpha virt. eigenvalues --    1.49364   1.49543   1.50575   1.50781   1.52063
 Alpha virt. eigenvalues --    1.52186   1.53602   1.54578   1.55297   1.56406
 Alpha virt. eigenvalues --    1.57618   1.58136   1.60143   1.62461   1.64883
 Alpha virt. eigenvalues --    1.67348   1.67790   1.68420   1.71292   1.71539
 Alpha virt. eigenvalues --    1.72265   1.73572   1.75452   1.75718   1.77433
 Alpha virt. eigenvalues --    1.78118   1.78458   1.79303   1.79939   1.80259
 Alpha virt. eigenvalues --    1.82147   1.83800   1.85077   1.85962   1.86416
 Alpha virt. eigenvalues --    1.86968   1.88080   1.88662   1.88973   1.90014
 Alpha virt. eigenvalues --    1.90751   1.91889   1.92568   1.93228   1.94565
 Alpha virt. eigenvalues --    1.95461   1.96442   1.97496   1.98109   1.99294
 Alpha virt. eigenvalues --    1.99577   2.00506   2.00738   2.01100   2.01894
 Alpha virt. eigenvalues --    2.02471   2.02719   2.04717   2.05621   2.06138
 Alpha virt. eigenvalues --    2.07766   2.07840   2.08222   2.08488   2.09457
 Alpha virt. eigenvalues --    2.11153   2.12212   2.12807   2.13083   2.14367
 Alpha virt. eigenvalues --    2.15101   2.15704   2.17038   2.19014   2.19148
 Alpha virt. eigenvalues --    2.19591   2.20231   2.21318   2.21610   2.22659
 Alpha virt. eigenvalues --    2.24157   2.24802   2.25797   2.27091   2.27576
 Alpha virt. eigenvalues --    2.28433   2.30279   2.31178   2.32054   2.32584
 Alpha virt. eigenvalues --    2.33316   2.35119   2.36174   2.36990   2.37887
 Alpha virt. eigenvalues --    2.38144   2.39024   2.40844   2.41502   2.42627
 Alpha virt. eigenvalues --    2.44064   2.45231   2.46026   2.47271   2.47795
 Alpha virt. eigenvalues --    2.50128   2.52166   2.52629   2.53547   2.54670
 Alpha virt. eigenvalues --    2.55316   2.56917   2.57930   2.60833   2.61457
 Alpha virt. eigenvalues --    2.63873   2.65170   2.65320   2.66814   2.67359
 Alpha virt. eigenvalues --    2.69242   2.70599   2.71843   2.73551   2.74157
 Alpha virt. eigenvalues --    2.75349   2.75763   2.76796   2.78428   2.79117
 Alpha virt. eigenvalues --    2.80888   2.82648   2.85469   2.85659   2.87763
 Alpha virt. eigenvalues --    2.89357   2.90703   2.93005   2.94039   2.95479
 Alpha virt. eigenvalues --    2.98884   3.02874   3.05070   3.12278   3.15227
 Alpha virt. eigenvalues --    3.44066   3.48656   3.90469   3.99746   4.06132
 Alpha virt. eigenvalues --    4.09310   4.11132   4.13602   4.16303   4.17286
 Alpha virt. eigenvalues --    4.19826   4.25833   4.26599   4.27249   4.29180
 Alpha virt. eigenvalues --    4.30486   4.35296   4.37462   4.38516   4.41120
 Alpha virt. eigenvalues --    4.42262   4.45699   4.48309   4.52810   4.58199
 Alpha virt. eigenvalues --    4.63352   4.66161   4.72433   4.86772   4.88422
          Condensed to atoms (all electrons):
 Mulliken atomic charges:
              1
     1  C   -0.212680
     2  O   -0.458990
     3  C    0.174309
     4  O   -0.459631
     5  C    0.030815
     6  C    0.121951
     7  C   -0.195066
     8  C    0.026096
     9  N   -0.507341
    10  C    0.247012
    11  C    0.131000
    12  C   -0.257445
    13  C    0.390645
    14  O   -0.513639
    15  C   -0.228131
    16  C   -0.180172
    17  C   -0.156521
    18  C    0.022651
    19  C   -0.293854
    20  C   -0.094884
    21  C   -0.288324
    22  C   -0.150205
    23  N   -0.393732
    24  C   -0.160982
    25  C   -0.087322
    26  C   -0.264076
    27  C   -0.260374
    28  C   -0.441047
    29  H    0.164148
    30  H    0.129801
    31  H    0.160490
    32  H    0.133818
    33  H    0.137934
    34  H    0.127451
    35  H    0.137834
    36  H    0.134620
    37  H    0.121881
    38  H    0.164325
    39  H    0.176869
    40  H    0.146049
    41  H    0.141352
    42  H    0.142606
    43  H    0.141778
    44  H    0.144750
    45  H    0.134053
    46  H    0.122123
    47  H    0.131098
    48  H    0.128368
    49  H    0.143201
    50  H    0.135899
    51  H    0.139698
    52  H    0.145851
    53  H    0.118216
    54  H    0.127583
    55  H    0.126746
    56  H    0.132218
    57  H    0.142384
    58  H    0.142142
    59  H    0.141602
    60  H    0.143048
 Sum of Mulliken atomic charges =  -0.00000
 Mulliken charges with hydrogens summed into heavy atoms:
              1
     1  C    0.241758
     2  O   -0.458990
     3  C    0.446061
     4  O   -0.459631
     5  C    0.158266
     6  C    0.121951
     7  C   -0.057232
     8  C    0.160716
     9  N   -0.507341
    10  C    0.247012
    11  C    0.131000
    12  C   -0.135564
    13  C    0.390645
    14  O   -0.513639
    15  C    0.259113
    16  C   -0.038820
    17  C   -0.013915
    18  C    0.164429
    19  C   -0.015051
    20  C    0.027239
    21  C   -0.028858
    22  C    0.128894
    23  N   -0.393732
    24  C    0.124567
    25  C    0.030894
    26  C   -0.009747
    27  C    0.014229
    28  C   -0.014255
 Sum of Mulliken charges with hydrogens summed into heavy atoms =  -0.00000
 Electronic spatial extent (au):  <R**2>=          12259.0902
 Charge=             -0.0000 electrons
 Dipole moment (field-independent basis, Debye):
    X=              2.1909    Y=             -2.7688    Z=             -0.0532  Tot=              3.5312
 Quadrupole moment (field-independent basis, Debye-Ang):
   XX=           -164.0061   YY=           -166.6805   ZZ=           -168.5166
   XY=              8.2826   XZ=             -4.3826   YZ=              4.3735
 Traceless Quadrupole moment (field-independent basis, Debye-Ang):
   XX=              2.3949   YY=             -0.2794   ZZ=             -2.1155
   XY=              8.2826   XZ=             -4.3826   YZ=              4.3735
 Octapole moment (field-independent basis, Debye-Ang**2):
  XXX=             -5.6892  YYY=            -72.7740  ZZZ=             33.6539  XYY=             -7.4377
  XXY=            -26.9466  XXZ=             14.7464  XZZ=             -8.2843  YZZ=             -6.8024
  YYZ=              3.6190  XYZ=             -0.7005
 Hexadecapole moment (field-independent basis, Debye-Ang**3):
 XXXX=         -11470.5730 YYYY=          -3352.0437 ZZZZ=          -1595.4321 XXXY=            -42.8293
 XXXZ=            -39.3980 YYYX=            191.4166 YYYZ=             24.8623 ZZZX=            -76.4503
 ZZZY=            -20.2260 XXYY=          -2391.1522 XXZZ=          -2209.1539 YYZZ=           -828.5739
 XXYZ=            -10.4063 YYXZ=             19.0207 ZZXY=             24.5270
 N-N= 2.800558775498D+03 E-N=-8.460951746832D+03  KE= 1.219405709592D+03
 No NMR shielding tensors so no spin-rotation constants.
 Leave Link  601 at Thu Sep 30 19:28:30 2021, MaxMem= 2684354560 cpu:       5.3
[...]
   311    C   21  dxy    Ryd( 3d)     0.00076
   312    C   21  dxz    Ryd( 3d)     0.00105
   313    C   21  dyz    Ryd( 3d)     0.00078
   314    C   21  dx2y2  Ryd( 3d)     0.00055
   315    C   21  dz2    Ryd( 3d)     0.00034

   316    C   22  S      Cor( 1S)     1.99933
   317    C   22  S      Val( 2S)     1.04028
   318    C   22  S      Ryd( 3S)     0.00103
   319    C   22  S      Ryd( 4S)     0.00003
   320    C   22  px     Val( 2p)     1.25764
   321    C   22  px     Ryd( 3p)     0.00484
   322    C   22  py     Val( 2p)     1.12322
   323    C   22  py     Ryd( 3p)     0.00252
   324    C   22  pz     Val( 2p)     0.87336
   325    C   22  pz     Ryd( 3p)     0.00347
   326    C   22  dxy    Ryd( 3d)     0.00079
   327    C   22  dxz    Ryd( 3d)     0.00062
   328    C   22  dyz    Ryd( 3d)     0.00103
   329    C   22  dx2y2  Ryd( 3d)     0.00107
   330    C   22  dz2    Ryd( 3d)     0.00134

   331    N   23  S      Cor( 1S)     1.99931
   332    N   23  S      Val( 2S)     1.29586
   333    N   23  S      Ryd( 3S)     0.00188
   334    N   23  S      Ryd( 4S)     0.00003
   335    N   23  px     Val( 2p)     1.27065
   336    N   23  px     Ryd( 3p)     0.00075
   337    N   23  py     Val( 2p)     1.27820
   338    N   23  py     Ryd( 3p)     0.00128
   339    N   23  pz     Val( 2p)     1.23049
   340    N   23  pz     Ryd( 3p)     0.00175
   341    N   23  dxy    Ryd( 3d)     0.00069
   342    N   23  dxz    Ryd( 3d)     0.00067
   343    N   23  dyz    Ryd( 3d)     0.00066
   344    N   23  dx2y2  Ryd( 3d)     0.00107
   345    N   23  dz2    Ryd( 3d)     0.00105

   346    C   24  S      Cor( 1S)     1.99929
   347    C   24  S      Val( 2S)     1.03512
   348    C   24  S      Ryd( 3S)     0.00120
   349    C   24  S      Ryd( 4S)     0.00003
   350    C   24  px     Val( 2p)     0.84201
   351    C   24  px     Ryd( 3p)     0.00286
   352    C   24  py     Val( 2p)     1.23249
   353    C   24  py     Ryd( 3p)     0.00580
   354    C   24  pz     Val( 2p)     1.16583
   355    C   24  pz     Ryd( 3p)     0.00325
   356    C   24  dxy    Ryd( 3d)     0.00091
   357    C   24  dxz    Ryd( 3d)     0.00066
   358    C   24  dyz    Ryd( 3d)     0.00085
   359    C   24  dx2y2  Ryd( 3d)     0.00140
   360    C   24  dz2    Ryd( 3d)     0.00112

   361    C   25  S      Cor( 1S)     1.99918
   362    C   25  S      Val( 2S)     0.97873
   363    C   25  S      Ryd( 3S)     0.00125
   364    C   25  S      Ryd( 4S)     0.00002
   365    C   25  px     Val( 2p)     1.09613
   366    C   25  px     Ryd( 3p)     0.00315
   367    C   25  py     Val( 2p)     1.12285
   368    C   25  py     Ryd( 3p)     0.00392
   369    C   25  pz     Val( 2p)     1.04201
   370    C   25  pz     Ryd( 3p)     0.00315
   371    C   25  dxy    Ryd( 3d)     0.00095
   372    C   25  dxz    Ryd( 3d)     0.00085
   373    C   25  dyz    Ryd( 3d)     0.00100
   374    C   25  dx2y2  Ryd( 3d)     0.00055
   375    C   25  dz2    Ryd( 3d)     0.00041

   376    C   26  S      Cor( 1S)     1.99929
   377    C   26  S      Val( 2S)     1.02790
   378    C   26  S      Ryd( 3S)     0.00100
   379    C   26  S      Ryd( 4S)     0.00002
   380    C   26  px     Val( 2p)     1.13319
   381    C   26  px     Ryd( 3p)     0.00215
   382    C   26  py     Val( 2p)     1.07633
   383    C   26  py     Ryd( 3p)     0.00239
   384    C   26  pz     Val( 2p)     1.20935
   385    C   26  pz     Ryd( 3p)     0.00355
   386    C   26  dxy    Ryd( 3d)     0.00095
   387    C   26  dxz    Ryd( 3d)     0.00084
   388    C   26  dyz    Ryd( 3d)     0.00070
   389    C   26  dx2y2  Ryd( 3d)     0.00042
   390    C   26  dz2    Ryd( 3d)     0.00065

   391    C   27  S      Cor( 1S)     1.99934
   392    C   27  S      Val( 2S)     1.03334
   393    C   27  S      Ryd( 3S)     0.00076
   394    C   27  S      Ryd( 4S)     0.00002
   395    C   27  px     Val( 2p)     1.14327
   396    C   27  px     Ryd( 3p)     0.00150
   397    C   27  py     Val( 2p)     1.09198
   398    C   27  py     Ryd( 3p)     0.00200
   399    C   27  pz     Val( 2p)     1.18167
   400    C   27  pz     Ryd( 3p)     0.00220
   401    C   27  dxy    Ryd( 3d)     0.00085
   402    C   27  dxz    Ryd( 3d)     0.00101
   403    C   27  dyz    Ryd( 3d)     0.00079
   404    C   27  dx2y2  Ryd( 3d)     0.00042
   405    C   27  dz2    Ryd( 3d)     0.00045

   406    C   28  S      Cor( 1S)     1.99947
   407    C   28  S      Val( 2S)     1.10293
   408    C   28  S      Ryd( 3S)     0.00035
   409    C   28  S      Ryd( 4S)     0.00001
   410    C   28  px     Val( 2p)     1.13239
   411    C   28  px     Ryd( 3p)     0.00115
   412    C   28  py     Val( 2p)     1.19796
   413    C   28  py     Ryd( 3p)     0.00188
   414    C   28  pz     Val( 2p)     1.23408
   415    C   28  pz     Ryd( 3p)     0.00151
   416    C   28  dxy    Ryd( 3d)     0.00076
   417    C   28  dxz    Ryd( 3d)     0.00096
   418    C   28  dyz    Ryd( 3d)     0.00085
   419    C   28  dx2y2  Ryd( 3d)     0.00041
   420    C   28  dz2    Ryd( 3d)     0.00029

   421    H   29  S      Val( 1S)     0.76765
   422    H   29  S      Ryd( 2S)     0.00163

   423    H   30  S      Val( 1S)     0.81398
   424    H   30  S      Ryd( 2S)     0.00178

   425    H   31  S      Val( 1S)     0.77672
   426    H   31  S      Ryd( 2S)     0.00063

   427    H   32  S      Val( 1S)     0.83071
   428    H   32  S      Ryd( 2S)     0.00159

   429    H   33  S      Val( 1S)     0.80224
   430    H   33  S      Ryd( 2S)     0.00236

   431    H   34  S      Val( 1S)     0.78145
   432    H   34  S      Ryd( 2S)     0.00246

   433    H   35  S      Val( 1S)     0.80845
   434    H   35  S      Ryd( 2S)     0.00094

   435    H   36  S      Val( 1S)     0.80719
   436    H   36  S      Ryd( 2S)     0.00112

   437    H   37  S      Val( 1S)     0.79349
   438    H   37  S      Ryd( 2S)     0.00168

   439    H   38  S      Val( 1S)     0.78414
   440    H   38  S      Ryd( 2S)     0.00059

   441    H   39  S      Val( 1S)     0.80133
   442    H   39  S      Ryd( 2S)     0.00239

   443    H   40  S      Val( 1S)     0.81217
   444    H   40  S      Ryd( 2S)     0.00244

   445    H   41  S      Val( 1S)     0.77349
   446    H   41  S      Ryd( 2S)     0.00114

   447    H   42  S      Val( 1S)     0.76785
   448    H   42  S      Ryd( 2S)     0.00149

   449    H   43  S      Val( 1S)     0.72449
   450    H   43  S      Ryd( 2S)     0.00188

   451    H   44  S      Val( 1S)     0.71283
   452    H   44  S      Ryd( 2S)     0.00067

   453    H   45  S      Val( 1S)     0.71650
   454    H   45  S      Ryd( 2S)     0.00087

   455    H   46  S      Val( 1S)     0.71056
   456    H   46  S      Ryd( 2S)     0.00121

   457    H   47  S      Val( 1S)     0.74170
   458    H   47  S      Ryd( 2S)     0.00083

   459    H   48  S      Val( 1S)     0.72408
   460    H   48  S      Ryd( 2S)     0.00051

   461    H   49  S      Val( 1S)     0.73533
   462    H   49  S      Ryd( 2S)     0.00080

   463    H   50  S      Val( 1S)     0.71724
   464    H   50  S      Ryd( 2S)     0.00030

   465    H   51  S      Val( 1S)     0.73365
   466    H   51  S      Ryd( 2S)     0.00079

   467    H   52  S      Val( 1S)     0.73022
   468    H   52  S      Ryd( 2S)     0.00079

   469    H   53  S      Val( 1S)     0.73497
   470    H   53  S      Ryd( 2S)     0.00176

   471    H   54  S      Val( 1S)     0.74540
   472    H   54  S      Ryd( 2S)     0.00129

   473    H   55  S      Val( 1S)     0.75833
   474    H   55  S      Ryd( 2S)     0.00162

   475    H   56  S      Val( 1S)     0.77469
   476    H   56  S      Ryd( 2S)     0.00140

   477    H   57  S      Val( 1S)     0.76265
   478    H   57  S      Ryd( 2S)     0.00139

   479    H   58  S      Val( 1S)     0.77206
   480    H   58  S      Ryd( 2S)     0.00100

   481    H   59  S      Val( 1S)     0.75184
   482    H   59  S      Ryd( 2S)     0.00061

   483    H   60  S      Val( 1S)     0.76886
   484    H   60  S      Ryd( 2S)     0.00095

 WARNING:  1 low occupancy (<1.9990e) core orbital  found on  C    5
           1 low occupancy (<1.9990e) core orbital  found on  C    6
           1 low occupancy (<1.9990e) core orbital  found on  C   11
           1 low occupancy (<1.9990e) core orbital  found on  C   13


 Summary of Natural Population Analysis:                  
                                                          
                                       Natural Population 
                Natural  -----------------------------------------------
    Atom  No    Charge         Core      Valence    Rydberg      Total
 -----------------------------------------------------------------------
      C    1   -0.32179      1.99944     4.30747    0.01489     6.32179
      O    2   -0.58996      1.99980     6.57836    0.01179     8.58996
      C    3    0.21114      1.99942     3.75954    0.02990     5.78886
      O    4   -0.58933      1.99979     6.57602    0.01352     8.58933
      C    5    0.08899      1.99899     3.88747    0.02455     5.91101
      C    6   -0.19229      1.99897     4.17550    0.01782     6.19229
      C    7   -0.34480      1.99902     4.33189    0.01390     6.34480
      C    8   -0.01222      1.99924     3.98812    0.02486     6.01222
      N    9   -0.54118      1.99943     5.51932    0.02243     7.54118
      C   10    0.15719      1.99902     3.82172    0.02207     5.84281
      C   11   -0.04514      1.99898     4.03148    0.01468     6.04514
      C   12   -0.39974      1.99900     4.38947    0.01127     6.39974
      C   13    0.30682      1.99879     3.67148    0.02291     5.69318
      O   14   -0.53211      1.99974     6.52066    0.01171     8.53211
      C   15   -0.30854      1.99944     4.29540    0.01371     6.30854
      C   16   -0.31797      1.99903     4.30444    0.01450     6.31797
      C   17   -0.26638      1.99905     4.25161    0.01572     6.26638
      C   18   -0.10951      1.99914     4.09011    0.02026     6.10951
      C   19   -0.45569      1.99923     4.44171    0.01474     6.45569
      C   20   -0.26246      1.99916     4.24929    0.01401     6.26246
      C   21   -0.46267      1.99928     4.44922    0.01416     6.46267
      C   22   -0.31055      1.99933     4.29449    0.01674     6.31055
      N   23   -0.08433      1.99931     5.07519    0.00983     7.08433
      C   24   -0.29281      1.99929     4.27545    0.01807     6.29281
      C   25   -0.25414      1.99918     4.23972    0.01525     6.25414
      C   26   -0.45872      1.99929     4.44676    0.01266     6.45872
      C   27   -0.45960      1.99934     4.45026    0.01000     6.45960
      C   28   -0.67501      1.99947     4.66736    0.00818     6.67501
      H   29    0.23072      0.00000     0.76765    0.00163     0.76928
      H   30    0.18424      0.00000     0.81398    0.00178     0.81576
      H   31    0.22265      0.00000     0.77672    0.00063     0.77735
      H   32    0.16771      0.00000     0.83071    0.00159     0.83229
      H   33    0.19540      0.00000     0.80224    0.00236     0.80460
      H   34    0.21608      0.00000     0.78145    0.00246     0.78392
      H   35    0.19061      0.00000     0.80845    0.00094     0.80939
      H   36    0.19169      0.00000     0.80719    0.00112     0.80831
      H   37    0.20483      0.00000     0.79349    0.00168     0.79517
      H   38    0.21527      0.00000     0.78414    0.00059     0.78473
      H   39    0.19628      0.00000     0.80133    0.00239     0.80372
      H   40    0.18539      0.00000     0.81217    0.00244     0.81461
      H   41    0.22538      0.00000     0.77349    0.00114     0.77462
      H   42    0.23067      0.00000     0.76785    0.00149     0.76933
      H   43    0.27364      0.00000     0.72449    0.00188     0.72636
      H   44    0.28650      0.00000     0.71283    0.00067     0.71350
      H   45    0.28262      0.00000     0.71650    0.00087     0.71738
      H   46    0.28822      0.00000     0.71056    0.00121     0.71178
      H   47    0.25747      0.00000     0.74170    0.00083     0.74253
      H   48    0.27540      0.00000     0.72408    0.00051     0.72460
      H   49    0.26388      0.00000     0.73533    0.00080     0.73612
      H   50    0.28246      0.00000     0.71724    0.00030     0.71754
      H   51    0.26556      0.00000     0.73365    0.00079     0.73444
      H   52    0.26899      0.00000     0.73022    0.00079     0.73101
      H   53    0.26327      0.00000     0.73497    0.00176     0.73673
      H   54    0.25331      0.00000     0.74540    0.00129     0.74669
      H   55    0.24005      0.00000     0.75833    0.00162     0.75995
      H   56    0.22391      0.00000     0.77469    0.00140     0.77609
      H   57    0.23596      0.00000     0.76265    0.00139     0.76404
      H   58    0.22693      0.00000     0.77206    0.00100     0.77307
      H   59    0.24754      0.00000     0.75184    0.00061     0.75246
      H   60    0.23019      0.00000     0.76886    0.00095     0.76981
 =======================================================================
   * Total *   -0.00000     55.97917   151.52577    0.49506   208.00000

                                 Natural Population      
 --------------------------------------------------------
   Core                      55.97917 ( 99.9628% of  56)
   Valence                  151.52577 ( 99.6880% of 152)
   Natural Minimal Basis    207.50494 ( 99.7620% of 208)
   Natural Rydberg Basis      0.49506 (  0.2380% of 208)
 --------------------------------------------------------

    Atom  No          Natural Electron Configuration
 ----------------------------------------------------------------------------
      C    1      [core]2S( 1.10)2p( 3.20)3p( 0.01)3d( 0.01)
      O    2      [core]2S( 1.63)2p( 4.95)3d( 0.01)
      C    3      [core]2S( 0.99)2p( 2.77)3p( 0.02)3d( 0.01)
      O    4      [core]2S( 1.63)2p( 4.94)3p( 0.01)3d( 0.01)
      C    5      [core]2S( 0.93)2p( 2.96)3p( 0.02)3d( 0.01)
      C    6      [core]2S( 0.84)2p( 3.34)3p( 0.01)
      C    7      [core]2S( 0.94)2p( 3.39)3p( 0.01)
      C    8      [core]2S( 0.91)2p( 3.08)3p( 0.02)
      N    9      [core]2S( 1.35)2p( 4.17)3p( 0.01)3d( 0.01)
      C   10      [core]2S( 0.83)2p( 2.99)3p( 0.02)
      C   11      [core]2S( 0.86)2p( 3.17)3p( 0.01)
      C   12      [core]2S( 0.93)2p( 3.46)3p( 0.01)
      C   13      [core]2S( 0.82)2p( 2.85)3p( 0.02)3d( 0.01)
      O   14      [core]2S( 1.59)2p( 4.93)3p( 0.01)3d( 0.01)
      C   15      [core]2S( 1.09)2p( 3.20)3p( 0.01)3d( 0.01)
      C   16      [core]2S( 0.95)2p( 3.35)3p( 0.01)
      C   17      [core]2S( 0.95)2p( 3.30)3p( 0.01)
      C   18      [core]2S( 0.97)2p( 3.12)3p( 0.01)
      C   19      [core]2S( 1.04)2p( 3.40)3p( 0.01)
      C   20      [core]2S( 0.97)2p( 3.28)3p( 0.01)
      C   21      [core]2S( 1.05)2p( 3.40)3p( 0.01)
      C   22      [core]2S( 1.04)2p( 3.25)3p( 0.01)
      N   23      [core]2S( 1.30)2p( 3.78)
      C   24      [core]2S( 1.04)2p( 3.24)3p( 0.01)
      C   25      [core]2S( 0.98)2p( 3.26)3p( 0.01)
      C   26      [core]2S( 1.03)2p( 3.42)3p( 0.01)
      C   27      [core]2S( 1.03)2p( 3.42)3p( 0.01)
      C   28      [core]2S( 1.10)2p( 3.56)
      H   29            1S( 0.77)
      H   30            1S( 0.81)
      H   31            1S( 0.78)
      H   32            1S( 0.83)
      H   33            1S( 0.80)
      H   34            1S( 0.78)
      H   35            1S( 0.81)
      H   36            1S( 0.81)
      H   37            1S( 0.79)
      H   38            1S( 0.78)
      H   39            1S( 0.80)
      H   40            1S( 0.81)
      H   41            1S( 0.77)
      H   42            1S( 0.77)
      H   43            1S( 0.72)
      H   44            1S( 0.71)
      H   45            1S( 0.72)
      H   46            1S( 0.71)
      H   47            1S( 0.74)
      H   48            1S( 0.72)
      H   49            1S( 0.74)
      H   50            1S( 0.72)
      H   51            1S( 0.73)
      H   52            1S( 0.73)
      H   53            1S( 0.73)
      H   54            1S( 0.75)
      H   55            1S( 0.76)
      H   56            1S( 0.77)
      H   57            1S( 0.76)
      H   58            1S( 0.77)
      H   59            1S( 0.75)
      H   60            1S( 0.77)


 NBO analysis skipped by request.
 Leave Link  607 at Fri Oct  1 07:47:10 2021, MaxMem= 2684354560 cpu:      46.4
 (Enter /sw/target/amd/app/gaussian/Gaussian09RevA.02_gcc-4.9.2/g09/l9999.exe)
 1\1\GINC-HERMITE\SP\RTD-B3LYP-FC\6-31G(d)\C23H32N2O3\JSCHLEINITZ\01-Oc
 t-2021\0\\#p TD(NStates=10, Root=1) b3lyp/6-31G* volume pop=NPA densit
 y=current Geom=AllCheck Guess=Read\\COCO[C@@H](c1ccnc2c1cc(OC)cc2)C1CC
 2CCN1CC2CCC_conf_0\\0,1\C,0,7.8323945392,-3.7142266303,4.841518061\O,0
 ,7.2105536826,-2.4356924911,4.9164960817\C,0,7.8810448752,-1.541831197
 3,5.7727236521\O,0,7.8349396461,-1.916467186,7.1294601248\C,0,6.559582
 8017,-1.7508553139,7.7755488472\C,0,6.3185873154,-2.9999369443,8.61297
 05049\C,0,6.9828918886,-3.1773214243,9.8114008069\C,0,6.7622898899,-4.
 3374919796,10.5848266517\N,0,5.9332256226,-5.3032672316,10.2418336963\
 C,0,5.2804251653,-5.1728081056,9.0540023366\C,0,5.4446434113,-4.048155
 3761,8.1782786418\C,0,4.7452218394,-4.0380393887,6.9367964785\C,0,3.90
 80500273,-5.0825108293,6.5961425232\O,0,3.2087012255,-5.1704237639,5.4
 295594009\C,0,3.319831399,-4.1023165055,4.5000902516\C,0,3.7240941785,
 -6.1815297069,7.4795282175\C,0,4.3974015988,-6.2219495988,8.6709057846
 \C,0,6.5578115248,-0.4449407,8.5962496834\C,0,5.339145036,-0.286387296
 2,9.5540401571\C,0,4.829497145,1.1712676298,9.4667914522\C,0,4.2488312
 684,1.3398093379,8.047713562\C,0,5.4050480282,1.0574853983,7.036296222
 8\N,0,6.6792522264,0.7423758619,7.7148777083\C,0,7.0551225145,1.892281
 3103,8.5584654419\C,0,5.9507117572,2.2362077295,9.6160299407\C,0,6.488
 5871825,2.5228287921,11.0352761172\C,0,7.1765801205,1.3976454383,11.82
 44584665\C,0,7.8337086197,1.9164922525,13.1092896865\H,0,7.8174667781,
 -4.2284316454,5.8088241477\H,0,8.8752936782,-3.6225649052,4.5017256138
 \H,0,7.269280735,-4.2991030139,4.110263042\H,0,7.4172913821,-0.5652002
 006,5.6154996912\H,0,8.9520593422,-1.5016109855,5.5301384466\H,0,5.778
 7092144,-1.6811551858,7.0148260778\H,0,7.6793791966,-2.4283146846,10.1
 752644704\H,0,7.2889165025,-4.4618806529,11.5307011602\H,0,4.915705938
 1,-3.2331832945,6.2352089057\H,0,2.6875311628,-4.3757821645,3.65355720
 27\H,0,4.3539888071,-3.9689254181,4.1577365794\H,0,2.9633240324,-3.158
 0899515,4.9325728179\H,0,3.0514140138,-6.9771043591,7.1745695211\H,0,4
 .2863556329,-7.0548028608,9.3579394396\H,0,7.4826927579,-0.4563907048,
 9.1826188385\H,0,5.6081143877,-0.5737725696,10.5729389316\H,0,4.520302
 7768,-0.9567090571,9.2587713111\H,0,4.0488960986,1.3414667117,10.21850
 62373\H,0,3.8484109655,2.3520948813,7.9128584358\H,0,3.4159086306,0.64
 19941516,7.8966960745\H,0,5.5902904717,1.9275895784,6.3964731253\H,0,5
 .147866858,0.2323211211,6.364486257\H,0,7.2404159385,2.7492372648,7.89
 9836735\H,0,8.0087471493,1.6520716522,9.0425593693\H,0,5.4867267631,3.
 1843623396,9.3081555093\H,0,5.6585848315,2.9121991359,11.643373295\H,0
 ,7.2009864069,3.357859108,10.9452389178\H,0,7.9397601877,0.9068148781,
 11.2055632934\H,0,6.4468867084,0.6232210951,12.088202874\H,0,8.6088738
 669,2.6597581487,12.8856083871\H,0,8.3030381835,1.1037888698,13.675161
 585\H,0,7.0962757096,2.3961005802,13.7647856743\\Version=AM64L-G09RevA
 .02\State=1-A\HF=-1230.8520768\RMSD=2.798e-09\Dipole=0.7339431,8.50368
 45,-0.4906285\Quadrupole=-0.320098,-2.3572217,2.6773197,-7.0069025,-1.
 7080441,11.6544952\PG=C01 [X(C23H32N2O3)]\\@


 ONE OF THE BENEFITS OF A COLLEGE EDUCATION
 IS TO SHOW THE BOY ITS LITTLE AVAIL 
                                    EMERSON IN 'CULTURE'
 Job cpu time:  0 days 14 hours 17 minutes 48.4 seconds.
 File lengths (MBytes):  RWF=    764 Int=      0 D2E=      0 Chk=    105 Scr=      1
 Normal termination of Gaussian 09 at Fri Oct  1 07:47:13 2021.
