 Entering Gaussian System, Link 0=g09
 Input=C23H19NO_cf87_conf_0.com
 Output=C23H19NO_cf87_conf_0.log
 Initial command:
 /sw/target/amd/app/gaussian/Gaussian09RevA.02_gcc-4.9.2/g09/l1.exe /home/jschleinitz/gaussian/Gau-3299959.inp -scrdir=/home/jschleinitz/gaussian/
 Entering Link 1 = /sw/target/amd/app/gaussian/Gaussian09RevA.02_gcc-4.9.2/g09/l1.exe PID=   3299986.
  
 Copyright (c) 1988,1990,1992,1993,1995,1998,2003,2009, Gaussian, Inc.
                  All Rights Reserved.
  
 This is part of the Gaussian(R) 09 program.  It is based on
 the Gaussian(R) 03 system (copyright 2003, Gaussian, Inc.),
 the Gaussian(R) 98 system (copyright 1998, Gaussian, Inc.),
 the Gaussian(R) 94 system (copyright 1995, Gaussian, Inc.),
 the Gaussian 92(TM) system (copyright 1992, Gaussian, Inc.),
 the Gaussian 90(TM) system (copyright 1990, Gaussian, Inc.),
 the Gaussian 88(TM) system (copyright 1988, Gaussian, Inc.),
 the Gaussian 86(TM) system (copyright 1986, Carnegie Mellon
 University), and the Gaussian 82(TM) system (copyright 1983,
 Carnegie Mellon University). Gaussian is a federally registered
 trademark of Gaussian, Inc.
  
 This software contains proprietary and confidential information,
 including trade secrets, belonging to Gaussian, Inc.
  
 This software is provided under written license and may be
 used, copied, transmitted, or stored only in accord with that
 written license.
  
 The following legend is applicable only to US Government
 contracts under FAR:
  
                    RESTRICTED RIGHTS LEGEND
  
 Use, reproduction and disclosure by the US Government is
 subject to restrictions as set forth in subparagraphs (a)
 and (c) of the Commercial Computer Software - Restricted
 Rights clause in FAR 52.227-19.
  
 Gaussian, Inc.
 340 Quinnipiac St., Bldg. 40, Wallingford CT 06492
  
  
 ---------------------------------------------------------------
 Warning -- This program may not be used in any manner that
 competes with the business of Gaussian, Inc. or will provide
 assistance to any competitor of Gaussian, Inc.  The licensee
 of this program is prohibited from giving any competitor of
 Gaussian, Inc. access to this program.  By using this program,
 the user acknowledges that Gaussian, Inc. is engaged in the
 business of creating and licensing software in the field of
 computational chemistry and represents and warrants to the
 licensee that it is not a competitor of Gaussian, Inc. and that
 it will not use this program in any manner prohibited above.
 ---------------------------------------------------------------
  

 Cite this work as:
 Gaussian 09, Revision A.02,
 M. J. Frisch, G. W. Trucks, H. B. Schlegel, G. E. Scuseria, 
 M. A. Robb, J. R. Cheeseman, G. Scalmani, V. Barone, B. Mennucci, 
 G. A. Petersson, H. Nakatsuji, M. Caricato, X. Li, H. P. Hratchian, 
 A. F. Izmaylov, J. Bloino, G. Zheng, J. L. Sonnenberg, M. Hada, 
 M. Ehara, K. Toyota, R. Fukuda, J. Hasegawa, M. Ishida, T. Nakajima, 
 Y. Honda, O. Kitao, H. Nakai, T. Vreven, J. A. Montgomery, Jr., 
 J. E. Peralta, F. Ogliaro, M. Bearpark, J. J. Heyd, E. Brothers, 
 K. N. Kudin, V. N. Staroverov, R. Kobayashi, J. Normand, 
 K. Raghavachari, A. Rendell, J. C. Burant, S. S. Iyengar, J. Tomasi, 
 M. Cossi, N. Rega, J. M. Millam, M. Klene, J. E. Knox, J. B. Cross, 
 V. Bakken, C. Adamo, J. Jaramillo, R. Gomperts, R. E. Stratmann, 
 O. Yazyev, A. J. Austin, R. Cammi, C. Pomelli, J. W. Ochterski, 
 R. L. Martin, K. Morokuma, V. G. Zakrzewski, G. A. Voth, 
 P. Salvador, J. J. Dannenberg, S. Dapprich, A. D. Daniels, 
 O. Farkas, J. B. Foresman, J. V. Ortiz, J. Cioslowski, 
 and D. J. Fox, Gaussian, Inc., Wallingford CT, 2009.
 
 ******************************************
 Gaussian 09:  AM64L-G09RevA.02 11-Jun-2009
                28-Sep-2021 
 ******************************************
 %nproc=7
 Will use up to    7 processors via shared memory.
 %mem=14gb
 %chk=C23H19NO_cf87_conf_0.chk
 -----------------------------------
 #p opt b3lyp/6-31G* scf=(xqc,tight)
 -----------------------------------
 1/14=-1,18=20,19=15,26=3,38=1/1,3;
 2/9=110,12=2,17=6,18=5,40=1/2;
 3/5=1,6=6,7=1,11=2,16=1,25=1,30=1,71=1,74=-5/1,2,3;
 4//1;
 5/5=2,8=3,13=1,32=2,38=5/2,8;
 6/7=2,8=2,9=2,10=2,28=1/1;
 7//1,2,3,16;
 1/14=-1,18=20,19=15/3(2);
 2/9=110/2;
 99//99;
 2/9=110/2;
 3/5=1,6=6,7=1,11=2,16=1,25=1,30=1,71=1,74=-5/1,2,3;
 4/5=5,16=3/1;
 5/5=2,8=3,13=1,32=2,38=5/2,8;
 7//1,2,3,16;
 1/14=-1,18=20,19=15/3(-5);
 2/9=110/2;
 6/7=2,8=2,9=2,10=2,19=2,28=1/1;
 99/9=1/99;
 Leave Link    1 at Tue Sep 28 15:18:20 2021, MaxMem= 1879048192 cpu:       0.1
 (Enter /sw/target/amd/app/gaussian/Gaussian09RevA.02_gcc-4.9.2/g09/l101.exe)
 ----------------------------------------------
 COc1ccc2c(c1)ccc(c2)N(c1ccccc1)c1ccccc1_conf_0
 ----------------------------------------------
 Symbolic Z-matrix:
 Charge =  0 Multiplicity = 1
 C                     1.34496   0.89547  -1.13288 
 O                     2.37793   1.21129  -2.06362 
 C                     3.26901   2.1638   -1.63932 
 C                     3.82888   2.95627  -2.63778 
 C                     4.72577   3.98191  -2.3075 
 C                     5.10308   4.2084   -0.97268 
 C                     4.58746   3.35376   0.02444 
 C                     3.66743   2.34328  -0.31776 
 C                     5.00801   3.5203    1.34705 
 C                     5.91927   4.52649   1.68772 
 C                     6.40399   5.43946   0.73423 
 C                     5.97737   5.25624  -0.59726 
 N                     7.29494   6.52304   1.12822 
 C                     7.1966    7.08184   2.46995 
 C                     8.34723   7.43856   3.20071 
 C                     8.25265   7.97476   4.48928 
 C                     7.00832   8.13649   5.0901 
 C                     5.8547    7.78233   4.39316 
 C                     5.94799   7.27911   3.09153 
 C                     8.30505   7.03993   0.2173 
 C                     8.6975    8.39396   0.25802 
 C                     9.69775   8.8926   -0.58292 
 C                     10.30644   8.05778  -1.51277 
 C                     9.92689   6.72084  -1.58812 
 C                     8.95096   6.21339  -0.72056 
 H                     0.60393   0.28001  -1.65162 
 H                     0.83959   1.80006  -0.77761 
 H                     1.73114   0.30657  -0.29491 
 H                     3.55607   2.7902   -3.67629 
 H                     5.13405   4.59565  -3.10758 
 H                     3.28439   1.69833   0.46734 
 H                     4.63688   2.86716   2.1299 
 H                     6.23909   4.58657   2.7244 
 H                     6.31333   5.94928  -1.36745 
 H                     9.33672   7.29432   2.77227 
 H                     9.15556   8.25898   5.02494 
 H                     6.93512   8.53824   6.09779 
 H                     4.881     7.89898   4.86121 
 H                     5.0286    7.03912   2.56279 
 H                     8.22585   9.08303   0.95471 
 H                     9.99773   9.93564  -0.50805 
 H                     11.07519   8.44599  -2.17528 
 H                     10.39731   6.06403  -2.3164 
 H                     8.71413   5.15452  -0.7799 
 
 NAtoms=     44 NQM=     44 NQMF=      0 NMic=      0 NMicF=      0 NTot=     44.
                    Isotopes and Nuclear Properties:
 (Nuclear quadrupole moments (NQMom) in fm**2, nuclear magnetic moments (NMagM)
  in nuclear magnetons)

  Atom         1           2           3           4           5           6           7           8           9          10
 IAtWgt=          12          16          12          12          12          12          12          12          12          12
 AtmWgt=  12.0000000  15.9949146  12.0000000  12.0000000  12.0000000  12.0000000  12.0000000  12.0000000  12.0000000  12.0000000
 NucSpn=           0           0           0           0           0           0           0           0           0           0
 AtZEff=   0.0000000   0.0000000   0.0000000   0.0000000   0.0000000   0.0000000   0.0000000   0.0000000   0.0000000   0.0000000
 NQMom=    0.0000000   0.0000000   0.0000000   0.0000000   0.0000000   0.0000000   0.0000000   0.0000000   0.0000000   0.0000000
 NMagM=    0.0000000   0.0000000   0.0000000   0.0000000   0.0000000   0.0000000   0.0000000   0.0000000   0.0000000   0.0000000

  Atom        11          12          13          14          15          16          17          18          19          20
 IAtWgt=          12          12          14          12          12          12          12          12          12          12
 AtmWgt=  12.0000000  12.0000000  14.0030740  12.0000000  12.0000000  12.0000000  12.0000000  12.0000000  12.0000000  12.0000000
 NucSpn=           0           0           2           0           0           0           0           0           0           0
 AtZEff=   0.0000000   0.0000000   0.0000000   0.0000000   0.0000000   0.0000000   0.0000000   0.0000000   0.0000000   0.0000000
 NQMom=    0.0000000   0.0000000   2.0440000   0.0000000   0.0000000   0.0000000   0.0000000   0.0000000   0.0000000   0.0000000
 NMagM=    0.0000000   0.0000000   0.4037610   0.0000000   0.0000000   0.0000000   0.0000000   0.0000000   0.0000000   0.0000000

  Atom        21          22          23          24          25          26          27          28          29          30
 IAtWgt=          12          12          12          12          12           1           1           1           1           1
 AtmWgt=  12.0000000  12.0000000  12.0000000  12.0000000  12.0000000   1.0078250   1.0078250   1.0078250   1.0078250   1.0078250
 NucSpn=           0           0           0           0           0           1           1           1           1           1
 AtZEff=   0.0000000   0.0000000   0.0000000   0.0000000   0.0000000   0.0000000   0.0000000   0.0000000   0.0000000   0.0000000
 NQMom=    0.0000000   0.0000000   0.0000000   0.0000000   0.0000000   0.0000000   0.0000000   0.0000000   0.0000000   0.0000000
 NMagM=    0.0000000   0.0000000   0.0000000   0.0000000   0.0000000   2.7928460   2.7928460   2.7928460   2.7928460   2.7928460

  Atom        31          32          33          34          35          36          37          38          39          40
 IAtWgt=           1           1           1           1           1           1           1           1           1           1
 AtmWgt=   1.0078250   1.0078250   1.0078250   1.0078250   1.0078250   1.0078250   1.0078250   1.0078250   1.0078250   1.0078250
 NucSpn=           1           1           1           1           1           1           1           1           1           1
 AtZEff=   0.0000000   0.0000000   0.0000000   0.0000000   0.0000000   0.0000000   0.0000000   0.0000000   0.0000000   0.0000000
 NQMom=    0.0000000   0.0000000   0.0000000   0.0000000   0.0000000   0.0000000   0.0000000   0.0000000   0.0000000   0.0000000
 NMagM=    2.7928460   2.7928460   2.7928460   2.7928460   2.7928460   2.7928460   2.7928460   2.7928460   2.7928460   2.7928460

  Atom        41          42          43          44
 IAtWgt=           1           1           1           1
 AtmWgt=   1.0078250   1.0078250   1.0078250   1.0078250
 NucSpn=           1           1           1           1
 AtZEff=   0.0000000   0.0000000   0.0000000   0.0000000
 NQMom=    0.0000000   0.0000000   0.0000000   0.0000000
 NMagM=    2.7928460   2.7928460   2.7928460   2.7928460
 Leave Link  101 at Tue Sep 28 15:18:21 2021, MaxMem= 1879048192 cpu:       0.2
 (Enter /sw/target/amd/app/gaussian/Gaussian09RevA.02_gcc-4.9.2/g09/l103.exe)

 GradGradGradGradGradGradGradGradGradGradGradGradGradGradGradGradGradGrad
 Berny optimization.
 Initialization pass.
                           ----------------------------
                           !    Initial Parameters    !
                           ! (Angstroms and Degrees)  !
 --------------------------                            --------------------------
 ! Name  Definition              Value          Derivative Info.                !
 --------------------------------------------------------------------------------
 ! R1    R(1,2)                  1.4259         estimate D2E/DX2                !
 ! R2    R(1,26)                 1.0941         estimate D2E/DX2                !
 ! R3    R(1,27)                 1.0954         estimate D2E/DX2                !
 ! R4    R(1,28)                 1.0946         estimate D2E/DX2                !
 ! R5    R(2,3)                  1.3716         estimate D2E/DX2                !
 ! R6    R(3,4)                  1.3923         estimate D2E/DX2                !
 ! R7    R(3,8)                  1.3919         estimate D2E/DX2                !
 ! R8    R(4,5)                  1.4019         estimate D2E/DX2                !
 ! R9    R(4,29)                 1.0865         estimate D2E/DX2                !
 ! R10   R(5,6)                  1.4055         estimate D2E/DX2                !
 ! R11   R(5,30)                 1.0879         estimate D2E/DX2                !
 ! R12   R(6,7)                  1.4109         estimate D2E/DX2                !
 ! R13   R(6,12)                 1.4154         estimate D2E/DX2                !
 ! R14   R(7,8)                  1.4088         estimate D2E/DX2                !
 ! R15   R(7,9)                  1.3978         estimate D2E/DX2                !
 ! R16   R(8,31)                 1.0859         estimate D2E/DX2                !
 ! R17   R(9,10)                 1.3996         estimate D2E/DX2                !
 ! R18   R(9,32)                 1.085          estimate D2E/DX2                !
 ! R19   R(10,11)                1.4063         estimate D2E/DX2                !
 ! R20   R(10,33)                1.0866         estimate D2E/DX2                !
 ! R21   R(11,12)                1.4101         estimate D2E/DX2                !
 ! R22   R(11,13)                1.4571         estimate D2E/DX2                !
 ! R23   R(12,34)                1.0892         estimate D2E/DX2                !
 ! R24   R(13,14)                1.4568         estimate D2E/DX2                !
 ! R25   R(13,20)                1.4551         estimate D2E/DX2                !
 ! R26   R(14,15)                1.409          estimate D2E/DX2                !
 ! R27   R(14,19)                1.4086         estimate D2E/DX2                !
 ! R28   R(15,16)                1.3989         estimate D2E/DX2                !
 ! R29   R(15,35)                1.0879         estimate D2E/DX2                !
 ! R30   R(16,17)                1.3912         estimate D2E/DX2                !
 ! R31   R(16,36)                1.0876         estimate D2E/DX2                !
 ! R32   R(17,18)                1.3936         estimate D2E/DX2                !
 ! R33   R(17,37)                1.0873         estimate D2E/DX2                !
 ! R34   R(18,19)                1.3986         estimate D2E/DX2                !
 ! R35   R(18,38)                1.0866         estimate D2E/DX2                !
 ! R36   R(19,39)                1.0874         estimate D2E/DX2                !
 ! R37   R(20,21)                1.4103         estimate D2E/DX2                !
 ! R38   R(20,25)                1.4071         estimate D2E/DX2                !
 ! R39   R(21,22)                1.3987         estimate D2E/DX2                !
 ! R40   R(21,40)                1.0875         estimate D2E/DX2                !
 ! R41   R(22,23)                1.39           estimate D2E/DX2                !
 ! R42   R(22,41)                1.0879         estimate D2E/DX2                !
 ! R43   R(23,24)                1.3918         estimate D2E/DX2                !
 ! R44   R(23,42)                1.0866         estimate D2E/DX2                !
 ! R45   R(24,25)                1.4009         estimate D2E/DX2                !
 ! R46   R(24,43)                1.0877         estimate D2E/DX2                !
 ! R47   R(25,44)                1.0867         estimate D2E/DX2                !
 ! A1    A(2,1,26)             107.8048         estimate D2E/DX2                !
 ! A2    A(2,1,27)             111.2861         estimate D2E/DX2                !
 ! A3    A(2,1,28)             111.3026         estimate D2E/DX2                !
 ! A4    A(26,1,27)            107.8096         estimate D2E/DX2                !
 ! A5    A(26,1,28)            107.4144         estimate D2E/DX2                !
 ! A6    A(27,1,28)            111.0255         estimate D2E/DX2                !
 ! A7    A(1,2,3)              114.995          estimate D2E/DX2                !
 ! A8    A(2,3,4)              115.7648         estimate D2E/DX2                !
 ! A9    A(2,3,8)              124.6944         estimate D2E/DX2                !
 ! A10   A(4,3,8)              119.4983         estimate D2E/DX2                !
 ! A11   A(3,4,5)              120.3132         estimate D2E/DX2                !
 ! A12   A(3,4,29)             119.8349         estimate D2E/DX2                !
 ! A13   A(5,4,29)             119.8433         estimate D2E/DX2                !
 ! A14   A(4,5,6)              120.8889         estimate D2E/DX2                !
 ! A15   A(4,5,30)             118.6571         estimate D2E/DX2                !
 ! A16   A(6,5,30)             120.4512         estimate D2E/DX2                !
 ! A17   A(5,6,7)              118.3912         estimate D2E/DX2                !
 ! A18   A(5,6,12)             122.4818         estimate D2E/DX2                !
 ! A19   A(7,6,12)             119.127          estimate D2E/DX2                !
 ! A20   A(6,7,8)              120.0989         estimate D2E/DX2                !
 ! A21   A(6,7,9)              119.1171         estimate D2E/DX2                !
 ! A22   A(8,7,9)              120.7829         estimate D2E/DX2                !
 ! A23   A(3,8,7)              120.6672         estimate D2E/DX2                !
 ! A24   A(3,8,31)             120.5918         estimate D2E/DX2                !
 ! A25   A(7,8,31)             118.7363         estimate D2E/DX2                !
 ! A26   A(7,9,10)             120.7872         estimate D2E/DX2                !
 ! A27   A(7,9,32)             120.5358         estimate D2E/DX2                !
 ! A28   A(10,9,32)            118.6763         estimate D2E/DX2                !
 ! A29   A(9,10,11)            121.7432         estimate D2E/DX2                !
 ! A30   A(9,10,33)            117.6215         estimate D2E/DX2                !
 ! A31   A(11,10,33)           120.6338         estimate D2E/DX2                !
 ! A32   A(10,11,12)           116.8452         estimate D2E/DX2                !
 ! A33   A(10,11,13)           120.6779         estimate D2E/DX2                !
 ! A34   A(12,11,13)           122.4748         estimate D2E/DX2                !
 ! A35   A(6,12,11)            122.2442         estimate D2E/DX2                !
 ! A36   A(6,12,34)            118.2962         estimate D2E/DX2                !
 ! A37   A(11,12,34)           119.4516         estimate D2E/DX2                !
 ! A38   A(11,13,14)           119.5391         estimate D2E/DX2                !
 ! A39   A(11,13,20)           121.2895         estimate D2E/DX2                !
 ! A40   A(14,13,20)           119.1561         estimate D2E/DX2                !
 ! A41   A(13,14,15)           121.3104         estimate D2E/DX2                !
 ! A42   A(13,14,19)           121.3306         estimate D2E/DX2                !
 ! A43   A(15,14,19)           117.3578         estimate D2E/DX2                !
 ! A44   A(14,15,16)           121.3038         estimate D2E/DX2                !
 ! A45   A(14,15,35)           120.3295         estimate D2E/DX2                !
 ! A46   A(16,15,35)           118.3653         estimate D2E/DX2                !
 ! A47   A(15,16,17)           120.1882         estimate D2E/DX2                !
 ! A48   A(15,16,36)           119.8478         estimate D2E/DX2                !
 ! A49   A(17,16,36)           119.9625         estimate D2E/DX2                !
 ! A50   A(16,17,18)           119.6629         estimate D2E/DX2                !
 ! A51   A(16,17,37)           120.2264         estimate D2E/DX2                !
 ! A52   A(18,17,37)           120.1107         estimate D2E/DX2                !
 ! A53   A(17,18,19)           120.1091         estimate D2E/DX2                !
 ! A54   A(17,18,38)           119.9405         estimate D2E/DX2                !
 ! A55   A(19,18,38)           119.9503         estimate D2E/DX2                !
 ! A56   A(14,19,18)           121.3437         estimate D2E/DX2                !
 ! A57   A(14,19,39)           120.2626         estimate D2E/DX2                !
 ! A58   A(18,19,39)           118.3936         estimate D2E/DX2                !
 ! A59   A(13,20,21)           121.0739         estimate D2E/DX2                !
 ! A60   A(13,20,25)           121.82           estimate D2E/DX2                !
 ! A61   A(21,20,25)           117.0943         estimate D2E/DX2                !
 ! A62   A(20,21,22)           121.5951         estimate D2E/DX2                !
 ! A63   A(20,21,40)           120.4065         estimate D2E/DX2                !
 ! A64   A(22,21,40)           117.9981         estimate D2E/DX2                !
 ! A65   A(21,22,23)           120.0829         estimate D2E/DX2                !
 ! A66   A(21,22,41)           119.8425         estimate D2E/DX2                !
 ! A67   A(23,22,41)           120.0746         estimate D2E/DX2                !
 ! A68   A(22,23,24)           119.5852         estimate D2E/DX2                !
 ! A69   A(22,23,42)           120.2075         estimate D2E/DX2                !
 ! A70   A(24,23,42)           120.2071         estimate D2E/DX2                !
 ! A71   A(23,24,25)           120.2907         estimate D2E/DX2                !
 ! A72   A(23,24,43)           119.8912         estimate D2E/DX2                !
 ! A73   A(25,24,43)           119.8149         estimate D2E/DX2                !
 ! A74   A(20,25,24)           121.3165         estimate D2E/DX2                !
 ! A75   A(20,25,44)           120.5798         estimate D2E/DX2                !
 ! A76   A(24,25,44)           118.0972         estimate D2E/DX2                !
 ! D1    D(26,1,2,3)           169.3742         estimate D2E/DX2                !
 ! D2    D(27,1,2,3)            51.3475         estimate D2E/DX2                !
 ! D3    D(28,1,2,3)           -73.0695         estimate D2E/DX2                !
 ! D4    D(1,2,3,4)           -149.3024         estimate D2E/DX2                !
 ! D5    D(1,2,3,8)             33.0885         estimate D2E/DX2                !
 ! D6    D(2,3,4,5)            178.3838         estimate D2E/DX2                !
 ! D7    D(2,3,4,29)            -0.5494         estimate D2E/DX2                !
 ! D8    D(8,3,4,5)             -3.8746         estimate D2E/DX2                !
 ! D9    D(8,3,4,29)           177.1921         estimate D2E/DX2                !
 ! D10   D(2,3,8,7)           -179.8132         estimate D2E/DX2                !
 ! D11   D(2,3,8,31)             0.9801         estimate D2E/DX2                !
 ! D12   D(4,3,8,7)              2.6607         estimate D2E/DX2                !
 ! D13   D(4,3,8,31)          -176.546          estimate D2E/DX2                !
 ! D14   D(3,4,5,6)              1.6408         estimate D2E/DX2                !
 ! D15   D(3,4,5,30)          -178.9708         estimate D2E/DX2                !
 ! D16   D(29,4,5,6)          -179.4261         estimate D2E/DX2                !
 ! D17   D(29,4,5,30)           -0.0376         estimate D2E/DX2                !
 ! D18   D(4,5,6,7)              1.8025         estimate D2E/DX2                !
 ! D19   D(4,5,6,12)          -178.2584         estimate D2E/DX2                !
 ! D20   D(30,5,6,7)          -177.575          estimate D2E/DX2                !
 ! D21   D(30,5,6,12)            2.364          estimate D2E/DX2                !
 ! D22   D(5,6,7,8)             -3.0013         estimate D2E/DX2                !
 ! D23   D(5,6,7,9)            176.6243         estimate D2E/DX2                !
 ! D24   D(12,6,7,8)           177.0575         estimate D2E/DX2                !
 ! D25   D(12,6,7,9)            -3.3169         estimate D2E/DX2                !
 ! D26   D(5,6,12,11)         -176.8547         estimate D2E/DX2                !
 ! D27   D(5,6,12,34)            4.1797         estimate D2E/DX2                !
 ! D28   D(7,6,12,11)            3.084          estimate D2E/DX2                !
 ! D29   D(7,6,12,34)         -175.8817         estimate D2E/DX2                !
 ! D30   D(6,7,8,3)              0.8053         estimate D2E/DX2                !
 ! D31   D(6,7,8,31)          -179.9735         estimate D2E/DX2                !
 ! D32   D(9,7,8,3)           -178.8141         estimate D2E/DX2                !
 ! D33   D(9,7,8,31)             0.4072         estimate D2E/DX2                !
 ! D34   D(6,7,9,10)             0.5516         estimate D2E/DX2                !
 ! D35   D(6,7,9,32)          -179.1455         estimate D2E/DX2                !
 ! D36   D(8,7,9,10)          -179.8254         estimate D2E/DX2                !
 ! D37   D(8,7,9,32)             0.4775         estimate D2E/DX2                !
 ! D38   D(7,9,10,11)            2.658          estimate D2E/DX2                !
 ! D39   D(7,9,10,33)         -177.7929         estimate D2E/DX2                !
 ! D40   D(32,9,10,11)        -177.6392         estimate D2E/DX2                !
 ! D41   D(32,9,10,33)           1.9099         estimate D2E/DX2                !
 ! D42   D(9,10,11,12)          -2.8799         estimate D2E/DX2                !
 ! D43   D(9,10,11,13)         176.6062         estimate D2E/DX2                !
 ! D44   D(33,10,11,12)        177.5844         estimate D2E/DX2                !
 ! D45   D(33,10,11,13)         -2.9295         estimate D2E/DX2                !
 ! D46   D(10,11,12,6)           0.0037         estimate D2E/DX2                !
 ! D47   D(10,11,12,34)        178.9578         estimate D2E/DX2                !
 ! D48   D(13,11,12,6)        -179.4724         estimate D2E/DX2                !
 ! D49   D(13,11,12,34)         -0.5183         estimate D2E/DX2                !
 ! D50   D(10,11,13,14)        -29.6532         estimate D2E/DX2                !
 ! D51   D(10,11,13,20)        148.9077         estimate D2E/DX2                !
 ! D52   D(12,11,13,14)        149.8033         estimate D2E/DX2                !
 ! D53   D(12,11,13,20)        -31.6358         estimate D2E/DX2                !
 ! D54   D(11,13,14,15)        140.2685         estimate D2E/DX2                !
 ! D55   D(11,13,14,19)        -39.3247         estimate D2E/DX2                !
 ! D56   D(20,13,14,15)        -38.3232         estimate D2E/DX2                !
 ! D57   D(20,13,14,19)        142.0835         estimate D2E/DX2                !
 ! D58   D(11,13,20,21)        148.4659         estimate D2E/DX2                !
 ! D59   D(11,13,20,25)        -32.8227         estimate D2E/DX2                !
 ! D60   D(14,13,20,21)        -32.9679         estimate D2E/DX2                !
 ! D61   D(14,13,20,25)        145.7436         estimate D2E/DX2                !
 ! D62   D(13,14,15,16)       -179.98           estimate D2E/DX2                !
 ! D63   D(13,14,15,35)         -0.4204         estimate D2E/DX2                !
 ! D64   D(19,14,15,16)         -0.3712         estimate D2E/DX2                !
 ! D65   D(19,14,15,35)        179.1883         estimate D2E/DX2                !
 ! D66   D(13,14,19,18)        178.2779         estimate D2E/DX2                !
 ! D67   D(13,14,19,39)         -1.645          estimate D2E/DX2                !
 ! D68   D(15,14,19,18)         -1.3308         estimate D2E/DX2                !
 ! D69   D(15,14,19,39)        178.7464         estimate D2E/DX2                !
 ! D70   D(14,15,16,17)          1.5729         estimate D2E/DX2                !
 ! D71   D(14,15,16,36)       -178.8733         estimate D2E/DX2                !
 ! D72   D(35,15,16,17)       -177.995          estimate D2E/DX2                !
 ! D73   D(35,15,16,36)          1.5587         estimate D2E/DX2                !
 ! D74   D(15,16,17,18)         -1.0648         estimate D2E/DX2                !
 ! D75   D(15,16,17,37)        179.0121         estimate D2E/DX2                !
 ! D76   D(36,16,17,18)        179.382          estimate D2E/DX2                !
 ! D77   D(36,16,17,37)         -0.5411         estimate D2E/DX2                !
 ! D78   D(16,17,18,19)         -0.6162         estimate D2E/DX2                !
 ! D79   D(16,17,18,38)        179.4893         estimate D2E/DX2                !
 ! D80   D(37,17,18,19)        179.307          estimate D2E/DX2                !
 ! D81   D(37,17,18,38)         -0.5876         estimate D2E/DX2                !
 ! D82   D(17,18,19,14)          1.8459         estimate D2E/DX2                !
 ! D83   D(17,18,19,39)       -178.2299         estimate D2E/DX2                !
 ! D84   D(38,18,19,14)       -178.2596         estimate D2E/DX2                !
 ! D85   D(38,18,19,39)          1.6646         estimate D2E/DX2                !
 ! D86   D(13,20,21,22)        177.9087         estimate D2E/DX2                !
 ! D87   D(13,20,21,40)         -1.9045         estimate D2E/DX2                !
 ! D88   D(25,20,21,22)         -0.8614         estimate D2E/DX2                !
 ! D89   D(25,20,21,40)        179.3253         estimate D2E/DX2                !
 ! D90   D(13,20,25,24)       -179.6765         estimate D2E/DX2                !
 ! D91   D(13,20,25,44)         -0.6202         estimate D2E/DX2                !
 ! D92   D(21,20,25,24)         -0.9162         estimate D2E/DX2                !
 ! D93   D(21,20,25,44)        178.1402         estimate D2E/DX2                !
 ! D94   D(20,21,22,23)          1.7703         estimate D2E/DX2                !
 ! D95   D(20,21,22,41)       -178.2757         estimate D2E/DX2                !
 ! D96   D(40,21,22,23)       -178.4121         estimate D2E/DX2                !
 ! D97   D(40,21,22,41)          1.5419         estimate D2E/DX2                !
 ! D98   D(21,22,23,24)         -0.8694         estimate D2E/DX2                !
 ! D99   D(21,22,23,42)        179.2557         estimate D2E/DX2                !
 ! D100  D(41,22,23,24)        179.1767         estimate D2E/DX2                !
 ! D101  D(41,22,23,42)         -0.6982         estimate D2E/DX2                !
 ! D102  D(22,23,24,25)         -0.8845         estimate D2E/DX2                !
 ! D103  D(22,23,24,43)        179.773          estimate D2E/DX2                !
 ! D104  D(42,23,24,25)        178.9904         estimate D2E/DX2                !
 ! D105  D(42,23,24,43)         -0.3521         estimate D2E/DX2                !
 ! D106  D(23,24,25,20)          1.8055         estimate D2E/DX2                !
 ! D107  D(23,24,25,44)       -177.2736         estimate D2E/DX2                !
 ! D108  D(43,24,25,20)       -178.8515         estimate D2E/DX2                !
 ! D109  D(43,24,25,44)          2.0694         estimate D2E/DX2                !
 --------------------------------------------------------------------------------
 Trust Radius=3.00D-01 FncErr=1.00D-07 GrdErr=1.00D-06
 Number of steps in this run= 242 maximum allowed number of steps= 264.
 GradGradGradGradGradGradGradGradGradGradGradGradGradGradGradGradGradGrad

 Leave Link  103 at Tue Sep 28 15:18:21 2021, MaxMem= 1879048192 cpu:       0.0
 (Enter /sw/target/amd/app/gaussian/Gaussian09RevA.02_gcc-4.9.2/g09/l202.exe)
                          Input orientation:                          
 ---------------------------------------------------------------------
 Center     Atomic      Atomic             Coordinates (Angstroms)
 Number     Number       Type             X           Y           Z
 ---------------------------------------------------------------------
      1          6           0        1.344957    0.895472   -1.132875
      2          8           0        2.377927    1.211291   -2.063621
      3          6           0        3.269009    2.163805   -1.639325
      4          6           0        3.828879    2.956267   -2.637782
      5          6           0        4.725772    3.981911   -2.307501
      6          6           0        5.103075    4.208400   -0.972682
      7          6           0        4.587457    3.353762    0.024440
      8          6           0        3.667428    2.343284   -0.317765
      9          6           0        5.008011    3.520300    1.347048
     10          6           0        5.919270    4.526488    1.687716
     11          6           0        6.403990    5.439458    0.734226
     12          6           0        5.977367    5.256239   -0.597262
     13          7           0        7.294941    6.523035    1.128216
     14          6           0        7.196597    7.081836    2.469950
     15          6           0        8.347229    7.438558    3.200707
     16          6           0        8.252648    7.974759    4.489280
     17          6           0        7.008322    8.136485    5.090099
     18          6           0        5.854701    7.782331    4.393162
     19          6           0        5.947995    7.279109    3.091534
     20          6           0        8.305053    7.039926    0.217299
     21          6           0        8.697504    8.393958    0.258016
     22          6           0        9.697752    8.892602   -0.582924
     23          6           0       10.306438    8.057785   -1.512770
     24          6           0        9.926890    6.720838   -1.588118
     25          6           0        8.950962    6.213391   -0.720558
     26          1           0        0.603934    0.280006   -1.651624
     27          1           0        0.839594    1.800061   -0.777612
     28          1           0        1.731140    0.306565   -0.294913
     29          1           0        3.556073    2.790201   -3.676290
     30          1           0        5.134054    4.595646   -3.107576
     31          1           0        3.284388    1.698326    0.467343
     32          1           0        4.636877    2.867162    2.129901
     33          1           0        6.239092    4.586568    2.724401
     34          1           0        6.313330    5.949276   -1.367449
     35          1           0        9.336725    7.294322    2.772272
     36          1           0        9.155560    8.258975    5.024944
     37          1           0        6.935121    8.538242    6.097787
     38          1           0        4.880998    7.898976    4.861206
     39          1           0        5.028597    7.039116    2.562792
     40          1           0        8.225845    9.083025    0.954714
     41          1           0        9.997728    9.935641   -0.508046
     42          1           0       11.075190    8.445994   -2.175280
     43          1           0       10.397308    6.064027   -2.316402
     44          1           0        8.714126    5.154518   -0.779904
 ---------------------------------------------------------------------
                    Distance matrix (angstroms):
                    1          2          3          4          5
     1  C    0.000000
     2  O    1.425853   0.000000
     3  C    2.359478   1.371618   0.000000
     4  C    3.561107   2.340910   1.392252   0.000000
     5  C    4.726073   3.639807   2.423661   1.401945   0.000000
     6  C    5.012445   4.195145   2.826408   2.442124   1.405488
     7  C    4.230411   3.719167   2.433602   2.796582   2.419019
     8  C    2.855598   2.447905   1.391931   2.405056   2.786439
     9  C    5.143705   4.886873   3.712496   4.193728   3.694384
    10  C    6.485704   6.132224   4.865733   5.054232   4.205087
    11  C    7.051787   6.474143   5.117788   4.916083   3.767355
    12  C    6.384543   5.609615   4.240784   3.750946   2.472917
    13  N    8.496136   7.910719   6.547542   6.238443   4.986190
    14  C    9.246250   8.845120   7.516589   7.379076   6.207942
    15  C   10.517781  10.105670   8.777086   8.636803   7.443366
    16  C   11.377220  11.099430   9.806306   9.774968   8.635851
    17  C   11.100963  10.980646   9.743743   9.831768   8.786069
    18  C    9.914823   9.846653   8.639707   8.765216   7.785663
    19  C    8.932212   8.725790   7.464873   7.483493   6.443207
    20  C    9.381909   8.620116   7.251575   6.698051   5.342033
    21  C   10.593480   9.844682   8.478401   7.852238   6.467046
    22  C   11.576948  10.713302   9.365972   8.596871   7.197891
    23  C   11.478292  10.489957   9.180437   8.321653   6.956161
    24  C   10.382278   9.357780   8.068243   7.242895   5.922065
    25  C    9.289864   8.368370   7.037604   6.365559   5.034890
    26  H    1.094081   2.045504   3.263660   4.305247   5.578874
    27  H    1.095393   2.089722   2.603251   3.705788   4.712050
    28  H    1.094591   2.089304   2.760765   4.112233   5.150388
    29  H    3.866263   2.545916   2.150351   1.086509   2.159156
    30  H    5.652255   4.487754   3.398236   2.147499   1.087880
    31  H    2.639444   2.732151   2.157534   3.394213   3.871965
    32  H    5.036865   5.042856   4.070975   4.836486   4.576145
    33  H    7.242606   7.016142   5.808036   6.100821   5.289214
    34  H    7.090888   6.198432   4.865347   4.091986   2.697140
    35  H   10.957363  10.431394   9.088540   8.855720   7.618204
    36  H   12.375195  12.077000  10.780310  10.733575   9.575022
    37  H   11.914040  11.876902  10.674115  10.822077   9.812759
    38  H    9.873280   9.947046   8.817460   9.042795   8.170548
    39  H    8.060492   7.898943   6.672526   6.719743   5.758295
    40  H   10.896820  10.260248   8.898027   8.353233   6.993849
    41  H   12.529387  11.687407  10.341997   9.555216   8.153432
    42  H   12.360196  11.313522  10.034422   9.102749   7.762772
    43  H   10.490937   9.376748   8.153699   7.273632   6.041655
    44  H    8.518727   7.572607   6.271544   5.670066   4.428941
                    6          7          8          9         10
     6  C    0.000000
     7  C    1.410859   0.000000
     8  C    2.443083   1.408766   0.000000
     9  C    2.421501   1.397816   2.440108   0.000000
    10  C    2.800906   2.432180   3.722784   1.399594   0.000000
    11  C    2.474150   2.855471   4.264006   2.451015   1.406275
    12  C    1.415377   2.436756   3.728168   2.780913   2.399382
    13  N    3.817799   4.311970   5.720143   3.780788   2.488315
    14  C    4.948857   5.165913   6.533013   4.328436   2.961968
    15  C    6.194807   6.396101   7.761571   5.471670   4.082190
    16  C    7.344270   7.397434   8.708928   6.343776   5.018365
    17  C    7.471087   7.375359   8.600450   6.270634   5.078811
    18  C    6.490779   6.348532   7.520653   5.306657   4.233689
    19  C    5.163429   5.163959   6.417684   4.249170   3.090057
    20  C    4.436919   5.238847   6.622107   4.953240   3.764499
    21  C    5.652737   6.507736   7.889477   6.208937   4.971916
    22  C    6.573030   7.560606   8.906665   7.387835   6.204489
    23  C    6.494955   7.562909   8.840815   7.539274   6.477685
    24  C    5.473599   6.515142   7.743231   6.561555   5.622034
    25  C    4.346238   5.269979   6.561684   5.203325   4.223337
    26  H    6.011282   5.303360   3.926996   6.235979   7.578694
    27  H    4.900553   4.135668   2.916024   4.984887   6.270116
    28  H    5.201311   4.188788   2.810331   4.874629   6.267296
    29  H    3.422572   3.882881   3.389960   5.279687   6.113261
    30  H    2.169951   3.413293   3.873909   4.584313   4.859647
    31  H    3.417860   2.152817   1.085857   2.657884   4.053445
    32  H    3.412079   2.161524   2.684277   1.084983   2.143227
    33  H    3.886126   3.396689   4.571712   2.132977   1.086560
    34  H    2.156666   3.413603   4.594106   3.869403   3.393176
    35  H    6.439828   6.755304   8.136462   5.917117   4.529477
    36  H    8.294656   8.362639   9.677786   7.292746   5.961722
    37  H    8.490904   8.323214   9.498138   7.173773   6.047715
    38  H    6.906802   6.643752   7.691566   5.615892   4.745811
    39  H    4.529689   4.496629   5.674612   3.722973   2.805773
    40  H    6.101518   6.850382   8.235440   6.438346   5.159420
    41  H    7.548166   8.536727   9.887001   8.336382   7.121386
    42  H    7.420890   8.535823   9.775908   8.572043   7.541139
    43  H    5.768694   6.824913   7.945424   6.995422   6.200790
    44  H    3.737912   4.573739   5.795322   4.574918   3.780845
                   11         12         13         14         15
    11  C    0.000000
    12  C    1.410120   0.000000
    13  N    1.457107   2.513573   0.000000
    14  C    2.517611   3.771885   1.456770   0.000000
    15  C    3.722379   4.980294   2.498141   1.408975   0.000000
    16  C    4.893436   6.200013   3.784370   2.447499   1.398885
    17  C    5.158759   6.457922   4.287410   2.830709   2.418589
    18  C    4.379335   5.594686   3.784176   2.447472   2.784389
    19  C    3.024755   4.207146   2.498105   1.408648   2.407003
    20  C    2.538258   3.043546   1.455085   2.510950   3.010218
    21  C    3.770418   4.239803   2.494951   2.977758   3.113665
    22  C    4.950552   5.202366   3.783695   4.342200   4.272473
    23  C    5.209005   5.237144   4.289449   5.146421   5.141868
    24  C    4.409766   4.327306   3.787446   4.904359   5.093456
    25  C    3.033552   3.126278   2.501249   3.743172   4.152330
    26  H    8.121137   7.399213   9.564126  10.330317  11.608126
    27  H    6.818604   6.194707   8.222540   8.880049  10.197266
    28  H    7.017211   6.528486   8.463196   9.133454  10.337181
    29  H    5.880634   4.628652   7.141181   8.333536   9.584127
    30  H    4.133304   2.729329   5.130906   6.445465   7.628962
    31  H    4.878444   4.587403   6.308654   6.949676   8.127355
    32  H    3.418669   3.865490   4.629696   4.942800   5.984228
    33  H    2.171499   3.398589   2.722596   2.684757   3.578400
    34  H    2.164526   1.089202   2.742463   4.097375   5.217542
    35  H    4.024312   5.176179   2.732523   2.171796   1.087871
    36  H    5.825039   7.122257   4.654018   3.428001   2.157389
    37  H    6.217101   7.517481   5.374678   3.917995   3.405352
    38  H    5.039910   6.162869   4.653552   3.427509   3.870917
    39  H    2.791821   3.750301   2.731422   2.170407   3.402911
    40  H    4.079627   4.701976   2.729511   2.712942   2.786304
    41  H    5.888452   6.169933   4.650623   4.985881   4.765965
    42  H    6.270933   6.217113   5.375978   6.203433   6.112114
    43  H    5.063892   4.810805   4.658407   5.847192   6.044059
    44  H    2.776781   2.744732   2.743693   4.071732   4.603989
                   16         17         18         19         20
    16  C    0.000000
    17  C    1.391216   0.000000
    18  C    2.407574   1.393552   0.000000
    19  C    2.783711   2.419432   1.398632   0.000000
    20  C    4.373384   5.160246   4.898288   3.724803   0.000000
    21  C    4.275187   5.125295   5.055200   4.102623   1.410347
    22  C    5.353319   6.323602   6.384605   5.492330   2.452015
    23  C    6.344254   7.381167   7.400936   6.387643   2.834557
    24  C    6.427299   7.424329   7.313357   6.167853   2.447795
    25  C    5.543688   6.421516   6.180496   4.968461   1.407101
    26  H   12.466866  12.173384  10.972459  10.002198  10.416171
    27  H   10.991833  10.612893   9.363533   8.431252   9.174917
    28  H   11.145392  10.869897   9.740066   8.824186   9.424268
    29  H   10.752395  10.832837   9.763253   8.466111   7.468133
    30  H    8.880104   9.124269   8.181403   6.803854   5.204280
    31  H    8.958415   8.757138   7.683338   6.717613   7.335005
    32  H    6.687900   6.492479   5.546560   4.702025   5.875842
    33  H    4.318453   4.334760   3.625661   2.733002   4.070960
    34  H    6.493443   6.853234   6.062595   4.667381   2.769097
    35  H    2.141573   3.391610   3.871682   3.403770   2.767120
    36  H    1.087643   2.151716   3.394409   3.871265   5.032187
    37  H    2.154224   1.087291   2.155100   3.405494   6.221078
    38  H    3.392948   2.152745   1.086632   2.157419   5.833352
    39  H    3.870567   3.392758   2.141277   1.087408   4.029455
    40  H    3.704339   4.413582   4.374591   3.606760   2.173548
    41  H    5.644789   6.596419   6.769288   6.034442   3.431683
    42  H    7.252943   8.331923   8.416554   7.442385   3.921113
    43  H    7.387000   8.404556   8.282879   7.107642   3.427761
    44  H    5.994250   6.801385   6.468564   5.210893   2.171755
                   21         22         23         24         25
    21  C    0.000000
    22  C    1.398686   0.000000
    23  C    2.416064   1.389975   0.000000
    24  C    2.778296   2.404055   1.391819   0.000000
    25  C    2.403481   2.784746   2.422128   1.400927   0.000000
    26  H   11.618469  12.570460  12.435904  11.331630  10.283230
    27  H   10.310128  11.349405  11.371926  10.365804   9.234447
    28  H   10.688400  11.716224  11.623266  10.487401   9.337965
    29  H    8.562428   9.193935   8.831517   7.771594   7.039845
    30  H    6.201013   6.757591   6.425213   5.458614   4.783695
    31  H    8.612615   9.694943   9.678469   8.577492   7.342138
    32  H    7.109017   8.323329   8.506205   7.527198   6.159033
    33  H    5.159754   6.437597   6.822482   6.062407   4.676380
    34  H    3.781916   4.553346   4.517946   3.701596   2.728612
    35  H    2.817674   3.733924   4.459238   4.437362   3.676559
    36  H    4.790787   5.669537   6.641288   6.833257   6.102219
    37  H    6.101617   7.238066   8.337697   8.445517   7.480533
    38  H    6.000007   7.336687   8.371869   8.273017   7.110688
    39  H    4.539655   5.927222   6.745628   6.428423   5.181424
    40  H    1.087503   2.137078   3.386512   3.865162   3.401048
    41  H    2.157365   1.087899   2.152003   3.392128   3.872471
    42  H    3.402503   2.152299   1.086557   2.153955   3.407797
    43  H    3.865946   3.390451   2.151546   1.087700   2.158922
    44  H    3.401695   3.870349   3.391388   2.139477   1.086659
                   26         27         28         29         30
    26  H    0.000000
    27  H    1.769181   0.000000
    28  H    1.764075   1.805099   0.000000
    29  H    4.372125   4.094138   4.575209   0.000000
    30  H    6.423903   5.629068   6.155250   2.464364   0.000000
    31  H    3.699524   2.745410   2.220498   4.293681   4.959412
    32  H    6.103928   4.900173   4.569430   5.906430   5.537689
    33  H    8.333732   7.013080   6.910595   7.168988   5.935752
    34  H    8.050999   6.893887   7.347584   4.786750   2.500210
    35  H   12.042969  10.723330  10.774103   9.761506   7.714785
    36  H   13.467399  12.022584  12.110480  11.703557   9.784190
    37  H   12.974427  11.394281  11.649401  11.831759  10.174803
    38  H   10.897657   9.237205   9.703189  10.037123   8.630035
    39  H    9.111779   7.493580   8.022901   7.690758   6.175333
    40  H   11.932295  10.516616  10.989496   9.102341   6.796907
    41  H   13.519706  12.252826  12.692558  10.128673   7.676486
    42  H   13.289273  12.283702  12.533849   9.527757   7.140830
    43  H   11.393288  10.578240  10.598927   7.705176   5.521226
    44  H    9.502419   8.559242   8.514690   6.370601   4.306658
                   31         32         33         34         35
    31  H    0.000000
    32  H    2.441210   0.000000
    33  H    4.708135   2.424228   0.000000
    34  H    5.532769   4.953925   4.313435   0.000000
    35  H    8.559127   6.488524   4.114553   5.299750   0.000000
    36  H    9.913855   7.607327   5.223491   7.367202   2.457216
    37  H    9.581973   7.292955   5.242129   7.925850   4.286500
    38  H    7.765517   5.730512   4.169220   6.681994   4.958099
    39  H    5.996434   4.212605   2.739782   4.276106   4.320761
    40  H    8.898838   7.273150   5.224663   4.344023   2.781551
    41  H   10.671162   9.255317   7.293055   5.495859   4.263096
    42  H   10.640070   9.545147   7.892395   5.437049   5.369068
    43  H    8.797853   7.948088   6.699503   4.194348   5.341635
    44  H    6.556138   5.506625   4.327645   2.596280   4.193370
                   36         37         38         39         40
    36  H    0.000000
    37  H    2.481800   0.000000
    38  H    4.292819   2.481374   0.000000
    39  H    4.958032   4.287003   2.458424   0.000000
    40  H    4.255608   5.330474   5.277372   4.121392   0.000000
    41  H    5.842469   7.414129   7.691411   6.520136   2.450754
    42  H    7.454072   9.251612   9.390388   7.809605   4.280355
    43  H    7.762416   9.429053   9.236599   7.319863   4.952757
    44  H    6.597635   7.868741   7.351669   5.320569   4.322093
                   41         42         43         44
    41  H    0.000000
    42  H    2.481863   0.000000
    43  H    4.291761   2.480566   0.000000
    44  H    4.957892   4.284334   2.453800   0.000000
 Stoichiometry    C23H19NO
 Framework group  C1[X(C23H19NO)]
 Deg. of freedom   126
 Full point group                 C1      NOp   1
 Largest Abelian subgroup         C1      NOp   1
 Largest concise Abelian subgroup C1      NOp   1
                         Standard orientation:                         
 ---------------------------------------------------------------------
 Center     Atomic      Atomic             Coordinates (Angstroms)
 Number     Number       Type             X           Y           Z
 ---------------------------------------------------------------------
      1          6           0        6.781348   -1.155162   -0.160013
      2          8           0        6.269816    0.168071   -0.017018
      3          6           0        4.902006    0.266687   -0.043593
      4          6           0        4.390774    1.453539   -0.561656
      5          6           0        3.005365    1.641761   -0.664925
      6          6           0        2.108063    0.656351   -0.218593
      7          6           0        2.634105   -0.511973    0.372018
      8          6           0        4.028316   -0.699732    0.446481
      9          6           0        1.754859   -1.469621    0.885560
     10          6           0        0.369660   -1.284873    0.808381
     11          6           0       -0.193032   -0.166262    0.168306
     12          6           0        0.704715    0.795423   -0.339286
     13          7           0       -1.638145   -0.033714    0.036997
     14          6           0       -2.463968   -1.230466   -0.052343
     15          6           0       -3.707374   -1.312831    0.605202
     16          6           0       -4.500083   -2.462254    0.519656
     17          6           0       -4.054212   -3.567754   -0.197668
     18          6           0       -2.823490   -3.516435   -0.849341
     19          6           0       -2.047384   -2.354284   -0.792465
     20          6           0       -2.279156    1.272506    0.024136
     21          6           0       -3.459869    1.496720   -0.713918
     22          6           0       -4.108834    2.735657   -0.699636
     23          6           0       -3.573321    3.794381    0.024491
     24          6           0       -2.399184    3.607686    0.748170
     25          6           0       -1.769656    2.356258    0.762935
     26          1           0        7.861945   -1.081223   -0.314471
     27          1           0        6.351362   -1.655375   -1.034532
     28          1           0        6.619808   -1.744262    0.748279
     29          1           0        5.068950    2.230526   -0.903519
     30          1           0        2.635537    2.572632   -1.089413
     31          1           0        4.409102   -1.607287    0.905208
     32          1           0        2.134550   -2.370045    1.357003
     33          1           0       -0.265553   -2.044041    1.256467
     34          1           0        0.315305    1.670370   -0.858119
     35          1           0       -4.070045   -0.478053    1.201087
     36          1           0       -5.464386   -2.493386    1.021768
     37          1           0       -4.662696   -4.467243   -0.251226
     38          1           0       -2.467072   -4.380204   -1.403994
     39          1           0       -1.105318   -2.334539   -1.335215
     40          1           0       -3.894400    0.699664   -1.312707
     41          1           0       -5.033391    2.868954   -1.257265
     42          1           0       -4.069319    4.761120    0.027225
     43          1           0       -1.973769    4.433773    1.313585
     44          1           0       -0.880002    2.238104    1.375619
 ---------------------------------------------------------------------
 Rotational constants (GHZ):      0.3607989      0.1213970      0.0944037
 Leave Link  202 at Tue Sep 28 15:18:21 2021, MaxMem= 1879048192 cpu:       0.1
 (Enter /sw/target/amd/app/gaussian/Gaussian09RevA.02_gcc-4.9.2/g09/l301.exe)
 Standard basis: 6-31G(d) (6D, 7F)
 Ernie: Thresh=  0.10000D-02 Tol=  0.10000D-05 Strict=F.
 There are   413 symmetry adapted basis functions of A   symmetry.
 Integral buffers will be    131072 words long.
 Raffenetti 2 integral format.
 Two-electron integral symmetry is turned on.
   413 basis functions,   776 primitive gaussians,   413 cartesian basis functions
    86 alpha electrons       86 beta electrons
       nuclear repulsion energy      1950.1250491886 Hartrees.
 IExCor=  402 DFT=T Ex+Corr=B3LYP ExCW=0 ScaHFX=  0.200000
 ScaDFX=  0.800000  0.720000  1.000000  0.810000 ScalE2=  1.000000  1.000000
 IRadAn=      0 IRanWt=     -1 IRanGd=            0 ICorTp=0
 NAtoms=   44 NActive=   44 NUniq=   44 SFac= 7.50D-01 NAtFMM=   80 NAOKFM=F Big=F
 Leave Link  301 at Tue Sep 28 15:18:21 2021, MaxMem= 1879048192 cpu:       0.1
 (Enter /sw/target/amd/app/gaussian/Gaussian09RevA.02_gcc-4.9.2/g09/l302.exe)
 NPDir=0 NMtPBC=     1 NCelOv=     1 NCel=       1 NClECP=     1 NCelD=      1
         NCelK=      1 NCelE2=     1 NClLst=     1 CellRange=     0.0.
 One-electron integrals computed using PRISM.
 NBasis=   413 RedAO= T  NBF=   413
 NBsUse=   413 1.00D-06 NBFU=   413
 Precomputing XC quadrature grid using
 IXCGrd= 2 IRadAn=           0 IRanWt=          -1 IRanGd=           0 AccXCQ= 1.00D-10.
 NRdTot=    2817 NPtTot=      359262 NUsed=      379566 NTot=      379598
 NSgBfM=   404   405   406   406   406 NAtAll=    44    44.
 Leave Link  302 at Tue Sep 28 15:18:27 2021, MaxMem= 1879048192 cpu:       5.4
 (Enter /sw/target/amd/app/gaussian/Gaussian09RevA.02_gcc-4.9.2/g09/l303.exe)
 DipDrv:  MaxL=1.
 Leave Link  303 at Tue Sep 28 15:18:29 2021, MaxMem= 1879048192 cpu:       0.4
 (Enter /sw/target/amd/app/gaussian/Gaussian09RevA.02_gcc-4.9.2/g09/l401.exe)
 Harris functional with IExCor=  402 diagonalized for initial guess.
 ExpMin= 1.61D-01 ExpMax= 5.48D+03 ExpMxC= 8.25D+02 IAcc=1 IRadAn=         1 AccDes= 0.00D+00
 HarFok:  IExCor=  402 AccDes= 0.00D+00 IRadAn=         1 IDoV= 1
 ScaDFX=  1.000000  1.000000  1.000000  1.000000
 FoFCou: FMM=F IPFlag=           0 FMFlag=      100000 FMFlg1=           0
         NFxFlg=           0 DoJE=T BraDBF=F KetDBF=T FulRan=T
         Omega=  0.000000  0.000000  1.000000  0.000000  0.000000 ICntrl=     500 IOpCl=  0
         NMat0=    1 NMatS0=    1 NMatT0=    0 NMatD0=    1 NMtDS0=    0 NMtDT0=    0
         I1Cent=           4 NGrid=           0.
 Petite list used in FoFCou.
 Harris En= -1017.95690542541    
 Initial guess orbital symmetries:
       Occupied  (A) (A) (A) (A) (A) (A) (A) (A) (A) (A) (A) (A)
                 (A) (A) (A) (A) (A) (A) (A) (A) (A) (A) (A) (A)
                 (A) (A) (A) (A) (A) (A) (A) (A) (A) (A) (A) (A)
                 (A) (A) (A) (A) (A) (A) (A) (A) (A) (A) (A) (A)
                 (A) (A) (A) (A) (A) (A) (A) (A) (A) (A) (A) (A)
                 (A) (A) (A) (A) (A) (A) (A) (A) (A) (A) (A) (A)
                 (A) (A) (A) (A) (A) (A) (A) (A) (A) (A) (A) (A)
                 (A) (A)
       Virtual   (A) (A) (A) (A) (A) (A) (A) (A) (A) (A) (A) (A)
                 (A) (A) (A) (A) (A) (A) (A) (A) (A) (A) (A) (A)
                 (A) (A) (A) (A) (A) (A) (A) (A) (A) (A) (A) (A)
                 (A) (A) (A) (A) (A) (A) (A) (A) (A) (A) (A) (A)
                 (A) (A) (A) (A) (A) (A) (A) (A) (A) (A) (A) (A)
                 (A) (A) (A) (A) (A) (A) (A) (A) (A) (A) (A) (A)
                 (A) (A) (A) (A) (A) (A) (A) (A) (A) (A) (A) (A)
                 (A) (A) (A) (A) (A) (A) (A) (A) (A) (A) (A) (A)
                 (A) (A) (A) (A) (A) (A) (A) (A) (A) (A) (A) (A)
                 (A) (A) (A) (A) (A) (A) (A) (A) (A) (A) (A) (A)
                 (A) (A) (A) (A) (A) (A) (A) (A) (A) (A) (A) (A)
                 (A) (A) (A) (A) (A) (A) (A) (A) (A) (A) (A) (A)
                 (A) (A) (A) (A) (A) (A) (A) (A) (A) (A) (A) (A)
                 (A) (A) (A) (A) (A) (A) (A) (A) (A) (A) (A) (A)
                 (A) (A) (A) (A) (A) (A) (A) (A) (A) (A) (A) (A)
                 (A) (A) (A) (A) (A) (A) (A) (A) (A) (A) (A) (A)
                 (A) (A) (A) (A) (A) (A) (A) (A) (A) (A) (A) (A)
                 (A) (A) (A) (A) (A) (A) (A) (A) (A) (A) (A) (A)
                 (A) (A) (A) (A) (A) (A) (A) (A) (A) (A) (A) (A)
                 (A) (A) (A) (A) (A) (A) (A) (A) (A) (A) (A) (A)
                 (A) (A) (A) (A) (A) (A) (A) (A) (A) (A) (A) (A)
                 (A) (A) (A) (A) (A) (A) (A) (A) (A) (A) (A) (A)
                 (A) (A) (A) (A) (A) (A) (A) (A) (A) (A) (A) (A)
                 (A) (A) (A) (A) (A) (A) (A) (A) (A) (A) (A) (A)
                 (A) (A) (A) (A) (A) (A) (A) (A) (A) (A) (A) (A)
                 (A) (A) (A) (A) (A) (A) (A) (A) (A) (A) (A) (A)
                 (A) (A) (A) (A) (A) (A) (A) (A) (A) (A) (A) (A)
                 (A) (A) (A)
 The electronic state of the initial guess is 1-A.
 Leave Link  401 at Tue Sep 28 15:18:48 2021, MaxMem= 1879048192 cpu:      24.0
 (Enter /sw/target/amd/app/gaussian/Gaussian09RevA.02_gcc-4.9.2/g09/l502.exe)
 Closed shell SCF:
 Requested convergence on RMS density matrix=1.00D-08 within  64 cycles.
 Requested convergence on MAX density matrix=1.00D-06.
 Requested convergence on             energy=1.00D-06.
 No special actions if energy rises.
 Using DIIS extrapolation, IDIIS=  1040.
 Integral symmetry usage will be decided dynamically.
       379157 words used for storage of precomputed grid.
 IEnd=      902410 IEndB=      902410 NGot=  1879048192 MDV=  1878320989
 LenX=  1878320989 LenY=  1878149979
 Fock matrices will be formed incrementally for  20 cycles.
 Integral accuracy reduced to 1.0D-05 until final iterations.

 Cycle   1  Pass 0  IDiag  1:
 FoFCou: FMM=F IPFlag=           0 FMFlag=      100000 FMFlg1=           0
         NFxFlg=           0 DoJE=F BraDBF=F KetDBF=F FulRan=T
         Omega=  0.000000  0.000000  1.000000  0.000000  0.000000 ICntrl=       0 IOpCl=  0
         NMat0=    1 NMatS0=    1 NMatT0=    0 NMatD0=    1 NMtDS0=    0 NMtDT0=    0
         I1Cent=           0 NGrid=           0.
 Symmetry not used in FoFCou.
 E= -1017.30065019729    
 DIIS: error= 3.08D-02 at cycle   1 NSaved=   1.
 NSaved= 1 IEnMin= 1 EnMin= -1017.30065019729     IErMin= 1 ErrMin= 3.08D-02
 ErrMax= 3.08D-02 EMaxC= 1.00D-01 BMatC= 5.00D-01 BMatP= 5.00D-01
 IDIUse=3 WtCom= 6.92D-01 WtEn= 3.08D-01
 Coeff-Com:  0.100D+01
 Coeff-En:   0.100D+01
 Coeff:      0.100D+01
 Gap=     0.184 Goal=   None    Shift=    0.000
 GapD=    0.184 DampG=1.000 DampE=0.500 DampFc=0.5000 IDamp=-1.
 Damping current iteration by 5.00D-01
 RMSDP=4.18D-03 MaxDP=1.29D-01              OVMax= 1.95D-01

 Cycle   2  Pass 0  IDiag  1:
 RMSU=  1.44D-03    CP:  9.72D-01
 E= -1017.53777891885     Delta-E=       -0.237128721562 Rises=F Damp=T
 DIIS: error= 7.34D-03 at cycle   2 NSaved=   2.
 NSaved= 2 IEnMin= 2 EnMin= -1017.53777891885     IErMin= 2 ErrMin= 7.34D-03
 ErrMax= 7.34D-03 EMaxC= 1.00D-01 BMatC= 4.56D-02 BMatP= 5.00D-01
 IDIUse=3 WtCom= 9.27D-01 WtEn= 7.34D-02
 Coeff-Com:  0.676D-01 0.932D+00
 Coeff-En:   0.107D+00 0.893D+00
 Coeff:      0.705D-01 0.929D+00
 Gap=     0.152 Goal=   None    Shift=    0.000
 RMSDP=1.67D-03 MaxDP=9.81D-02 DE=-2.37D-01 OVMax= 2.63D-01

 Cycle   3  Pass 0  IDiag  1:
 RMSU=  1.15D-03    CP:  9.56D-01  8.52D-01
 E= -1017.74878255204     Delta-E=       -0.211003633193 Rises=F Damp=F
 DIIS: error= 1.12D-02 at cycle   3 NSaved=   3.
 NSaved= 3 IEnMin= 3 EnMin= -1017.74878255204     IErMin= 2 ErrMin= 7.34D-03
 ErrMax= 1.12D-02 EMaxC= 1.00D-01 BMatC= 9.27D-02 BMatP= 4.56D-02
 IDIUse=2 WtCom= 0.00D+00 WtEn= 1.00D+00
 Coeff-En:   0.000D+00 0.000D+00 0.100D+01
 Coeff:      0.000D+00 0.000D+00 0.100D+01
 Gap=     0.228 Goal=   None    Shift=    0.000
 RMSDP=2.93D-03 MaxDP=1.72D-01 DE=-2.11D-01 OVMax= 2.57D-01

 Cycle   4  Pass 0  IDiag  1:
 RMSU=  1.05D-03    CP:  9.61D-01  1.32D+00 -4.45D-01
 E= -1017.23962679949     Delta-E=        0.509155752553 Rises=F Damp=F
 DIIS: error= 3.57D-02 at cycle   4 NSaved=   4.
 NSaved= 4 IEnMin= 3 EnMin= -1017.74878255204     IErMin= 2 ErrMin= 7.34D-03
 ErrMax= 3.57D-02 EMaxC= 1.00D-01 BMatC= 5.61D-01 BMatP= 4.56D-02
 IDIUse=2 WtCom= 0.00D+00 WtEn= 1.00D+00
 Coeff-En:   0.000D+00 0.000D+00 0.796D+00 0.204D+00
 Coeff:      0.000D+00 0.000D+00 0.796D+00 0.204D+00
 Gap=     0.168 Goal=   None    Shift=    0.000
 RMSDP=1.51D-03 MaxDP=8.70D-02 DE= 5.09D-01 OVMax= 1.55D-01

 Cycle   5  Pass 0  IDiag  1:
 RMSU=  2.07D-04    CP:  9.60D-01  1.06D+00  2.54D-01  4.68D-01
 E= -1017.79969453117     Delta-E=       -0.560067731683 Rises=F Damp=F
 DIIS: error= 1.01D-02 at cycle   5 NSaved=   5.
 NSaved= 5 IEnMin= 5 EnMin= -1017.79969453117     IErMin= 2 ErrMin= 7.34D-03
 ErrMax= 1.01D-02 EMaxC= 1.00D-01 BMatC= 4.80D-02 BMatP= 4.56D-02
 IDIUse=3 WtCom= 8.99D-01 WtEn= 1.01D-01
 Coeff-Com:  0.188D-02 0.179D-01 0.333D+00-0.837D-01 0.731D+00
 Coeff-En:   0.000D+00 0.000D+00 0.379D+00 0.000D+00 0.621D+00
 Coeff:      0.169D-02 0.161D-01 0.338D+00-0.753D-01 0.720D+00
 Gap=     0.142 Goal=   None    Shift=    0.000
 RMSDP=6.16D-04 MaxDP=4.23D-02 DE=-5.60D-01 OVMax= 7.21D-02

 Cycle   6  Pass 0  IDiag  1:
 RMSU=  6.79D-05    CP:  9.58D-01  9.66D-01  5.57D-01  2.68D-01  7.75D-01
 E= -1017.85073310422     Delta-E=       -0.051038573051 Rises=F Damp=F
 DIIS: error= 7.27D-04 at cycle   6 NSaved=   6.
 NSaved= 6 IEnMin= 6 EnMin= -1017.85073310422     IErMin= 6 ErrMin= 7.27D-04
 ErrMax= 7.27D-04 EMaxC= 1.00D-01 BMatC= 4.71D-04 BMatP= 4.56D-02
 IDIUse=3 WtCom= 9.93D-01 WtEn= 7.27D-03
 Coeff-Com: -0.138D-02 0.903D-02 0.150D+00-0.738D-01 0.447D+00 0.469D+00
 Coeff-En:   0.000D+00 0.000D+00 0.000D+00 0.000D+00 0.000D+00 0.100D+01
 Coeff:     -0.137D-02 0.896D-02 0.149D+00-0.732D-01 0.444D+00 0.473D+00
 Gap=     0.138 Goal=   None    Shift=    0.000
 RMSDP=6.27D-05 MaxDP=3.65D-03 DE=-5.10D-02 OVMax= 8.21D-03

 Cycle   7  Pass 0  IDiag  1:
 RMSU=  1.81D-05    CP:  9.58D-01  9.66D-01  5.59D-01  2.59D-01  8.39D-01
                    CP:  4.55D-01
 E= -1017.85120970795     Delta-E=       -0.000476603729 Rises=F Damp=F
 DIIS: error= 1.67D-04 at cycle   7 NSaved=   7.
 NSaved= 7 IEnMin= 7 EnMin= -1017.85120970795     IErMin= 7 ErrMin= 1.67D-04
 ErrMax= 1.67D-04 EMaxC= 1.00D-01 BMatC= 2.03D-05 BMatP= 4.71D-04
 IDIUse=3 WtCom= 9.98D-01 WtEn= 1.67D-03
 Coeff-Com: -0.182D-03 0.117D-02 0.484D-01-0.242D-01 0.141D+00 0.222D+00
 Coeff-Com:  0.612D+00
 Coeff-En:   0.000D+00 0.000D+00 0.000D+00 0.000D+00 0.000D+00 0.000D+00
 Coeff-En:   0.100D+01
 Coeff:     -0.182D-03 0.117D-02 0.483D-01-0.241D-01 0.140D+00 0.221D+00
 Coeff:      0.613D+00
 Gap=     0.138 Goal=   None    Shift=    0.000
 RMSDP=1.65D-05 MaxDP=9.36D-04 DE=-4.77D-04 OVMax= 2.03D-03

 Cycle   8  Pass 0  IDiag  1:
 RMSU=  7.33D-06    CP:  9.58D-01  9.65D-01  5.61D-01  2.60D-01  8.32D-01
                    CP:  5.35D-01  6.48D-01
 E= -1017.85122567668     Delta-E=       -0.000015968726 Rises=F Damp=F
 DIIS: error= 8.63D-05 at cycle   8 NSaved=   8.
 NSaved= 8 IEnMin= 8 EnMin= -1017.85122567668     IErMin= 8 ErrMin= 8.63D-05
 ErrMax= 8.63D-05 EMaxC= 1.00D-01 BMatC= 5.70D-06 BMatP= 2.03D-05
 IDIUse=1 WtCom= 1.00D+00 WtEn= 0.00D+00
 Coeff-Com:  0.249D-03-0.127D-02 0.548D-02-0.221D-02 0.103D-01 0.671D-01
 Coeff-Com:  0.417D+00 0.503D+00
 Coeff:      0.249D-03-0.127D-02 0.548D-02-0.221D-02 0.103D-01 0.671D-01
 Coeff:      0.417D+00 0.503D+00
 Gap=     0.138 Goal=   None    Shift=    0.000
 RMSDP=6.68D-06 MaxDP=3.43D-04 DE=-1.60D-05 OVMax= 7.44D-04

 Initial convergence to 1.0D-05 achieved.  Increase integral accuracy.
 Cycle   9  Pass 1  IDiag  1:
 E= -1017.85121346551     Delta-E=        0.000012211170 Rises=F Damp=F
 DIIS: error= 3.89D-05 at cycle   1 NSaved=   1.
 NSaved= 1 IEnMin= 1 EnMin= -1017.85121346551     IErMin= 1 ErrMin= 3.89D-05
 ErrMax= 3.89D-05 EMaxC= 1.00D-01 BMatC= 6.56D-07 BMatP= 6.56D-07
 IDIUse=1 WtCom= 1.00D+00 WtEn= 0.00D+00
 Coeff-Com:  0.100D+01
 Coeff:      0.100D+01
 Gap=     0.138 Goal=   None    Shift=    0.000
 RMSDP=6.68D-06 MaxDP=3.43D-04 DE= 1.22D-05 OVMax= 3.90D-04

 Cycle  10  Pass 1  IDiag  1:
 RMSU=  1.59D-05    CP:  1.00D+00
 E= -1017.85121343032     Delta-E=        0.000000035184 Rises=F Damp=F
 DIIS: error= 3.96D-05 at cycle   2 NSaved=   2.
 NSaved= 2 IEnMin= 1 EnMin= -1017.85121346551     IErMin= 1 ErrMin= 3.89D-05
 ErrMax= 3.96D-05 EMaxC= 1.00D-01 BMatC= 6.60D-07 BMatP= 6.56D-07
 IDIUse=1 WtCom= 1.00D+00 WtEn= 0.00D+00
 Coeff-Com:  0.501D+00 0.499D+00
 Coeff:      0.501D+00 0.499D+00
 Gap=     0.138 Goal=   None    Shift=    0.000
 RMSDP=3.54D-06 MaxDP=1.24D-04 DE= 3.52D-08 OVMax= 4.70D-04

 Cycle  11  Pass 1  IDiag  1:
 RMSU=  2.49D-06    CP:  1.00D+00  9.87D-01
 E= -1017.85121394636     Delta-E=       -0.000000516040 Rises=F Damp=F
 DIIS: error= 2.11D-05 at cycle   3 NSaved=   3.
 NSaved= 3 IEnMin= 3 EnMin= -1017.85121394636     IErMin= 3 ErrMin= 2.11D-05
 ErrMax= 2.11D-05 EMaxC= 1.00D-01 BMatC= 2.07D-07 BMatP= 6.56D-07
 IDIUse=1 WtCom= 1.00D+00 WtEn= 0.00D+00
 Coeff-Com:  0.352D-01 0.353D+00 0.611D+00
 Coeff:      0.352D-01 0.353D+00 0.611D+00
 Gap=     0.138 Goal=   None    Shift=    0.000
 RMSDP=1.58D-06 MaxDP=7.19D-05 DE=-5.16D-07 OVMax= 2.25D-04

 Cycle  12  Pass 1  IDiag  1:
 RMSU=  4.93D-07    CP:  1.00D+00  1.00D+00  6.08D-01
 E= -1017.85121416843     Delta-E=       -0.000000222067 Rises=F Damp=F
 DIIS: error= 4.34D-06 at cycle   4 NSaved=   4.
 NSaved= 4 IEnMin= 4 EnMin= -1017.85121416843     IErMin= 4 ErrMin= 4.34D-06
 ErrMax= 4.34D-06 EMaxC= 1.00D-01 BMatC= 2.19D-08 BMatP= 2.07D-07
 IDIUse=1 WtCom= 1.00D+00 WtEn= 0.00D+00
 Coeff-Com: -0.710D-02 0.196D+00 0.391D+00 0.420D+00
 Coeff:     -0.710D-02 0.196D+00 0.391D+00 0.420D+00
 Gap=     0.138 Goal=   None    Shift=    0.000
 RMSDP=4.17D-07 MaxDP=2.12D-05 DE=-2.22D-07 OVMax= 5.73D-05

 Cycle  13  Pass 1  IDiag  1:
 RMSU=  1.26D-07    CP:  1.00D+00  1.00D+00  6.40D-01  4.85D-01
 E= -1017.85121418972     Delta-E=       -0.000000021288 Rises=F Damp=F
 DIIS: error= 1.17D-06 at cycle   5 NSaved=   5.
 NSaved= 5 IEnMin= 5 EnMin= -1017.85121418972     IErMin= 5 ErrMin= 1.17D-06
 ErrMax= 1.17D-06 EMaxC= 1.00D-01 BMatC= 7.22D-10 BMatP= 2.19D-08
 IDIUse=1 WtCom= 1.00D+00 WtEn= 0.00D+00
 Coeff-Com: -0.567D-02 0.101D+00 0.208D+00 0.245D+00 0.451D+00
 Coeff:     -0.567D-02 0.101D+00 0.208D+00 0.245D+00 0.451D+00
 Gap=     0.138 Goal=   None    Shift=    0.000
 RMSDP=9.90D-08 MaxDP=6.32D-06 DE=-2.13D-08 OVMax= 1.21D-05

 Cycle  14  Pass 1  IDiag  1:
 RMSU=  5.28D-08    CP:  1.00D+00  1.00D+00  6.42D-01  5.13D-01  6.56D-01
 E= -1017.85121419032     Delta-E=       -0.000000000600 Rises=F Damp=F
 DIIS: error= 4.25D-07 at cycle   6 NSaved=   6.
 NSaved= 6 IEnMin= 6 EnMin= -1017.85121419032     IErMin= 6 ErrMin= 4.25D-07
 ErrMax= 4.25D-07 EMaxC= 1.00D-01 BMatC= 1.02D-10 BMatP= 7.22D-10
 IDIUse=1 WtCom= 1.00D+00 WtEn= 0.00D+00
 Coeff-Com: -0.235D-02 0.328D-01 0.692D-01 0.873D-01 0.290D+00 0.523D+00
 Coeff:     -0.235D-02 0.328D-01 0.692D-01 0.873D-01 0.290D+00 0.523D+00
 Gap=     0.138 Goal=   None    Shift=    0.000
 RMSDP=3.82D-08 MaxDP=1.19D-06 DE=-6.00D-10 OVMax= 4.47D-06

 Cycle  15  Pass 1  IDiag  1:
 RMSU=  1.76D-08    CP:  1.00D+00  1.00D+00  6.43D-01  5.00D-01  7.15D-01
                    CP:  6.59D-01
 E= -1017.85121419057     Delta-E=       -0.000000000247 Rises=F Damp=F
 DIIS: error= 1.11D-07 at cycle   7 NSaved=   7.
 NSaved= 7 IEnMin= 7 EnMin= -1017.85121419057     IErMin= 7 ErrMin= 1.11D-07
 ErrMax= 1.11D-07 EMaxC= 1.00D-01 BMatC= 1.10D-11 BMatP= 1.02D-10
 IDIUse=1 WtCom= 1.00D+00 WtEn= 0.00D+00
 Coeff-Com: -0.780D-03 0.841D-02 0.184D-01 0.246D-01 0.117D+00 0.311D+00
 Coeff-Com:  0.522D+00
 Coeff:     -0.780D-03 0.841D-02 0.184D-01 0.246D-01 0.117D+00 0.311D+00
 Coeff:      0.522D+00
 Gap=     0.138 Goal=   None    Shift=    0.000
 RMSDP=1.17D-08 MaxDP=4.56D-07 DE=-2.47D-10 OVMax= 1.56D-06

 Cycle  16  Pass 1  IDiag  1:
 RMSU=  5.23D-09    CP:  1.00D+00  1.00D+00  6.43D-01  5.03D-01  7.17D-01
                    CP:  7.15D-01  6.90D-01
 E= -1017.85121419055     Delta-E=        0.000000000013 Rises=F Damp=F
 DIIS: error= 3.05D-08 at cycle   8 NSaved=   8.
 NSaved= 8 IEnMin= 7 EnMin= -1017.85121419057     IErMin= 8 ErrMin= 3.05D-08
 ErrMax= 3.05D-08 EMaxC= 1.00D-01 BMatC= 1.34D-12 BMatP= 1.10D-11
 IDIUse=1 WtCom= 1.00D+00 WtEn= 0.00D+00
 Coeff-Com: -0.626D-04-0.705D-03-0.117D-02-0.619D-03 0.183D-01 0.945D-01
 Coeff-Com:  0.301D+00 0.589D+00
 Coeff:     -0.626D-04-0.705D-03-0.117D-02-0.619D-03 0.183D-01 0.945D-01
 Coeff:      0.301D+00 0.589D+00
 Gap=     0.138 Goal=   None    Shift=    0.000
 RMSDP=3.51D-09 MaxDP=1.40D-07 DE= 1.27D-11 OVMax= 4.36D-07

 SCF Done:  E(RB3LYP) =  -1017.85121419     A.U. after   16 cycles
             Convg  =    0.3515D-08             -V/T =  2.0099
 KE= 1.007835197037D+03 PE=-6.260397520732D+03 EE= 2.284586060316D+03
 Leave Link  502 at Tue Sep 28 15:38:35 2021, MaxMem= 1879048192 cpu:    1309.7
 (Enter /sw/target/amd/app/gaussian/Gaussian09RevA.02_gcc-4.9.2/g09/l508.exe)
 QCSCF skips out because SCF is already converged.
 Leave Link  508 at Tue Sep 28 15:38:36 2021, MaxMem= 1879048192 cpu:       0.0
 (Enter /sw/target/amd/app/gaussian/Gaussian09RevA.02_gcc-4.9.2/g09/l601.exe)
 Copying SCF densities to generalized density rwf, IOpCl= 0 IROHF=0.

 **********************************************************************

            Population analysis using the SCF density.

 **********************************************************************

 Orbital symmetries:
       Occupied  (A) (A) (A) (A) (A) (A) (A) (A) (A) (A) (A) (A)
                 (A) (A) (A) (A) (A) (A) (A) (A) (A) (A) (A) (A)
                 (A) (A) (A) (A) (A) (A) (A) (A) (A) (A) (A) (A)
                 (A) (A) (A) (A) (A) (A) (A) (A) (A) (A) (A) (A)
                 (A) (A) (A) (A) (A) (A) (A) (A) (A) (A) (A) (A)
                 (A) (A) (A) (A) (A) (A) (A) (A) (A) (A) (A) (A)
                 (A) (A) (A) (A) (A) (A) (A) (A) (A) (A) (A) (A)
                 (A) (A)
       Virtual   (A) (A) (A) (A) (A) (A) (A) (A) (A) (A) (A) (A)
                 (A) (A) (A) (A) (A) (A) (A) (A) (A) (A) (A) (A)
                 (A) (A) (A) (A) (A) (A) (A) (A) (A) (A) (A) (A)
                 (A) (A) (A) (A) (A) (A) (A) (A) (A) (A) (A) (A)
                 (A) (A) (A) (A) (A) (A) (A) (A) (A) (A) (A) (A)
                 (A) (A) (A) (A) (A) (A) (A) (A) (A) (A) (A) (A)
                 (A) (A) (A) (A) (A) (A) (A) (A) (A) (A) (A) (A)
                 (A) (A) (A) (A) (A) (A) (A) (A) (A) (A) (A) (A)
                 (A) (A) (A) (A) (A) (A) (A) (A) (A) (A) (A) (A)
                 (A) (A) (A) (A) (A) (A) (A) (A) (A) (A) (A) (A)
                 (A) (A) (A) (A) (A) (A) (A) (A) (A) (A) (A) (A)
                 (A) (A) (A) (A) (A) (A) (A) (A) (A) (A) (A) (A)
                 (A) (A) (A) (A) (A) (A) (A) (A) (A) (A) (A) (A)
                 (A) (A) (A) (A) (A) (A) (A) (A) (A) (A) (A) (A)
                 (A) (A) (A) (A) (A) (A) (A) (A) (A) (A) (A) (A)
                 (A) (A) (A) (A) (A) (A) (A) (A) (A) (A) (A) (A)
                 (A) (A) (A) (A) (A) (A) (A) (A) (A) (A) (A) (A)
                 (A) (A) (A) (A) (A) (A) (A) (A) (A) (A) (A) (A)
                 (A) (A) (A) (A) (A) (A) (A) (A) (A) (A) (A) (A)
                 (A) (A) (A) (A) (A) (A) (A) (A) (A) (A) (A) (A)
                 (A) (A) (A) (A) (A) (A) (A) (A) (A) (A) (A) (A)
                 (A) (A) (A) (A) (A) (A) (A) (A) (A) (A) (A) (A)
                 (A) (A) (A) (A) (A) (A) (A) (A) (A) (A) (A) (A)
                 (A) (A) (A) (A) (A) (A) (A) (A) (A) (A) (A) (A)
                 (A) (A) (A) (A) (A) (A) (A) (A) (A) (A) (A) (A)
                 (A) (A) (A) (A) (A) (A) (A) (A) (A) (A) (A) (A)
                 (A) (A) (A) (A) (A) (A) (A) (A) (A) (A) (A) (A)
                 (A) (A) (A)
 The electronic state is 1-A.
 Alpha  occ. eigenvalues --  -19.17178 -14.37195 -10.24112 -10.23752 -10.23382
 Alpha  occ. eigenvalues --  -10.23353 -10.23301 -10.19119 -10.19051 -10.19032
 Alpha  occ. eigenvalues --  -10.19021 -10.19007 -10.18899 -10.18891 -10.18870
 Alpha  occ. eigenvalues --  -10.18855 -10.18830 -10.18790 -10.18661 -10.18654
 Alpha  occ. eigenvalues --  -10.18601 -10.18580 -10.18532 -10.18318 -10.18229
 Alpha  occ. eigenvalues --   -1.05646  -0.94519  -0.87078  -0.85057  -0.83897
 Alpha  occ. eigenvalues --   -0.81078  -0.76957  -0.75466  -0.75022  -0.74184
 Alpha  occ. eigenvalues --   -0.73857  -0.72018  -0.70874  -0.68838  -0.62962
 Alpha  occ. eigenvalues --   -0.61834  -0.61126  -0.59928  -0.59728  -0.59448
 Alpha  occ. eigenvalues --   -0.57174  -0.53067  -0.52966  -0.52067  -0.50443
 Alpha  occ. eigenvalues --   -0.49661  -0.47504  -0.47138  -0.46589  -0.45848
 Alpha  occ. eigenvalues --   -0.45158  -0.44678  -0.44410  -0.43830  -0.42778
 Alpha  occ. eigenvalues --   -0.42489  -0.41885  -0.41612  -0.41275  -0.40223
 Alpha  occ. eigenvalues --   -0.39008  -0.37941  -0.37168  -0.36866  -0.36337
 Alpha  occ. eigenvalues --   -0.35857  -0.35291  -0.35078  -0.34634  -0.33984
 Alpha  occ. eigenvalues --   -0.33770  -0.32497  -0.30978  -0.28970  -0.27410
 Alpha  occ. eigenvalues --   -0.25549  -0.25045  -0.24445  -0.23223  -0.21144
 Alpha  occ. eigenvalues --   -0.17755
 Alpha virt. eigenvalues --   -0.03926  -0.01018  -0.00754  -0.00194   0.00807
 Alpha virt. eigenvalues --    0.02890   0.03840   0.08988   0.09556   0.09733
 Alpha virt. eigenvalues --    0.10589   0.10876   0.12143   0.12946   0.14317
 Alpha virt. eigenvalues --    0.14643   0.14852   0.15141   0.15397   0.15652
 Alpha virt. eigenvalues --    0.16062   0.16490   0.17513   0.18040   0.18379
 Alpha virt. eigenvalues --    0.18921   0.19054   0.19112   0.19386   0.19598
 Alpha virt. eigenvalues --    0.21296   0.21563   0.23614   0.24365   0.25616
 Alpha virt. eigenvalues --    0.26519   0.28692   0.29132   0.30266   0.30630
 Alpha virt. eigenvalues --    0.30964   0.32051   0.32449   0.34110   0.34465
 Alpha virt. eigenvalues --    0.35943   0.36551   0.37217   0.37807   0.40161
 Alpha virt. eigenvalues --    0.46092   0.47002   0.49132   0.49419   0.49800
 Alpha virt. eigenvalues --    0.51409   0.51916   0.52067   0.52591   0.53025
 Alpha virt. eigenvalues --    0.53830   0.54442   0.54936   0.55149   0.55226
 Alpha virt. eigenvalues --    0.55759   0.55790   0.56517   0.56994   0.57390
 Alpha virt. eigenvalues --    0.57885   0.58010   0.58717   0.59254   0.59741
 Alpha virt. eigenvalues --    0.59988   0.60197   0.60315   0.60866   0.60969
 Alpha virt. eigenvalues --    0.61235   0.61374   0.61682   0.62142   0.62277
 Alpha virt. eigenvalues --    0.62477   0.63072   0.63389   0.63529   0.64319
 Alpha virt. eigenvalues --    0.64625   0.65574   0.66519   0.67136   0.67679
 Alpha virt. eigenvalues --    0.68157   0.69200   0.70009   0.72500   0.75383
 Alpha virt. eigenvalues --    0.78553   0.79656   0.80460   0.80889   0.81199
 Alpha virt. eigenvalues --    0.82698   0.83015   0.83728   0.84106   0.84289
 Alpha virt. eigenvalues --    0.84403   0.84603   0.84810   0.85412   0.85532
 Alpha virt. eigenvalues --    0.86271   0.86789   0.87396   0.87566   0.87715
 Alpha virt. eigenvalues --    0.88754   0.89545   0.90406   0.92060   0.92360
 Alpha virt. eigenvalues --    0.92484   0.92829   0.95105   0.95858   0.96310
 Alpha virt. eigenvalues --    0.96561   0.97201   0.98146   0.98567   1.00425
 Alpha virt. eigenvalues --    1.01246   1.02093   1.03661   1.03885   1.05423
 Alpha virt. eigenvalues --    1.05531   1.06813   1.08187   1.09731   1.11451
 Alpha virt. eigenvalues --    1.13090   1.13749   1.15920   1.16175   1.16770
 Alpha virt. eigenvalues --    1.17131   1.17443   1.18584   1.20054   1.20148
 Alpha virt. eigenvalues --    1.21150   1.21731   1.23030   1.25465   1.26207
 Alpha virt. eigenvalues --    1.27511   1.28634   1.28781   1.30453   1.34010
 Alpha virt. eigenvalues --    1.37283   1.38371   1.40220   1.41466   1.42045
 Alpha virt. eigenvalues --    1.43114   1.44533   1.45049   1.45406   1.46102
 Alpha virt. eigenvalues --    1.46310   1.47832   1.48006   1.48702   1.49126
 Alpha virt. eigenvalues --    1.49450   1.50112   1.50461   1.50802   1.51743
 Alpha virt. eigenvalues --    1.52011   1.52287   1.53133   1.54396   1.56686
 Alpha virt. eigenvalues --    1.69680   1.70794   1.71309   1.72510   1.73146
 Alpha virt. eigenvalues --    1.75079   1.76689   1.78138   1.78558   1.80202
 Alpha virt. eigenvalues --    1.80739   1.81043   1.81544   1.83050   1.85156
 Alpha virt. eigenvalues --    1.86701   1.87601   1.88071   1.89979   1.90481
 Alpha virt. eigenvalues --    1.91314   1.92324   1.92737   1.94248   1.94712
 Alpha virt. eigenvalues --    1.94942   1.96663   1.97196   1.97955   1.98148
 Alpha virt. eigenvalues --    1.98482   1.99101   2.02233   2.04906   2.05527
 Alpha virt. eigenvalues --    2.06005   2.06454   2.08729   2.10504   2.11776
 Alpha virt. eigenvalues --    2.12695   2.13942   2.14085   2.14550   2.14833
 Alpha virt. eigenvalues --    2.14949   2.15891   2.16974   2.18521   2.19267
 Alpha virt. eigenvalues --    2.20680   2.22659   2.23076   2.24680   2.26193
 Alpha virt. eigenvalues --    2.28096   2.29708   2.30084   2.30672   2.31198
 Alpha virt. eigenvalues --    2.31525   2.32032   2.32524   2.34370   2.35845
 Alpha virt. eigenvalues --    2.36292   2.40064   2.41145   2.42592   2.44033
 Alpha virt. eigenvalues --    2.50318   2.50525   2.51014   2.52590   2.56843
 Alpha virt. eigenvalues --    2.59092   2.59267   2.59765   2.62351   2.64267
 Alpha virt. eigenvalues --    2.64564   2.65024   2.65441   2.66033   2.69996
 Alpha virt. eigenvalues --    2.70410   2.72499   2.73032   2.74257   2.74339
 Alpha virt. eigenvalues --    2.74963   2.75769   2.76520   2.77241   2.79850
 Alpha virt. eigenvalues --    2.81825   2.83615   2.86470   2.88091   2.91439
 Alpha virt. eigenvalues --    2.93538   2.97025   2.99531   3.01946   3.06453
 Alpha virt. eigenvalues --    3.13768   3.17480   3.19564   3.38871   3.40897
 Alpha virt. eigenvalues --    3.42733   3.50171   4.04492   4.09246   4.09406
 Alpha virt. eigenvalues --    4.09752   4.11395   4.12482   4.12619   4.14277
 Alpha virt. eigenvalues --    4.16172   4.17088   4.17535   4.22388   4.27091
 Alpha virt. eigenvalues --    4.28377   4.32877   4.34331   4.35950   4.38706
 Alpha virt. eigenvalues --    4.40831   4.42773   4.46487   4.63099   4.70412
 Alpha virt. eigenvalues --    4.73001   4.85920
          Condensed to atoms (all electrons):
              1          2          3          4          5          6
     1  C    4.898545   0.250424  -0.043692   0.003080  -0.000158   0.000018
     2  O    0.250424   8.215409   0.261752  -0.053804   0.003343   0.000392
     3  C   -0.043692   0.261752   4.565707   0.508589  -0.003510  -0.035015
     4  C    0.003080  -0.053804   0.508589   5.018871   0.489141  -0.010847
     5  C   -0.000158   0.003343  -0.003510   0.489141   5.150149   0.439659
     6  C    0.000018   0.000392  -0.035015  -0.010847   0.439659   4.700294
     7  C    0.000356   0.003089   0.022119  -0.036356  -0.022826   0.487534
     8  C   -0.007480  -0.053506   0.428795  -0.061586  -0.077042  -0.038981
     9  C   -0.000022  -0.000067   0.007346  -0.000421   0.017363  -0.024070
[...]
   187    N   13  py     Val( 2p)     1.29376
   188    N   13  py     Ryd( 3p)     0.00143
   189    N   13  pz     Val( 2p)     1.49341
   190    N   13  pz     Ryd( 3p)     0.00770
   191    N   13  dxy    Ryd( 3d)     0.00095
   192    N   13  dxz    Ryd( 3d)     0.00062
   193    N   13  dyz    Ryd( 3d)     0.00047
   194    N   13  dx2y2  Ryd( 3d)     0.00081
   195    N   13  dz2    Ryd( 3d)     0.00063

   196    C   14  S      Cor( 1S)     1.99896
   197    C   14  S      Val( 2S)     0.84145
   198    C   14  S      Ryd( 3S)     0.00125
   199    C   14  S      Ryd( 4S)     0.00008
   200    C   14  px     Val( 2p)     1.01106
   201    C   14  px     Ryd( 3p)     0.00504
   202    C   14  py     Val( 2p)     0.94533
   203    C   14  py     Ryd( 3p)     0.00490
   204    C   14  pz     Val( 2p)     1.03866
   205    C   14  pz     Ryd( 3p)     0.00227
   206    C   14  dxy    Ryd( 3d)     0.00104
   207    C   14  dxz    Ryd( 3d)     0.00075
   208    C   14  dyz    Ryd( 3d)     0.00093
   209    C   14  dx2y2  Ryd( 3d)     0.00071
   210    C   14  dz2    Ryd( 3d)     0.00076

   211    C   15  S      Cor( 1S)     1.99902
   212    C   15  S      Val( 2S)     0.95720
   213    C   15  S      Ryd( 3S)     0.00075
   214    C   15  S      Ryd( 4S)     0.00005
   215    C   15  px     Val( 2p)     1.05118
   216    C   15  px     Ryd( 3p)     0.00338
   217    C   15  py     Val( 2p)     1.14082
   218    C   15  py     Ryd( 3p)     0.00361
   219    C   15  pz     Val( 2p)     1.07454
   220    C   15  pz     Ryd( 3p)     0.00267
   221    C   15  dxy    Ryd( 3d)     0.00048
   222    C   15  dxz    Ryd( 3d)     0.00054
   223    C   15  dyz    Ryd( 3d)     0.00069
   224    C   15  dx2y2  Ryd( 3d)     0.00067
   225    C   15  dz2    Ryd( 3d)     0.00036

   226    C   16  S      Cor( 1S)     1.99911
   227    C   16  S      Val( 2S)     0.96176
   228    C   16  S      Ryd( 3S)     0.00060
   229    C   16  S      Ryd( 4S)     0.00003
   230    C   16  px     Val( 2p)     1.15128
   231    C   16  px     Ryd( 3p)     0.00435
   232    C   16  py     Val( 2p)     1.04854
   233    C   16  py     Ryd( 3p)     0.00385
   234    C   16  pz     Val( 2p)     1.05842
   235    C   16  pz     Ryd( 3p)     0.00261
   236    C   16  dxy    Ryd( 3d)     0.00054
   237    C   16  dxz    Ryd( 3d)     0.00066
   238    C   16  dyz    Ryd( 3d)     0.00047
   239    C   16  dx2y2  Ryd( 3d)     0.00070
   240    C   16  dz2    Ryd( 3d)     0.00043

   241    C   17  S      Cor( 1S)     1.99909
   242    C   17  S      Val( 2S)     0.96761
   243    C   17  S      Ryd( 3S)     0.00051
   244    C   17  S      Ryd( 4S)     0.00003
   245    C   17  px     Val( 2p)     1.08928
   246    C   17  px     Ryd( 3p)     0.00388
   247    C   17  py     Val( 2p)     1.13471
   248    C   17  py     Ryd( 3p)     0.00417
   249    C   17  pz     Val( 2p)     1.00476
   250    C   17  pz     Ryd( 3p)     0.00218
   251    C   17  dxy    Ryd( 3d)     0.00082
   252    C   17  dxz    Ryd( 3d)     0.00043
   253    C   17  dyz    Ryd( 3d)     0.00044
   254    C   17  dx2y2  Ryd( 3d)     0.00055
   255    C   17  dz2    Ryd( 3d)     0.00060

   256    C   18  S      Cor( 1S)     1.99911
   257    C   18  S      Val( 2S)     0.96280
   258    C   18  S      Ryd( 3S)     0.00059
   259    C   18  S      Ryd( 4S)     0.00003
   260    C   18  px     Val( 2p)     1.05892
   261    C   18  px     Ryd( 3p)     0.00385
   262    C   18  py     Val( 2p)     1.12594
   263    C   18  py     Ryd( 3p)     0.00435
   264    C   18  pz     Val( 2p)     1.07436
   265    C   18  pz     Ryd( 3p)     0.00274
   266    C   18  dxy    Ryd( 3d)     0.00057
   267    C   18  dxz    Ryd( 3d)     0.00051
   268    C   18  dyz    Ryd( 3d)     0.00069
   269    C   18  dx2y2  Ryd( 3d)     0.00065
   270    C   18  dz2    Ryd( 3d)     0.00038

   271    C   19  S      Cor( 1S)     1.99902
   272    C   19  S      Val( 2S)     0.96073
   273    C   19  S      Ryd( 3S)     0.00078
   274    C   19  S      Ryd( 4S)     0.00004
   275    C   19  px     Val( 2p)     1.15924
   276    C   19  px     Ryd( 3p)     0.00376
   277    C   19  py     Val( 2p)     1.04117
   278    C   19  py     Ryd( 3p)     0.00317
   279    C   19  pz     Val( 2p)     1.04090
   280    C   19  pz     Ryd( 3p)     0.00257
   281    C   19  dxy    Ryd( 3d)     0.00052
   282    C   19  dxz    Ryd( 3d)     0.00064
   283    C   19  dyz    Ryd( 3d)     0.00053
   284    C   19  dx2y2  Ryd( 3d)     0.00068
   285    C   19  dz2    Ryd( 3d)     0.00041

   286    C   20  S      Cor( 1S)     1.99895
   287    C   20  S      Val( 2S)     0.84185
   288    C   20  S      Ryd( 3S)     0.00130
   289    C   20  S      Ryd( 4S)     0.00008
   290    C   20  px     Val( 2p)     1.03739
   291    C   20  px     Ryd( 3p)     0.00496
   292    C   20  py     Val( 2p)     0.90575
   293    C   20  py     Ryd( 3p)     0.00475
   294    C   20  pz     Val( 2p)     1.05191
   295    C   20  pz     Ryd( 3p)     0.00263
   296    C   20  dxy    Ryd( 3d)     0.00083
   297    C   20  dxz    Ryd( 3d)     0.00057
   298    C   20  dyz    Ryd( 3d)     0.00114
   299    C   20  dx2y2  Ryd( 3d)     0.00082
   300    C   20  dz2    Ryd( 3d)     0.00081

   301    C   21  S      Cor( 1S)     1.99902
   302    C   21  S      Val( 2S)     0.95860
   303    C   21  S      Ryd( 3S)     0.00076
   304    C   21  S      Ryd( 4S)     0.00005
   305    C   21  px     Val( 2p)     1.03958
   306    C   21  px     Ryd( 3p)     0.00266
   307    C   21  py     Val( 2p)     1.13321
   308    C   21  py     Ryd( 3p)     0.00357
   309    C   21  pz     Val( 2p)     1.08323
   310    C   21  pz     Ryd( 3p)     0.00295
   311    C   21  dxy    Ryd( 3d)     0.00050
   312    C   21  dxz    Ryd( 3d)     0.00051
   313    C   21  dyz    Ryd( 3d)     0.00077
   314    C   21  dx2y2  Ryd( 3d)     0.00060
   315    C   21  dz2    Ryd( 3d)     0.00040

   316    C   22  S      Cor( 1S)     1.99911
   317    C   22  S      Val( 2S)     0.96192
   318    C   22  S      Ryd( 3S)     0.00060
   319    C   22  S      Ryd( 4S)     0.00003
   320    C   22  px     Val( 2p)     1.11085
   321    C   22  px     Ryd( 3p)     0.00335
   322    C   22  py     Val( 2p)     1.05924
   323    C   22  py     Ryd( 3p)     0.00426
   324    C   22  pz     Val( 2p)     1.09105
   325    C   22  pz     Ryd( 3p)     0.00333
   326    C   22  dxy    Ryd( 3d)     0.00058
   327    C   22  dxz    Ryd( 3d)     0.00069
   328    C   22  dyz    Ryd( 3d)     0.00053
   329    C   22  dx2y2  Ryd( 3d)     0.00056
   330    C   22  dz2    Ryd( 3d)     0.00044

   331    C   23  S      Cor( 1S)     1.99909
   332    C   23  S      Val( 2S)     0.96798
   333    C   23  S      Ryd( 3S)     0.00051
   334    C   23  S      Ryd( 4S)     0.00003
   335    C   23  px     Val( 2p)     1.04274
   336    C   23  px     Ryd( 3p)     0.00295
   337    C   23  py     Val( 2p)     1.16932
   338    C   23  py     Ryd( 3p)     0.00461
   339    C   23  pz     Val( 2p)     1.01475
   340    C   23  pz     Ryd( 3p)     0.00268
   341    C   23  dxy    Ryd( 3d)     0.00068
   342    C   23  dxz    Ryd( 3d)     0.00041
   343    C   23  dyz    Ryd( 3d)     0.00049
   344    C   23  dx2y2  Ryd( 3d)     0.00063
   345    C   23  dz2    Ryd( 3d)     0.00064

   346    C   24  S      Cor( 1S)     1.99911
   347    C   24  S      Val( 2S)     0.96346
   348    C   24  S      Ryd( 3S)     0.00058
   349    C   24  S      Ryd( 4S)     0.00003
   350    C   24  px     Val( 2p)     1.04693
   351    C   24  px     Ryd( 3p)     0.00290
   352    C   24  py     Val( 2p)     1.11694
   353    C   24  py     Ryd( 3p)     0.00462
   354    C   24  pz     Val( 2p)     1.08949
   355    C   24  pz     Ryd( 3p)     0.00322
   356    C   24  dxy    Ryd( 3d)     0.00055
   357    C   24  dxz    Ryd( 3d)     0.00048
   358    C   24  dyz    Ryd( 3d)     0.00074
   359    C   24  dx2y2  Ryd( 3d)     0.00060
   360    C   24  dz2    Ryd( 3d)     0.00044

   361    C   25  S      Cor( 1S)     1.99902
   362    C   25  S      Val( 2S)     0.96055
   363    C   25  S      Ryd( 3S)     0.00079
   364    C   25  S      Ryd( 4S)     0.00005
   365    C   25  px     Val( 2p)     1.10944
   366    C   25  px     Ryd( 3p)     0.00325
   367    C   25  py     Val( 2p)     1.06116
   368    C   25  py     Ryd( 3p)     0.00356
   369    C   25  pz     Val( 2p)     1.07795
   370    C   25  pz     Ryd( 3p)     0.00337
   371    C   25  dxy    Ryd( 3d)     0.00058
   372    C   25  dxz    Ryd( 3d)     0.00064
   373    C   25  dyz    Ryd( 3d)     0.00061
   374    C   25  dx2y2  Ryd( 3d)     0.00052
   375    C   25  dz2    Ryd( 3d)     0.00041

   376    H   26  S      Val( 1S)     0.77728
   377    H   26  S      Ryd( 2S)     0.00057

   378    H   27  S      Val( 1S)     0.79613
   379    H   27  S      Ryd( 2S)     0.00196

   380    H   28  S      Val( 1S)     0.79606
   381    H   28  S      Ryd( 2S)     0.00196

   382    H   29  S      Val( 1S)     0.76452
   383    H   29  S      Ryd( 2S)     0.00115

   384    H   30  S      Val( 1S)     0.77748
   385    H   30  S      Ryd( 2S)     0.00103

   386    H   31  S      Val( 1S)     0.77371
   387    H   31  S      Ryd( 2S)     0.00110

   388    H   32  S      Val( 1S)     0.77465
   389    H   32  S      Ryd( 2S)     0.00103

   390    H   33  S      Val( 1S)     0.76925
   391    H   33  S      Ryd( 2S)     0.00080

   392    H   34  S      Val( 1S)     0.76731
   393    H   34  S      Ryd( 2S)     0.00116

   394    H   35  S      Val( 1S)     0.74739
   395    H   35  S      Ryd( 2S)     0.00083

   396    H   36  S      Val( 1S)     0.75464
   397    H   36  S      Ryd( 2S)     0.00078

   398    H   37  S      Val( 1S)     0.75614
   399    H   37  S      Ryd( 2S)     0.00074

   400    H   38  S      Val( 1S)     0.75252
   401    H   38  S      Ryd( 2S)     0.00076

   402    H   39  S      Val( 1S)     0.73337
   403    H   39  S      Ryd( 2S)     0.00073

   404    H   40  S      Val( 1S)     0.74638
   405    H   40  S      Ryd( 2S)     0.00084

   406    H   41  S      Val( 1S)     0.75407
   407    H   41  S      Ryd( 2S)     0.00078

   408    H   42  S      Val( 1S)     0.75550
   409    H   42  S      Ryd( 2S)     0.00073

   410    H   43  S      Val( 1S)     0.75166
   411    H   43  S      Ryd( 2S)     0.00075

   412    H   44  S      Val( 1S)     0.73377
   413    H   44  S      Ryd( 2S)     0.00074

 WARNING:  1 low occupancy (<1.9990e) core orbital  found on  C    3
           1 low occupancy (<1.9990e) core orbital  found on  C    8
           1 low occupancy (<1.9990e) core orbital  found on  C   11
           1 low occupancy (<1.9990e) core orbital  found on  C   12
           1 low occupancy (<1.9990e) core orbital  found on  C   14
           1 low occupancy (<1.9990e) core orbital  found on  C   20


 Summary of Natural Population Analysis:                  
                                                          
                                       Natural Population 
                Natural  -----------------------------------------------
    Atom  No    Charge         Core      Valence    Rydberg      Total
 -----------------------------------------------------------------------
      C    1   -0.31518      1.99944     4.30186    0.01389     6.31518
      O    2   -0.51093      1.99974     6.49946    0.01173     8.51093
      C    3    0.34319      1.99879     3.63540    0.02262     5.65681
      C    4   -0.32174      1.99904     4.30681    0.01589     6.32174
      C    5   -0.25410      1.99907     4.24062    0.01441     6.25410
      C    6   -0.06448      1.99902     4.05046    0.01500     6.06448
      C    7   -0.00907      1.99903     3.99493    0.01511     6.00907
      C    8   -0.36692      1.99898     4.35548    0.01247     6.36692
      C    9   -0.28067      1.99906     4.26587    0.01575     6.28067
      C   10   -0.30821      1.99904     4.29421    0.01496     6.30821
      C   11    0.10116      1.99894     3.88115    0.01875     5.89884
      C   12   -0.26918      1.99898     4.25547    0.01473     6.26918
      N   13   -0.28618      1.99923     5.27249    0.01446     7.28618
      C   14    0.14681      1.99896     3.83650    0.01774     5.85319
      C   15   -0.23596      1.99902     4.22374    0.01320     6.23596
      C   16   -0.23337      1.99911     4.22001    0.01425     6.23337
      C   17   -0.20907      1.99909     4.19636    0.01361     6.20907
      C   18   -0.23550      1.99911     4.22202    0.01437     6.23550
      C   19   -0.21418      1.99902     4.20204    0.01311     6.21418
      C   20    0.14627      1.99895     3.83689    0.01788     5.85373
      C   21   -0.22641      1.99902     4.21463    0.01276     6.22641
      C   22   -0.23654      1.99911     4.22306    0.01437     6.23654
      C   23   -0.20749      1.99909     4.19478    0.01361     6.20749
      C   24   -0.23009      1.99911     4.21681    0.01417     6.23009
      C   25   -0.22190      1.99902     4.20911    0.01377     6.22190
      H   26    0.22215      0.00000     0.77728    0.00057     0.77785
      H   27    0.20190      0.00000     0.79613    0.00196     0.79810
      H   28    0.20197      0.00000     0.79606    0.00196     0.79803
      H   29    0.23433      0.00000     0.76452    0.00115     0.76567
      H   30    0.22149      0.00000     0.77748    0.00103     0.77851
      H   31    0.22519      0.00000     0.77371    0.00110     0.77481
      H   32    0.22432      0.00000     0.77465    0.00103     0.77568
      H   33    0.22995      0.00000     0.76925    0.00080     0.77005
      H   34    0.23153      0.00000     0.76731    0.00116     0.76847
      H   35    0.25178      0.00000     0.74739    0.00083     0.74822
      H   36    0.24458      0.00000     0.75464    0.00078     0.75542
      H   37    0.24312      0.00000     0.75614    0.00074     0.75688
      H   38    0.24673      0.00000     0.75252    0.00076     0.75327
      H   39    0.26590      0.00000     0.73337    0.00073     0.73410
      H   40    0.25278      0.00000     0.74638    0.00084     0.74722
      H   41    0.24515      0.00000     0.75407    0.00078     0.75485
      H   42    0.24376      0.00000     0.75550    0.00073     0.75624
      H   43    0.24759      0.00000     0.75166    0.00075     0.75241
      H   44    0.26549      0.00000     0.73377    0.00074     0.73451
 =======================================================================
   * Total *   -0.00000     49.97696   121.63198    0.39107   172.00000

                                 Natural Population      
 --------------------------------------------------------
   Core                      49.97696 ( 99.9539% of  50)
   Valence                  121.63198 ( 99.6983% of 122)
   Natural Minimal Basis    171.60893 ( 99.7726% of 172)
   Natural Rydberg Basis      0.39107 (  0.2274% of 172)
 --------------------------------------------------------

    Atom  No          Natural Electron Configuration
 ----------------------------------------------------------------------------
      C    1      [core]2S( 1.10)2p( 3.20)3p( 0.01)3d( 0.01)
      O    2      [core]2S( 1.59)2p( 4.91)3p( 0.01)3d( 0.01)
      C    3      [core]2S( 0.83)2p( 2.80)3p( 0.01)3d( 0.01)
      C    4      [core]2S( 0.95)2p( 3.36)3p( 0.01)
      C    5      [core]2S( 0.94)2p( 3.30)3p( 0.01)
      C    6      [core]2S( 0.86)2p( 3.19)3p( 0.01)
      C    7      [core]2S( 0.87)2p( 3.13)3p( 0.01)
      C    8      [core]2S( 0.94)2p( 3.42)3p( 0.01)
      C    9      [core]2S( 0.93)2p( 3.33)3p( 0.01)
      C   10      [core]2S( 0.94)2p( 3.35)3p( 0.01)
      C   11      [core]2S( 0.83)2p( 3.05)3p( 0.01)
      C   12      [core]2S( 0.93)2p( 3.32)3p( 0.01)
      N   13      [core]2S( 1.17)2p( 4.11)3p( 0.01)
      C   14      [core]2S( 0.84)2p( 3.00)3p( 0.01)
      C   15      [core]2S( 0.96)2p( 3.27)3p( 0.01)
      C   16      [core]2S( 0.96)2p( 3.26)3p( 0.01)
      C   17      [core]2S( 0.97)2p( 3.23)3p( 0.01)
      C   18      [core]2S( 0.96)2p( 3.26)3p( 0.01)
      C   19      [core]2S( 0.96)2p( 3.24)3p( 0.01)
      C   20      [core]2S( 0.84)2p( 3.00)3p( 0.01)
      C   21      [core]2S( 0.96)2p( 3.26)3p( 0.01)
      C   22      [core]2S( 0.96)2p( 3.26)3p( 0.01)
      C   23      [core]2S( 0.97)2p( 3.23)3p( 0.01)
      C   24      [core]2S( 0.96)2p( 3.25)3p( 0.01)
      C   25      [core]2S( 0.96)2p( 3.25)3p( 0.01)
      H   26            1S( 0.78)
      H   27            1S( 0.80)
      H   28            1S( 0.80)
      H   29            1S( 0.76)
      H   30            1S( 0.78)
      H   31            1S( 0.77)
      H   32            1S( 0.77)
      H   33            1S( 0.77)
      H   34            1S( 0.77)
      H   35            1S( 0.75)
      H   36            1S( 0.75)
      H   37            1S( 0.76)
      H   38            1S( 0.75)
      H   39            1S( 0.73)
      H   40            1S( 0.75)
      H   41            1S( 0.75)
      H   42            1S( 0.76)
      H   43            1S( 0.75)
      H   44            1S( 0.73)


 NBO analysis skipped by request.
 Leave Link  607 at Wed Sep 29 06:30:02 2021, MaxMem= 1879048192 cpu:      38.5
 (Enter /sw/target/amd/app/gaussian/Gaussian09RevA.02_gcc-4.9.2/g09/l9999.exe)
 1\1\GINC-HERMITE\SP\RTD-B3LYP-FC\6-31G(d)\C23H19N1O1\JSCHLEINITZ\29-Se
 p-2021\0\\#p TD(NStates=10, Root=1) b3lyp/6-31G* volume pop=NPA densit
 y=current Geom=AllCheck Guess=Read\\COc1ccc2c(c1)ccc(c2)N(c1ccccc1)c1c
 cccc1_conf_0\\0,1\C,0,1.7580740053,0.5219098165,-1.2609084897\O,0,2.18
 52790253,1.5648399328,-2.1212168183\C,0,3.0788297751,2.4734198582,-1.6
 307754429\C,0,3.4583813047,3.4861040002,-2.554647454\C,0,4.3519779901,
 4.4599270901,-2.1897624483\C,0,4.9210734513,4.4868199916,-0.884489526\
 C,0,4.5333116934,3.4679484195,0.0422128571\C,0,3.6075691084,2.46489248
 64,-0.3550425586\C,0,5.1031352038,3.5000868418,1.343464073\C,0,6.00374
 15059,4.4728322842,1.7071067991\C,0,6.3809085144,5.4952513575,0.791196
 4112\C,0,5.8325361217,5.492528698,-0.4802565657\N,0,7.322057575,6.4841
 517202,1.1900123803\C,0,7.2040228248,7.095744042,2.4662365957\C,0,8.35
 0175971,7.3886782828,3.2248457797\C,0,8.2314585144,7.9888089209,4.4762
 068208\C,0,6.9739448837,8.2909769963,5.0045342432\C,0,5.8328659698,7.9
 922456272,4.2578564247\C,0,5.9415680928,7.4091040497,2.9963246387\C,0,
 8.3336047734,6.9092602452,0.2854355229\C,0,8.6419601786,8.2718545735,0
 .1446108241\C,0,9.64448274,8.679581285,-0.7340382445\C,0,10.3423567585
 ,7.7438351836,-1.4998065328\C,0,10.030428766,6.3883754334,-1.369761105
 7\C,0,9.0426320991,5.9696566531,-0.4811744915\H,0,1.0561668522,-0.0792
 508573,-1.8418389114\H,0,1.2496530368,0.9170313018,-0.3712391655\H,0,2
 .6000047306,-0.1075028005,-0.9427082493\H,0,3.0207746511,3.4593058505,
 -3.5477731911\H,0,4.636899621,5.2298822932,-2.9026644292\H,0,3.3320541
 253,1.7021902523,0.3653643213\H,0,4.8290053384,2.7257370408,2.05635483
 51\H,0,6.4417529597,4.4691807355,2.700091\H,0,6.1085558916,6.268422543
 8,-1.1884562804\H,0,9.3292713477,7.1419304151,2.8267967336\H,0,9.12976
 40353,8.20735467,5.047955085\H,0,6.885307102,8.7520729872,5.9840758346
 \H,0,4.8470483578,8.2272773871,4.6509886718\H,0,5.0508774764,7.1948218
 876,2.4143606\H,0,8.0935005809,9.005233003,0.7270638587\H,0,9.86921201
 32,9.7388344694,-0.8291885631\H,0,11.1181459685,8.0657200774,-2.188693
 2422\H,0,10.5690928814,5.6466542773,-1.953928461\H,0,8.8123917643,4.91
 42088015,-0.3759494521\\Version=AM64L-G09RevA.02\State=1-A\HF=-1017.86
 49301\RMSD=6.141e-09\Dipole=1.8901546,1.7037554,1.3948845\Quadrupole=0
 .1936418,2.5075694,-2.7012112,6.8287885,-7.6553139,0.6200975\PG=C01 [X
 (C23H19N1O1)]\\@


 SUPPORT THE RIGHT TO ARM BEARS!
 (ADD A CLAWS TO THE BILL OF RIGHTS)
 Job cpu time:  0 days 11 hours 21 minutes 24.8 seconds.
 File lengths (MBytes):  RWF=    536 Int=      0 D2E=      0 Chk=     75 Scr=      1
 Normal termination of Gaussian 09 at Wed Sep 29 06:30:11 2021.
