 Entering Gaussian System, Link 0=g09
 Input=C25H35NO4_8f3c_conf_0.com
 Output=C25H35NO4_8f3c_conf_0.log
 Initial command:
 /sw/target/amd/app/gaussian/Gaussian09RevA.02_gcc-4.9.2/g09/l1.exe /home/jschleinitz/gaussian/Gau-2179244.inp -scrdir=/home/jschleinitz/gaussian/
 Entering Link 1 = /sw/target/amd/app/gaussian/Gaussian09RevA.02_gcc-4.9.2/g09/l1.exe PID=   2179254.
  
 Copyright (c) 1988,1990,1992,1993,1995,1998,2003,2009, Gaussian, Inc.
                  All Rights Reserved.
  
 This is part of the Gaussian(R) 09 program.  It is based on
 the Gaussian(R) 03 system (copyright 2003, Gaussian, Inc.),
 the Gaussian(R) 98 system (copyright 1998, Gaussian, Inc.),
 the Gaussian(R) 94 system (copyright 1995, Gaussian, Inc.),
 the Gaussian 92(TM) system (copyright 1992, Gaussian, Inc.),
 the Gaussian 90(TM) system (copyright 1990, Gaussian, Inc.),
 the Gaussian 88(TM) system (copyright 1988, Gaussian, Inc.),
 the Gaussian 86(TM) system (copyright 1986, Carnegie Mellon
 University), and the Gaussian 82(TM) system (copyright 1983,
 Carnegie Mellon University). Gaussian is a federally registered
 trademark of Gaussian, Inc.
  
 This software contains proprietary and confidential information,
 including trade secrets, belonging to Gaussian, Inc.
  
 This software is provided under written license and may be
 used, copied, transmitted, or stored only in accord with that
 written license.
  
 The following legend is applicable only to US Government
 contracts under FAR:
  
                    RESTRICTED RIGHTS LEGEND
  
 Use, reproduction and disclosure by the US Government is
 subject to restrictions as set forth in subparagraphs (a)
 and (c) of the Commercial Computer Software - Restricted
 Rights clause in FAR 52.227-19.
  
 Gaussian, Inc.
 340 Quinnipiac St., Bldg. 40, Wallingford CT 06492
  
  
 ---------------------------------------------------------------
 Warning -- This program may not be used in any manner that
 competes with the business of Gaussian, Inc. or will provide
 assistance to any competitor of Gaussian, Inc.  The licensee
 of this program is prohibited from giving any competitor of
 Gaussian, Inc. access to this program.  By using this program,
 the user acknowledges that Gaussian, Inc. is engaged in the
 business of creating and licensing software in the field of
 computational chemistry and represents and warrants to the
 licensee that it is not a competitor of Gaussian, Inc. and that
 it will not use this program in any manner prohibited above.
 ---------------------------------------------------------------
  

 Cite this work as:
 Gaussian 09, Revision A.02,
 M. J. Frisch, G. W. Trucks, H. B. Schlegel, G. E. Scuseria, 
 M. A. Robb, J. R. Cheeseman, G. Scalmani, V. Barone, B. Mennucci, 
 G. A. Petersson, H. Nakatsuji, M. Caricato, X. Li, H. P. Hratchian, 
 A. F. Izmaylov, J. Bloino, G. Zheng, J. L. Sonnenberg, M. Hada, 
 M. Ehara, K. Toyota, R. Fukuda, J. Hasegawa, M. Ishida, T. Nakajima, 
 Y. Honda, O. Kitao, H. Nakai, T. Vreven, J. A. Montgomery, Jr., 
 J. E. Peralta, F. Ogliaro, M. Bearpark, J. J. Heyd, E. Brothers, 
 K. N. Kudin, V. N. Staroverov, R. Kobayashi, J. Normand, 
 K. Raghavachari, A. Rendell, J. C. Burant, S. S. Iyengar, J. Tomasi, 
 M. Cossi, N. Rega, J. M. Millam, M. Klene, J. E. Knox, J. B. Cross, 
 V. Bakken, C. Adamo, J. Jaramillo, R. Gomperts, R. E. Stratmann, 
 O. Yazyev, A. J. Austin, R. Cammi, C. Pomelli, J. W. Ochterski, 
 R. L. Martin, K. Morokuma, V. G. Zakrzewski, G. A. Voth, 
 P. Salvador, J. J. Dannenberg, S. Dapprich, A. D. Daniels, 
 O. Farkas, J. B. Foresman, J. V. Ortiz, J. Cioslowski, 
 and D. J. Fox, Gaussian, Inc., Wallingford CT, 2009.
 
 ******************************************
 Gaussian 09:  AM64L-G09RevA.02 11-Jun-2009
                30-Sep-2021 
 ******************************************
 %nproc=10
 Will use up to   10 processors via shared memory.
 %mem=20gb
 %chk=C25H35NO4_8f3c_conf_0.chk
 -----------------------------------
 #p opt b3lyp/6-31G* scf=(xqc,tight)
 -----------------------------------
 1/14=-1,18=20,19=15,26=3,38=1/1,3;
 2/9=110,12=2,17=6,18=5,40=1/2;
 3/5=1,6=6,7=1,11=2,16=1,25=1,30=1,71=1,74=-5/1,2,3;
 4//1;
 5/5=2,8=3,13=1,32=2,38=5/2,8;
 6/7=2,8=2,9=2,10=2,28=1/1;
 7//1,2,3,16;
 1/14=-1,18=20,19=15/3(2);
 2/9=110/2;
 99//99;
 2/9=110/2;
 3/5=1,6=6,7=1,11=2,16=1,25=1,30=1,71=1,74=-5/1,2,3;
 4/5=5,16=3/1;
 5/5=2,8=3,13=1,32=2,38=5/2,8;
 7//1,2,3,16;
 1/14=-1,18=20,19=15/3(-5);
 2/9=110/2;
 6/7=2,8=2,9=2,10=2,19=2,28=1/1;
 99/9=1/99;
 Leave Link    1 at Thu Sep 30 07:24:15 2021, MaxMem= 2684354560 cpu:       0.1
 (Enter /sw/target/amd/app/gaussian/Gaussian09RevA.02_gcc-4.9.2/g09/l101.exe)
 ------------------------------------------------------------
 CCN(C(=O)Oc1ccc2c(c1)CCC1C2CC[C@@]2(C1CCC12OCCO1)C)CC_conf_0
 ------------------------------------------------------------
 Symbolic Z-matrix:
 Charge =  0 Multiplicity = 1
 C                     3.2812    1.92183   2.95496 
 C                     3.33124   0.40557   3.04594 
 N                     2.18973  -0.12209   3.78734 
 C                     0.99243  -0.45778   3.16525 
 O                     0.026    -0.91857   3.7627 
 O                     1.04126  -0.23516   1.78765 
 C                     0.21607  -0.98659   0.93189 
 C                    -0.13827  -2.29796   1.22272 
 C                    -0.8727   -3.03157   0.299 
 C                    -1.26273  -2.47438  -0.93016 
 C                    -0.87835  -1.14907  -1.2197 
 C                    -0.12181  -0.41528  -0.29282 
 C                    -1.26953  -0.53292  -2.53544 
 C                    -2.68797  -0.96448  -2.87976 
 C                    -2.79946  -2.49413  -3.02734 
 C                    -1.98373  -3.31205  -1.98058 
 C                    -2.78268  -4.48688  -1.38537 
 C                    -3.53288  -5.28785  -2.43821 
 C                    -4.46847  -4.45461  -3.35027 
 C                    -4.27164  -2.92706  -3.17132 
 C                    -5.19632  -2.52726  -1.99781 
 C                    -6.12324  -3.71743  -1.7448 
 C                    -5.97013  -4.60514  -2.97835 
 O                    -6.35733  -5.94736  -2.68097 
 C                    -7.29572  -6.30034  -3.69438 
 C                    -7.91172  -4.98547  -4.08242 
 O                    -6.81182  -4.08082  -4.0225 
 C                    -4.19773  -4.88136  -4.80582 
 C                     2.33479  -0.36862   5.21792 
 C                     2.8251   -1.77992   5.51472 
 H                     3.31791   2.37537   3.95207 
 H                     2.36048   2.25948   2.47086 
 H                     4.13022   2.29699   2.376 
 H                     4.25634   0.07647   3.53092 
 H                     3.341    -0.01224   2.03308 
 H                     0.15709  -2.77524   2.15063 
 H                    -1.11547  -4.05441   0.56649 
 H                     0.20628   0.59444  -0.5248 
 H                    -0.56352  -0.84141  -3.31524 
 H                    -1.23873   0.56126  -2.47207 
 H                    -3.00128  -0.48391  -3.81495 
 H                    -3.3675   -0.5978   -2.10061 
 H                    -2.32911  -2.72325  -3.9963 
 H                    -1.16169  -3.77558  -2.54957 
 H                    -3.46631  -4.13916  -0.60372 
 H                    -2.10049  -5.18887  -0.88995 
 H                    -4.07748  -6.09447  -1.93454 
 H                    -2.77529  -5.80098  -3.04603 
 H                    -4.66963  -2.41899  -4.06294 
 H                    -5.78215  -1.64316  -2.27665 
 H                    -4.65346  -2.26832  -1.08343 
 H                    -7.15513  -3.38198  -1.59456 
 H                    -5.82422  -4.25126  -0.8353 
 H                    -8.02131  -7.02364  -3.31455 
 H                    -6.74408  -6.74842  -4.52731 
 H                    -8.66279  -4.65998  -3.35491 
 H                    -8.35339  -4.99154  -5.08164 
 H                    -3.14616  -4.72543  -5.073 
 H                    -4.79764  -4.31238  -5.52273 
 H                    -4.41996  -5.94439  -4.94871 
 H                     1.36504  -0.22373   5.70613 
 H                     3.02485   0.37168   5.63618 
 H                     2.15743  -2.53437   5.08479 
 H                     2.8705   -1.94456   6.59644 
 H                     3.82586  -1.94747   5.1038 
 
 NAtoms=     65 NQM=     65 NQMF=      0 NMic=      0 NMicF=      0 NTot=     65.
                    Isotopes and Nuclear Properties:
 (Nuclear quadrupole moments (NQMom) in fm**2, nuclear magnetic moments (NMagM)
  in nuclear magnetons)

  Atom         1           2           3           4           5           6           7           8           9          10
 IAtWgt=          12          12          14          12          16          16          12          12          12          12
 AtmWgt=  12.0000000  12.0000000  14.0030740  12.0000000  15.9949146  15.9949146  12.0000000  12.0000000  12.0000000  12.0000000
 NucSpn=           0           0           2           0           0           0           0           0           0           0
 AtZEff=   0.0000000   0.0000000   0.0000000   0.0000000   0.0000000   0.0000000   0.0000000   0.0000000   0.0000000   0.0000000
 NQMom=    0.0000000   0.0000000   2.0440000   0.0000000   0.0000000   0.0000000   0.0000000   0.0000000   0.0000000   0.0000000
 NMagM=    0.0000000   0.0000000   0.4037610   0.0000000   0.0000000   0.0000000   0.0000000   0.0000000   0.0000000   0.0000000

  Atom        11          12          13          14          15          16          17          18          19          20
 IAtWgt=          12          12          12          12          12          12          12          12          12          12
 AtmWgt=  12.0000000  12.0000000  12.0000000  12.0000000  12.0000000  12.0000000  12.0000000  12.0000000  12.0000000  12.0000000
 NucSpn=           0           0           0           0           0           0           0           0           0           0
 AtZEff=   0.0000000   0.0000000   0.0000000   0.0000000   0.0000000   0.0000000   0.0000000   0.0000000   0.0000000   0.0000000
 NQMom=    0.0000000   0.0000000   0.0000000   0.0000000   0.0000000   0.0000000   0.0000000   0.0000000   0.0000000   0.0000000
 NMagM=    0.0000000   0.0000000   0.0000000   0.0000000   0.0000000   0.0000000   0.0000000   0.0000000   0.0000000   0.0000000

  Atom        21          22          23          24          25          26          27          28          29          30
 IAtWgt=          12          12          12          16          12          12          16          12          12          12
 AtmWgt=  12.0000000  12.0000000  12.0000000  15.9949146  12.0000000  12.0000000  15.9949146  12.0000000  12.0000000  12.0000000
 NucSpn=           0           0           0           0           0           0           0           0           0           0
 AtZEff=   0.0000000   0.0000000   0.0000000   0.0000000   0.0000000   0.0000000   0.0000000   0.0000000   0.0000000   0.0000000
 NQMom=    0.0000000   0.0000000   0.0000000   0.0000000   0.0000000   0.0000000   0.0000000   0.0000000   0.0000000   0.0000000
 NMagM=    0.0000000   0.0000000   0.0000000   0.0000000   0.0000000   0.0000000   0.0000000   0.0000000   0.0000000   0.0000000

  Atom        31          32          33          34          35          36          37          38          39          40
 IAtWgt=           1           1           1           1           1           1           1           1           1           1
 AtmWgt=   1.0078250   1.0078250   1.0078250   1.0078250   1.0078250   1.0078250   1.0078250   1.0078250   1.0078250   1.0078250
 NucSpn=           1           1           1           1           1           1           1           1           1           1
 AtZEff=   0.0000000   0.0000000   0.0000000   0.0000000   0.0000000   0.0000000   0.0000000   0.0000000   0.0000000   0.0000000
 NQMom=    0.0000000   0.0000000   0.0000000   0.0000000   0.0000000   0.0000000   0.0000000   0.0000000   0.0000000   0.0000000
 NMagM=    2.7928460   2.7928460   2.7928460   2.7928460   2.7928460   2.7928460   2.7928460   2.7928460   2.7928460   2.7928460

  Atom        41          42          43          44          45          46          47          48          49          50
 IAtWgt=           1           1           1           1           1           1           1           1           1           1
 AtmWgt=   1.0078250   1.0078250   1.0078250   1.0078250   1.0078250   1.0078250   1.0078250   1.0078250   1.0078250   1.0078250
 NucSpn=           1           1           1           1           1           1           1           1           1           1
 AtZEff=   0.0000000   0.0000000   0.0000000   0.0000000   0.0000000   0.0000000   0.0000000   0.0000000   0.0000000   0.0000000
 NQMom=    0.0000000   0.0000000   0.0000000   0.0000000   0.0000000   0.0000000   0.0000000   0.0000000   0.0000000   0.0000000
 NMagM=    2.7928460   2.7928460   2.7928460   2.7928460   2.7928460   2.7928460   2.7928460   2.7928460   2.7928460   2.7928460

  Atom        51          52          53          54          55          56          57          58          59          60
 IAtWgt=           1           1           1           1           1           1           1           1           1           1
 AtmWgt=   1.0078250   1.0078250   1.0078250   1.0078250   1.0078250   1.0078250   1.0078250   1.0078250   1.0078250   1.0078250
 NucSpn=           1           1           1           1           1           1           1           1           1           1
 AtZEff=   0.0000000   0.0000000   0.0000000   0.0000000   0.0000000   0.0000000   0.0000000   0.0000000   0.0000000   0.0000000
 NQMom=    0.0000000   0.0000000   0.0000000   0.0000000   0.0000000   0.0000000   0.0000000   0.0000000   0.0000000   0.0000000
 NMagM=    2.7928460   2.7928460   2.7928460   2.7928460   2.7928460   2.7928460   2.7928460   2.7928460   2.7928460   2.7928460

  Atom        61          62          63          64          65
 IAtWgt=           1           1           1           1           1
 AtmWgt=   1.0078250   1.0078250   1.0078250   1.0078250   1.0078250
 NucSpn=           1           1           1           1           1
 AtZEff=   0.0000000   0.0000000   0.0000000   0.0000000   0.0000000
 NQMom=    0.0000000   0.0000000   0.0000000   0.0000000   0.0000000
 NMagM=    2.7928460   2.7928460   2.7928460   2.7928460   2.7928460
 Leave Link  101 at Thu Sep 30 07:24:16 2021, MaxMem= 2684354560 cpu:       0.3
 (Enter /sw/target/amd/app/gaussian/Gaussian09RevA.02_gcc-4.9.2/g09/l103.exe)

 GradGradGradGradGradGradGradGradGradGradGradGradGradGradGradGradGradGrad
 Berny optimization.
 Initialization pass.
                           ----------------------------
                           !    Initial Parameters    !
                           ! (Angstroms and Degrees)  !
 --------------------------                            --------------------------
 ! Name  Definition              Value          Derivative Info.                !
 --------------------------------------------------------------------------------
 ! R1    R(1,2)                  1.5198         estimate D2E/DX2                !
 ! R2    R(1,31)                 1.096          estimate D2E/DX2                !
 ! R3    R(1,32)                 1.0937         estimate D2E/DX2                !
 ! R4    R(1,33)                 1.094          estimate D2E/DX2                !
 ! R5    R(2,3)                  1.4598         estimate D2E/DX2                !
 ! R6    R(2,34)                 1.0951         estimate D2E/DX2                !
 ! R7    R(2,35)                 1.0957         estimate D2E/DX2                !
 ! R8    R(3,4)                  1.3904         estimate D2E/DX2                !
 ! R9    R(3,29)                 1.4589         estimate D2E/DX2                !
 ! R10   R(4,5)                  1.2261         estimate D2E/DX2                !
 ! R11   R(4,6)                  1.3963         estimate D2E/DX2                !
 ! R12   R(6,7)                  1.4064         estimate D2E/DX2                !
 ! R13   R(7,8)                  1.3892         estimate D2E/DX2                !
 ! R14   R(7,12)                 1.393          estimate D2E/DX2                !
 ! R15   R(8,9)                  1.3895         estimate D2E/DX2                !
 ! R16   R(8,36)                 1.0845         estimate D2E/DX2                !
 ! R17   R(9,10)                 1.4048         estimate D2E/DX2                !
 ! R18   R(9,37)                 1.0848         estimate D2E/DX2                !
 ! R19   R(10,11)                1.41           estimate D2E/DX2                !
 ! R20   R(10,16)                1.5248         estimate D2E/DX2                !
 ! R21   R(11,12)                1.4035         estimate D2E/DX2                !
 ! R22   R(11,13)                1.5046         estimate D2E/DX2                !
 ! R23   R(12,38)                1.0867         estimate D2E/DX2                !
 ! R24   R(13,14)                1.5221         estimate D2E/DX2                !
 ! R25   R(13,39)                1.0962         estimate D2E/DX2                !
 ! R26   R(13,40)                1.0964         estimate D2E/DX2                !
 ! R27   R(14,15)                1.5408         estimate D2E/DX2                !
 ! R28   R(14,41)                1.0971         estimate D2E/DX2                !
 ! R29   R(14,42)                1.0969         estimate D2E/DX2                !
 ! R30   R(15,16)                1.5589         estimate D2E/DX2                !
 ! R31   R(15,20)                1.5413         estimate D2E/DX2                !
 ! R32   R(15,43)                1.1012         estimate D2E/DX2                !
 ! R33   R(16,17)                1.5404         estimate D2E/DX2                !
 ! R34   R(16,44)                1.102          estimate D2E/DX2                !
 ! R35   R(17,18)                1.5208         estimate D2E/DX2                !
 ! R36   R(17,45)                1.0951         estimate D2E/DX2                !
 ! R37   R(17,46)                1.0971         estimate D2E/DX2                !
 ! R38   R(18,19)                1.5497         estimate D2E/DX2                !
 ! R39   R(18,47)                1.0959         estimate D2E/DX2                !
 ! R40   R(18,48)                1.0985         estimate D2E/DX2                !
 ! R41   R(19,20)                1.5505         estimate D2E/DX2                !
 ! R42   R(19,23)                1.5543         estimate D2E/DX2                !
 ! R43   R(19,28)                1.5408         estimate D2E/DX2                !
 ! R44   R(20,21)                1.5466         estimate D2E/DX2                !
 ! R45   R(20,49)                1.1007         estimate D2E/DX2                !
 ! R46   R(21,22)                1.5296         estimate D2E/DX2                !
 ! R47   R(21,50)                1.0966         estimate D2E/DX2                !
 ! R48   R(21,51)                1.0945         estimate D2E/DX2                !
 ! R49   R(22,23)                1.5275         estimate D2E/DX2                !
 ! R50   R(22,52)                1.0954         estimate D2E/DX2                !
 ! R51   R(22,53)                1.0962         estimate D2E/DX2                !
 ! R52   R(23,24)                1.4283         estimate D2E/DX2                !
 ! R53   R(23,27)                1.44           estimate D2E/DX2                !
 ! R54   R(24,25)                1.4255         estimate D2E/DX2                !
 ! R55   R(25,26)                1.503          estimate D2E/DX2                !
 ! R56   R(25,54)                1.0927         estimate D2E/DX2                !
 ! R57   R(25,55)                1.0949         estimate D2E/DX2                !
 ! R58   R(26,27)                1.4254         estimate D2E/DX2                !
 ! R59   R(26,56)                1.0951         estimate D2E/DX2                !
 ! R60   R(26,57)                1.0925         estimate D2E/DX2                !
 ! R61   R(28,58)                1.0961         estimate D2E/DX2                !
 ! R62   R(28,59)                1.0943         estimate D2E/DX2                !
 ! R63   R(28,60)                1.0954         estimate D2E/DX2                !
 ! R64   R(29,30)                1.5232         estimate D2E/DX2                !
 ! R65   R(29,61)                1.0953         estimate D2E/DX2                !
 ! R66   R(29,62)                1.0951         estimate D2E/DX2                !
 ! R67   R(30,63)                1.0954         estimate D2E/DX2                !
 ! R68   R(30,64)                1.0951         estimate D2E/DX2                !
 ! R69   R(30,65)                1.0947         estimate D2E/DX2                !
 ! A1    A(2,1,31)             110.9325         estimate D2E/DX2                !
 ! A2    A(2,1,32)             111.2377         estimate D2E/DX2                !
 ! A3    A(2,1,33)             110.3812         estimate D2E/DX2                !
 ! A4    A(31,1,32)            107.6459         estimate D2E/DX2                !
 ! A5    A(31,1,33)            108.2738         estimate D2E/DX2                !
 ! A6    A(32,1,33)            108.2543         estimate D2E/DX2                !
 ! A7    A(1,2,3)              111.4238         estimate D2E/DX2                !
 ! A8    A(1,2,34)             110.7405         estimate D2E/DX2                !
 ! A9    A(1,2,35)             108.9887         estimate D2E/DX2                !
 ! A10   A(3,2,34)             109.0876         estimate D2E/DX2                !
 ! A11   A(3,2,35)             109.7916         estimate D2E/DX2                !
 ! A12   A(34,2,35)            106.6934         estimate D2E/DX2                !
 ! A13   A(2,3,4)              122.2348         estimate D2E/DX2                !
 ! A14   A(2,3,29)             118.7724         estimate D2E/DX2                !
 ! A15   A(4,3,29)             118.9177         estimate D2E/DX2                !
 ! A16   A(3,4,5)              123.4689         estimate D2E/DX2                !
 ! A17   A(3,4,6)              111.8889         estimate D2E/DX2                !
 ! A18   A(5,4,6)              124.627          estimate D2E/DX2                !
 ! A19   A(4,6,7)              119.6447         estimate D2E/DX2                !
 ! A20   A(6,7,8)              121.7788         estimate D2E/DX2                !
 ! A21   A(6,7,12)             117.2686         estimate D2E/DX2                !
 ! A22   A(8,7,12)             120.62           estimate D2E/DX2                !
 ! A23   A(7,8,9)              119.6052         estimate D2E/DX2                !
 ! A24   A(7,8,36)             121.6763         estimate D2E/DX2                !
 ! A25   A(9,8,36)             118.7115         estimate D2E/DX2                !
 ! A26   A(8,9,10)             121.2649         estimate D2E/DX2                !
 ! A27   A(8,9,37)             116.8833         estimate D2E/DX2                !
 ! A28   A(10,9,37)            121.8456         estimate D2E/DX2                !
 ! A29   A(9,10,11)            118.4774         estimate D2E/DX2                !
 ! A30   A(9,10,16)            121.0747         estimate D2E/DX2                !
 ! A31   A(11,10,16)           120.2539         estimate D2E/DX2                !
 ! A32   A(10,11,12)           120.1825         estimate D2E/DX2                !
 ! A33   A(10,11,13)           119.5788         estimate D2E/DX2                !
 ! A34   A(12,11,13)           120.2342         estimate D2E/DX2                !
 ! A35   A(7,12,11)            119.7971         estimate D2E/DX2                !
 ! A36   A(7,12,38)            119.7026         estimate D2E/DX2                !
 ! A37   A(11,12,38)           120.4998         estimate D2E/DX2                !
 ! A38   A(11,13,14)           108.9042         estimate D2E/DX2                !
 ! A39   A(11,13,39)           109.8386         estimate D2E/DX2                !
 ! A40   A(11,13,40)           110.5376         estimate D2E/DX2                !
 ! A41   A(14,13,39)           111.0683         estimate D2E/DX2                !
 ! A42   A(14,13,40)           108.7957         estimate D2E/DX2                !
 ! A43   A(39,13,40)           107.6893         estimate D2E/DX2                !
 ! A44   A(13,14,15)           111.7514         estimate D2E/DX2                !
 ! A45   A(13,14,41)           109.5575         estimate D2E/DX2                !
 ! A46   A(13,14,42)           108.7739         estimate D2E/DX2                !
 ! A47   A(15,14,41)           109.4238         estimate D2E/DX2                !
 ! A48   A(15,14,42)           110.7977         estimate D2E/DX2                !
 ! A49   A(41,14,42)           106.3866         estimate D2E/DX2                !
 ! A50   A(14,15,16)           114.7529         estimate D2E/DX2                !
 ! A51   A(14,15,20)           110.9114         estimate D2E/DX2                !
 ! A52   A(14,15,43)           105.0661         estimate D2E/DX2                !
 ! A53   A(16,15,20)           114.5304         estimate D2E/DX2                !
 ! A54   A(16,15,43)           104.9625         estimate D2E/DX2                !
 ! A55   A(20,15,43)           105.5061         estimate D2E/DX2                !
 ! A56   A(10,16,15)           114.9467         estimate D2E/DX2                !
 ! A57   A(10,16,17)           113.4575         estimate D2E/DX2                !
 ! A58   A(10,16,44)           103.536          estimate D2E/DX2                !
 ! A59   A(15,16,17)           112.8436         estimate D2E/DX2                !
 ! A60   A(15,16,44)           105.3272         estimate D2E/DX2                !
 ! A61   A(17,16,44)           105.4032         estimate D2E/DX2                !
 ! A62   A(16,17,18)           112.9571         estimate D2E/DX2                !
 ! A63   A(16,17,45)           110.9412         estimate D2E/DX2                !
 ! A64   A(16,17,46)           109.8757         estimate D2E/DX2                !
 ! A65   A(18,17,45)           110.6975         estimate D2E/DX2                !
 ! A66   A(18,17,46)           106.4012         estimate D2E/DX2                !
 ! A67   A(45,17,46)           105.6064         estimate D2E/DX2                !
 ! A68   A(17,18,19)           114.966          estimate D2E/DX2                !
 ! A69   A(17,18,47)           108.3384         estimate D2E/DX2                !
 ! A70   A(17,18,48)           106.7903         estimate D2E/DX2                !
 ! A71   A(19,18,47)           111.4842         estimate D2E/DX2                !
 ! A72   A(19,18,48)           109.9921         estimate D2E/DX2                !
 ! A73   A(47,18,48)           104.668          estimate D2E/DX2                !
 ! A74   A(18,19,20)           112.6533         estimate D2E/DX2                !
 ! A75   A(18,19,23)           112.9779         estimate D2E/DX2                !
 ! A76   A(18,19,28)           107.5166         estimate D2E/DX2                !
 ! A77   A(20,19,23)           100.9782         estimate D2E/DX2                !
 ! A78   A(20,19,28)           111.0742         estimate D2E/DX2                !
 ! A79   A(23,19,28)           111.6526         estimate D2E/DX2                !
 ! A80   A(15,20,19)           114.127          estimate D2E/DX2                !
 ! A81   A(15,20,21)           115.3145         estimate D2E/DX2                !
 ! A82   A(15,20,49)           106.9411         estimate D2E/DX2                !
 ! A83   A(19,20,21)           105.4467         estimate D2E/DX2                !
 ! A84   A(19,20,49)           108.3825         estimate D2E/DX2                !
 ! A85   A(21,20,49)           106.209          estimate D2E/DX2                !
 ! A86   A(20,21,22)           106.6586         estimate D2E/DX2                !
 ! A87   A(20,21,50)           109.564          estimate D2E/DX2                !
 ! A88   A(20,21,51)           113.4858         estimate D2E/DX2                !
 ! A89   A(22,21,50)           110.2207         estimate D2E/DX2                !
 ! A90   A(22,21,51)           110.272          estimate D2E/DX2                !
 ! A91   A(50,21,51)           106.6587         estimate D2E/DX2                !
 ! A92   A(21,22,23)           104.9445         estimate D2E/DX2                !
 ! A93   A(21,22,52)           110.8097         estimate D2E/DX2                !
 ! A94   A(21,22,53)           110.5398         estimate D2E/DX2                !
 ! A95   A(23,22,52)           112.5303         estimate D2E/DX2                !
 ! A96   A(23,22,53)           111.0809         estimate D2E/DX2                !
 ! A97   A(52,22,53)           106.9959         estimate D2E/DX2                !
 ! A98   A(19,23,22)           103.5205         estimate D2E/DX2                !
 ! A99   A(19,23,24)           113.7498         estimate D2E/DX2                !
 ! A100  A(19,23,27)           110.8508         estimate D2E/DX2                !
 ! A101  A(22,23,24)           110.5388         estimate D2E/DX2                !
 ! A102  A(22,23,27)           108.3836         estimate D2E/DX2                !
 ! A103  A(24,23,27)           109.5539         estimate D2E/DX2                !
 ! A104  A(23,24,25)           105.2561         estimate D2E/DX2                !
 ! A105  A(24,25,26)           103.6926         estimate D2E/DX2                !
 ! A106  A(24,25,54)           110.7267         estimate D2E/DX2                !
 ! A107  A(24,25,55)           108.0877         estimate D2E/DX2                !
 ! A108  A(26,25,54)           113.3721         estimate D2E/DX2                !
 ! A109  A(26,25,55)           111.5989         estimate D2E/DX2                !
 ! A110  A(54,25,55)           109.154          estimate D2E/DX2                !
 ! A111  A(25,26,27)           103.1865         estimate D2E/DX2                !
 ! A112  A(25,26,56)           111.6903         estimate D2E/DX2                !
 ! A113  A(25,26,57)           113.3891         estimate D2E/DX2                !
 ! A114  A(27,26,56)           108.2193         estimate D2E/DX2                !
 ! A115  A(27,26,57)           110.7279         estimate D2E/DX2                !
 ! A116  A(56,26,57)           109.3891         estimate D2E/DX2                !
 ! A117  A(23,27,26)           104.5027         estimate D2E/DX2                !
 ! A118  A(19,28,58)           111.0659         estimate D2E/DX2                !
 ! A119  A(19,28,59)           112.2429         estimate D2E/DX2                !
 ! A120  A(19,28,60)           110.8771         estimate D2E/DX2                !
 ! A121  A(58,28,59)           106.9938         estimate D2E/DX2                !
 ! A122  A(58,28,60)           107.511          estimate D2E/DX2                !
 ! A123  A(59,28,60)           107.9328         estimate D2E/DX2                !
 ! A124  A(3,29,30)            112.3109         estimate D2E/DX2                !
 ! A125  A(3,29,61)            109.0679         estimate D2E/DX2                !
 ! A126  A(3,29,62)            108.8419         estimate D2E/DX2                !
 ! A127  A(30,29,61)           108.7047         estimate D2E/DX2                !
 ! A128  A(30,29,62)           110.4317         estimate D2E/DX2                !
 ! A129  A(61,29,62)           107.3518         estimate D2E/DX2                !
 ! A130  A(29,30,63)           111.4368         estimate D2E/DX2                !
 ! A131  A(29,30,64)           110.1873         estimate D2E/DX2                !
 ! A132  A(29,30,65)           111.2794         estimate D2E/DX2                !
 ! A133  A(63,30,64)           108.0242         estimate D2E/DX2                !
 ! A134  A(63,30,65)           107.7267         estimate D2E/DX2                !
 ! A135  A(64,30,65)           108.0511         estimate D2E/DX2                !
 ! D1    D(31,1,2,3)            61.3583         estimate D2E/DX2                !
 ! D2    D(31,1,2,34)          -60.2568         estimate D2E/DX2                !
 ! D3    D(31,1,2,35)         -177.3307         estimate D2E/DX2                !
 ! D4    D(32,1,2,3)           -58.434          estimate D2E/DX2                !
 ! D5    D(32,1,2,34)          179.9509         estimate D2E/DX2                !
 ! D6    D(32,1,2,35)           62.877          estimate D2E/DX2                !
 ! D7    D(33,1,2,3)          -178.6252         estimate D2E/DX2                !
 ! D8    D(33,1,2,34)           59.7596         estimate D2E/DX2                !
 ! D9    D(33,1,2,35)          -57.3142         estimate D2E/DX2                !
 ! D10   D(1,2,3,4)             89.3381         estimate D2E/DX2                !
 ! D11   D(1,2,3,29)           -93.8475         estimate D2E/DX2                !
 ! D12   D(34,2,3,4)          -148.0918         estimate D2E/DX2                !
 ! D13   D(34,2,3,29)           28.7226         estimate D2E/DX2                !
 ! D14   D(35,2,3,4)           -31.504          estimate D2E/DX2                !
 ! D15   D(35,2,3,29)          145.3104         estimate D2E/DX2                !
 ! D16   D(2,3,4,5)            179.0223         estimate D2E/DX2                !
 ! D17   D(2,3,4,6)              0.384          estimate D2E/DX2                !
 ! D18   D(29,3,4,5)             2.2124         estimate D2E/DX2                !
 ! D19   D(29,3,4,6)          -176.4259         estimate D2E/DX2                !
 ! D20   D(2,3,29,30)          -89.9589         estimate D2E/DX2                !
 ! D21   D(2,3,29,61)          149.4702         estimate D2E/DX2                !
 ! D22   D(2,3,29,62)           32.6386         estimate D2E/DX2                !
 ! D23   D(4,3,29,30)           86.9627         estimate D2E/DX2                !
 ! D24   D(4,3,29,61)          -33.6081         estimate D2E/DX2                !
 ! D25   D(4,3,29,62)         -150.4398         estimate D2E/DX2                !
 ! D26   D(3,4,6,7)            153.5612         estimate D2E/DX2                !
 ! D27   D(5,4,6,7)            -25.0584         estimate D2E/DX2                !
 ! D28   D(4,6,7,8)            -32.0145         estimate D2E/DX2                !
 ! D29   D(4,6,7,12)           154.5717         estimate D2E/DX2                !
 ! D30   D(6,7,8,9)           -175.2127         estimate D2E/DX2                !
 ! D31   D(6,7,8,36)             3.8083         estimate D2E/DX2                !
 ! D32   D(12,7,8,9)            -2.0165         estimate D2E/DX2                !
 ! D33   D(12,7,8,36)          177.0045         estimate D2E/DX2                !
 ! D34   D(6,7,12,11)          176.3343         estimate D2E/DX2                !
 ! D35   D(6,7,12,38)           -3.4144         estimate D2E/DX2                !
 ! D36   D(8,7,12,11)            2.8399         estimate D2E/DX2                !
 ! D37   D(8,7,12,38)         -176.9088         estimate D2E/DX2                !
 ! D38   D(7,8,9,10)             0.2062         estimate D2E/DX2                !
 ! D39   D(7,8,9,37)           179.3197         estimate D2E/DX2                !
 ! D40   D(36,8,9,10)         -178.844          estimate D2E/DX2                !
 ! D41   D(36,8,9,37)            0.2696         estimate D2E/DX2                !
 ! D42   D(8,9,10,11)            0.744          estimate D2E/DX2                !
 ! D43   D(8,9,10,16)          175.6949         estimate D2E/DX2                !
 ! D44   D(37,9,10,11)        -178.3252         estimate D2E/DX2                !
 ! D45   D(37,9,10,16)          -3.3744         estimate D2E/DX2                !
 ! D46   D(9,10,11,12)           0.0862         estimate D2E/DX2                !
 ! D47   D(9,10,11,13)         179.3184         estimate D2E/DX2                !
 ! D48   D(16,10,11,12)       -174.9074         estimate D2E/DX2                !
 ! D49   D(16,10,11,13)          4.3248         estimate D2E/DX2                !
 ! D50   D(9,10,16,15)         158.6375         estimate D2E/DX2                !
 ! D51   D(9,10,16,17)          26.679          estimate D2E/DX2                !
 ! D52   D(9,10,16,44)         -87.0416         estimate D2E/DX2                !
 ! D53   D(11,10,16,15)        -26.5008         estimate D2E/DX2                !
 ! D54   D(11,10,16,17)       -158.4593         estimate D2E/DX2                !
 ! D55   D(11,10,16,44)         87.8201         estimate D2E/DX2                !
 ! D56   D(10,11,12,7)          -1.8568         estimate D2E/DX2                !
 ! D57   D(10,11,12,38)        177.8899         estimate D2E/DX2                !
 ! D58   D(13,11,12,7)         178.9161         estimate D2E/DX2                !
 ! D59   D(13,11,12,38)         -1.3372         estimate D2E/DX2                !
 ! D60   D(10,11,13,14)         39.5915         estimate D2E/DX2                !
 ! D61   D(10,11,13,39)        -82.2454         estimate D2E/DX2                !
 ! D62   D(10,11,13,40)        159.062          estimate D2E/DX2                !
 ! D63   D(12,11,13,14)       -141.1768         estimate D2E/DX2                !
 ! D64   D(12,11,13,39)         96.9864         estimate D2E/DX2                !
 ! D65   D(12,11,13,40)        -21.7063         estimate D2E/DX2                !
 ! D66   D(11,13,14,15)        -61.1462         estimate D2E/DX2                !
 ! D67   D(11,13,14,41)        177.407          estimate D2E/DX2                !
 ! D68   D(11,13,14,42)         61.4963         estimate D2E/DX2                !
 ! D69   D(39,13,14,15)         59.9411         estimate D2E/DX2                !
 ! D70   D(39,13,14,41)        -61.5057         estimate D2E/DX2                !
 ! D71   D(39,13,14,42)       -177.4164         estimate D2E/DX2                !
 ! D72   D(40,13,14,15)        178.3054         estimate D2E/DX2                !
 ! D73   D(40,13,14,41)         56.8586         estimate D2E/DX2                !
 ! D74   D(40,13,14,42)        -59.0521         estimate D2E/DX2                !
 ! D75   D(13,14,15,16)         40.0203         estimate D2E/DX2                !
 ! D76   D(13,14,15,20)        171.7475         estimate D2E/DX2                !
 ! D77   D(13,14,15,43)        -74.7222         estimate D2E/DX2                !
 ! D78   D(41,14,15,16)        161.5444         estimate D2E/DX2                !
 ! D79   D(41,14,15,20)        -66.7284         estimate D2E/DX2                !
 ! D80   D(41,14,15,43)         46.8018         estimate D2E/DX2                !
 ! D81   D(42,14,15,16)        -81.4598         estimate D2E/DX2                !
 ! D82   D(42,14,15,20)         50.2675         estimate D2E/DX2                !
 ! D83   D(42,14,15,43)        163.7977         estimate D2E/DX2                !
 ! D84   D(14,15,16,10)          3.0775         estimate D2E/DX2                !
 ! D85   D(14,15,16,17)        135.3265         estimate D2E/DX2                !
 ! D86   D(14,15,16,44)       -110.1982         estimate D2E/DX2                !
 ! D87   D(20,15,16,10)       -126.8968         estimate D2E/DX2                !
 ! D88   D(20,15,16,17)          5.3522         estimate D2E/DX2                !
 ! D89   D(20,15,16,44)        119.8275         estimate D2E/DX2                !
 ! D90   D(43,15,16,10)        117.8803         estimate D2E/DX2                !
 ! D91   D(43,15,16,17)       -109.8707         estimate D2E/DX2                !
 ! D92   D(43,15,16,44)          4.6046         estimate D2E/DX2                !
 ! D93   D(14,15,20,19)        178.9742         estimate D2E/DX2                !
 ! D94   D(14,15,20,21)        -58.7027         estimate D2E/DX2                !
 ! D95   D(14,15,20,49)         59.1295         estimate D2E/DX2                !
 ! D96   D(16,15,20,19)        -49.1843         estimate D2E/DX2                !
 ! D97   D(16,15,20,21)         73.1387         estimate D2E/DX2                !
 ! D98   D(16,15,20,49)       -169.029          estimate D2E/DX2                !
 ! D99   D(43,15,20,19)         65.722          estimate D2E/DX2                !
 ! D100  D(43,15,20,21)       -171.9549         estimate D2E/DX2                !
 ! D101  D(43,15,20,49)        -54.1227         estimate D2E/DX2                !
 ! D102  D(10,16,17,18)        178.163          estimate D2E/DX2                !
 ! D103  D(10,16,17,45)         53.1975         estimate D2E/DX2                !
 ! D104  D(10,16,17,46)        -63.2033         estimate D2E/DX2                !
 ! D105  D(15,16,17,18)         45.1865         estimate D2E/DX2                !
 ! D106  D(15,16,17,45)        -79.7791         estimate D2E/DX2                !
 ! D107  D(15,16,17,46)        163.8201         estimate D2E/DX2                !
 ! D108  D(44,16,17,18)        -69.2429         estimate D2E/DX2                !
 ! D109  D(44,16,17,45)        165.7915         estimate D2E/DX2                !
 ! D110  D(44,16,17,46)         49.3907         estimate D2E/DX2                !
 ! D111  D(16,17,18,19)        -54.1412         estimate D2E/DX2                !
 ! D112  D(16,17,18,47)       -179.587          estimate D2E/DX2                !
 ! D113  D(16,17,18,48)         68.1625         estimate D2E/DX2                !
 ! D114  D(45,17,18,19)         70.9566         estimate D2E/DX2                !
 ! D115  D(45,17,18,47)        -54.4892         estimate D2E/DX2                !
 ! D116  D(45,17,18,48)       -166.7397         estimate D2E/DX2                !
 ! D117  D(46,17,18,19)       -174.7761         estimate D2E/DX2                !
 ! D118  D(46,17,18,47)         59.7781         estimate D2E/DX2                !
 ! D119  D(46,17,18,48)        -52.4724         estimate D2E/DX2                !
 ! D120  D(17,18,19,20)          9.9833         estimate D2E/DX2                !
 ! D121  D(17,18,19,23)       -103.664          estimate D2E/DX2                !
 ! D122  D(17,18,19,28)        132.6877         estimate D2E/DX2                !
 ! D123  D(47,18,19,20)        133.7783         estimate D2E/DX2                !
 ! D124  D(47,18,19,23)         20.131          estimate D2E/DX2                !
 ! D125  D(47,18,19,28)       -103.5173         estimate D2E/DX2                !
 ! D126  D(48,18,19,20)       -110.5783         estimate D2E/DX2                !
 ! D127  D(48,18,19,23)        135.7744         estimate D2E/DX2                !
 ! D128  D(48,18,19,28)         12.1261         estimate D2E/DX2                !
 ! D129  D(18,19,20,15)         40.7483         estimate D2E/DX2                !
 ! D130  D(18,19,20,21)        -86.8293         estimate D2E/DX2                !
 ! D131  D(18,19,20,49)        159.7798         estimate D2E/DX2                !
 ! D132  D(23,19,20,15)        161.5359         estimate D2E/DX2                !
 ! D133  D(23,19,20,21)         33.9583         estimate D2E/DX2                !
 ! D134  D(23,19,20,49)        -79.4327         estimate D2E/DX2                !
 ! D135  D(28,19,20,15)        -79.9387         estimate D2E/DX2                !
 ! D136  D(28,19,20,21)        152.4837         estimate D2E/DX2                !
 ! D137  D(28,19,20,49)         39.0928         estimate D2E/DX2                !
 ! D138  D(18,19,23,22)         77.512          estimate D2E/DX2                !
 ! D139  D(18,19,23,24)        -42.49           estimate D2E/DX2                !
 ! D140  D(18,19,23,27)       -166.468          estimate D2E/DX2                !
 ! D141  D(20,19,23,22)        -43.0453         estimate D2E/DX2                !
 ! D142  D(20,19,23,24)       -163.0473         estimate D2E/DX2                !
 ! D143  D(20,19,23,27)         72.9746         estimate D2E/DX2                !
 ! D144  D(28,19,23,22)       -161.1509         estimate D2E/DX2                !
 ! D145  D(28,19,23,24)         78.8471         estimate D2E/DX2                !
 ! D146  D(28,19,23,27)        -45.1309         estimate D2E/DX2                !
 ! D147  D(18,19,28,58)        -58.3137         estimate D2E/DX2                !
 ! D148  D(18,19,28,59)       -178.0433         estimate D2E/DX2                !
 ! D149  D(18,19,28,60)         61.1589         estimate D2E/DX2                !
 ! D150  D(20,19,28,58)         65.3595         estimate D2E/DX2                !
 ! D151  D(20,19,28,59)        -54.3701         estimate D2E/DX2                !
 ! D152  D(20,19,28,60)       -175.1679         estimate D2E/DX2                !
 ! D153  D(23,19,28,58)        177.2331         estimate D2E/DX2                !
 ! D154  D(23,19,28,59)         57.5035         estimate D2E/DX2                !
 ! D155  D(23,19,28,60)        -63.2944         estimate D2E/DX2                !
 ! D156  D(15,20,21,22)       -139.5837         estimate D2E/DX2                !
 ! D157  D(15,20,21,50)        101.1269         estimate D2E/DX2                !
 ! D158  D(15,20,21,51)        -17.9598         estimate D2E/DX2                !
 ! D159  D(19,20,21,22)        -12.7259         estimate D2E/DX2                !
 ! D160  D(19,20,21,50)       -132.0153         estimate D2E/DX2                !
 ! D161  D(19,20,21,51)        108.898          estimate D2E/DX2                !
 ! D162  D(49,20,21,22)        102.1749         estimate D2E/DX2                !
 ! D163  D(49,20,21,50)        -17.1145         estimate D2E/DX2                !
 ! D164  D(49,20,21,51)       -136.2012         estimate D2E/DX2                !
 ! D165  D(20,21,22,23)        -14.3223         estimate D2E/DX2                !
 ! D166  D(20,21,22,52)       -136.0379         estimate D2E/DX2                !
 ! D167  D(20,21,22,53)        105.5162         estimate D2E/DX2                !
 ! D168  D(50,21,22,23)        104.5398         estimate D2E/DX2                !
 ! D169  D(50,21,22,52)        -17.1758         estimate D2E/DX2                !
 ! D170  D(50,21,22,53)       -135.6217         estimate D2E/DX2                !
 ! D171  D(51,21,22,23)       -137.9621         estimate D2E/DX2                !
 ! D172  D(51,21,22,52)        100.3223         estimate D2E/DX2                !
 ! D173  D(51,21,22,53)        -18.1237         estimate D2E/DX2                !
 ! D174  D(21,22,23,19)         35.9291         estimate D2E/DX2                !
 ! D175  D(21,22,23,24)        158.0989         estimate D2E/DX2                !
 ! D176  D(21,22,23,27)        -81.8253         estimate D2E/DX2                !
 ! D177  D(52,22,23,19)        156.5137         estimate D2E/DX2                !
 ! D178  D(52,22,23,24)        -81.3166         estimate D2E/DX2                !
 ! D179  D(52,22,23,27)         38.7593         estimate D2E/DX2                !
 ! D180  D(53,22,23,19)        -83.5481         estimate D2E/DX2                !
 ! D181  D(53,22,23,24)         38.6217         estimate D2E/DX2                !
 ! D182  D(53,22,23,27)        158.6975         estimate D2E/DX2                !
 ! D183  D(19,23,24,25)       -115.7662         estimate D2E/DX2                !
 ! D184  D(22,23,24,25)        128.282          estimate D2E/DX2                !
 ! D185  D(27,23,24,25)          8.9107         estimate D2E/DX2                !
 ! D186  D(19,23,27,26)        141.4705         estimate D2E/DX2                !
 ! D187  D(22,23,27,26)       -105.5617         estimate D2E/DX2                !
 ! D188  D(24,23,27,26)         15.1271         estimate D2E/DX2                !
 ! D189  D(23,24,25,26)        -28.0702         estimate D2E/DX2                !
 ! D190  D(23,24,25,54)       -149.9914         estimate D2E/DX2                !
 ! D191  D(23,24,25,55)         90.4943         estimate D2E/DX2                !
 ! D192  D(24,25,26,27)         37.6489         estimate D2E/DX2                !
 ! D193  D(24,25,26,56)        -78.3775         estimate D2E/DX2                !
 ! D194  D(24,25,26,57)        157.4769         estimate D2E/DX2                !
 ! D195  D(54,25,26,27)        157.7888         estimate D2E/DX2                !
 ! D196  D(54,25,26,56)         41.7624         estimate D2E/DX2                !
 ! D197  D(54,25,26,57)        -82.3832         estimate D2E/DX2                !
 ! D198  D(55,25,26,27)        -78.4642         estimate D2E/DX2                !
 ! D199  D(55,25,26,56)        165.5094         estimate D2E/DX2                !
 ! D200  D(55,25,26,57)         41.3638         estimate D2E/DX2                !
 ! D201  D(25,26,27,23)        -31.6469         estimate D2E/DX2                !
 ! D202  D(56,26,27,23)         86.8268         estimate D2E/DX2                !
 ! D203  D(57,26,27,23)       -153.2887         estimate D2E/DX2                !
 ! D204  D(3,29,30,63)         -57.0926         estimate D2E/DX2                !
 ! D205  D(3,29,30,64)        -176.9957         estimate D2E/DX2                !
 ! D206  D(3,29,30,65)          63.1696         estimate D2E/DX2                !
 ! D207  D(61,29,30,63)         63.6878         estimate D2E/DX2                !
 ! D208  D(61,29,30,64)        -56.2153         estimate D2E/DX2                !
 ! D209  D(61,29,30,65)       -176.05           estimate D2E/DX2                !
 ! D210  D(62,29,30,63)       -178.7873         estimate D2E/DX2                !
 ! D211  D(62,29,30,64)         61.3096         estimate D2E/DX2                !
 ! D212  D(62,29,30,65)        -58.5251         estimate D2E/DX2                !
 --------------------------------------------------------------------------------
 Trust Radius=3.00D-01 FncErr=1.00D-07 GrdErr=1.00D-06
 Number of steps in this run= 390 maximum allowed number of steps= 390.
 GradGradGradGradGradGradGradGradGradGradGradGradGradGradGradGradGradGrad

 Leave Link  103 at Thu Sep 30 07:24:16 2021, MaxMem= 2684354560 cpu:       0.0
 (Enter /sw/target/amd/app/gaussian/Gaussian09RevA.02_gcc-4.9.2/g09/l202.exe)
 Stoichiometry    C25H35NO4
 Framework group  C1[X(C25H35NO4)]
 Deg. of freedom   189
 Full point group                 C1      NOp   1
 Largest Abelian subgroup         C1      NOp   1
 Largest concise Abelian subgroup C1      NOp   1
                         Standard orientation:                         
 ---------------------------------------------------------------------
 Center     Atomic      Atomic             Coordinates (Angstroms)
 Number     Number       Type             X           Y           Z
 ---------------------------------------------------------------------
      1          6           0       -7.515453    1.705097   -0.480295
      2          6           0       -7.013206    0.640620    0.481193
      3          7           0       -6.461908   -0.506486   -0.233899
      4          6           0       -5.123228   -0.576885   -0.602922
      5          8           0       -4.632734   -1.536108   -1.188220
      6          8           0       -4.411967    0.555166   -0.200050
      7          6           0       -3.028358    0.460697    0.033672
      8          6           0       -2.445852   -0.704284    0.516734
      9          6           0       -1.091213   -0.717305    0.825958
     10          6           0       -0.295325    0.428864    0.663841
     11          6           0       -0.904922    1.609387    0.191862
     12          6           0       -2.276900    1.625564   -0.103645
     13          6           0       -0.078957    2.855719    0.023697
     14          6           0        1.283020    2.472705   -0.537630
     15          6           0        2.046831    1.529114    0.411198
     16          6           0        1.167133    0.438945    1.095139
     17          6           0        1.821395   -0.955486    1.077026
     18          6           0        3.291277   -0.926143    1.466138
     19          6           0        4.166902    0.050683    0.641181
     20          6           0        3.325675    0.991070   -0.260029
     21          6           0        3.103211    0.209917   -1.576209
     22          6           0        4.059068   -0.983826   -1.544542
     23          6           0        5.044360   -0.669792   -0.420397
     24          8           0        5.657784   -1.867809    0.057486
     25          6           0        7.059702   -1.612035    0.020246
     26          6           0        7.208723   -0.607236   -1.087488
     27          8           0        6.055142    0.216353   -0.936798
     28          6           0        5.024591    0.857073    1.635242
     29          6           0       -7.330547   -1.645690   -0.509684
     30          6           0       -7.299481   -2.680440    0.607730
     31          1           0       -8.320313    1.313213   -1.112689
     32          1           0       -6.715171    2.052730   -1.139674
     33          1           0       -7.902110    2.566153    0.072740
     34          1           0       -7.820403    0.299121    1.137797
     35          1           0       -6.245073    1.078530    1.128308
     36          1           0       -3.025203   -1.607141    0.675647
     37          1           0       -0.684779   -1.646637    1.210457
     38          1           0       -2.758954    2.541402   -0.435100
     39          1           0        0.021968    3.368009    0.987580
     40          1           0       -0.565818    3.548790   -0.672584
     41          1           0        1.877958    3.378621   -0.708125
     42          1           0        1.141365    2.006026   -1.520193
     43          1           0        2.394767    2.171716    1.234978
     44          1           0        1.120647    0.726664    2.157878
     45          1           0        1.688475   -1.437566    0.102772
     46          1           0        1.322237   -1.611135    1.801315
     47          1           0        3.680351   -1.949622    1.421145
     48          1           0        3.332378   -0.659500    2.530988
     49          1           0        3.942387    1.864435   -0.521570
     50          1           0        3.333489    0.857307   -2.430863
     51          1           0        2.072639   -0.132969   -1.711044
     52          1           0        4.554295   -1.111629   -2.513206
     53          1           0        3.510368   -1.910576   -1.340456
     54          1           0        7.616788   -2.535633   -0.154470
     55          1           0        7.354475   -1.192211    0.987566
     56          1           0        7.164046   -1.082031   -2.073336
     57          1           0        8.121509   -0.011590   -1.012827
     58          1           0        4.394485    1.400073    2.349110
     59          1           0        5.652292    1.599765    1.133258
     60          1           0        5.680333    0.195291    2.211350
     61          1           0       -7.008237   -2.124315   -1.440702
     62          1           0       -8.351663   -1.282204   -0.665817
     63          1           0       -6.281363   -3.039810    0.792357
     64          1           0       -7.920131   -3.542612    0.341764
     65          1           0       -7.681178   -2.264079    1.545492
 ---------------------------------------------------------------------
 Rotational constants (GHZ):      0.4622967      0.0530265      0.0505749
 Leave Link  202 at Thu Sep 30 07:24:16 2021, MaxMem= 2684354560 cpu:       0.1
 (Enter /sw/target/amd/app/gaussian/Gaussian09RevA.02_gcc-4.9.2/g09/l301.exe)
 Standard basis: 6-31G(d) (6D, 7F)
 Ernie: Thresh=  0.10000D-02 Tol=  0.10000D-05 Strict=F.
 There are   520 symmetry adapted basis functions of A   symmetry.
 Integral buffers will be    131072 words long.
 Raffenetti 2 integral format.
 Two-electron integral symmetry is turned on.
   520 basis functions,   980 primitive gaussians,   520 cartesian basis functions
   112 alpha electrons      112 beta electrons
       nuclear repulsion energy      3005.6230546349 Hartrees.
 IExCor=  402 DFT=T Ex+Corr=B3LYP ExCW=0 ScaHFX=  0.200000
 ScaDFX=  0.800000  0.720000  1.000000  0.810000 ScalE2=  1.000000  1.000000
 IRadAn=      0 IRanWt=     -1 IRanGd=            0 ICorTp=0
 NAtoms=   65 NActive=   65 NUniq=   65 SFac= 7.50D-01 NAtFMM=   80 NAOKFM=F Big=T
 Leave Link  301 at Thu Sep 30 07:24:17 2021, MaxMem= 2684354560 cpu:       0.1
 (Enter /sw/target/amd/app/gaussian/Gaussian09RevA.02_gcc-4.9.2/g09/l302.exe)
 NPDir=0 NMtPBC=     1 NCelOv=     1 NCel=       1 NClECP=     1 NCelD=      1
         NCelK=      1 NCelE2=     1 NClLst=     1 CellRange=     0.0.
 One-electron integrals computed using PRISM.
 NBasis=   520 RedAO= T  NBF=   520
 NBsUse=   520 1.00D-06 NBFU=   520
 Precomputing XC quadrature grid using
 IXCGrd= 2 IRadAn=           0 IRanWt=          -1 IRanGd=           0 AccXCQ= 1.00D-10.
 NRdTot=    4203 NPtTot=      537480 NUsed=      567759 NTot=      567791
 NSgBfM=   504   505   505   505   505 NAtAll=    65    65.
 Leave Link  302 at Thu Sep 30 07:24:28 2021, MaxMem= 2684354560 cpu:      10.6
 (Enter /sw/target/amd/app/gaussian/Gaussian09RevA.02_gcc-4.9.2/g09/l303.exe)
 DipDrv:  MaxL=1.
 Leave Link  303 at Thu Sep 30 07:24:29 2021, MaxMem= 2684354560 cpu:       0.5
 (Enter /sw/target/amd/app/gaussian/Gaussian09RevA.02_gcc-4.9.2/g09/l401.exe)
 Harris functional with IExCor=  402 diagonalized for initial guess.
 ExpMin= 1.61D-01 ExpMax= 5.48D+03 ExpMxC= 8.25D+02 IAcc=1 IRadAn=         1 AccDes= 0.00D+00
 HarFok:  IExCor=  402 AccDes= 0.00D+00 IRadAn=         1 IDoV= 1
 ScaDFX=  1.000000  1.000000  1.000000  1.000000
 FoFCou: FMM=F IPFlag=           0 FMFlag=      100000 FMFlg1=           1
         NFxFlg=           0 DoJE=T BraDBF=F KetDBF=T FulRan=T
         Omega=  0.000000  0.000000  1.000000  0.000000  0.000000 ICntrl=     500 IOpCl=  0
         NMat0=    1 NMatS0=    1 NMatT0=    0 NMatD0=    1 NMtDS0=    0 NMtDT0=    0
         I1Cent=           4 NGrid=           0.
 Petite list used in FoFCou.
 Harris En= -1329.55271646813    
 Initial guess orbital symmetries:
       Occupied  (A) (A) (A) (A) (A) (A) (A) (A) (A) (A) (A) (A)
                 (A) (A) (A) (A) (A) (A) (A) (A) (A) (A) (A) (A)
                 (A) (A) (A) (A) (A) (A) (A) (A) (A) (A) (A) (A)
                 (A) (A) (A) (A) (A) (A) (A) (A) (A) (A) (A) (A)
                 (A) (A) (A) (A) (A) (A) (A) (A) (A) (A) (A) (A)
                 (A) (A) (A) (A) (A) (A) (A) (A) (A) (A) (A) (A)
                 (A) (A) (A) (A) (A) (A) (A) (A) (A) (A) (A) (A)
                 (A) (A) (A) (A) (A) (A) (A) (A) (A) (A) (A) (A)
                 (A) (A) (A) (A) (A) (A) (A) (A) (A) (A) (A) (A)
                 (A) (A) (A) (A)
       Virtual   (A) (A) (A) (A) (A) (A) (A) (A) (A) (A) (A) (A)
                 (A) (A) (A) (A) (A) (A) (A) (A) (A) (A) (A) (A)
                 (A) (A) (A) (A) (A) (A) (A) (A) (A) (A) (A) (A)
                 (A) (A) (A) (A) (A) (A) (A) (A) (A) (A) (A) (A)
                 (A) (A) (A) (A) (A) (A) (A) (A) (A) (A) (A) (A)
                 (A) (A) (A) (A) (A) (A) (A) (A) (A) (A) (A) (A)
                 (A) (A) (A) (A) (A) (A) (A) (A) (A) (A) (A) (A)
                 (A) (A) (A) (A) (A) (A) (A) (A) (A) (A) (A) (A)
                 (A) (A) (A) (A) (A) (A) (A) (A) (A) (A) (A) (A)
                 (A) (A) (A) (A) (A) (A) (A) (A) (A) (A) (A) (A)
                 (A) (A) (A) (A) (A) (A) (A) (A) (A) (A) (A) (A)
                 (A) (A) (A) (A) (A) (A) (A) (A) (A) (A) (A) (A)
                 (A) (A) (A) (A) (A) (A) (A) (A) (A) (A) (A) (A)
                 (A) (A) (A) (A) (A) (A) (A) (A) (A) (A) (A) (A)
                 (A) (A) (A) (A) (A) (A) (A) (A) (A) (A) (A) (A)
                 (A) (A) (A) (A) (A) (A) (A) (A) (A) (A) (A) (A)
                 (A) (A) (A) (A) (A) (A) (A) (A) (A) (A) (A) (A)
                 (A) (A) (A) (A) (A) (A) (A) (A) (A) (A) (A) (A)
                 (A) (A) (A) (A) (A) (A) (A) (A) (A) (A) (A) (A)
                 (A) (A) (A) (A) (A) (A) (A) (A) (A) (A) (A) (A)
                 (A) (A) (A) (A) (A) (A) (A) (A) (A) (A) (A) (A)
                 (A) (A) (A) (A) (A) (A) (A) (A) (A) (A) (A) (A)
                 (A) (A) (A) (A) (A) (A) (A) (A) (A) (A) (A) (A)
                 (A) (A) (A) (A) (A) (A) (A) (A) (A) (A) (A) (A)
                 (A) (A) (A) (A) (A) (A) (A) (A) (A) (A) (A) (A)
                 (A) (A) (A) (A) (A) (A) (A) (A) (A) (A) (A) (A)
                 (A) (A) (A) (A) (A) (A) (A) (A) (A) (A) (A) (A)
                 (A) (A) (A) (A) (A) (A) (A) (A) (A) (A) (A) (A)
                 (A) (A) (A) (A) (A) (A) (A) (A) (A) (A) (A) (A)
                 (A) (A) (A) (A) (A) (A) (A) (A) (A) (A) (A) (A)
                 (A) (A) (A) (A) (A) (A) (A) (A) (A) (A) (A) (A)
                 (A) (A) (A) (A) (A) (A) (A) (A) (A) (A) (A) (A)
                 (A) (A) (A) (A) (A) (A) (A) (A) (A) (A) (A) (A)
                 (A) (A) (A) (A) (A) (A) (A) (A) (A) (A) (A) (A)
 The electronic state of the initial guess is 1-A.
 Leave Link  401 at Thu Sep 30 07:24:57 2021, MaxMem= 2684354560 cpu:      40.2
 (Enter /sw/target/amd/app/gaussian/Gaussian09RevA.02_gcc-4.9.2/g09/l502.exe)
 Closed shell SCF:
 Requested convergence on RMS density matrix=1.00D-08 within  64 cycles.
 Requested convergence on MAX density matrix=1.00D-06.
 Requested convergence on             energy=1.00D-06.
 No special actions if energy rises.
 Using DIIS extrapolation, IDIIS=  1040.
 Integral symmetry usage will be decided dynamically.
       567161 words used for storage of precomputed grid.
 IEnd=     1393059 IEndB=     1393059 NGot=  2684354560 MDV=  2683236646
 LenX=  2683236646 LenY=  2682965726
 Fock matrices will be formed incrementally for  20 cycles.
 Integral accuracy reduced to 1.0D-05 until final iterations.

 Cycle   1  Pass 0  IDiag  1:
 FoFCou: FMM=T IPFlag=           0 FMFlag=      100000 FMFlg1=           1
         NFxFlg=           0 DoJE=F BraDBF=F KetDBF=F FulRan=T
         Omega=  0.000000  0.000000  1.000000  0.000000  0.000000 ICntrl=       0 IOpCl=  0
         NMat0=    1 NMatS0=    1 NMatT0=    0 NMatD0=    1 NMtDS0=    0 NMtDT0=    0
         I1Cent=           0 NGrid=           0.
 Symmetry not used in FoFCou.
 FMM levels:  10  Number of levels for PrismC:   9
 E= -1328.55555026070    
 DIIS: error= 2.19D-02 at cycle   1 NSaved=   1.
 NSaved= 1 IEnMin= 1 EnMin= -1328.55555026070     IErMin= 1 ErrMin= 2.19D-02
 ErrMax= 2.19D-02 EMaxC= 1.00D-01 BMatC= 8.31D-01 BMatP= 8.31D-01
 IDIUse=3 WtCom= 7.81D-01 WtEn= 2.19D-01
 Coeff-Com:  0.100D+01
 Coeff-En:   0.100D+01
 Coeff:      0.100D+01
 Gap=     0.268 Goal=   None    Shift=    0.000
 GapD=    0.268 DampG=1.000 DampE=0.500 DampFc=0.5000 IDamp=-1.
 Damping current iteration by 5.00D-01
 RMSDP=4.09D-03 MaxDP=2.10D-01              OVMax= 1.92D-01

 Cycle   2  Pass 0  IDiag  1:
 RMSU=  1.43D-03    CP:  9.80D-01
 E= -1328.87782004126     Delta-E=       -0.322269780562 Rises=F Damp=T
 DIIS: error= 9.87D-03 at cycle   2 NSaved=   2.
 NSaved= 2 IEnMin= 2 EnMin= -1328.87782004126     IErMin= 2 ErrMin= 9.87D-03
 ErrMax= 9.87D-03 EMaxC= 1.00D-01 BMatC= 8.19D-02 BMatP= 8.31D-01
 IDIUse=3 WtCom= 9.01D-01 WtEn= 9.87D-02
 Coeff-Com:  0.139D+00 0.861D+00
 Coeff-En:   0.214D+00 0.786D+00
 Coeff:      0.147D+00 0.853D+00
 Gap=     0.241 Goal=   None    Shift=    0.000
 RMSDP=1.24D-03 MaxDP=7.93D-02 DE=-3.22D-01 OVMax= 1.75D-01

 Cycle   3  Pass 0  IDiag  1:
 RMSU=  8.22D-04    CP:  9.73D-01  7.98D-01
 E= -1329.30626083490     Delta-E=       -0.428440793634 Rises=F Damp=F
 DIIS: error= 1.56D-02 at cycle   3 NSaved=   3.
 NSaved= 3 IEnMin= 3 EnMin= -1329.30626083490     IErMin= 2 ErrMin= 9.87D-03
 ErrMax= 1.56D-02 EMaxC= 1.00D-01 BMatC= 1.03D-01 BMatP= 8.19D-02
 IDIUse=2 WtCom= 0.00D+00 WtEn= 1.00D+00
 Coeff-En:   0.000D+00 0.000D+00 0.100D+01
 Coeff:      0.000D+00 0.000D+00 0.100D+01
 Gap=     0.262 Goal=   None    Shift=    0.000
 RMSDP=1.93D-03 MaxDP=1.86D-01 DE=-4.28D-01 OVMax= 3.08D-01

 Cycle   4  Pass 0  IDiag  1:
 RMSU=  8.02D-04    CP:  9.78D-01  1.06D+00 -2.59D-01
 E= -1328.85506069742     Delta-E=        0.451200137481 Rises=F Damp=F
 DIIS: error= 3.64D-02 at cycle   4 NSaved=   4.
 NSaved= 4 IEnMin= 3 EnMin= -1329.30626083490     IErMin= 2 ErrMin= 9.87D-03
 ErrMax= 3.64D-02 EMaxC= 1.00D-01 BMatC= 6.66D-01 BMatP= 8.19D-02
 IDIUse=2 WtCom= 0.00D+00 WtEn= 1.00D+00
 Coeff-En:   0.000D+00 0.000D+00 0.807D+00 0.193D+00
 Coeff:      0.000D+00 0.000D+00 0.807D+00 0.193D+00
 Gap=     0.242 Goal=   None    Shift=    0.000
 RMSDP=1.03D-03 MaxDP=9.64D-02 DE= 4.51D-01 OVMax= 1.57D-01

 Cycle   5  Pass 0  IDiag  1:
 RMSU=  1.60D-04    CP:  9.77D-01  8.87D-01  3.35D-01  4.36D-01
 E= -1329.35238404792     Delta-E=       -0.497323350502 Rises=F Damp=F
 DIIS: error= 1.01D-02 at cycle   5 NSaved=   5.
 NSaved= 5 IEnMin= 5 EnMin= -1329.35238404792     IErMin= 2 ErrMin= 9.87D-03
 ErrMax= 1.01D-02 EMaxC= 1.00D-01 BMatC= 4.93D-02 BMatP= 8.19D-02
 IDIUse=3 WtCom= 8.99D-01 WtEn= 1.01D-01
 Coeff-Com:  0.993D-03 0.304D-01 0.342D+00-0.623D-01 0.689D+00
 Coeff-En:   0.000D+00 0.000D+00 0.360D+00 0.000D+00 0.640D+00
 Coeff:      0.893D-03 0.273D-01 0.344D+00-0.560D-01 0.684D+00
 Gap=     0.224 Goal=   None    Shift=    0.000
 RMSDP=4.10D-04 MaxDP=3.31D-02 DE=-4.97D-01 OVMax= 5.50D-02

 Cycle   6  Pass 0  IDiag  1:
 RMSU=  6.13D-05    CP:  9.75D-01  8.37D-01  6.11D-01  2.57D-01  6.44D-01
 E= -1329.39230166469     Delta-E=       -0.039917616772 Rises=F Damp=F
 DIIS: error= 8.39D-04 at cycle   6 NSaved=   6.
 NSaved= 6 IEnMin= 6 EnMin= -1329.39230166469     IErMin= 6 ErrMin= 8.39D-04
 ErrMax= 8.39D-04 EMaxC= 1.00D-01 BMatC= 7.67D-04 BMatP= 4.93D-02
 IDIUse=3 WtCom= 9.92D-01 WtEn= 8.39D-03
 Coeff-Com: -0.197D-02 0.115D-01 0.174D+00-0.595D-01 0.458D+00 0.419D+00
 Coeff-En:   0.000D+00 0.000D+00 0.000D+00 0.000D+00 0.000D+00 0.100D+01
 Coeff:     -0.195D-02 0.114D-01 0.172D+00-0.590D-01 0.454D+00 0.424D+00
 Gap=     0.221 Goal=   None    Shift=    0.000
 RMSDP=6.43D-05 MaxDP=3.89D-03 DE=-3.99D-02 OVMax= 1.16D-02

 Cycle   7  Pass 0  IDiag  1:
 RMSU=  1.70D-05    CP:  9.75D-01  8.45D-01  5.91D-01  2.56D-01  7.43D-01
                    CP:  4.55D-01
 E= -1329.39301215214     Delta-E=       -0.000710487446 Rises=F Damp=F
 DIIS: error= 2.00D-04 at cycle   7 NSaved=   7.
 NSaved= 7 IEnMin= 7 EnMin= -1329.39301215214     IErMin= 7 ErrMin= 2.00D-04
 ErrMax= 2.00D-04 EMaxC= 1.00D-01 BMatC= 3.70D-05 BMatP= 7.67D-04
 IDIUse=3 WtCom= 9.98D-01 WtEn= 2.00D-03
 Coeff-Com: -0.599D-03 0.323D-02 0.626D-01-0.253D-01 0.170D+00 0.202D+00
 Coeff-Com:  0.588D+00
 Coeff-En:   0.000D+00 0.000D+00 0.000D+00 0.000D+00 0.000D+00 0.000D+00
 Coeff-En:   0.100D+01
 Coeff:     -0.598D-03 0.322D-02 0.625D-01-0.252D-01 0.170D+00 0.202D+00
 Coeff:      0.589D+00
 Gap=     0.221 Goal=   None    Shift=    0.000
 RMSDP=1.59D-05 MaxDP=9.39D-04 DE=-7.10D-04 OVMax= 2.50D-03

 Cycle   8  Pass 0  IDiag  1:
 RMSU=  6.58D-06    CP:  9.75D-01  8.44D-01  5.95D-01  2.54D-01  7.42D-01
                    CP:  5.12D-01  5.85D-01
 E= -1329.39304442266     Delta-E=       -0.000032270527 Rises=F Damp=F
 DIIS: error= 5.77D-05 at cycle   8 NSaved=   8.
 NSaved= 8 IEnMin= 8 EnMin= -1329.39304442266     IErMin= 8 ErrMin= 5.77D-05
 ErrMax= 5.77D-05 EMaxC= 1.00D-01 BMatC= 6.35D-06 BMatP= 3.70D-05
 IDIUse=1 WtCom= 1.00D+00 WtEn= 0.00D+00
 Coeff-Com:  0.225D-03-0.698D-03 0.101D-01-0.418D-02 0.217D-01 0.424D-01
 Coeff-Com:  0.345D+00 0.585D+00
 Coeff:      0.225D-03-0.698D-03 0.101D-01-0.418D-02 0.217D-01 0.424D-01
 Coeff:      0.345D+00 0.585D+00
 Gap=     0.221 Goal=   None    Shift=    0.000
 RMSDP=5.71D-06 MaxDP=2.31D-04 DE=-3.23D-05 OVMax= 5.44D-04

 Initial convergence to 1.0D-05 achieved.  Increase integral accuracy.
 Cycle   9  Pass 1  IDiag  1:
 E= -1329.39342093408     Delta-E=       -0.000376511415 Rises=F Damp=F
 DIIS: error= 1.22D-04 at cycle   1 NSaved=   1.
 NSaved= 1 IEnMin= 1 EnMin= -1329.39342093408     IErMin= 1 ErrMin= 1.22D-04
 ErrMax= 1.22D-04 EMaxC= 1.00D-01 BMatC= 1.84D-06 BMatP= 1.84D-06
 IDIUse=3 WtCom= 9.99D-01 WtEn= 1.22D-03
 Coeff-Com:  0.100D+01
 Coeff-En:   0.100D+01
 Coeff:      0.100D+01
 Gap=     0.221 Goal=   None    Shift=    0.000
 RMSDP=5.71D-06 MaxDP=2.31D-04 DE=-3.77D-04 OVMax= 2.95D-04

 Cycle  10  Pass 1  IDiag  1:
 RMSU=  2.89D-05    CP:  1.00D+00
 E= -1329.39342239919     Delta-E=       -0.000001465115 Rises=F Damp=F
 DIIS: error= 1.92D-05 at cycle   2 NSaved=   2.
 NSaved= 2 IEnMin= 2 EnMin= -1329.39342239919     IErMin= 2 ErrMin= 1.92D-05
 ErrMax= 1.92D-05 EMaxC= 1.00D-01 BMatC= 4.89D-07 BMatP= 1.84D-06
 IDIUse=1 WtCom= 1.00D+00 WtEn= 0.00D+00
 Coeff-Com:  0.262D+00 0.738D+00
 Coeff:      0.262D+00 0.738D+00
 Gap=     0.221 Goal=   None    Shift=    0.000
 RMSDP=2.88D-06 MaxDP=1.58D-04 DE=-1.47D-06 OVMax= 3.91D-04

 Cycle  11  Pass 1  IDiag  1:
 RMSU=  2.03D-06    CP:  1.00D+00  1.00D+00
 E= -1329.39342232871     Delta-E=        0.000000070489 Rises=F Damp=F
 DIIS: error= 2.36D-05 at cycle   3 NSaved=   3.
 NSaved= 3 IEnMin= 2 EnMin= -1329.39342239919     IErMin= 2 ErrMin= 1.92D-05
 ErrMax= 2.36D-05 EMaxC= 1.00D-01 BMatC= 5.44D-07 BMatP= 4.89D-07
 IDIUse=1 WtCom= 1.00D+00 WtEn= 0.00D+00
 Coeff-Com:  0.124D-02 0.513D+00 0.485D+00
 Coeff:      0.124D-02 0.513D+00 0.485D+00
 Gap=     0.221 Goal=   None    Shift=    0.000
 RMSDP=1.67D-06 MaxDP=9.94D-05 DE= 7.05D-08 OVMax= 2.72D-04

 Cycle  12  Pass 1  IDiag  1:
 RMSU=  4.35D-07    CP:  1.00D+00  1.01D+00  4.68D-01
 E= -1329.39342284227     Delta-E=       -0.000000513566 Rises=F Damp=F
 DIIS: error= 4.51D-06 at cycle   4 NSaved=   4.
 NSaved= 4 IEnMin= 4 EnMin= -1329.39342284227     IErMin= 4 ErrMin= 4.51D-06
 ErrMax= 4.51D-06 EMaxC= 1.00D-01 BMatC= 2.03D-08 BMatP= 4.89D-07
 IDIUse=1 WtCom= 1.00D+00 WtEn= 0.00D+00
 Coeff-Com: -0.782D-02 0.291D+00 0.297D+00 0.420D+00
 Coeff:     -0.782D-02 0.291D+00 0.297D+00 0.420D+00
 Gap=     0.221 Goal=   None    Shift=    0.000
 RMSDP=3.52D-07 MaxDP=2.29D-05 DE=-5.14D-07 OVMax= 5.91D-05

 Cycle  13  Pass 1  IDiag  1:
 RMSU=  1.13D-07    CP:  1.00D+00  1.01D+00  5.10D-01  5.30D-01
 E= -1329.39342286270     Delta-E=       -0.000000020427 Rises=F Damp=F
 DIIS: error= 9.04D-07 at cycle   5 NSaved=   5.
 NSaved= 5 IEnMin= 5 EnMin= -1329.39342286270     IErMin= 5 ErrMin= 9.04D-07
 ErrMax= 9.04D-07 EMaxC= 1.00D-01 BMatC= 8.38D-10 BMatP= 2.03D-08
 IDIUse=1 WtCom= 1.00D+00 WtEn= 0.00D+00
 Coeff-Com: -0.439D-02 0.127D+00 0.133D+00 0.232D+00 0.512D+00
 Coeff:     -0.439D-02 0.127D+00 0.133D+00 0.232D+00 0.512D+00
 Gap=     0.221 Goal=   None    Shift=    0.000
 RMSDP=6.93D-08 MaxDP=5.99D-06 DE=-2.04D-08 OVMax= 9.38D-06

 Cycle  14  Pass 1  IDiag  1:
 RMSU=  3.91D-08    CP:  1.00D+00  1.01D+00  5.01D-01  5.33D-01  7.97D-01
 E= -1329.39342286338     Delta-E=       -0.000000000679 Rises=F Damp=F
 DIIS: error= 3.36D-07 at cycle   6 NSaved=   6.
 NSaved= 6 IEnMin= 6 EnMin= -1329.39342286338     IErMin= 6 ErrMin= 3.36D-07
 ErrMax= 3.36D-07 EMaxC= 1.00D-01 BMatC= 6.12D-11 BMatP= 8.38D-10
 IDIUse=1 WtCom= 1.00D+00 WtEn= 0.00D+00
 Coeff-Com: -0.121D-02 0.276D-01 0.299D-01 0.641D-01 0.248D+00 0.631D+00
 Coeff:     -0.121D-02 0.276D-01 0.299D-01 0.641D-01 0.248D+00 0.631D+00
 Gap=     0.221 Goal=   None    Shift=    0.000
 RMSDP=2.13D-08 MaxDP=1.48D-06 DE=-6.79D-10 OVMax= 2.40D-06

 Cycle  15  Pass 1  IDiag  1:
 RMSU=  1.26D-08    CP:  1.00D+00  1.01D+00  5.01D-01  5.35D-01  8.35D-01
                    CP:  8.22D-01
 E= -1329.39342286350     Delta-E=       -0.000000000120 Rises=F Damp=F
 DIIS: error= 2.02D-07 at cycle   7 NSaved=   7.
 NSaved= 7 IEnMin= 7 EnMin= -1329.39342286350     IErMin= 7 ErrMin= 2.02D-07
 ErrMax= 2.02D-07 EMaxC= 1.00D-01 BMatC= 2.07D-11 BMatP= 6.12D-11
 IDIUse=1 WtCom= 1.00D+00 WtEn= 0.00D+00
 Coeff-Com: -0.156D-03-0.443D-03 0.297D-03 0.757D-02 0.817D-01 0.414D+00
 Coeff-Com:  0.497D+00
 Coeff:     -0.156D-03-0.443D-03 0.297D-03 0.757D-02 0.817D-01 0.414D+00
 Coeff:      0.497D+00
 Gap=     0.221 Goal=   None    Shift=    0.000
 RMSDP=9.21D-09 MaxDP=9.96D-07 DE=-1.20D-10 OVMax= 9.81D-07

 SCF Done:  E(RB3LYP) =  -1329.39342286     A.U. after   15 cycles
             Convg  =    0.9206D-08             -V/T =  2.0094
 KE= 1.317051522695D+03 PE=-9.102023875745D+03 EE= 3.449955875551D+03
 Leave Link  502 at Thu Sep 30 07:39:32 2021, MaxMem= 2684354560 cpu:    1657.2
 (Enter /sw/target/amd/app/gaussian/Gaussian09RevA.02_gcc-4.9.2/g09/l508.exe)
 QCSCF skips out because SCF is already converged.
 Leave Link  508 at Thu Sep 30 07:39:32 2021, MaxMem= 2684354560 cpu:       0.0
 (Enter /sw/target/amd/app/gaussian/Gaussian09RevA.02_gcc-4.9.2/g09/l601.exe)
 Copying SCF densities to generalized density rwf, IOpCl= 0 IROHF=0.

 **********************************************************************

            Population analysis using the SCF density.

 **********************************************************************

 Orbital symmetries:
       Occupied  (A) (A) (A) (A) (A) (A) (A) (A) (A) (A) (A) (A)
                 (A) (A) (A) (A) (A) (A) (A) (A) (A) (A) (A) (A)
                 (A) (A) (A) (A) (A) (A) (A) (A) (A) (A) (A) (A)
                 (A) (A) (A) (A) (A) (A) (A) (A) (A) (A) (A) (A)
                 (A) (A) (A) (A) (A) (A) (A) (A) (A) (A) (A) (A)
                 (A) (A) (A) (A) (A) (A) (A) (A) (A) (A) (A) (A)
                 (A) (A) (A) (A) (A) (A) (A) (A) (A) (A) (A) (A)
                 (A) (A) (A) (A) (A) (A) (A) (A) (A) (A) (A) (A)
                 (A) (A) (A) (A) (A) (A) (A) (A) (A) (A) (A) (A)
                 (A) (A) (A) (A)
       Virtual   (A) (A) (A) (A) (A) (A) (A) (A) (A) (A) (A) (A)
                 (A) (A) (A) (A) (A) (A) (A) (A) (A) (A) (A) (A)
                 (A) (A) (A) (A) (A) (A) (A) (A) (A) (A) (A) (A)
                 (A) (A) (A) (A) (A) (A) (A) (A) (A) (A) (A) (A)
                 (A) (A) (A) (A) (A) (A) (A) (A) (A) (A) (A) (A)
                 (A) (A) (A) (A) (A) (A) (A) (A) (A) (A) (A) (A)
                 (A) (A) (A) (A) (A) (A) (A) (A) (A) (A) (A) (A)
                 (A) (A) (A) (A) (A) (A) (A) (A) (A) (A) (A) (A)
                 (A) (A) (A) (A) (A) (A) (A) (A) (A) (A) (A) (A)
                 (A) (A) (A) (A) (A) (A) (A) (A) (A) (A) (A) (A)
                 (A) (A) (A) (A) (A) (A) (A) (A) (A) (A) (A) (A)
                 (A) (A) (A) (A) (A) (A) (A) (A) (A) (A) (A) (A)
                 (A) (A) (A) (A) (A) (A) (A) (A) (A) (A) (A) (A)
                 (A) (A) (A) (A) (A) (A) (A) (A) (A) (A) (A) (A)
                 (A) (A) (A) (A) (A) (A) (A) (A) (A) (A) (A) (A)
                 (A) (A) (A) (A) (A) (A) (A) (A) (A) (A) (A) (A)
                 (A) (A) (A) (A) (A) (A) (A) (A) (A) (A) (A) (A)
                 (A) (A) (A) (A) (A) (A) (A) (A) (A) (A) (A) (A)
                 (A) (A) (A) (A) (A) (A) (A) (A) (A) (A) (A) (A)
                 (A) (A) (A) (A) (A) (A) (A) (A) (A) (A) (A) (A)
                 (A) (A) (A) (A) (A) (A) (A) (A) (A) (A) (A) (A)
                 (A) (A) (A) (A) (A) (A) (A) (A) (A) (A) (A) (A)
                 (A) (A) (A) (A) (A) (A) (A) (A) (A) (A) (A) (A)
                 (A) (A) (A) (A) (A) (A) (A) (A) (A) (A) (A) (A)
                 (A) (A) (A) (A) (A) (A) (A) (A) (A) (A) (A) (A)
                 (A) (A) (A) (A) (A) (A) (A) (A) (A) (A) (A) (A)
                 (A) (A) (A) (A) (A) (A) (A) (A) (A) (A) (A) (A)
                 (A) (A) (A) (A) (A) (A) (A) (A) (A) (A) (A) (A)
                 (A) (A) (A) (A) (A) (A) (A) (A) (A) (A) (A) (A)
                 (A) (A) (A) (A) (A) (A) (A) (A) (A) (A) (A) (A)
                 (A) (A) (A) (A) (A) (A) (A) (A) (A) (A) (A) (A)
                 (A) (A) (A) (A) (A) (A) (A) (A) (A) (A) (A) (A)
                 (A) (A) (A) (A) (A) (A) (A) (A) (A) (A) (A) (A)
                 (A) (A) (A) (A) (A) (A) (A) (A) (A) (A) (A) (A)
 The electronic state is 1-A.
 Alpha  occ. eigenvalues --  -19.18951 -19.15397 -19.15292 -19.11394 -14.36169
 Alpha  occ. eigenvalues --  -10.33048 -10.27523 -10.24146 -10.23666 -10.23524
 Alpha  occ. eigenvalues --  -10.22162 -10.22012 -10.18613 -10.18501 -10.18390
 Alpha  occ. eigenvalues --  -10.18243 -10.18014 -10.17997 -10.17958 -10.17832
 Alpha  occ. eigenvalues --  -10.17801 -10.17698 -10.17602 -10.17421 -10.17420
 Alpha  occ. eigenvalues --  -10.17263 -10.16998 -10.16732 -10.16690 -10.16376
 Alpha  occ. eigenvalues --   -1.08981  -1.08321  -1.00479  -0.99304  -0.93378
 Alpha  occ. eigenvalues --   -0.86323  -0.84647  -0.80585  -0.78430  -0.77267
 Alpha  occ. eigenvalues --   -0.75875  -0.75594  -0.74312  -0.73396  -0.72197
 Alpha  occ. eigenvalues --   -0.70690  -0.66998  -0.64866  -0.64397  -0.63891
 Alpha  occ. eigenvalues --   -0.63317  -0.62273  -0.60821  -0.60283  -0.58110
 Alpha  occ. eigenvalues --   -0.56859  -0.54822  -0.53105  -0.52375  -0.51779
 Alpha  occ. eigenvalues --   -0.50150  -0.49958  -0.49187  -0.48276  -0.47629
 Alpha  occ. eigenvalues --   -0.47206  -0.45977  -0.45127  -0.45009  -0.44649
 Alpha  occ. eigenvalues --   -0.44120  -0.43551  -0.43423  -0.43118  -0.42217
 Alpha  occ. eigenvalues --   -0.42059  -0.41317  -0.41186  -0.40377  -0.40104
 Alpha  occ. eigenvalues --   -0.39624  -0.39210  -0.38640  -0.38473  -0.37827
 Alpha  occ. eigenvalues --   -0.37261  -0.37034  -0.36770  -0.36531  -0.36076
 Alpha  occ. eigenvalues --   -0.35615  -0.35199  -0.34853  -0.34684  -0.34577
 Alpha  occ. eigenvalues --   -0.34309  -0.33841  -0.33547  -0.32395  -0.31914
 Alpha  occ. eigenvalues --   -0.31769  -0.31375  -0.30498  -0.29099  -0.28309
 Alpha  occ. eigenvalues --   -0.28126  -0.26698  -0.26580  -0.23744  -0.23627
 Alpha  occ. eigenvalues --   -0.23384  -0.21394
 Alpha virt. eigenvalues --    0.00685   0.00973   0.04961   0.07216   0.08378
 Alpha virt. eigenvalues --    0.08981   0.09589   0.09892   0.10426   0.11134
 Alpha virt. eigenvalues --    0.11922   0.12050   0.12245   0.12796   0.13179
 Alpha virt. eigenvalues --    0.14069   0.14232   0.14523   0.14840   0.15403
 Alpha virt. eigenvalues --    0.15581   0.15755   0.15914   0.16082   0.16264
 Alpha virt. eigenvalues --    0.16470   0.16663   0.16905   0.17000   0.17460
 Alpha virt. eigenvalues --    0.18086   0.18657   0.19300   0.19510   0.19740
 Alpha virt. eigenvalues --    0.20101   0.20464   0.20709   0.20782   0.21171
 Alpha virt. eigenvalues --    0.21510   0.22047   0.22311   0.22693   0.22875
 Alpha virt. eigenvalues --    0.23334   0.24055   0.24627   0.24935   0.25112
 Alpha virt. eigenvalues --    0.25587   0.26024   0.26298   0.26432   0.27298
 Alpha virt. eigenvalues --    0.28401   0.28987   0.29195   0.30229   0.31063
 Alpha virt. eigenvalues --    0.32421   0.33306   0.33958   0.35438   0.36653
 Alpha virt. eigenvalues --    0.37037   0.37561   0.38412   0.39240   0.39756
 Alpha virt. eigenvalues --    0.41859   0.47601   0.48949   0.50419   0.50873
 Alpha virt. eigenvalues --    0.51242   0.51747   0.52266   0.52480   0.52966
 Alpha virt. eigenvalues --    0.53260   0.53933   0.53984   0.54611   0.54814
 Alpha virt. eigenvalues --    0.55042   0.55633   0.55777   0.55980   0.57343
 Alpha virt. eigenvalues --    0.58215   0.58459   0.59025   0.59447   0.59636
 Alpha virt. eigenvalues --    0.60132   0.60877   0.61365   0.61889   0.62234
 Alpha virt. eigenvalues --    0.62747   0.63400   0.63877   0.64422   0.64881
 Alpha virt. eigenvalues --    0.64964   0.65696   0.66373   0.66626   0.67658
 Alpha virt. eigenvalues --    0.67803   0.68333   0.69313   0.69822   0.70219
 Alpha virt. eigenvalues --    0.70786   0.71894   0.72503   0.72794   0.74880
 Alpha virt. eigenvalues --    0.75039   0.75359   0.75826   0.77120   0.77370
 Alpha virt. eigenvalues --    0.78731   0.78873   0.80430   0.80454   0.80737
 Alpha virt. eigenvalues --    0.81484   0.82402   0.82630   0.82809   0.83130
 Alpha virt. eigenvalues --    0.83565   0.84535   0.84840   0.84960   0.85107
 Alpha virt. eigenvalues --    0.86050   0.86321   0.86646   0.87352   0.87543
 Alpha virt. eigenvalues --    0.87786   0.88416   0.89418   0.89653   0.89852
 Alpha virt. eigenvalues --    0.90152   0.90879   0.91251   0.91453   0.91844
 Alpha virt. eigenvalues --    0.91893   0.92891   0.93958   0.94060   0.94411
 Alpha virt. eigenvalues --    0.94741   0.95003   0.95445   0.96223   0.96587
 Alpha virt. eigenvalues --    0.96961   0.97721   0.97874   0.98803   0.99227
 Alpha virt. eigenvalues --    0.99277   1.00057   1.00573   1.01523   1.01831
 Alpha virt. eigenvalues --    1.02799   1.03024   1.03514   1.04351   1.05060
 Alpha virt. eigenvalues --    1.05647   1.05914   1.06801   1.08328   1.10636
 Alpha virt. eigenvalues --    1.11443   1.12577   1.12941   1.14662   1.15489
[...]
   365    C   25  px     Val( 2p)     0.83210
   366    C   25  px     Ryd( 3p)     0.00293
   367    C   25  py     Val( 2p)     1.22039
   368    C   25  py     Ryd( 3p)     0.00340
   369    C   25  pz     Val( 2p)     1.01956
   370    C   25  pz     Ryd( 3p)     0.00321
   371    C   25  dxy    Ryd( 3d)     0.00189
   372    C   25  dxz    Ryd( 3d)     0.00153
   373    C   25  dyz    Ryd( 3d)     0.00064
   374    C   25  dx2y2  Ryd( 3d)     0.00173
   375    C   25  dz2    Ryd( 3d)     0.00121

   376    C   26  S      Cor( 1S)     1.99930
   377    C   26  S      Val( 2S)     1.04004
   378    C   26  S      Ryd( 3S)     0.00125
   379    C   26  S      Ryd( 4S)     0.00004
   380    C   26  px     Val( 2p)     1.00040
   381    C   26  px     Ryd( 3p)     0.00417
   382    C   26  py     Val( 2p)     0.97807
   383    C   26  py     Ryd( 3p)     0.00414
   384    C   26  pz     Val( 2p)     1.09946
   385    C   26  pz     Ryd( 3p)     0.00201
   386    C   26  dxy    Ryd( 3d)     0.00185
   387    C   26  dxz    Ryd( 3d)     0.00114
   388    C   26  dyz    Ryd( 3d)     0.00129
   389    C   26  dx2y2  Ryd( 3d)     0.00179
   390    C   26  dz2    Ryd( 3d)     0.00097

   391    O   27  S      Cor( 1S)     1.99977
   392    O   27  S      Val( 2S)     1.62336
   393    O   27  S      Ryd( 3S)     0.00113
   394    O   27  S      Ryd( 4S)     0.00010
   395    O   27  px     Val( 2p)     1.53042
   396    O   27  px     Ryd( 3p)     0.00191
   397    O   27  py     Val( 2p)     1.71249
   398    O   27  py     Ryd( 3p)     0.00173
   399    O   27  pz     Val( 2p)     1.71711
   400    O   27  pz     Ryd( 3p)     0.00156
   401    O   27  dxy    Ryd( 3d)     0.00103
   402    O   27  dxz    Ryd( 3d)     0.00097
   403    O   27  dyz    Ryd( 3d)     0.00161
   404    O   27  dx2y2  Ryd( 3d)     0.00105
   405    O   27  dz2    Ryd( 3d)     0.00114

   406    C   28  S      Cor( 1S)     1.99937
   407    C   28  S      Val( 2S)     1.08348
   408    C   28  S      Ryd( 3S)     0.00034
   409    C   28  S      Ryd( 4S)     0.00002
   410    C   28  px     Val( 2p)     1.15726
   411    C   28  px     Ryd( 3p)     0.00184
   412    C   28  py     Val( 2p)     1.16440
   413    C   28  py     Ryd( 3p)     0.00274
   414    C   28  pz     Val( 2p)     1.25344
   415    C   28  pz     Ryd( 3p)     0.00244
   416    C   28  dxy    Ryd( 3d)     0.00071
   417    C   28  dxz    Ryd( 3d)     0.00110
   418    C   28  dyz    Ryd( 3d)     0.00048
   419    C   28  dx2y2  Ryd( 3d)     0.00054
   420    C   28  dz2    Ryd( 3d)     0.00055

   421    C   29  S      Cor( 1S)     1.99935
   422    C   29  S      Val( 2S)     1.01741
   423    C   29  S      Ryd( 3S)     0.00121
   424    C   29  S      Ryd( 4S)     0.00003
   425    C   29  px     Val( 2p)     1.13447
   426    C   29  px     Ryd( 3p)     0.00494
   427    C   29  py     Val( 2p)     0.96859
   428    C   29  py     Ryd( 3p)     0.00323
   429    C   29  pz     Val( 2p)     1.11977
   430    C   29  pz     Ryd( 3p)     0.00114
   431    C   29  dxy    Ryd( 3d)     0.00129
   432    C   29  dxz    Ryd( 3d)     0.00125
   433    C   29  dyz    Ryd( 3d)     0.00119
   434    C   29  dx2y2  Ryd( 3d)     0.00058
   435    C   29  dz2    Ryd( 3d)     0.00060

   436    C   30  S      Cor( 1S)     1.99945
   437    C   30  S      Val( 2S)     1.11100
   438    C   30  S      Ryd( 3S)     0.00041
   439    C   30  S      Ryd( 4S)     0.00001
   440    C   30  px     Val( 2p)     1.23531
   441    C   30  px     Ryd( 3p)     0.00138
   442    C   30  py     Val( 2p)     1.17557
   443    C   30  py     Ryd( 3p)     0.00131
   444    C   30  pz     Val( 2p)     1.15926
   445    C   30  pz     Ryd( 3p)     0.00107
   446    C   30  dxy    Ryd( 3d)     0.00087
   447    C   30  dxz    Ryd( 3d)     0.00096
   448    C   30  dyz    Ryd( 3d)     0.00085
   449    C   30  dx2y2  Ryd( 3d)     0.00028
   450    C   30  dz2    Ryd( 3d)     0.00026

   451    H   31  S      Val( 1S)     0.77165
   452    H   31  S      Ryd( 2S)     0.00092

   453    H   32  S      Val( 1S)     0.76003
   454    H   32  S      Ryd( 2S)     0.00139

   455    H   33  S      Val( 1S)     0.76446
   456    H   33  S      Ryd( 2S)     0.00093

   457    H   34  S      Val( 1S)     0.76765
   458    H   34  S      Ryd( 2S)     0.00144

   459    H   35  S      Val( 1S)     0.74554
   460    H   35  S      Ryd( 2S)     0.00152

   461    H   36  S      Val( 1S)     0.75234
   462    H   36  S      Ryd( 2S)     0.00115

   463    H   37  S      Val( 1S)     0.76889
   464    H   37  S      Ryd( 2S)     0.00099

   465    H   38  S      Val( 1S)     0.76555
   466    H   38  S      Ryd( 2S)     0.00145

   467    H   39  S      Val( 1S)     0.76167
   468    H   39  S      Ryd( 2S)     0.00264

   469    H   40  S      Val( 1S)     0.75536
   470    H   40  S      Ryd( 2S)     0.00152

   471    H   41  S      Val( 1S)     0.76179
   472    H   41  S      Ryd( 2S)     0.00221

   473    H   42  S      Val( 1S)     0.76448
   474    H   42  S      Ryd( 2S)     0.00166

   475    H   43  S      Val( 1S)     0.75812
   476    H   43  S      Ryd( 2S)     0.00260

   477    H   44  S      Val( 1S)     0.73720
   478    H   44  S      Ryd( 2S)     0.00291

   479    H   45  S      Val( 1S)     0.76939
   480    H   45  S      Ryd( 2S)     0.00218

   481    H   46  S      Val( 1S)     0.75446
   482    H   46  S      Ryd( 2S)     0.00169

   483    H   47  S      Val( 1S)     0.73869
   484    H   47  S      Ryd( 2S)     0.00167

   485    H   48  S      Val( 1S)     0.76713
   486    H   48  S      Ryd( 2S)     0.00183

   487    H   49  S      Val( 1S)     0.74269
   488    H   49  S      Ryd( 2S)     0.00204

   489    H   50  S      Val( 1S)     0.75405
   490    H   50  S      Ryd( 2S)     0.00114

   491    H   51  S      Val( 1S)     0.75648
   492    H   51  S      Ryd( 2S)     0.00136

   493    H   52  S      Val( 1S)     0.75474
   494    H   52  S      Ryd( 2S)     0.00119

   495    H   53  S      Val( 1S)     0.75558
   496    H   53  S      Ryd( 2S)     0.00124

   497    H   54  S      Val( 1S)     0.77513
   498    H   54  S      Ryd( 2S)     0.00139

   499    H   55  S      Val( 1S)     0.79256
   500    H   55  S      Ryd( 2S)     0.00232

   501    H   56  S      Val( 1S)     0.79610
   502    H   56  S      Ryd( 2S)     0.00242

   503    H   57  S      Val( 1S)     0.76840
   504    H   57  S      Ryd( 2S)     0.00102

   505    H   58  S      Val( 1S)     0.77192
   506    H   58  S      Ryd( 2S)     0.00091

   507    H   59  S      Val( 1S)     0.75375
   508    H   59  S      Ryd( 2S)     0.00131

   509    H   60  S      Val( 1S)     0.76732
   510    H   60  S      Ryd( 2S)     0.00134

   511    H   61  S      Val( 1S)     0.73940
   512    H   61  S      Ryd( 2S)     0.00198

   513    H   62  S      Val( 1S)     0.77200
   514    H   62  S      Ryd( 2S)     0.00134

   515    H   63  S      Val( 1S)     0.75597
   516    H   63  S      Ryd( 2S)     0.00128

   517    H   64  S      Val( 1S)     0.76417
   518    H   64  S      Ryd( 2S)     0.00088

   519    H   65  S      Val( 1S)     0.77509
   520    H   65  S      Ryd( 2S)     0.00093

 WARNING:  1 low occupancy (<1.9990e) core orbital  found on  C    7
           1 low occupancy (<1.9990e) core orbital  found on  C   12
           1 low occupancy (<1.9990e) core orbital  found on  C   19
           1 low occupancy (<1.9990e) core orbital  found on  C   23


 Summary of Natural Population Analysis:                  
                                                          
                                       Natural Population 
                Natural  -----------------------------------------------
    Atom  No    Charge         Core      Valence    Rydberg      Total
 -----------------------------------------------------------------------
      C    1   -0.68733      1.99945     4.68044    0.00744     6.68733
      C    2   -0.25941      1.99934     4.24490    0.01516     6.25941
      N    3   -0.49753      1.99930     5.48467    0.01356     7.49753
      C    4    0.93736      1.99937     3.01760    0.04568     5.06264
      O    5   -0.63970      1.99978     6.62084    0.01908     8.63970
      O    6   -0.53565      1.99969     6.52550    0.01046     8.53565
      C    7    0.32362      1.99872     3.65410    0.02356     5.67638
      C    8   -0.26301      1.99903     4.24632    0.01766     6.26301
      C    9   -0.26009      1.99908     4.24316    0.01785     6.26009
      C   10    0.01061      1.99900     3.97402    0.01637     5.98939
      C   11   -0.02830      1.99902     4.01138    0.01790     6.02830
      C   12   -0.28820      1.99896     4.27019    0.01905     6.28820
      C   13   -0.46877      1.99928     4.45699    0.01251     6.46877
      C   14   -0.44315      1.99929     4.43135    0.01251     6.44315
      C   15   -0.24034      1.99917     4.22586    0.01530     6.24034
      C   16   -0.27413      1.99917     4.26059    0.01437     6.27413
      C   17   -0.45591      1.99931     4.44399    0.01262     6.45591
      C   18   -0.45664      1.99927     4.44374    0.01364     6.45664
      C   19   -0.08695      1.99897     4.07134    0.01663     6.08695
      C   20   -0.25095      1.99916     4.23652    0.01527     6.25095
      C   21   -0.46860      1.99934     4.45722    0.01204     6.46860
      C   22   -0.49285      1.99916     4.47964    0.01404     6.49285
      C   23    0.61074      1.99889     3.35152    0.03885     5.38926
      O   24   -0.59763      1.99976     6.58585    0.01202     8.59763
      C   25   -0.12957      1.99929     4.11249    0.01778     6.12957
      C   26   -0.13592      1.99930     4.11796    0.01866     6.13592
      O   27   -0.59539      1.99977     6.58338    0.01224     8.59539
      C   28   -0.66871      1.99937     4.65858    0.01076     6.66871
      C   29   -0.25503      1.99935     4.24023    0.01545     6.25503
      C   30   -0.68800      1.99945     4.68114    0.00741     6.68800
      H   31    0.22743      0.00000     0.77165    0.00092     0.77257
      H   32    0.23858      0.00000     0.76003    0.00139     0.76142
      H   33    0.23461      0.00000     0.76446    0.00093     0.76539
      H   34    0.23091      0.00000     0.76765    0.00144     0.76909
      H   35    0.25294      0.00000     0.74554    0.00152     0.74706
      H   36    0.24652      0.00000     0.75234    0.00115     0.75348
      H   37    0.23012      0.00000     0.76889    0.00099     0.76988
      H   38    0.23300      0.00000     0.76555    0.00145     0.76700
      H   39    0.23569      0.00000     0.76167    0.00264     0.76431
      H   40    0.24312      0.00000     0.75536    0.00152     0.75688
      H   41    0.23600      0.00000     0.76179    0.00221     0.76400
      H   42    0.23386      0.00000     0.76448    0.00166     0.76614
      H   43    0.23928      0.00000     0.75812    0.00260     0.76072
      H   44    0.25989      0.00000     0.73720    0.00291     0.74011
      H   45    0.22843      0.00000     0.76939    0.00218     0.77157
      H   46    0.24385      0.00000     0.75446    0.00169     0.75615
      H   47    0.25963      0.00000     0.73869    0.00167     0.74037
      H   48    0.23104      0.00000     0.76713    0.00183     0.76896
      H   49    0.25526      0.00000     0.74269    0.00204     0.74474
      H   50    0.24481      0.00000     0.75405    0.00114     0.75519
      H   51    0.24215      0.00000     0.75648    0.00136     0.75785
      H   52    0.24407      0.00000     0.75474    0.00119     0.75593
      H   53    0.24318      0.00000     0.75558    0.00124     0.75682
      H   54    0.22348      0.00000     0.77513    0.00139     0.77652
      H   55    0.20512      0.00000     0.79256    0.00232     0.79488
      H   56    0.20148      0.00000     0.79610    0.00242     0.79852
      H   57    0.23058      0.00000     0.76840    0.00102     0.76942
      H   58    0.22717      0.00000     0.77192    0.00091     0.77283
      H   59    0.24494      0.00000     0.75375    0.00131     0.75506
      H   60    0.23134      0.00000     0.76732    0.00134     0.76866
      H   61    0.25863      0.00000     0.73940    0.00198     0.74137
      H   62    0.22666      0.00000     0.77200    0.00134     0.77334
      H   63    0.24275      0.00000     0.75597    0.00128     0.75725
      H   64    0.23495      0.00000     0.76417    0.00088     0.76505
      H   65    0.22398      0.00000     0.77509    0.00093     0.77602
 =======================================================================
   * Total *    0.00000     59.97804   163.47126    0.55070   224.00000

                                 Natural Population      
 --------------------------------------------------------
   Core                      59.97804 ( 99.9634% of  60)
   Valence                  163.47126 ( 99.6776% of 164)
   Natural Minimal Basis    223.44930 ( 99.7542% of 224)
   Natural Rydberg Basis      0.55070 (  0.2458% of 224)
 --------------------------------------------------------

    Atom  No          Natural Electron Configuration
 ----------------------------------------------------------------------------
      C    1      [core]2S( 1.11)2p( 3.57)
      C    2      [core]2S( 1.02)2p( 3.23)3p( 0.01)
      N    3      [core]2S( 1.21)2p( 4.28)3p( 0.01)
      C    4      [core]2S( 0.69)2p( 2.32)3p( 0.03)3d( 0.01)
      O    5      [core]2S( 1.70)2p( 4.92)3d( 0.02)
      O    6      [core]2S( 1.60)2p( 4.93)3d( 0.01)
      C    7      [core]2S( 0.84)2p( 2.81)3p( 0.02)3d( 0.01)
      C    8      [core]2S( 0.96)2p( 3.28)3p( 0.01)
      C    9      [core]2S( 0.95)2p( 3.30)3p( 0.01)
      C   10      [core]2S( 0.87)2p( 3.10)3p( 0.01)
      C   11      [core]2S( 0.87)2p( 3.14)3p( 0.01)
      C   12      [core]2S( 0.95)2p( 3.32)3p( 0.02)
      C   13      [core]2S( 1.03)2p( 3.43)3p( 0.01)
      C   14      [core]2S( 1.03)2p( 3.41)3p( 0.01)
      C   15      [core]2S( 0.96)2p( 3.27)3p( 0.01)
      C   16      [core]2S( 0.96)2p( 3.30)3p( 0.01)
      C   17      [core]2S( 1.02)2p( 3.43)3p( 0.01)
      C   18      [core]2S( 1.02)2p( 3.43)3p( 0.01)
      C   19      [core]2S( 0.91)2p( 3.16)3p( 0.01)
      C   20      [core]2S( 0.96)2p( 3.28)3p( 0.01)
      C   21      [core]2S( 1.03)2p( 3.42)3p( 0.01)
      C   22      [core]2S( 1.04)2p( 3.44)3p( 0.01)
      C   23      [core]2S( 0.85)2p( 2.50)3p( 0.03)3d( 0.01)
      O   24      [core]2S( 1.62)2p( 4.97)3p( 0.01)3d( 0.01)
      C   25      [core]2S( 1.04)2p( 3.07)3p( 0.01)3d( 0.01)
      C   26      [core]2S( 1.04)2p( 3.08)3p( 0.01)3d( 0.01)
      O   27      [core]2S( 1.62)2p( 4.96)3p( 0.01)3d( 0.01)
      C   28      [core]2S( 1.08)2p( 3.58)3p( 0.01)
      C   29      [core]2S( 1.02)2p( 3.22)3p( 0.01)
      C   30      [core]2S( 1.11)2p( 3.57)
      H   31            1S( 0.77)
      H   32            1S( 0.76)
      H   33            1S( 0.76)
      H   34            1S( 0.77)
      H   35            1S( 0.75)
      H   36            1S( 0.75)
      H   37            1S( 0.77)
      H   38            1S( 0.77)
      H   39            1S( 0.76)
      H   40            1S( 0.76)
      H   41            1S( 0.76)
      H   42            1S( 0.76)
      H   43            1S( 0.76)
      H   44            1S( 0.74)
      H   45            1S( 0.77)
      H   46            1S( 0.75)
      H   47            1S( 0.74)
      H   48            1S( 0.77)
      H   49            1S( 0.74)
      H   50            1S( 0.75)
      H   51            1S( 0.76)
      H   52            1S( 0.75)
      H   53            1S( 0.76)
      H   54            1S( 0.78)
      H   55            1S( 0.79)
      H   56            1S( 0.80)
      H   57            1S( 0.77)
      H   58            1S( 0.77)
      H   59            1S( 0.75)
      H   60            1S( 0.77)
      H   61            1S( 0.74)
      H   62            1S( 0.77)
      H   63            1S( 0.76)
      H   64            1S( 0.76)
      H   65            1S( 0.78)


 NBO analysis skipped by request.
 Leave Link  607 at Fri Oct  1 06:47:59 2021, MaxMem= 2684354560 cpu:      78.1
 (Enter /sw/target/amd/app/gaussian/Gaussian09RevA.02_gcc-4.9.2/g09/l9999.exe)
 1\1\GINC-HERMITE\SP\RTD-B3LYP-FC\6-31G(d)\C25H35N1O4\JSCHLEINITZ\01-Oc
 t-2021\0\\#p TD(NStates=10, Root=1) b3lyp/6-31G* volume pop=NPA densit
 y=current Geom=AllCheck Guess=Read\\CCN(C(=O)Oc1ccc2c(c1)CCC1C2CC[C@@]
 2(C1CCC12OCCO1)C)CC_conf_0\\0,1\C,0,3.0491436992,1.7677864346,2.674839
 485\C,0,3.1565986247,0.3359541766,3.2070512077\N,0,1.9016680399,-0.170
 4541325,3.7709467144\C,0,0.9464453138,-0.809251085,3.0372732078\O,0,-0
 .0903282184,-1.2675440582,3.4800007796\O,0,1.3121477469,-0.8563402827,
 1.7070741809\C,0,0.4956730608,-1.516647449,0.7898069306\C,0,0.03848488
 41,-2.8163181715,0.9851701467\C,0,-0.7026003407,-3.4276256429,-0.02737
 65456\C,0,-0.9898962279,-2.7726183609,-1.2314178464\C,0,-0.51291584,-1
 .4578846294,-1.4073342577\C,0,0.2191008271,-0.8377638245,-0.3941801752
 \C,0,-0.8872322162,-0.7313950517,-2.6763756882\C,0,-2.3754501627,-0.98
 5184404,-2.9627933006\C,0,-2.6589308884,-2.4798113595,-3.2146728205\C,
 0,-1.7152806915,-3.4442505115,-2.3938849182\C,0,-2.4340160368,-4.75572
 3709,-2.0123523504\C,0,-3.3730435694,-5.2487218618,-3.1214514215\C,0,-
 4.507081125,-4.2544308161,-3.5245790302\C,0,-4.15807356,-2.8056274763,
 -3.0660947942\C,0,-4.7516496789,-2.6396828244,-1.6244583129\C,0,-5.587
 8999391,-3.9072995617,-1.342117253\C,0,-5.8146222933,-4.536392619,-2.7
 22657016\O,0,-6.1645444747,-5.9194098223,-2.6294041839\C,0,-7.44716414
 7,-6.1155651142,-3.219551344\C,0,-8.052772088,-4.7147491824,-3.1821857
 004\O,0,-6.911476644,-3.8913204515,-3.3798961905\C,0,-4.7395167768,-4.
 361914101,-5.0387420537\C,0,1.640429473,0.0226293438,5.200404023\C,0,2
 .1503130718,-1.1329459966,6.0651530814\H,0,2.7270892159,2.4617231486,3
 .4596091709\H,0,2.3257089579,1.8161404395,1.855361078\H,0,4.0205206116
 ,2.1090454972,2.2980437227\H,0,3.910041637,0.2824810301,4.0014600596\H
 ,0,3.4813421822,-0.3382000972,2.4124024453\H,0,0.2420656681,-3.3350892
 836,1.9137207284\H,0,-1.0518732358,-4.4418221194,0.1361402843\H,0,0.57
 9148045,0.1803357864,-0.5152055763\H,0,-0.2854064411,-1.0908189152,-3.
 5260313921\H,0,-0.6824106364,0.3409448876,-2.5789005699\H,0,-2.7107170
 789,-0.4019680868,-3.8298085697\H,0,-2.9521185067,-0.6285634252,-2.100
 0379101\H,0,-2.4150469085,-2.6624941021,-4.2708806086\H,0,-0.921212168
 2,-3.7300600551,-3.1021583067\H,0,-2.9856124606,-4.6233371504,-1.07615
 64123\H,0,-1.6879453338,-5.5344691711,-1.8103379091\H,0,-3.8162924095,
 -6.2101459451,-2.8427103556\H,0,-2.7631428189,-5.4439299333,-4.0139877
 658\H,0,-4.6987706176,-2.1165025663,-3.7280188756\H,0,-5.3830939287,-1
 .7469921724,-1.5821115187\H,0,-3.9690278083,-2.5033618391,-0.871369573
 7\H,0,-6.5430550013,-3.6960158706,-0.8506143784\H,0,-5.0508414156,-4.6
 219605673,-0.7109238128\H,0,-7.998899127,-6.8525401236,-2.6275007651\H
 ,0,-7.3484053002,-6.4829293066,-4.2507205374\H,0,-8.5287731864,-4.5111
 687536,-2.2106700091\H,0,-8.7686508473,-4.5102360426,-3.9827378393\H,0
 ,-3.8323339738,-4.0782876917,-5.5857986504\H,0,-5.5590194617,-3.719208
 7794,-5.367966344\H,0,-4.9795601594,-5.3953692692,-5.3190181713\H,0,0.
 5623540504,0.1380890418,5.3304804844\H,0,2.1146627284,0.9653001047,5.4
 972010663\H,0,1.6405513358,-2.0613103471,5.7903244798\H,0,1.95308949,-
 0.9325847375,7.1247838102\H,0,3.22988179,-1.2801742362,5.943868642\\Ve
 rsion=AM64L-G09RevA.02\State=1-A\HF=-1329.406778\RMSD=9.134e-09\Dipole
 =0.3660933,0.3279793,-0.0342015\Quadrupole=9.9273606,-5.5874704,-4.339
 8902,12.1192165,12.7462365,6.7982345\PG=C01 [X(C25H35N1O4)]\\@


 UNLESS WE CHANGE DIRECTIONS, WE WILL WIND UP WHERE WE ARE HEADED.
     -- CONFUCIUS
 Job cpu time:  0 days 22 hours  8 minutes 52.5 seconds.
 File lengths (MBytes):  RWF=    886 Int=      0 D2E=      0 Chk=    122 Scr=      1
 Normal termination of Gaussian 09 at Fri Oct  1 06:48:03 2021.
