 Entering Gaussian System, Link 0=g09
 Input=C26H35O2P_62b2_conf_0.com
 Output=C26H35O2P_62b2_conf_0.log
 Initial command:
 /sw/target/amd/app/gaussian/Gaussian09RevA.02_gcc-4.9.2/g09/l1.exe /home/jschleinitz/gaussian/Gau-2058084.inp -scrdir=/home/jschleinitz/gaussian/
 Entering Link 1 = /sw/target/amd/app/gaussian/Gaussian09RevA.02_gcc-4.9.2/g09/l1.exe PID=   2058098.
  
 Copyright (c) 1988,1990,1992,1993,1995,1998,2003,2009, Gaussian, Inc.
                  All Rights Reserved.
  
 This is part of the Gaussian(R) 09 program.  It is based on
 the Gaussian(R) 03 system (copyright 2003, Gaussian, Inc.),
 the Gaussian(R) 98 system (copyright 1998, Gaussian, Inc.),
 the Gaussian(R) 94 system (copyright 1995, Gaussian, Inc.),
 the Gaussian 92(TM) system (copyright 1992, Gaussian, Inc.),
 the Gaussian 90(TM) system (copyright 1990, Gaussian, Inc.),
 the Gaussian 88(TM) system (copyright 1988, Gaussian, Inc.),
 the Gaussian 86(TM) system (copyright 1986, Carnegie Mellon
 University), and the Gaussian 82(TM) system (copyright 1983,
 Carnegie Mellon University). Gaussian is a federally registered
 trademark of Gaussian, Inc.
  
 This software contains proprietary and confidential information,
 including trade secrets, belonging to Gaussian, Inc.
  
 This software is provided under written license and may be
 used, copied, transmitted, or stored only in accord with that
 written license.
  
 The following legend is applicable only to US Government
 contracts under FAR:
  
                    RESTRICTED RIGHTS LEGEND
  
 Use, reproduction and disclosure by the US Government is
 subject to restrictions as set forth in subparagraphs (a)
 and (c) of the Commercial Computer Software - Restricted
 Rights clause in FAR 52.227-19.
  
 Gaussian, Inc.
 340 Quinnipiac St., Bldg. 40, Wallingford CT 06492
  
  
 ---------------------------------------------------------------
 Warning -- This program may not be used in any manner that
 competes with the business of Gaussian, Inc. or will provide
 assistance to any competitor of Gaussian, Inc.  The licensee
 of this program is prohibited from giving any competitor of
 Gaussian, Inc. access to this program.  By using this program,
 the user acknowledges that Gaussian, Inc. is engaged in the
 business of creating and licensing software in the field of
 computational chemistry and represents and warrants to the
 licensee that it is not a competitor of Gaussian, Inc. and that
 it will not use this program in any manner prohibited above.
 ---------------------------------------------------------------
  

 Cite this work as:
 Gaussian 09, Revision A.02,
 M. J. Frisch, G. W. Trucks, H. B. Schlegel, G. E. Scuseria, 
 M. A. Robb, J. R. Cheeseman, G. Scalmani, V. Barone, B. Mennucci, 
 G. A. Petersson, H. Nakatsuji, M. Caricato, X. Li, H. P. Hratchian, 
 A. F. Izmaylov, J. Bloino, G. Zheng, J. L. Sonnenberg, M. Hada, 
 M. Ehara, K. Toyota, R. Fukuda, J. Hasegawa, M. Ishida, T. Nakajima, 
 Y. Honda, O. Kitao, H. Nakai, T. Vreven, J. A. Montgomery, Jr., 
 J. E. Peralta, F. Ogliaro, M. Bearpark, J. J. Heyd, E. Brothers, 
 K. N. Kudin, V. N. Staroverov, R. Kobayashi, J. Normand, 
 K. Raghavachari, A. Rendell, J. C. Burant, S. S. Iyengar, J. Tomasi, 
 M. Cossi, N. Rega, J. M. Millam, M. Klene, J. E. Knox, J. B. Cross, 
 V. Bakken, C. Adamo, J. Jaramillo, R. Gomperts, R. E. Stratmann, 
 O. Yazyev, A. J. Austin, R. Cammi, C. Pomelli, J. W. Ochterski, 
 R. L. Martin, K. Morokuma, V. G. Zakrzewski, G. A. Voth, 
 P. Salvador, J. J. Dannenberg, S. Dapprich, A. D. Daniels, 
 O. Farkas, J. B. Foresman, J. V. Ortiz, J. Cioslowski, 
 and D. J. Fox, Gaussian, Inc., Wallingford CT, 2009.
 
 ******************************************
 Gaussian 09:  AM64L-G09RevA.02 11-Jun-2009
                 1-Oct-2021 
 ******************************************
 %nproc=10
 Will use up to   10 processors via shared memory.
 %mem=20gb
 %chk=C26H35O2P_62b2_conf_0.chk
 -----------------------------------
 #p opt b3lyp/6-31G* scf=(xqc,tight)
 -----------------------------------
 1/14=-1,18=20,19=15,26=3,38=1/1,3;
 2/9=110,12=2,17=6,18=5,40=1/2;
 3/5=1,6=6,7=1,11=2,16=1,25=1,30=1,71=1,74=-5/1,2,3;
 4//1;
 5/5=2,8=3,13=1,32=2,38=5/2,8;
 6/7=2,8=2,9=2,10=2,28=1/1;
 7//1,2,3,16;
 1/14=-1,18=20,19=15/3(2);
 2/9=110/2;
 99//99;
 2/9=110/2;
 3/5=1,6=6,7=1,11=2,16=1,25=1,30=1,71=1,74=-5/1,2,3;
 4/5=5,16=3/1;
 5/5=2,8=3,13=1,32=2,38=5/2,8;
 7//1,2,3,16;
 1/14=-1,18=20,19=15/3(-5);
 2/9=110/2;
 6/7=2,8=2,9=2,10=2,19=2,28=1/1;
 99/9=1/99;
 Leave Link    1 at Fri Oct  1 18:35:44 2021, MaxMem= 2684354560 cpu:       0.1
 (Enter /sw/target/amd/app/gaussian/Gaussian09RevA.02_gcc-4.9.2/g09/l101.exe)
 ------------------------------------------------
 COc1cccc(c1c1ccccc1P(C1CCCCC1)C1CCCCC1)OC_conf_0
 ------------------------------------------------
 Symbolic Z-matrix:
 Charge =  0 Multiplicity = 1
 C                     2.41489  -1.37449   1.14601 
 O                     3.58385  -1.06582   0.3958 
 C                     3.61146  -1.63149  -0.85451 
 C                     3.35747  -3.005    -1.01018 
 C                     3.31017  -3.57222  -2.27806 
 C                     3.51072  -2.77     -3.39269 
 C                     3.77728  -1.3982   -3.24028 
 C                     3.90693  -0.80019  -1.95998 
 C                     4.16679   0.66635  -1.79263 
 C                     3.23368   1.54651  -2.3976 
 C                     3.32644   2.93274  -2.28896 
 C                     4.32868   3.4859   -1.51703 
 C                     5.24911   2.64611  -0.88477 
 C                     5.23263   1.24403  -1.03856 
 P                     6.56765   0.25939  -0.22655 
 C                     8.17807   0.79935  -1.01359 
 C                     8.52779   2.29178  -0.92424 
 C                     9.85523   2.63066  -1.60096 
 C                     9.85323   2.17065  -3.05249 
 C                     9.58204   0.67391  -3.14028 
 C                     8.25935   0.29836  -2.46697 
 C                     6.67888   0.96497   1.50359 
 C                     7.7843    0.26007   2.31519 
 C                     7.8548    0.76936   3.7573 
 C                     6.50821   0.67451   4.46535 
 C                     5.41822   1.38138   3.67083 
 C                     5.33666   0.83548   2.24757 
 O                     3.91838  -0.61986  -4.36983 
 C                     2.75696  -0.67803  -5.20486 
 H                     2.32724  -0.62943   1.94293 
 H                     2.50553  -2.35738   1.61887 
 H                     1.50937  -1.31944   0.53208 
 H                     3.19935  -3.63982  -0.14423 
 H                     3.10515  -4.63258  -2.39602 
 H                     3.45684  -3.21428  -4.38251 
 H                     2.40406   1.13908  -2.97085 
 H                     2.6055    3.56836  -2.7932 
 H                     4.40212   4.56253  -1.39918 
 H                     5.99433   3.13302  -0.25955 
 H                     8.9544    0.25808  -0.45569 
 H                     8.5805    2.62212   0.11842 
 H                     7.76684   2.89684  -1.42186 
 H                     10.68332   2.15954  -1.05842 
 H                     10.01982   3.71401  -1.55953 
 H                     10.81593   2.40677  -3.51874 
 H                     9.08364   2.71776  -3.61182 
 H                     10.40586   0.12818  -2.66353 
 H                     9.5608    0.36529  -4.19129 
 H                     8.15385  -0.79639  -2.49733 
 H                     7.43334   0.70823  -3.06006 
 H                     6.92836   2.02919   1.44793 
 H                     8.76473   0.41369   1.85008 
 H                     7.61112  -0.82434   2.33138 
 H                     8.19253   1.81304   3.75773 
 H                     8.602     0.19279   4.31444 
 H                     6.5815    1.11412   5.46637 
 H                     6.23745  -0.38032   4.59863 
 H                     5.61928   2.45935   3.64201 
 H                     4.45214   1.24889   4.17107 
 H                     4.53956   1.36972   1.71898 
 H                     5.0379   -0.21819   2.30089 
 H                     2.70661   0.25176  -5.77967 
 H                     1.82777  -0.75888  -4.62619 
 H                     2.83534  -1.51029  -5.9114 
 
 NAtoms=     64 NQM=     64 NQMF=      0 NMic=      0 NMicF=      0 NTot=     64.
                    Isotopes and Nuclear Properties:
 (Nuclear quadrupole moments (NQMom) in fm**2, nuclear magnetic moments (NMagM)
  in nuclear magnetons)

  Atom         1           2           3           4           5           6           7           8           9          10
 IAtWgt=          12          16          12          12          12          12          12          12          12          12
 AtmWgt=  12.0000000  15.9949146  12.0000000  12.0000000  12.0000000  12.0000000  12.0000000  12.0000000  12.0000000  12.0000000
 NucSpn=           0           0           0           0           0           0           0           0           0           0
 AtZEff=   0.0000000   0.0000000   0.0000000   0.0000000   0.0000000   0.0000000   0.0000000   0.0000000   0.0000000   0.0000000
 NQMom=    0.0000000   0.0000000   0.0000000   0.0000000   0.0000000   0.0000000   0.0000000   0.0000000   0.0000000   0.0000000
 NMagM=    0.0000000   0.0000000   0.0000000   0.0000000   0.0000000   0.0000000   0.0000000   0.0000000   0.0000000   0.0000000

  Atom        11          12          13          14          15          16          17          18          19          20
 IAtWgt=          12          12          12          12          31          12          12          12          12          12
 AtmWgt=  12.0000000  12.0000000  12.0000000  12.0000000  30.9737634  12.0000000  12.0000000  12.0000000  12.0000000  12.0000000
 NucSpn=           0           0           0           0           1           0           0           0           0           0
 AtZEff=   0.0000000   0.0000000   0.0000000   0.0000000   0.0000000   0.0000000   0.0000000   0.0000000   0.0000000   0.0000000
 NQMom=    0.0000000   0.0000000   0.0000000   0.0000000   0.0000000   0.0000000   0.0000000   0.0000000   0.0000000   0.0000000
 NMagM=    0.0000000   0.0000000   0.0000000   0.0000000   1.1316000   0.0000000   0.0000000   0.0000000   0.0000000   0.0000000

  Atom        21          22          23          24          25          26          27          28          29          30
 IAtWgt=          12          12          12          12          12          12          12          16          12           1
 AtmWgt=  12.0000000  12.0000000  12.0000000  12.0000000  12.0000000  12.0000000  12.0000000  15.9949146  12.0000000   1.0078250
 NucSpn=           0           0           0           0           0           0           0           0           0           1
 AtZEff=   0.0000000   0.0000000   0.0000000   0.0000000   0.0000000   0.0000000   0.0000000   0.0000000   0.0000000   0.0000000
 NQMom=    0.0000000   0.0000000   0.0000000   0.0000000   0.0000000   0.0000000   0.0000000   0.0000000   0.0000000   0.0000000
 NMagM=    0.0000000   0.0000000   0.0000000   0.0000000   0.0000000   0.0000000   0.0000000   0.0000000   0.0000000   2.7928460

  Atom        31          32          33          34          35          36          37          38          39          40
 IAtWgt=           1           1           1           1           1           1           1           1           1           1
 AtmWgt=   1.0078250   1.0078250   1.0078250   1.0078250   1.0078250   1.0078250   1.0078250   1.0078250   1.0078250   1.0078250
 NucSpn=           1           1           1           1           1           1           1           1           1           1
 AtZEff=   0.0000000   0.0000000   0.0000000   0.0000000   0.0000000   0.0000000   0.0000000   0.0000000   0.0000000   0.0000000
 NQMom=    0.0000000   0.0000000   0.0000000   0.0000000   0.0000000   0.0000000   0.0000000   0.0000000   0.0000000   0.0000000
 NMagM=    2.7928460   2.7928460   2.7928460   2.7928460   2.7928460   2.7928460   2.7928460   2.7928460   2.7928460   2.7928460

  Atom        41          42          43          44          45          46          47          48          49          50
 IAtWgt=           1           1           1           1           1           1           1           1           1           1
 AtmWgt=   1.0078250   1.0078250   1.0078250   1.0078250   1.0078250   1.0078250   1.0078250   1.0078250   1.0078250   1.0078250
 NucSpn=           1           1           1           1           1           1           1           1           1           1
 AtZEff=   0.0000000   0.0000000   0.0000000   0.0000000   0.0000000   0.0000000   0.0000000   0.0000000   0.0000000   0.0000000
 NQMom=    0.0000000   0.0000000   0.0000000   0.0000000   0.0000000   0.0000000   0.0000000   0.0000000   0.0000000   0.0000000
 NMagM=    2.7928460   2.7928460   2.7928460   2.7928460   2.7928460   2.7928460   2.7928460   2.7928460   2.7928460   2.7928460

  Atom        51          52          53          54          55          56          57          58          59          60
 IAtWgt=           1           1           1           1           1           1           1           1           1           1
 AtmWgt=   1.0078250   1.0078250   1.0078250   1.0078250   1.0078250   1.0078250   1.0078250   1.0078250   1.0078250   1.0078250
 NucSpn=           1           1           1           1           1           1           1           1           1           1
 AtZEff=   0.0000000   0.0000000   0.0000000   0.0000000   0.0000000   0.0000000   0.0000000   0.0000000   0.0000000   0.0000000
 NQMom=    0.0000000   0.0000000   0.0000000   0.0000000   0.0000000   0.0000000   0.0000000   0.0000000   0.0000000   0.0000000
 NMagM=    2.7928460   2.7928460   2.7928460   2.7928460   2.7928460   2.7928460   2.7928460   2.7928460   2.7928460   2.7928460

  Atom        61          62          63          64
 IAtWgt=           1           1           1           1
 AtmWgt=   1.0078250   1.0078250   1.0078250   1.0078250
 NucSpn=           1           1           1           1
 AtZEff=   0.0000000   0.0000000   0.0000000   0.0000000
 NQMom=    0.0000000   0.0000000   0.0000000   0.0000000
 NMagM=    2.7928460   2.7928460   2.7928460   2.7928460
 Leave Link  101 at Fri Oct  1 18:35:44 2021, MaxMem= 2684354560 cpu:       0.2
 (Enter /sw/target/amd/app/gaussian/Gaussian09RevA.02_gcc-4.9.2/g09/l103.exe)

 GradGradGradGradGradGradGradGradGradGradGradGradGradGradGradGradGradGrad
 Berny optimization.
 Initialization pass.
                           ----------------------------
                           !    Initial Parameters    !
                           ! (Angstroms and Degrees)  !
 --------------------------                            --------------------------
 ! Name  Definition              Value          Derivative Info.                !
 --------------------------------------------------------------------------------
 ! R1    R(1,2)                  1.4229         estimate D2E/DX2                !
 ! R2    R(1,30)                 1.0945         estimate D2E/DX2                !
 ! R3    R(1,31)                 1.0945         estimate D2E/DX2                !
 ! R4    R(1,32)                 1.0954         estimate D2E/DX2                !
 ! R5    R(2,3)                  1.3726         estimate D2E/DX2                !
 ! R6    R(3,4)                  1.4054         estimate D2E/DX2                !
 ! R7    R(3,8)                  1.4144         estimate D2E/DX2                !
 ! R8    R(4,5)                  1.3898         estimate D2E/DX2                !
 ! R9    R(4,33)                 1.0853         estimate D2E/DX2                !
 ! R10   R(5,6)                  1.3879         estimate D2E/DX2                !
 ! R11   R(5,34)                 1.0864         estimate D2E/DX2                !
 ! R12   R(6,7)                  1.4057         estimate D2E/DX2                !
 ! R13   R(6,35)                 1.0863         estimate D2E/DX2                !
 ! R14   R(7,8)                  1.419          estimate D2E/DX2                !
 ! R15   R(7,28)                 1.379          estimate D2E/DX2                !
 ! R16   R(8,9)                  1.4988         estimate D2E/DX2                !
 ! R17   R(9,10)                 1.4182         estimate D2E/DX2                !
 ! R18   R(9,14)                 1.4277         estimate D2E/DX2                !
 ! R19   R(10,11)                1.3936         estimate D2E/DX2                !
 ! R20   R(10,36)                1.0876         estimate D2E/DX2                !
 ! R21   R(11,12)                1.3807         estimate D2E/DX2                !
 ! R22   R(11,37)                1.0854         estimate D2E/DX2                !
 ! R23   R(12,13)                1.3972         estimate D2E/DX2                !
 ! R24   R(12,38)                1.0855         estimate D2E/DX2                !
 ! R25   R(13,14)                1.4106         estimate D2E/DX2                !
 ! R26   R(13,39)                1.0878         estimate D2E/DX2                !
 ! R27   R(14,15)                1.8469         estimate D2E/DX2                !
 ! R28   R(15,16)                1.872          estimate D2E/DX2                !
 ! R29   R(15,22)                1.8718         estimate D2E/DX2                !
 ! R30   R(16,17)                1.5355         estimate D2E/DX2                !
 ! R31   R(16,21)                1.5394         estimate D2E/DX2                !
 ! R32   R(16,40)                1.0986         estimate D2E/DX2                !
 ! R33   R(17,18)                1.528          estimate D2E/DX2                !
 ! R34   R(17,41)                1.095          estimate D2E/DX2                !
 ! R35   R(17,42)                1.0921         estimate D2E/DX2                !
 ! R36   R(18,19)                1.5227         estimate D2E/DX2                !
 ! R37   R(18,43)                1.0964         estimate D2E/DX2                !
 ! R38   R(18,44)                1.0966         estimate D2E/DX2                !
 ! R39   R(19,20)                1.5236         estimate D2E/DX2                !
 ! R40   R(19,45)                1.0954         estimate D2E/DX2                !
 ! R41   R(19,46)                1.0975         estimate D2E/DX2                !
 ! R42   R(20,21)                1.531          estimate D2E/DX2                !
 ! R43   R(20,47)                1.0972         estimate D2E/DX2                !
 ! R44   R(20,48)                1.0956         estimate D2E/DX2                !
 ! R45   R(21,49)                1.1002         estimate D2E/DX2                !
 ! R46   R(21,50)                1.0964         estimate D2E/DX2                !
 ! R47   R(22,23)                1.5419         estimate D2E/DX2                !
 ! R48   R(22,27)                1.5401         estimate D2E/DX2                !
 ! R49   R(22,51)                1.0945         estimate D2E/DX2                !
 ! R50   R(23,24)                1.531          estimate D2E/DX2                !
 ! R51   R(23,52)                1.096          estimate D2E/DX2                !
 ! R52   R(23,53)                1.0983         estimate D2E/DX2                !
 ! R53   R(24,25)                1.5243         estimate D2E/DX2                !
 ! R54   R(24,54)                1.097          estimate D2E/DX2                !
 ! R55   R(24,55)                1.096          estimate D2E/DX2                !
 ! R56   R(25,26)                1.5228         estimate D2E/DX2                !
 ! R57   R(25,56)                1.0958         estimate D2E/DX2                !
 ! R58   R(25,57)                1.0972         estimate D2E/DX2                !
 ! R59   R(26,27)                1.5265         estimate D2E/DX2                !
 ! R60   R(26,58)                1.0969         estimate D2E/DX2                !
 ! R61   R(26,59)                1.096          estimate D2E/DX2                !
 ! R62   R(27,60)                1.0955         estimate D2E/DX2                !
 ! R63   R(27,61)                1.0965         estimate D2E/DX2                !
 ! R64   R(28,29)                1.4316         estimate D2E/DX2                !
 ! R65   R(29,62)                1.0943         estimate D2E/DX2                !
 ! R66   R(29,63)                1.0976         estimate D2E/DX2                !
 ! R67   R(29,64)                1.0945         estimate D2E/DX2                !
 ! A1    A(2,1,30)             107.5793         estimate D2E/DX2                !
 ! A2    A(2,1,31)             110.7673         estimate D2E/DX2                !
 ! A3    A(2,1,32)             111.884          estimate D2E/DX2                !
 ! A4    A(30,1,31)            107.661          estimate D2E/DX2                !
 ! A5    A(30,1,32)            107.9196         estimate D2E/DX2                !
 ! A6    A(31,1,32)            110.8385         estimate D2E/DX2                !
 ! A7    A(1,2,3)              114.0419         estimate D2E/DX2                !
 ! A8    A(2,3,4)              120.001          estimate D2E/DX2                !
 ! A9    A(2,3,8)              118.2907         estimate D2E/DX2                !
 ! A10   A(4,3,8)              121.7073         estimate D2E/DX2                !
 ! A11   A(3,4,5)              120.4021         estimate D2E/DX2                !
 ! A12   A(3,4,33)             120.6364         estimate D2E/DX2                !
 ! A13   A(5,4,33)             118.9611         estimate D2E/DX2                !
 ! A14   A(4,5,6)              119.462          estimate D2E/DX2                !
 ! A15   A(4,5,34)             120.2534         estimate D2E/DX2                !
 ! A16   A(6,5,34)             120.2799         estimate D2E/DX2                !
 ! A17   A(5,6,7)              120.2911         estimate D2E/DX2                !
 ! A18   A(5,6,35)             119.2243         estimate D2E/DX2                !
 ! A19   A(7,6,35)             120.4845         estimate D2E/DX2                !
 ! A20   A(6,7,8)              121.7623         estimate D2E/DX2                !
 ! A21   A(6,7,28)             118.7767         estimate D2E/DX2                !
 ! A22   A(8,7,28)             119.4608         estimate D2E/DX2                !
 ! A23   A(3,8,7)              116.0027         estimate D2E/DX2                !
 ! A24   A(3,8,9)              121.6055         estimate D2E/DX2                !
 ! A25   A(7,8,9)              121.935          estimate D2E/DX2                !
 ! A26   A(8,9,10)             116.4588         estimate D2E/DX2                !
 ! A27   A(8,9,14)             125.7565         estimate D2E/DX2                !
 ! A28   A(10,9,14)            117.734          estimate D2E/DX2                !
 ! A29   A(9,10,11)            122.703          estimate D2E/DX2                !
 ! A30   A(9,10,36)            119.6186         estimate D2E/DX2                !
 ! A31   A(11,10,36)           117.6781         estimate D2E/DX2                !
 ! A32   A(10,11,12)           119.3688         estimate D2E/DX2                !
 ! A33   A(10,11,37)           120.1396         estimate D2E/DX2                !
 ! A34   A(12,11,37)           120.4827         estimate D2E/DX2                !
 ! A35   A(11,12,13)           119.3658         estimate D2E/DX2                !
 ! A36   A(11,12,38)           120.4741         estimate D2E/DX2                !
 ! A37   A(13,12,38)           120.1601         estimate D2E/DX2                !
 ! A38   A(12,13,14)           122.7105         estimate D2E/DX2                !
 ! A39   A(12,13,39)           116.2537         estimate D2E/DX2                !
 ! A40   A(14,13,39)           121.0356         estimate D2E/DX2                !
 ! A41   A(9,14,13)            117.9363         estimate D2E/DX2                !
 ! A42   A(9,14,15)            123.7875         estimate D2E/DX2                !
 ! A43   A(13,14,15)           118.2639         estimate D2E/DX2                !
 ! A44   A(14,15,16)           106.452          estimate D2E/DX2                !
 ! A45   A(14,15,22)           104.381          estimate D2E/DX2                !
 ! A46   A(16,15,22)           103.2239         estimate D2E/DX2                !
 ! A47   A(15,16,17)           116.8609         estimate D2E/DX2                !
 ! A48   A(15,16,21)           110.394          estimate D2E/DX2                !
 ! A49   A(15,16,40)           104.6133         estimate D2E/DX2                !
 ! A50   A(17,16,21)           111.0525         estimate D2E/DX2                !
 ! A51   A(17,16,40)           106.7609         estimate D2E/DX2                !
 ! A52   A(21,16,40)           106.3671         estimate D2E/DX2                !
 ! A53   A(16,17,18)           112.8086         estimate D2E/DX2                !
 ! A54   A(16,17,41)           111.0758         estimate D2E/DX2                !
 ! A55   A(16,17,42)           110.6879         estimate D2E/DX2                !
 ! A56   A(18,17,41)           108.2387         estimate D2E/DX2                !
 ! A57   A(18,17,42)           106.2979         estimate D2E/DX2                !
 ! A58   A(41,17,42)           107.4729         estimate D2E/DX2                !
 ! A59   A(17,18,19)           110.7341         estimate D2E/DX2                !
 ! A60   A(17,18,43)           109.9801         estimate D2E/DX2                !
 ! A61   A(17,18,44)           109.4365         estimate D2E/DX2                !
 ! A62   A(19,18,43)           110.0542         estimate D2E/DX2                !
 ! A63   A(19,18,44)           109.5528         estimate D2E/DX2                !
 ! A64   A(43,18,44)           107.0057         estimate D2E/DX2                !
 ! A65   A(18,19,20)           110.6054         estimate D2E/DX2                !
 ! A66   A(18,19,45)           109.8443         estimate D2E/DX2                !
 ! A67   A(18,19,46)           109.6429         estimate D2E/DX2                !
 ! A68   A(20,19,45)           110.0995         estimate D2E/DX2                !
 ! A69   A(20,19,46)           109.6055         estimate D2E/DX2                !
 ! A70   A(45,19,46)           106.9716         estimate D2E/DX2                !
 ! A71   A(19,20,21)           111.6787         estimate D2E/DX2                !
 ! A72   A(19,20,47)           109.2647         estimate D2E/DX2                !
 ! A73   A(19,20,48)           109.5991         estimate D2E/DX2                !
 ! A74   A(21,20,47)           109.6088         estimate D2E/DX2                !
 ! A75   A(21,20,48)           109.6366         estimate D2E/DX2                !
 ! A76   A(47,20,48)           106.935          estimate D2E/DX2                !
 ! A77   A(16,21,20)           112.3952         estimate D2E/DX2                !
 ! A78   A(16,21,49)           110.1694         estimate D2E/DX2                !
 ! A79   A(16,21,50)           110.4427         estimate D2E/DX2                !
 ! A80   A(20,21,49)           108.3475         estimate D2E/DX2                !
 ! A81   A(20,21,50)           108.7413         estimate D2E/DX2                !
 ! A82   A(49,21,50)           106.5468         estimate D2E/DX2                !
 ! A83   A(15,22,23)           110.9039         estimate D2E/DX2                !
 ! A84   A(15,22,27)           111.287          estimate D2E/DX2                !
 ! A85   A(15,22,51)           109.4553         estimate D2E/DX2                !
 ! A86   A(23,22,27)           109.3959         estimate D2E/DX2                !
 ! A87   A(23,22,51)           107.9307         estimate D2E/DX2                !
 ! A88   A(27,22,51)           107.7568         estimate D2E/DX2                !
 ! A89   A(22,23,24)           112.1316         estimate D2E/DX2                !
 ! A90   A(22,23,52)           110.7246         estimate D2E/DX2                !
 ! A91   A(22,23,53)           110.2487         estimate D2E/DX2                !
 ! A92   A(24,23,52)           108.175          estimate D2E/DX2                !
 ! A93   A(24,23,53)           108.7732         estimate D2E/DX2                !
 ! A94   A(52,23,53)           106.6009         estimate D2E/DX2                !
 ! A95   A(23,24,25)           112.095          estimate D2E/DX2                !
 ! A96   A(23,24,54)           109.3314         estimate D2E/DX2                !
 ! A97   A(23,24,55)           109.5866         estimate D2E/DX2                !
 ! A98   A(25,24,54)           109.3288         estimate D2E/DX2                !
 ! A99   A(25,24,55)           109.4761         estimate D2E/DX2                !
 ! A100  A(54,24,55)           106.8833         estimate D2E/DX2                !
 ! A101  A(24,25,26)           111.1666         estimate D2E/DX2                !
 ! A102  A(24,25,56)           109.8947         estimate D2E/DX2                !
 ! A103  A(24,25,57)           109.5271         estimate D2E/DX2                !
 ! A104  A(26,25,56)           109.7721         estimate D2E/DX2                !
 ! A105  A(26,25,57)           109.4518         estimate D2E/DX2                !
 ! A106  A(56,25,57)           106.9323         estimate D2E/DX2                !
 ! A107  A(25,26,27)           111.0196         estimate D2E/DX2                !
 ! A108  A(25,26,58)           109.7961         estimate D2E/DX2                !
 ! A109  A(25,26,59)           109.6756         estimate D2E/DX2                !
 ! A110  A(27,26,58)           109.6766         estimate D2E/DX2                !
 ! A111  A(27,26,59)           109.5868         estimate D2E/DX2                !
 ! A112  A(58,26,59)           106.9996         estimate D2E/DX2                !
 ! A113  A(22,27,26)           111.9483         estimate D2E/DX2                !
 ! A114  A(22,27,60)           111.1019         estimate D2E/DX2                !
 ! A115  A(22,27,61)           109.9835         estimate D2E/DX2                !
 ! A116  A(26,27,60)           108.321          estimate D2E/DX2                !
 ! A117  A(26,27,61)           108.2314         estimate D2E/DX2                !
 ! A118  A(60,27,61)           107.0868         estimate D2E/DX2                !
 ! A119  A(7,28,29)            111.8281         estimate D2E/DX2                !
 ! A120  A(28,29,62)           108.0102         estimate D2E/DX2                !
 ! A121  A(28,29,63)           112.4735         estimate D2E/DX2                !
 ! A122  A(28,29,64)           110.4451         estimate D2E/DX2                !
 ! A123  A(62,29,63)           107.4919         estimate D2E/DX2                !
 ! A124  A(62,29,64)           108.0765         estimate D2E/DX2                !
 ! A125  A(63,29,64)           110.178          estimate D2E/DX2                !
 ! D1    D(30,1,2,3)          -160.8401         estimate D2E/DX2                !
 ! D2    D(31,1,2,3)            81.7404         estimate D2E/DX2                !
 ! D3    D(32,1,2,3)           -42.4758         estimate D2E/DX2                !
 ! D4    D(1,2,3,4)            -50.2448         estimate D2E/DX2                !
 ! D5    D(1,2,3,8)            130.1152         estimate D2E/DX2                !
 ! D6    D(2,3,4,5)            176.4282         estimate D2E/DX2                !
 ! D7    D(2,3,4,33)            -3.8207         estimate D2E/DX2                !
 ! D8    D(8,3,4,5)             -3.9444         estimate D2E/DX2                !
 ! D9    D(8,3,4,33)           175.8067         estimate D2E/DX2                !
 ! D10   D(2,3,8,7)           -173.2425         estimate D2E/DX2                !
 ! D11   D(2,3,8,9)             -0.8559         estimate D2E/DX2                !
 ! D12   D(4,3,8,7)              7.124          estimate D2E/DX2                !
 ! D13   D(4,3,8,9)            179.5105         estimate D2E/DX2                !
 ! D14   D(3,4,5,6)             -0.2545         estimate D2E/DX2                !
 ! D15   D(3,4,5,34)          -179.4709         estimate D2E/DX2                !
 ! D16   D(33,4,5,6)           179.9903         estimate D2E/DX2                !
 ! D17   D(33,4,5,34)            0.7738         estimate D2E/DX2                !
 ! D18   D(4,5,6,7)              0.8449         estimate D2E/DX2                !
 ! D19   D(4,5,6,35)          -179.0101         estimate D2E/DX2                !
 ! D20   D(34,5,6,7)          -179.9388         estimate D2E/DX2                !
 ! D21   D(34,5,6,35)            0.2062         estimate D2E/DX2                !
 ! D22   D(5,6,7,8)              2.7237         estimate D2E/DX2                !
 ! D23   D(5,6,7,28)          -177.4309         estimate D2E/DX2                !
 ! D24   D(35,6,7,8)          -177.4232         estimate D2E/DX2                !
 ! D25   D(35,6,7,28)            2.4223         estimate D2E/DX2                !
 ! D26   D(6,7,8,3)             -6.5281         estimate D2E/DX2                !
 ! D27   D(6,7,8,9)           -178.8874         estimate D2E/DX2                !
 ! D28   D(28,7,8,3)           173.6275         estimate D2E/DX2                !
 ! D29   D(28,7,8,9)             1.2683         estimate D2E/DX2                !
 ! D30   D(6,7,28,29)           57.6219         estimate D2E/DX2                !
 ! D31   D(8,7,28,29)         -122.529          estimate D2E/DX2                !
 ! D32   D(3,8,9,10)          -115.4146         estimate D2E/DX2                !
 ! D33   D(3,8,9,14)            61.9243         estimate D2E/DX2                !
 ! D34   D(7,8,9,10)            56.5194         estimate D2E/DX2                !
 ! D35   D(7,8,9,14)          -126.1417         estimate D2E/DX2                !
 ! D36   D(8,9,10,11)          177.9705         estimate D2E/DX2                !
 ! D37   D(8,9,10,36)           -1.839          estimate D2E/DX2                !
 ! D38   D(14,9,10,11)           0.4101         estimate D2E/DX2                !
 ! D39   D(14,9,10,36)        -179.3994         estimate D2E/DX2                !
 ! D40   D(8,9,14,13)         -174.0236         estimate D2E/DX2                !
 ! D41   D(8,9,14,15)            4.6758         estimate D2E/DX2                !
 ! D42   D(10,9,14,13)           3.2849         estimate D2E/DX2                !
 ! D43   D(10,9,14,15)        -178.0158         estimate D2E/DX2                !
 ! D44   D(9,10,11,12)          -2.8677         estimate D2E/DX2                !
 ! D45   D(9,10,11,37)         178.2148         estimate D2E/DX2                !
 ! D46   D(36,10,11,12)        176.9453         estimate D2E/DX2                !
 ! D47   D(36,10,11,37)         -1.9722         estimate D2E/DX2                !
 ! D48   D(10,11,12,13)          1.468          estimate D2E/DX2                !
 ! D49   D(10,11,12,38)       -178.4156         estimate D2E/DX2                !
 ! D50   D(37,11,12,13)       -179.6183         estimate D2E/DX2                !
 ! D51   D(37,11,12,38)          0.498          estimate D2E/DX2                !
 ! D52   D(11,12,13,14)          2.4002         estimate D2E/DX2                !
 ! D53   D(11,12,13,39)       -177.7837         estimate D2E/DX2                !
 ! D54   D(38,12,13,14)       -177.7158         estimate D2E/DX2                !
 ! D55   D(38,12,13,39)          2.1003         estimate D2E/DX2                !
 ! D56   D(12,13,14,9)          -4.7898         estimate D2E/DX2                !
 ! D57   D(12,13,14,15)        176.4375         estimate D2E/DX2                !
 ! D58   D(39,13,14,9)         175.4027         estimate D2E/DX2                !
 ! D59   D(39,13,14,15)         -3.37           estimate D2E/DX2                !
 ! D60   D(9,14,15,16)         118.4214         estimate D2E/DX2                !
 ! D61   D(9,14,15,22)        -132.7974         estimate D2E/DX2                !
 ! D62   D(13,14,15,16)        -62.8832         estimate D2E/DX2                !
 ! D63   D(13,14,15,22)         45.898          estimate D2E/DX2                !
 ! D64   D(14,15,16,17)         57.7994         estimate D2E/DX2                !
 ! D65   D(14,15,16,21)        -70.363          estimate D2E/DX2                !
 ! D66   D(14,15,16,40)        175.5818         estimate D2E/DX2                !
 ! D67   D(22,15,16,17)        -51.7986         estimate D2E/DX2                !
 ! D68   D(22,15,16,21)       -179.961          estimate D2E/DX2                !
 ! D69   D(22,15,16,40)         65.9837         estimate D2E/DX2                !
 ! D70   D(14,15,22,23)       -178.8286         estimate D2E/DX2                !
 ! D71   D(14,15,22,27)         59.1434         estimate D2E/DX2                !
 ! D72   D(14,15,22,51)        -59.8533         estimate D2E/DX2                !
 ! D73   D(16,15,22,23)        -67.6922         estimate D2E/DX2                !
 ! D74   D(16,15,22,27)        170.2798         estimate D2E/DX2                !
 ! D75   D(16,15,22,51)         51.283          estimate D2E/DX2                !
 ! D76   D(15,16,17,18)       -179.7232         estimate D2E/DX2                !
 ! D77   D(15,16,17,41)         58.5457         estimate D2E/DX2                !
 ! D78   D(15,16,17,42)        -60.7614         estimate D2E/DX2                !
 ! D79   D(21,16,17,18)        -51.8797         estimate D2E/DX2                !
 ! D80   D(21,16,17,41)       -173.6109         estimate D2E/DX2                !
 ! D81   D(21,16,17,42)         67.0821         estimate D2E/DX2                !
 ! D82   D(40,16,17,18)         63.6684         estimate D2E/DX2                !
 ! D83   D(40,16,17,41)        -58.0628         estimate D2E/DX2                !
 ! D84   D(40,16,17,42)       -177.3699         estimate D2E/DX2                !
 ! D85   D(15,16,21,20)       -178.0248         estimate D2E/DX2                !
 ! D86   D(15,16,21,49)        -57.0899         estimate D2E/DX2                !
 ! D87   D(15,16,21,50)         60.3434         estimate D2E/DX2                !
 ! D88   D(17,16,21,20)         50.7042         estimate D2E/DX2                !
 ! D89   D(17,16,21,49)        171.6391         estimate D2E/DX2                !
 ! D90   D(17,16,21,50)        -70.9276         estimate D2E/DX2                !
 ! D91   D(40,16,21,20)        -65.0876         estimate D2E/DX2                !
 ! D92   D(40,16,21,49)         55.8473         estimate D2E/DX2                !
 ! D93   D(40,16,21,50)        173.2806         estimate D2E/DX2                !
 ! D94   D(16,17,18,19)         55.6327         estimate D2E/DX2                !
 ! D95   D(16,17,18,43)        -66.2221         estimate D2E/DX2                !
 ! D96   D(16,17,18,44)        176.5004         estimate D2E/DX2                !
 ! D97   D(41,17,18,19)        178.9533         estimate D2E/DX2                !
 ! D98   D(41,17,18,43)         57.0984         estimate D2E/DX2                !
 ! D99   D(41,17,18,44)        -60.1791         estimate D2E/DX2                !
 ! D100  D(42,17,18,19)        -65.8504         estimate D2E/DX2                !
 ! D101  D(42,17,18,43)        172.2947         estimate D2E/DX2                !
 ! D102  D(42,17,18,44)         55.0173         estimate D2E/DX2                !
 ! D103  D(17,18,19,20)        -57.4064         estimate D2E/DX2                !
 ! D104  D(17,18,19,45)       -179.1424         estimate D2E/DX2                !
 ! D105  D(17,18,19,46)         63.5793         estimate D2E/DX2                !
 ! D106  D(43,18,19,20)         64.405          estimate D2E/DX2                !
 ! D107  D(43,18,19,45)        -57.331          estimate D2E/DX2                !
 ! D108  D(43,18,19,46)       -174.6094         estimate D2E/DX2                !
 ! D109  D(44,18,19,20)       -178.2051         estimate D2E/DX2                !
 ! D110  D(44,18,19,45)         60.0589         estimate D2E/DX2                !
 ! D111  D(44,18,19,46)        -57.2194         estimate D2E/DX2                !
 ! D112  D(18,19,20,21)         56.9794         estimate D2E/DX2                !
 ! D113  D(18,19,20,47)        -64.4532         estimate D2E/DX2                !
 ! D114  D(18,19,20,48)        178.6755         estimate D2E/DX2                !
 ! D115  D(45,19,20,21)        178.565          estimate D2E/DX2                !
 ! D116  D(45,19,20,47)         57.1324         estimate D2E/DX2                !
 ! D117  D(45,19,20,48)        -59.7389         estimate D2E/DX2                !
 ! D118  D(46,19,20,21)        -64.0285         estimate D2E/DX2                !
 ! D119  D(46,19,20,47)        174.5389         estimate D2E/DX2                !
 ! D120  D(46,19,20,48)         57.6676         estimate D2E/DX2                !
 ! D121  D(19,20,21,16)        -53.9664         estimate D2E/DX2                !
 ! D122  D(19,20,21,49)       -175.9419         estimate D2E/DX2                !
 ! D123  D(19,20,21,50)         68.6304         estimate D2E/DX2                !
 ! D124  D(47,20,21,16)         67.2668         estimate D2E/DX2                !
 ! D125  D(47,20,21,49)        -54.7088         estimate D2E/DX2                !
 ! D126  D(47,20,21,50)       -170.1364         estimate D2E/DX2                !
 ! D127  D(48,20,21,16)       -175.6409         estimate D2E/DX2                !
 ! D128  D(48,20,21,49)         62.3836         estimate D2E/DX2                !
 ! D129  D(48,20,21,50)        -53.0441         estimate D2E/DX2                !
 ! D130  D(15,22,23,24)       -177.2497         estimate D2E/DX2                !
 ! D131  D(15,22,23,52)         61.826          estimate D2E/DX2                !
 ! D132  D(15,22,23,53)        -55.895          estimate D2E/DX2                !
 ! D133  D(27,22,23,24)        -54.1244         estimate D2E/DX2                !
 ! D134  D(27,22,23,52)       -175.0487         estimate D2E/DX2                !
 ! D135  D(27,22,23,53)         67.2304         estimate D2E/DX2                !
 ! D136  D(51,22,23,24)         62.8607         estimate D2E/DX2                !
 ! D137  D(51,22,23,52)        -58.0636         estimate D2E/DX2                !
 ! D138  D(51,22,23,53)       -175.7845         estimate D2E/DX2                !
 ! D139  D(15,22,27,26)        178.8609         estimate D2E/DX2                !
 ! D140  D(15,22,27,60)        -59.889          estimate D2E/DX2                !
 ! D141  D(15,22,27,61)         58.4995         estimate D2E/DX2                !
 ! D142  D(23,22,27,26)         55.963          estimate D2E/DX2                !
 ! D143  D(23,22,27,60)        177.2131         estimate D2E/DX2                !
 ! D144  D(23,22,27,61)        -64.3984         estimate D2E/DX2                !
 ! D145  D(51,22,27,26)        -61.1318         estimate D2E/DX2                !
 ! D146  D(51,22,27,60)         60.1183         estimate D2E/DX2                !
 ! D147  D(51,22,27,61)        178.5069         estimate D2E/DX2                !
 ! D148  D(22,23,24,25)         54.1985         estimate D2E/DX2                !
 ! D149  D(22,23,24,54)        -67.1995         estimate D2E/DX2                !
 ! D150  D(22,23,24,55)        175.9602         estimate D2E/DX2                !
 ! D151  D(52,23,24,25)        176.5833         estimate D2E/DX2                !
 ! D152  D(52,23,24,54)         55.1853         estimate D2E/DX2                !
 ! D153  D(52,23,24,55)        -61.6549         estimate D2E/DX2                !
 ! D154  D(53,23,24,25)        -68.0002         estimate D2E/DX2                !
 ! D155  D(53,23,24,54)        170.6017         estimate D2E/DX2                !
 ! D156  D(53,23,24,55)         53.7615         estimate D2E/DX2                !
 ! D157  D(23,24,25,26)        -54.1691         estimate D2E/DX2                !
 ! D158  D(23,24,25,56)       -175.8981         estimate D2E/DX2                !
 ! D159  D(23,24,25,57)         66.91           estimate D2E/DX2                !
 ! D160  D(54,24,25,26)         67.2304         estimate D2E/DX2                !
 ! D161  D(54,24,25,56)        -54.4986         estimate D2E/DX2                !
 ! D162  D(54,24,25,57)       -171.6904         estimate D2E/DX2                !
 ! D163  D(55,24,25,26)       -175.9941         estimate D2E/DX2                !
 ! D164  D(55,24,25,56)         62.2769         estimate D2E/DX2                !
 ! D165  D(55,24,25,57)        -54.9149         estimate D2E/DX2                !
 ! D166  D(24,25,26,27)         55.493          estimate D2E/DX2                !
 ! D167  D(24,25,26,58)        -65.952          estimate D2E/DX2                !
 ! D168  D(24,25,26,59)        176.7447         estimate D2E/DX2                !
 ! D169  D(56,25,26,27)        177.2933         estimate D2E/DX2                !
 ! D170  D(56,25,26,58)         55.8483         estimate D2E/DX2                !
 ! D171  D(56,25,26,59)        -61.4549         estimate D2E/DX2                !
 ! D172  D(57,25,26,27)        -65.6303         estimate D2E/DX2                !
 ! D173  D(57,25,26,58)        172.9247         estimate D2E/DX2                !
 ! D174  D(57,25,26,59)         55.6214         estimate D2E/DX2                !
 ! D175  D(25,26,27,22)        -57.3733         estimate D2E/DX2                !
 ! D176  D(25,26,27,60)        179.7848         estimate D2E/DX2                !
 ! D177  D(25,26,27,61)         64.0036         estimate D2E/DX2                !
 ! D178  D(58,26,27,22)         64.1418         estimate D2E/DX2                !
 ! D179  D(58,26,27,60)        -58.7002         estimate D2E/DX2                !
 ! D180  D(58,26,27,61)       -174.4814         estimate D2E/DX2                !
 ! D181  D(59,26,27,22)       -178.6772         estimate D2E/DX2                !
 ! D182  D(59,26,27,60)         58.4809         estimate D2E/DX2                !
 ! D183  D(59,26,27,61)        -57.3003         estimate D2E/DX2                !
 ! D184  D(7,28,29,62)         153.5178         estimate D2E/DX2                !
 ! D185  D(7,28,29,63)          35.0591         estimate D2E/DX2                !
 ! D186  D(7,28,29,64)         -88.4862         estimate D2E/DX2                !
 --------------------------------------------------------------------------------
 Trust Radius=3.00D-01 FncErr=1.00D-07 GrdErr=1.00D-06
 Number of steps in this run= 384 maximum allowed number of steps= 384.
 GradGradGradGradGradGradGradGradGradGradGradGradGradGradGradGradGradGrad

 Leave Link  103 at Fri Oct  1 18:35:45 2021, MaxMem= 2684354560 cpu:       0.0
 (Enter /sw/target/amd/app/gaussian/Gaussian09RevA.02_gcc-4.9.2/g09/l202.exe)
 Stoichiometry    C26H35O2P
 Framework group  C1[X(C26H35O2P)]
 Deg. of freedom   186
 Full point group                 C1      NOp   1
 Largest Abelian subgroup         C1      NOp   1
 Largest concise Abelian subgroup C1      NOp   1
                         Standard orientation:                         
 ---------------------------------------------------------------------
 Center     Atomic      Atomic             Coordinates (Angstroms)
 Number     Number       Type             X           Y           Z
 ---------------------------------------------------------------------
      1          6           0       -1.599045   -3.799143    0.091648
      2          8           0       -1.166759   -2.479770   -0.219719
      3          6           0       -2.155548   -1.671400   -0.722557
      4          6           0       -2.954871   -2.118902   -1.788440
      5          6           0       -4.005760   -1.338471   -2.255398
      6          6           0       -4.264553   -0.113290   -1.656961
      7          6           0       -3.459490    0.343107   -0.598801
      8          6           0       -2.333467   -0.392195   -0.146019
      9          6           0       -1.486914    0.078522    0.997672
     10          6           0       -2.156817    0.311046    2.225901
     11          6           0       -1.490746    0.710591    3.382953
     12          6           0       -0.115714    0.834134    3.364293
     13          6           0        0.578456    0.586099    2.177361
     14          6           0       -0.070886    0.258446    0.968752
     15         15           0        0.959765    0.053080   -0.550041
     16          6           0        1.755137    1.715335   -0.879790
     17          6           0        2.622928    2.303923    0.241878
     18          6           0        3.219889    3.662623   -0.122068
     19          6           0        2.124969    4.643846   -0.518178
     20          6           0        1.309347    4.095762   -1.682585
     21          6           0        0.699282    2.730864   -1.352822
     22          6           0        2.398793   -1.007678    0.004577
     23          6           0        3.382683   -1.251265   -1.157384
     24          6           0        4.536763   -2.172234   -0.752499
     25          6           0        4.040885   -3.489512   -0.167264
     26          6           0        3.078924   -3.250109    0.988718
     27          6           0        1.915162   -2.361263    0.557513
     28          8           0       -3.776922    1.539807    0.008458
     29          6           0       -5.107822    1.532525    0.535907
     30          1           0       -0.867519   -4.232704    0.780687
     31          1           0       -1.619052   -4.423240   -0.807240
     32          1           0       -2.574521   -3.802244    0.589975
     33          1           0       -2.759844   -3.075637   -2.262267
     34          1           0       -4.627457   -1.690569   -3.073834
     35          1           0       -5.096935    0.486238   -2.014356
     36          1           0       -3.234069    0.173554    2.285045
     37          1           0       -2.048705    0.904940    4.293414
     38          1           0        0.423655    1.119243    4.262179
     39          1           0        1.662398    0.661812    2.229038
     40          1           0        2.420656    1.539200   -1.735939
     41          1           0        3.443890    1.627177    0.500882
     42          1           0        2.030430    2.461651    1.145667
     43          1           0        3.937610    3.548698   -0.942992
     44          1           0        3.774959    4.059104    0.736518
     45          1           0        2.569669    5.607181   -0.790533
     46          1           0        1.465345    4.826609    0.339695
     47          1           0        1.953878    4.007235   -2.566055
     48          1           0        0.512676    4.803032   -1.938339
     49          1           0        0.186557    2.354645   -2.250652
     50          1           0       -0.072591    2.866008   -0.586016
     51          1           0        2.942328   -0.495314    0.804545
     52          1           0        3.808174   -0.304862   -1.510165
     53          1           0        2.857780   -1.697478   -2.012706
     54          1           0        5.167156   -1.661399   -0.014258
     55          1           0        5.168569   -2.374773   -1.624816
     56          1           0        4.891595   -4.088551    0.176422
     57          1           0        3.535634   -4.070834   -0.948638
     58          1           0        3.612116   -2.780817    1.824626
     59          1           0        2.693409   -4.209295    1.352652
     60          1           0        1.251454   -2.221452    1.417830
     61          1           0        1.341056   -2.895545   -0.208826
     62          1           0       -5.145542    2.241215    1.368842
     63          1           0       -5.399082    0.548858    0.926227
     64          1           0       -5.822202    1.863658   -0.224362
 ---------------------------------------------------------------------
 Rotational constants (GHZ):      0.1801269      0.1323251      0.1001135
 Leave Link  202 at Fri Oct  1 18:35:45 2021, MaxMem= 2684354560 cpu:       0.1
 (Enter /sw/target/amd/app/gaussian/Gaussian09RevA.02_gcc-4.9.2/g09/l301.exe)
 Standard basis: 6-31G(d) (6D, 7F)
 Ernie: Thresh=  0.10000D-02 Tol=  0.10000D-05 Strict=F.
 There are   509 symmetry adapted basis functions of A   symmetry.
 Integral buffers will be    131072 words long.
 Raffenetti 2 integral format.
 Two-electron integral symmetry is turned on.
   509 basis functions,   976 primitive gaussians,   509 cartesian basis functions
   111 alpha electrons      111 beta electrons
       nuclear repulsion energy      3125.1555819302 Hartrees.
 IExCor=  402 DFT=T Ex+Corr=B3LYP ExCW=0 ScaHFX=  0.200000
 ScaDFX=  0.800000  0.720000  1.000000  0.810000 ScalE2=  1.000000  1.000000
 IRadAn=      0 IRanWt=     -1 IRanGd=            0 ICorTp=0
 NAtoms=   64 NActive=   64 NUniq=   64 SFac= 7.50D-01 NAtFMM=   80 NAOKFM=F Big=T
 Leave Link  301 at Fri Oct  1 18:35:45 2021, MaxMem= 2684354560 cpu:       0.1
 (Enter /sw/target/amd/app/gaussian/Gaussian09RevA.02_gcc-4.9.2/g09/l302.exe)
 NPDir=0 NMtPBC=     1 NCelOv=     1 NCel=       1 NClECP=     1 NCelD=      1
         NCelK=      1 NCelE2=     1 NClLst=     1 CellRange=     0.0.
 One-electron integrals computed using PRISM.
 NBasis=   509 RedAO= T  NBF=   509
 NBsUse=   509 1.00D-06 NBFU=   509
 Precomputing XC quadrature grid using
 IXCGrd= 2 IRadAn=           0 IRanWt=          -1 IRanGd=           0 AccXCQ= 1.00D-10.
 NRdTot=    4083 NPtTot=      520284 NUsed=      549710 NTot=      549742
 NSgBfM=   502   502   502   502   502 NAtAll=    64    64.
 Leave Link  302 at Fri Oct  1 18:36:00 2021, MaxMem= 2684354560 cpu:      11.4
 (Enter /sw/target/amd/app/gaussian/Gaussian09RevA.02_gcc-4.9.2/g09/l303.exe)
 DipDrv:  MaxL=1.
 Leave Link  303 at Fri Oct  1 18:36:01 2021, MaxMem= 2684354560 cpu:       0.5
 (Enter /sw/target/amd/app/gaussian/Gaussian09RevA.02_gcc-4.9.2/g09/l401.exe)
 Harris functional with IExCor=  402 diagonalized for initial guess.
 ExpMin= 9.98D-02 ExpMax= 1.94D+04 ExpMxC= 2.91D+03 IAcc=2 IRadAn=         0 AccDes= 0.00D+00
 HarFok:  IExCor=  402 AccDes= 0.00D+00 IRadAn=         0 IDoV= 1
 ScaDFX=  1.000000  1.000000  1.000000  1.000000
 FoFCou: FMM=F IPFlag=           0 FMFlag=      100000 FMFlg1=           1
         NFxFlg=           0 DoJE=T BraDBF=F KetDBF=T FulRan=T
         Omega=  0.000000  0.000000  1.000000  0.000000  0.000000 ICntrl=     500 IOpCl=  0
         NMat0=    1 NMatS0=    1 NMatT0=    0 NMatD0=    1 NMtDS0=    0 NMtDT0=    0
         I1Cent=           4 NGrid=           0.
 Petite list used in FoFCou.
 Harris En= -1503.79897123741    
 Initial guess orbital symmetries:
       Occupied  (A) (A) (A) (A) (A) (A) (A) (A) (A) (A) (A) (A)
                 (A) (A) (A) (A) (A) (A) (A) (A) (A) (A) (A) (A)
                 (A) (A) (A) (A) (A) (A) (A) (A) (A) (A) (A) (A)
                 (A) (A) (A) (A) (A) (A) (A) (A) (A) (A) (A) (A)
                 (A) (A) (A) (A) (A) (A) (A) (A) (A) (A) (A) (A)
                 (A) (A) (A) (A) (A) (A) (A) (A) (A) (A) (A) (A)
                 (A) (A) (A) (A) (A) (A) (A) (A) (A) (A) (A) (A)
                 (A) (A) (A) (A) (A) (A) (A) (A) (A) (A) (A) (A)
                 (A) (A) (A) (A) (A) (A) (A) (A) (A) (A) (A) (A)
                 (A) (A) (A)
       Virtual   (A) (A) (A) (A) (A) (A) (A) (A) (A) (A) (A) (A)
                 (A) (A) (A) (A) (A) (A) (A) (A) (A) (A) (A) (A)
                 (A) (A) (A) (A) (A) (A) (A) (A) (A) (A) (A) (A)
                 (A) (A) (A) (A) (A) (A) (A) (A) (A) (A) (A) (A)
                 (A) (A) (A) (A) (A) (A) (A) (A) (A) (A) (A) (A)
                 (A) (A) (A) (A) (A) (A) (A) (A) (A) (A) (A) (A)
                 (A) (A) (A) (A) (A) (A) (A) (A) (A) (A) (A) (A)
                 (A) (A) (A) (A) (A) (A) (A) (A) (A) (A) (A) (A)
                 (A) (A) (A) (A) (A) (A) (A) (A) (A) (A) (A) (A)
                 (A) (A) (A) (A) (A) (A) (A) (A) (A) (A) (A) (A)
                 (A) (A) (A) (A) (A) (A) (A) (A) (A) (A) (A) (A)
                 (A) (A) (A) (A) (A) (A) (A) (A) (A) (A) (A) (A)
                 (A) (A) (A) (A) (A) (A) (A) (A) (A) (A) (A) (A)
                 (A) (A) (A) (A) (A) (A) (A) (A) (A) (A) (A) (A)
                 (A) (A) (A) (A) (A) (A) (A) (A) (A) (A) (A) (A)
                 (A) (A) (A) (A) (A) (A) (A) (A) (A) (A) (A) (A)
                 (A) (A) (A) (A) (A) (A) (A) (A) (A) (A) (A) (A)
                 (A) (A) (A) (A) (A) (A) (A) (A) (A) (A) (A) (A)
                 (A) (A) (A) (A) (A) (A) (A) (A) (A) (A) (A) (A)
                 (A) (A) (A) (A) (A) (A) (A) (A) (A) (A) (A) (A)
                 (A) (A) (A) (A) (A) (A) (A) (A) (A) (A) (A) (A)
                 (A) (A) (A) (A) (A) (A) (A) (A) (A) (A) (A) (A)
                 (A) (A) (A) (A) (A) (A) (A) (A) (A) (A) (A) (A)
                 (A) (A) (A) (A) (A) (A) (A) (A) (A) (A) (A) (A)
                 (A) (A) (A) (A) (A) (A) (A) (A) (A) (A) (A) (A)
                 (A) (A) (A) (A) (A) (A) (A) (A) (A) (A) (A) (A)
                 (A) (A) (A) (A) (A) (A) (A) (A) (A) (A) (A) (A)
                 (A) (A) (A) (A) (A) (A) (A) (A) (A) (A) (A) (A)
                 (A) (A) (A) (A) (A) (A) (A) (A) (A) (A) (A) (A)
                 (A) (A) (A) (A) (A) (A) (A) (A) (A) (A) (A) (A)
                 (A) (A) (A) (A) (A) (A) (A) (A) (A) (A) (A) (A)
                 (A) (A) (A) (A) (A) (A) (A) (A) (A) (A) (A) (A)
                 (A) (A) (A) (A) (A) (A) (A) (A) (A) (A) (A) (A)
                 (A) (A)
 The electronic state of the initial guess is 1-A.
 Leave Link  401 at Fri Oct  1 18:37:12 2021, MaxMem= 2684354560 cpu:      91.6
 (Enter /sw/target/amd/app/gaussian/Gaussian09RevA.02_gcc-4.9.2/g09/l502.exe)
 Closed shell SCF:
 Requested convergence on RMS density matrix=1.00D-08 within  64 cycles.
 Requested convergence on MAX density matrix=1.00D-06.
 Requested convergence on             energy=1.00D-06.
 No special actions if energy rises.
 Using DIIS extrapolation, IDIIS=  1040.
 Integral symmetry usage will be decided dynamically.
       549121 words used for storage of precomputed grid.
 IEnd=     1340870 IEndB=     1340870 NGot=  2684354560 MDV=  2683277505
 LenX=  2683277505 LenY=  2683017915
 Fock matrices will be formed incrementally for  20 cycles.
 Integral accuracy reduced to 1.0D-05 until final iterations.

 Cycle   1  Pass 0  IDiag  1:
 FoFCou: FMM=T IPFlag=           0 FMFlag=      100000 FMFlg1=           1
         NFxFlg=           0 DoJE=F BraDBF=F KetDBF=F FulRan=T
         Omega=  0.000000  0.000000  1.000000  0.000000  0.000000 ICntrl=       0 IOpCl=  0
         NMat0=    1 NMatS0=    1 NMatT0=    0 NMatD0=    1 NMtDS0=    0 NMtDT0=    0
         I1Cent=           0 NGrid=           0.
 Symmetry not used in FoFCou.
 FMM levels:  10  Number of levels for PrismC:   9
 E= -1502.78241701472    
 DIIS: error= 2.34D-02 at cycle   1 NSaved=   1.
 NSaved= 1 IEnMin= 1 EnMin= -1502.78241701472     IErMin= 1 ErrMin= 2.34D-02
 ErrMax= 2.34D-02 EMaxC= 1.00D-01 BMatC= 7.69D-01 BMatP= 7.69D-01
 IDIUse=3 WtCom= 7.66D-01 WtEn= 2.34D-01
 Coeff-Com:  0.100D+01
 Coeff-En:   0.100D+01
 Coeff:      0.100D+01
 Gap=     0.279 Goal=   None    Shift=    0.000
 GapD=    0.279 DampG=1.000 DampE=0.500 DampFc=0.5000 IDamp=-1.
 Damping current iteration by 5.00D-01
 RMSDP=4.30D-03 MaxDP=1.64D-01              OVMax= 2.33D-01

 Cycle   2  Pass 0  IDiag  1:
 RMSU=  1.50D-03    CP:  9.74D-01
 E= -1503.12528881717     Delta-E=       -0.342871802458 Rises=F Damp=T
 DIIS: error= 6.84D-03 at cycle   2 NSaved=   2.
 NSaved= 2 IEnMin= 2 EnMin= -1503.12528881717     IErMin= 2 ErrMin= 6.84D-03
 ErrMax= 6.84D-03 EMaxC= 1.00D-01 BMatC= 5.70D-02 BMatP= 7.69D-01
 IDIUse=3 WtCom= 9.32D-01 WtEn= 6.84D-02
 Coeff-Com:  0.104D+00 0.896D+00
 Coeff-En:   0.176D+00 0.824D+00
 Coeff:      0.109D+00 0.891D+00
 Gap=     0.221 Goal=   None    Shift=    0.000
 RMSDP=1.14D-03 MaxDP=9.58D-02 DE=-3.43D-01 OVMax= 1.59D-01

 Cycle   3  Pass 0  IDiag  1:
 RMSU=  7.62D-04    CP:  9.71D-01  8.27D-01
 E= -1503.57523811335     Delta-E=       -0.449949296172 Rises=F Damp=F
 DIIS: error= 6.39D-03 at cycle   3 NSaved=   3.
 NSaved= 3 IEnMin= 3 EnMin= -1503.57523811335     IErMin= 3 ErrMin= 6.39D-03
 ErrMax= 6.39D-03 EMaxC= 1.00D-01 BMatC= 3.95D-02 BMatP= 5.70D-02
 IDIUse=3 WtCom= 9.36D-01 WtEn= 6.39D-02
 Coeff-Com:  0.843D-02 0.445D+00 0.547D+00
 Coeff-En:   0.000D+00 0.000D+00 0.100D+01
 Coeff:      0.790D-02 0.416D+00 0.576D+00
 Gap=     0.173 Goal=   None    Shift=    0.000
 RMSDP=8.19D-04 MaxDP=3.31D-02 DE=-4.50D-01 OVMax= 9.13D-02

 Cycle   4  Pass 0  IDiag  1:
 RMSU=  3.99D-04    CP:  9.71D-01  8.93D-01  4.64D-01
 E= -1503.59717251482     Delta-E=       -0.021934401473 Rises=F Damp=F
 DIIS: error= 5.61D-03 at cycle   4 NSaved=   4.
 NSaved= 4 IEnMin= 4 EnMin= -1503.59717251482     IErMin= 4 ErrMin= 5.61D-03
 ErrMax= 5.61D-03 EMaxC= 1.00D-01 BMatC= 1.92D-02 BMatP= 3.95D-02
 IDIUse=3 WtCom= 9.44D-01 WtEn= 5.61D-02
 Coeff-Com: -0.668D-02 0.147D+00 0.409D+00 0.450D+00
 Coeff-En:   0.000D+00 0.000D+00 0.365D+00 0.635D+00
 Coeff:     -0.631D-02 0.139D+00 0.406D+00 0.461D+00
 Gap=     0.173 Goal=   None    Shift=    0.000
 RMSDP=3.92D-04 MaxDP=1.93D-02 DE=-2.19D-02 OVMax= 5.08D-02

 Cycle   5  Pass 0  IDiag  1:
 RMSU=  1.13D-04    CP:  9.71D-01  8.85D-01  6.32D-01  4.52D-01
 E= -1503.61827438916     Delta-E=       -0.021101874338 Rises=F Damp=F
 DIIS: error= 1.02D-03 at cycle   5 NSaved=   5.
 NSaved= 5 IEnMin= 5 EnMin= -1503.61827438916     IErMin= 5 ErrMin= 1.02D-03
 ErrMax= 1.02D-03 EMaxC= 1.00D-01 BMatC= 1.10D-03 BMatP= 1.92D-02
 IDIUse=3 WtCom= 9.90D-01 WtEn= 1.02D-02
 Coeff-Com: -0.349D-02 0.220D-01 0.152D+00 0.257D+00 0.573D+00
 Coeff-En:   0.000D+00 0.000D+00 0.000D+00 0.000D+00 0.100D+01
 Coeff:     -0.346D-02 0.218D-01 0.150D+00 0.255D+00 0.577D+00
 Gap=     0.172 Goal=   None    Shift=    0.000
 RMSDP=8.49D-05 MaxDP=5.46D-03 DE=-2.11D-02 OVMax= 9.29D-03

 Cycle   6  Pass 0  IDiag  1:
 RMSU=  3.01D-05    CP:  9.71D-01  8.84D-01  6.43D-01  5.11D-01  5.96D-01
 E= -1503.61937535754     Delta-E=       -0.001100968387 Rises=F Damp=F
 DIIS: error= 1.86D-04 at cycle   6 NSaved=   6.
 NSaved= 6 IEnMin= 6 EnMin= -1503.61937535754     IErMin= 6 ErrMin= 1.86D-04
 ErrMax= 1.86D-04 EMaxC= 1.00D-01 BMatC= 5.49D-05 BMatP= 1.10D-03
 IDIUse=3 WtCom= 9.98D-01 WtEn= 1.86D-03
 Coeff-Com: -0.110D-02 0.128D-02 0.441D-01 0.910D-01 0.278D+00 0.587D+00
 Coeff-En:   0.000D+00 0.000D+00 0.000D+00 0.000D+00 0.000D+00 0.100D+01
 Coeff:     -0.110D-02 0.128D-02 0.440D-01 0.908D-01 0.277D+00 0.588D+00
 Gap=     0.172 Goal=   None    Shift=    0.000
 RMSDP=2.10D-05 MaxDP=1.07D-03 DE=-1.10D-03 OVMax= 1.92D-03

 Cycle   7  Pass 0  IDiag  1:
 RMSU=  7.79D-06    CP:  9.71D-01  8.84D-01  6.42D-01  5.20D-01  6.39D-01
                    CP:  6.33D-01
 E= -1503.61942639802     Delta-E=       -0.000051040472 Rises=F Damp=F
 DIIS: error= 6.98D-05 at cycle   7 NSaved=   7.
 NSaved= 7 IEnMin= 7 EnMin= -1503.61942639802     IErMin= 7 ErrMin= 6.98D-05
 ErrMax= 6.98D-05 EMaxC= 1.00D-01 BMatC= 5.76D-06 BMatP= 5.49D-05
 IDIUse=1 WtCom= 1.00D+00 WtEn= 0.00D+00
 Coeff-Com: -0.369D-03-0.564D-03 0.163D-01 0.365D-01 0.125D+00 0.334D+00
 Coeff-Com:  0.489D+00
 Coeff:     -0.369D-03-0.564D-03 0.163D-01 0.365D-01 0.125D+00 0.334D+00
 Coeff:      0.489D+00
 Gap=     0.172 Goal=   None    Shift=    0.000
 RMSDP=6.70D-06 MaxDP=3.87D-04 DE=-5.10D-05 OVMax= 1.00D-03

 Initial convergence to 1.0D-05 achieved.  Increase integral accuracy.
 Cycle   8  Pass 1  IDiag  1:
 E= -1503.61984432408     Delta-E=       -0.000417926064 Rises=F Damp=F
 DIIS: error= 6.98D-05 at cycle   1 NSaved=   1.
 NSaved= 1 IEnMin= 1 EnMin= -1503.61984432408     IErMin= 1 ErrMin= 6.98D-05
 ErrMax= 6.98D-05 EMaxC= 1.00D-01 BMatC= 2.83D-06 BMatP= 2.83D-06
 IDIUse=1 WtCom= 1.00D+00 WtEn= 0.00D+00
 Coeff-Com:  0.100D+01
 Coeff:      0.100D+01
 Gap=     0.172 Goal=   None    Shift=    0.000
 RMSDP=6.70D-06 MaxDP=3.87D-04 DE=-4.18D-04 OVMax= 7.41D-04

 Cycle   9  Pass 1  IDiag  1:
 RMSU=  2.15D-05    CP:  1.00D+00
 E= -1503.61984549481     Delta-E=       -0.000001170734 Rises=F Damp=F
 DIIS: error= 5.23D-05 at cycle   2 NSaved=   2.
 NSaved= 2 IEnMin= 2 EnMin= -1503.61984549481     IErMin= 2 ErrMin= 5.23D-05
 ErrMax= 5.23D-05 EMaxC= 1.00D-01 BMatC= 1.98D-06 BMatP= 2.83D-06
 IDIUse=1 WtCom= 1.00D+00 WtEn= 0.00D+00
 Coeff-Com:  0.436D+00 0.564D+00
 Coeff:      0.436D+00 0.564D+00
 Gap=     0.172 Goal=   None    Shift=    0.000
 RMSDP=5.80D-06 MaxDP=3.34D-04 DE=-1.17D-06 OVMax= 9.38D-04

 Cycle  10  Pass 1  IDiag  1:
 RMSU=  4.08D-06    CP:  1.00D+00  9.80D-01
 E= -1503.61984647684     Delta-E=       -0.000000982023 Rises=F Damp=F
 DIIS: error= 4.01D-05 at cycle   3 NSaved=   3.
 NSaved= 3 IEnMin= 3 EnMin= -1503.61984647684     IErMin= 3 ErrMin= 4.01D-05
 ErrMax= 4.01D-05 EMaxC= 1.00D-01 BMatC= 1.11D-06 BMatP= 1.98D-06
 IDIUse=1 WtCom= 1.00D+00 WtEn= 0.00D+00
 Coeff-Com: -0.232D-02 0.428D+00 0.574D+00
 Coeff:     -0.232D-02 0.428D+00 0.574D+00
 Gap=     0.172 Goal=   None    Shift=    0.000
 RMSDP=2.65D-06 MaxDP=1.47D-04 DE=-9.82D-07 OVMax= 4.02D-04

 Cycle  11  Pass 1  IDiag  1:
 RMSU=  5.43D-07    CP:  1.00D+00  9.98D-01  5.71D-01
 E= -1503.61984772784     Delta-E=       -0.000001251005 Rises=F Damp=F
 DIIS: error= 5.07D-06 at cycle   4 NSaved=   4.
 NSaved= 4 IEnMin= 4 EnMin= -1503.61984772784     IErMin= 4 ErrMin= 5.07D-06
 ErrMax= 5.07D-06 EMaxC= 1.00D-01 BMatC= 3.15D-08 BMatP= 1.11D-06
 IDIUse=1 WtCom= 1.00D+00 WtEn= 0.00D+00
 Coeff-Com: -0.105D-01 0.241D+00 0.341D+00 0.429D+00
 Coeff:     -0.105D-01 0.241D+00 0.341D+00 0.429D+00
 Gap=     0.172 Goal=   None    Shift=    0.000
 RMSDP=4.39D-07 MaxDP=2.49D-05 DE=-1.25D-06 OVMax= 6.47D-05

 Cycle  12  Pass 1  IDiag  1:
 RMSU=  1.81D-07    CP:  1.00D+00  9.99D-01  5.81D-01  5.44D-01
 E= -1503.61984775973     Delta-E=       -0.000000031883 Rises=F Damp=F
 DIIS: error= 1.30D-06 at cycle   5 NSaved=   5.
 NSaved= 5 IEnMin= 5 EnMin= -1503.61984775973     IErMin= 5 ErrMin= 1.30D-06
 ErrMax= 1.30D-06 EMaxC= 1.00D-01 BMatC= 1.65D-09 BMatP= 3.15D-08
 IDIUse=1 WtCom= 1.00D+00 WtEn= 0.00D+00
 Coeff-Com: -0.562D-02 0.105D+00 0.151D+00 0.241D+00 0.509D+00
 Coeff:     -0.562D-02 0.105D+00 0.151D+00 0.241D+00 0.509D+00
 Gap=     0.172 Goal=   None    Shift=    0.000
 RMSDP=1.40D-07 MaxDP=5.42D-06 DE=-3.19D-08 OVMax= 1.69D-05

 Cycle  13  Pass 1  IDiag  1:
 RMSU=  7.38D-08    CP:  1.00D+00  9.99D-01  5.81D-01  5.57D-01  6.35D-01
 E= -1503.61984776138     Delta-E=       -0.000000001650 Rises=F Damp=F
 DIIS: error= 5.23D-07 at cycle   6 NSaved=   6.
 NSaved= 6 IEnMin= 6 EnMin= -1503.61984776138     IErMin= 6 ErrMin= 5.23D-07
 ErrMax= 5.23D-07 EMaxC= 1.00D-01 BMatC= 2.89D-10 BMatP= 1.65D-09
 IDIUse=1 WtCom= 1.00D+00 WtEn= 0.00D+00
 Coeff-Com: -0.173D-02 0.238D-01 0.359D-01 0.726D-01 0.316D+00 0.553D+00
 Coeff:     -0.173D-02 0.238D-01 0.359D-01 0.726D-01 0.316D+00 0.553D+00
 Gap=     0.172 Goal=   None    Shift=    0.000
 RMSDP=5.07D-08 MaxDP=2.37D-06 DE=-1.65D-09 OVMax= 5.87D-06

 Cycle  14  Pass 1  IDiag  1:
 RMSU=  2.00D-08    CP:  1.00D+00  9.99D-01  5.82D-01  5.66D-01  7.29D-01
                    CP:  6.78D-01
 E= -1503.61984776160     Delta-E=       -0.000000000226 Rises=F Damp=F
 DIIS: error= 2.46D-07 at cycle   7 NSaved=   7.
 NSaved= 7 IEnMin= 7 EnMin= -1503.61984776160     IErMin= 7 ErrMin= 2.46D-07
 ErrMax= 2.46D-07 EMaxC= 1.00D-01 BMatC= 3.86D-11 BMatP= 2.89D-10
 IDIUse=1 WtCom= 1.00D+00 WtEn= 0.00D+00
 Coeff-Com: -0.361D-03 0.183D-02 0.368D-02 0.154D-01 0.137D+00 0.341D+00
 Coeff-Com:  0.502D+00
 Coeff:     -0.361D-03 0.183D-02 0.368D-02 0.154D-01 0.137D+00 0.341D+00
 Coeff:      0.502D+00
 Gap=     0.172 Goal=   None    Shift=    0.000
 RMSDP=1.66D-08 MaxDP=9.42D-07 DE=-2.26D-10 OVMax= 2.50D-06

 Cycle  15  Pass 1  IDiag  1:
 RMSU=  7.36D-09    CP:  1.00D+00  9.99D-01  5.82D-01  5.64D-01  7.28D-01
                    CP:  7.22D-01  5.79D-01
 E= -1503.61984776175     Delta-E=       -0.000000000146 Rises=F Damp=F
 DIIS: error= 5.43D-08 at cycle   8 NSaved=   8.
 NSaved= 8 IEnMin= 8 EnMin= -1503.61984776175     IErMin= 8 ErrMin= 5.43D-08
 ErrMax= 5.43D-08 EMaxC= 1.00D-01 BMatC= 3.09D-12 BMatP= 3.86D-11
 IDIUse=1 WtCom= 1.00D+00 WtEn= 0.00D+00
 Coeff-Com: -0.222D-04-0.156D-02-0.183D-02 0.621D-03 0.426D-01 0.130D+00
 Coeff-Com:  0.283D+00 0.546D+00
 Coeff:     -0.222D-04-0.156D-02-0.183D-02 0.621D-03 0.426D-01 0.130D+00
 Coeff:      0.283D+00 0.546D+00
 Gap=     0.172 Goal=   None    Shift=    0.000
 RMSDP=4.90D-09 MaxDP=2.30D-07 DE=-1.46D-10 OVMax= 5.93D-07

 SCF Done:  E(RB3LYP) =  -1503.61984776     A.U. after   15 cycles
             Convg  =    0.4901D-08             -V/T =  2.0082
 KE= 1.491326026104D+03 PE=-9.758533268841D+03 EE= 3.638431813045D+03
 Leave Link  502 at Fri Oct  1 19:02:42 2021, MaxMem= 2684354560 cpu:    2116.6
 (Enter /sw/target/amd/app/gaussian/Gaussian09RevA.02_gcc-4.9.2/g09/l508.exe)
 QCSCF skips out because SCF is already converged.
 Leave Link  508 at Fri Oct  1 19:02:42 2021, MaxMem= 2684354560 cpu:       0.0
 (Enter /sw/target/amd/app/gaussian/Gaussian09RevA.02_gcc-4.9.2/g09/l601.exe)
 Copying SCF densities to generalized density rwf, IOpCl= 0 IROHF=0.

 **********************************************************************

            Population analysis using the SCF density.

 **********************************************************************

 Orbital symmetries:
       Occupied  (A) (A) (A) (A) (A) (A) (A) (A) (A) (A) (A) (A)
                 (A) (A) (A) (A) (A) (A) (A) (A) (A) (A) (A) (A)
                 (A) (A) (A) (A) (A) (A) (A) (A) (A) (A) (A) (A)
                 (A) (A) (A) (A) (A) (A) (A) (A) (A) (A) (A) (A)
                 (A) (A) (A) (A) (A) (A) (A) (A) (A) (A) (A) (A)
                 (A) (A) (A) (A) (A) (A) (A) (A) (A) (A) (A) (A)
                 (A) (A) (A) (A) (A) (A) (A) (A) (A) (A) (A) (A)
                 (A) (A) (A) (A) (A) (A) (A) (A) (A) (A) (A) (A)
                 (A) (A) (A) (A) (A) (A) (A) (A) (A) (A) (A) (A)
                 (A) (A) (A)
       Virtual   (A) (A) (A) (A) (A) (A) (A) (A) (A) (A) (A) (A)
                 (A) (A) (A) (A) (A) (A) (A) (A) (A) (A) (A) (A)
                 (A) (A) (A) (A) (A) (A) (A) (A) (A) (A) (A) (A)
                 (A) (A) (A) (A) (A) (A) (A) (A) (A) (A) (A) (A)
                 (A) (A) (A) (A) (A) (A) (A) (A) (A) (A) (A) (A)
                 (A) (A) (A) (A) (A) (A) (A) (A) (A) (A) (A) (A)
                 (A) (A) (A) (A) (A) (A) (A) (A) (A) (A) (A) (A)
                 (A) (A) (A) (A) (A) (A) (A) (A) (A) (A) (A) (A)
                 (A) (A) (A) (A) (A) (A) (A) (A) (A) (A) (A) (A)
                 (A) (A) (A) (A) (A) (A) (A) (A) (A) (A) (A) (A)
                 (A) (A) (A) (A) (A) (A) (A) (A) (A) (A) (A) (A)
                 (A) (A) (A) (A) (A) (A) (A) (A) (A) (A) (A) (A)
                 (A) (A) (A) (A) (A) (A) (A) (A) (A) (A) (A) (A)
                 (A) (A) (A) (A) (A) (A) (A) (A) (A) (A) (A) (A)
                 (A) (A) (A) (A) (A) (A) (A) (A) (A) (A) (A) (A)
                 (A) (A) (A) (A) (A) (A) (A) (A) (A) (A) (A) (A)
                 (A) (A) (A) (A) (A) (A) (A) (A) (A) (A) (A) (A)
                 (A) (A) (A) (A) (A) (A) (A) (A) (A) (A) (A) (A)
                 (A) (A) (A) (A) (A) (A) (A) (A) (A) (A) (A) (A)
                 (A) (A) (A) (A) (A) (A) (A) (A) (A) (A) (A) (A)
                 (A) (A) (A) (A) (A) (A) (A) (A) (A) (A) (A) (A)
                 (A) (A) (A) (A) (A) (A) (A) (A) (A) (A) (A) (A)
                 (A) (A) (A) (A) (A) (A) (A) (A) (A) (A) (A) (A)
                 (A) (A) (A) (A) (A) (A) (A) (A) (A) (A) (A) (A)
                 (A) (A) (A) (A) (A) (A) (A) (A) (A) (A) (A) (A)
                 (A) (A) (A) (A) (A) (A) (A) (A) (A) (A) (A) (A)
                 (A) (A) (A) (A) (A) (A) (A) (A) (A) (A) (A) (A)
                 (A) (A) (A) (A) (A) (A) (A) (A) (A) (A) (A) (A)
                 (A) (A) (A) (A) (A) (A) (A) (A) (A) (A) (A) (A)
                 (A) (A) (A) (A) (A) (A) (A) (A) (A) (A) (A) (A)
                 (A) (A) (A) (A) (A) (A) (A) (A) (A) (A) (A) (A)
                 (A) (A) (A) (A) (A) (A) (A) (A) (A) (A) (A) (A)
                 (A) (A) (A) (A) (A) (A) (A) (A) (A) (A) (A) (A)
                 (A) (A)
 The electronic state is 1-A.
 Alpha  occ. eigenvalues --  -77.04995 -19.16400 -19.16231 -10.24277 -10.24244
 Alpha  occ. eigenvalues --  -10.23462 -10.23331 -10.20201 -10.19477 -10.18849
 Alpha  occ. eigenvalues --  -10.18832 -10.18449 -10.18370 -10.18360 -10.18195
 Alpha  occ. eigenvalues --  -10.17996 -10.17976 -10.17681 -10.17660 -10.17130
 Alpha  occ. eigenvalues --  -10.16938 -10.16698 -10.16681 -10.16659 -10.16610
 Alpha  occ. eigenvalues --  -10.16575 -10.16545 -10.16514 -10.16264  -6.51829
 Alpha  occ. eigenvalues --   -4.68113  -4.68060  -4.67553  -1.05266  -1.04827
 Alpha  occ. eigenvalues --   -0.85317  -0.83682  -0.82327  -0.81808  -0.77246
 Alpha  occ. eigenvalues --   -0.75367  -0.74094  -0.73210  -0.73013  -0.72743
 Alpha  occ. eigenvalues --   -0.72472  -0.72296  -0.69065  -0.68356  -0.63236
 Alpha  occ. eigenvalues --   -0.61506  -0.60065  -0.59770  -0.59248  -0.58804
 Alpha  occ. eigenvalues --   -0.57917  -0.57492  -0.54507  -0.54169  -0.53029
 Alpha  occ. eigenvalues --   -0.52159  -0.49630  -0.48998  -0.47570  -0.47078
 Alpha  occ. eigenvalues --   -0.46398  -0.46138  -0.46110  -0.45778  -0.44273
 Alpha  occ. eigenvalues --   -0.43955  -0.43897  -0.43288  -0.42837  -0.42698
 Alpha  occ. eigenvalues --   -0.42594  -0.42118  -0.41501  -0.41334  -0.40621
 Alpha  occ. eigenvalues --   -0.38716  -0.37963  -0.37423  -0.36951  -0.36860
 Alpha  occ. eigenvalues --   -0.36549  -0.36509  -0.36373  -0.35382  -0.34547
 Alpha  occ. eigenvalues --   -0.34306  -0.34148  -0.33952  -0.33696  -0.33136
 Alpha  occ. eigenvalues --   -0.32927  -0.32179  -0.32051  -0.30856  -0.29996
 Alpha  occ. eigenvalues --   -0.29341  -0.29000  -0.28820  -0.28173  -0.27834
 Alpha  occ. eigenvalues --   -0.26703  -0.25176  -0.23800  -0.22029  -0.21607
 Alpha  occ. eigenvalues --   -0.18923
 Alpha virt. eigenvalues --   -0.01743  -0.00489   0.01052   0.01998   0.07819
 Alpha virt. eigenvalues --    0.07870   0.08724   0.08993   0.09893   0.10150
 Alpha virt. eigenvalues --    0.11223   0.11338   0.11638   0.12199   0.12838
 Alpha virt. eigenvalues --    0.13208   0.13545   0.14325   0.14522   0.14879
 Alpha virt. eigenvalues --    0.14979   0.15383   0.15675   0.15810   0.16200
 Alpha virt. eigenvalues --    0.16446   0.16881   0.17014   0.17601   0.17709
 Alpha virt. eigenvalues --    0.18106   0.18171   0.18646   0.18756   0.18972
 Alpha virt. eigenvalues --    0.19468   0.19717   0.19786   0.20377   0.20574
 Alpha virt. eigenvalues --    0.20828   0.21205   0.21483   0.21712   0.22576
 Alpha virt. eigenvalues --    0.23031   0.24204   0.24363   0.25000   0.25559
 Alpha virt. eigenvalues --    0.26494   0.27006   0.27531   0.27653   0.27949
 Alpha virt. eigenvalues --    0.28873   0.28975   0.29816   0.29997   0.30328
 Alpha virt. eigenvalues --    0.30911   0.31565   0.31994   0.32682   0.33083
 Alpha virt. eigenvalues --    0.36352   0.37155   0.38954   0.39778   0.41234
 Alpha virt. eigenvalues --    0.42850   0.45252   0.46277   0.47720   0.49549
 Alpha virt. eigenvalues --    0.50634   0.50881   0.51319   0.51616   0.52529
 Alpha virt. eigenvalues --    0.52661   0.53625   0.53869   0.54538   0.54728
 Alpha virt. eigenvalues --    0.55066   0.55396   0.55733   0.56316   0.56644
 Alpha virt. eigenvalues --    0.56875   0.56938   0.57522   0.58001   0.58555
 Alpha virt. eigenvalues --    0.59070   0.59302   0.60203   0.60375   0.60987
 Alpha virt. eigenvalues --    0.61203   0.61373   0.62135   0.62627   0.62942
 Alpha virt. eigenvalues --    0.63238   0.63690   0.64300   0.64479   0.65359
 Alpha virt. eigenvalues --    0.65938   0.66629   0.66746   0.67809   0.68446
 Alpha virt. eigenvalues --    0.68736   0.69754   0.70119   0.71737   0.72131
 Alpha virt. eigenvalues --    0.72479   0.73110   0.74050   0.74781   0.75464
 Alpha virt. eigenvalues --    0.76715   0.77648   0.78543   0.78989   0.80881
 Alpha virt. eigenvalues --    0.81447   0.81769   0.82302   0.82612   0.83514
 Alpha virt. eigenvalues --    0.83611   0.83761   0.84327   0.84696   0.84981
 Alpha virt. eigenvalues --    0.85412   0.85634   0.86882   0.87261   0.87475
 Alpha virt. eigenvalues --    0.87823   0.88210   0.88431   0.88513   0.89076
 Alpha virt. eigenvalues --    0.89390   0.89596   0.89715   0.89961   0.90375
 Alpha virt. eigenvalues --    0.91009   0.91507   0.92224   0.92316   0.93596
 Alpha virt. eigenvalues --    0.93906   0.94366   0.94729   0.95171   0.95590
 Alpha virt. eigenvalues --    0.95970   0.96355   0.96611   0.96944   0.97618
 Alpha virt. eigenvalues --    0.98058   0.98357   0.98490   0.98639   0.99346
 Alpha virt. eigenvalues --    1.00429   1.00885   1.01525   1.01981   1.03107
 Alpha virt. eigenvalues --    1.03568   1.04659   1.05155   1.05620   1.06216
 Alpha virt. eigenvalues --    1.07046   1.07922   1.09121   1.10589   1.11073
 Alpha virt. eigenvalues --    1.11807   1.12876   1.13846   1.15065   1.15948
 Alpha virt. eigenvalues --    1.16616   1.18410   1.19209   1.19638   1.20400
 Alpha virt. eigenvalues --    1.22146   1.23780   1.25029   1.25601   1.25824
 Alpha virt. eigenvalues --    1.27422   1.28591   1.30925   1.31760   1.34180
 Alpha virt. eigenvalues --    1.35286   1.36638   1.37975   1.39853   1.39963
 Alpha virt. eigenvalues --    1.40580   1.40932   1.42016   1.42829   1.43554
 Alpha virt. eigenvalues --    1.44238   1.44979   1.45797   1.47005   1.47593
 Alpha virt. eigenvalues --    1.47927   1.48839   1.49681   1.50414   1.51408
 Alpha virt. eigenvalues --    1.52110   1.54311   1.55000   1.57803   1.58843
 Alpha virt. eigenvalues --    1.61197   1.62387   1.62882   1.64717   1.67366
 Alpha virt. eigenvalues --    1.69624   1.73015   1.73592   1.73786   1.74878
 Alpha virt. eigenvalues --    1.75578   1.76152   1.77269   1.77809   1.78310
 Alpha virt. eigenvalues --    1.78818   1.80901   1.81281   1.81499   1.83311
 Alpha virt. eigenvalues --    1.83875   1.84926   1.85834   1.88143   1.90531
 Alpha virt. eigenvalues --    1.91009   1.91708   1.92214   1.92749   1.93251
 Alpha virt. eigenvalues --    1.93313   1.93585   1.94335   1.94864   1.95262
 Alpha virt. eigenvalues --    1.95940   1.96708   1.98971   2.00072   2.01116
 Alpha virt. eigenvalues --    2.01227   2.02330   2.02905   2.03121   2.03375
 Alpha virt. eigenvalues --    2.03814   2.04212   2.05133   2.05759   2.06045
 Alpha virt. eigenvalues --    2.07506   2.08570   2.09625   2.10328   2.11102
 Alpha virt. eigenvalues --    2.13001   2.14453   2.15215   2.15234   2.15598
 Alpha virt. eigenvalues --    2.16208   2.16781   2.17485   2.18487   2.19462
 Alpha virt. eigenvalues --    2.20298   2.21366   2.23464   2.26160   2.27105
 Alpha virt. eigenvalues --    2.27520   2.28615   2.29088   2.29505   2.30382
 Alpha virt. eigenvalues --    2.31335   2.31543   2.33144   2.34441   2.35657
 Alpha virt. eigenvalues --    2.37117   2.38034   2.38789   2.38842   2.39051
 Alpha virt. eigenvalues --    2.39435   2.39640   2.39927   2.40722   2.41898
 Alpha virt. eigenvalues --    2.42364   2.42549   2.43206   2.43655   2.44671
 Alpha virt. eigenvalues --    2.47726   2.50970   2.53593   2.55788   2.58652
 Alpha virt. eigenvalues --    2.59173   2.61571   2.61841   2.62782   2.63227
 Alpha virt. eigenvalues --    2.64566   2.64927   2.65806   2.67053   2.68817
 Alpha virt. eigenvalues --    2.69780   2.70630   2.71735   2.73225   2.74579
 Alpha virt. eigenvalues --    2.74620   2.75539   2.76014   2.77074   2.78486
 Alpha virt. eigenvalues --    2.78819   2.80046   2.81358   2.82800   2.83624
 Alpha virt. eigenvalues --    2.86637   2.92445   2.98624   3.01097   3.09760
 Alpha virt. eigenvalues --    3.11160   3.23865   3.35295   3.43588   3.61595
 Alpha virt. eigenvalues --    4.04369   4.09849   4.10863   4.11784   4.15593
 Alpha virt. eigenvalues --    4.15972   4.16698   4.22043   4.22632   4.25910
 Alpha virt. eigenvalues --    4.27038   4.28194   4.29389   4.30862   4.32777
 Alpha virt. eigenvalues --    4.33903   4.38942   4.42140   4.45069   4.56177
 Alpha virt. eigenvalues --    4.56546   4.56879   4.58203   4.58737   4.60253
 Alpha virt. eigenvalues --    4.62410   4.71720   4.84097
          Condensed to atoms (all electrons):
 Mulliken atomic charges:
              1
     1  C   -0.213706
     2  O   -0.511502
     3  C    0.335497
     4  C   -0.173697
[...]
   353    C   24  S      Ryd( 4S)     0.00002
   354    C   24  px     Val( 2p)     1.08143
   355    C   24  px     Ryd( 3p)     0.00203
   356    C   24  py     Val( 2p)     1.10209
   357    C   24  py     Ryd( 3p)     0.00157
   358    C   24  pz     Val( 2p)     1.22888
   359    C   24  pz     Ryd( 3p)     0.00433
   360    C   24  dxy    Ryd( 3d)     0.00051
   361    C   24  dxz    Ryd( 3d)     0.00085
   362    C   24  dyz    Ryd( 3d)     0.00092
   363    C   24  dx2y2  Ryd( 3d)     0.00074
   364    C   24  dz2    Ryd( 3d)     0.00054

   365    C   25  S      Cor( 1S)     1.99933
   366    C   25  S      Val( 2S)     1.03358
   367    C   25  S      Ryd( 3S)     0.00062
   368    C   25  S      Ryd( 4S)     0.00002
   369    C   25  px     Val( 2p)     1.19867
   370    C   25  px     Ryd( 3p)     0.00401
   371    C   25  py     Val( 2p)     1.08984
   372    C   25  py     Ryd( 3p)     0.00143
   373    C   25  pz     Val( 2p)     1.12707
   374    C   25  pz     Ryd( 3p)     0.00186
   375    C   25  dxy    Ryd( 3d)     0.00035
   376    C   25  dxz    Ryd( 3d)     0.00051
   377    C   25  dyz    Ryd( 3d)     0.00099
   378    C   25  dx2y2  Ryd( 3d)     0.00104
   379    C   25  dz2    Ryd( 3d)     0.00065

   380    C   26  S      Cor( 1S)     1.99932
   381    C   26  S      Val( 2S)     1.03284
   382    C   26  S      Ryd( 3S)     0.00067
   383    C   26  S      Ryd( 4S)     0.00002
   384    C   26  px     Val( 2p)     1.04309
   385    C   26  px     Ryd( 3p)     0.00160
   386    C   26  py     Val( 2p)     1.23594
   387    C   26  py     Ryd( 3p)     0.00478
   388    C   26  pz     Val( 2p)     1.13427
   389    C   26  pz     Ryd( 3p)     0.00155
   390    C   26  dxy    Ryd( 3d)     0.00041
   391    C   26  dxz    Ryd( 3d)     0.00067
   392    C   26  dyz    Ryd( 3d)     0.00085
   393    C   26  dx2y2  Ryd( 3d)     0.00099
   394    C   26  dz2    Ryd( 3d)     0.00063

   395    C   27  S      Cor( 1S)     1.99930
   396    C   27  S      Val( 2S)     1.02686
   397    C   27  S      Ryd( 3S)     0.00098
   398    C   27  S      Ryd( 4S)     0.00002
   399    C   27  px     Val( 2p)     1.10348
   400    C   27  px     Ryd( 3p)     0.00265
   401    C   27  py     Val( 2p)     1.07628
   402    C   27  py     Ryd( 3p)     0.00174
   403    C   27  pz     Val( 2p)     1.24724
   404    C   27  pz     Ryd( 3p)     0.00503
   405    C   27  dxy    Ryd( 3d)     0.00048
   406    C   27  dxz    Ryd( 3d)     0.00089
   407    C   27  dyz    Ryd( 3d)     0.00086
   408    C   27  dx2y2  Ryd( 3d)     0.00075
   409    C   27  dz2    Ryd( 3d)     0.00054

   410    O   28  S      Cor( 1S)     1.99974
   411    O   28  S      Val( 2S)     1.59083
   412    O   28  S      Ryd( 3S)     0.00081
   413    O   28  S      Ryd( 4S)     0.00007
   414    O   28  px     Val( 2p)     1.61360
   415    O   28  px     Ryd( 3p)     0.00149
   416    O   28  py     Val( 2p)     1.53306
   417    O   28  py     Ryd( 3p)     0.00144
   418    O   28  pz     Val( 2p)     1.75604
   419    O   28  pz     Ryd( 3p)     0.00226
   420    O   28  dxy    Ryd( 3d)     0.00094
   421    O   28  dxz    Ryd( 3d)     0.00126
   422    O   28  dyz    Ryd( 3d)     0.00104
   423    O   28  dx2y2  Ryd( 3d)     0.00067
   424    O   28  dz2    Ryd( 3d)     0.00163

   425    C   29  S      Cor( 1S)     1.99943
   426    C   29  S      Val( 2S)     1.09785
   427    C   29  S      Ryd( 3S)     0.00147
   428    C   29  S      Ryd( 4S)     0.00003
   429    C   29  px     Val( 2p)     0.90748
   430    C   29  px     Ryd( 3p)     0.00227
   431    C   29  py     Val( 2p)     1.08888
   432    C   29  py     Ryd( 3p)     0.00170
   433    C   29  pz     Val( 2p)     1.20835
   434    C   29  pz     Ryd( 3p)     0.00201
   435    C   29  dxy    Ryd( 3d)     0.00179
   436    C   29  dxz    Ryd( 3d)     0.00077
   437    C   29  dyz    Ryd( 3d)     0.00137
   438    C   29  dx2y2  Ryd( 3d)     0.00147
   439    C   29  dz2    Ryd( 3d)     0.00125

   440    H   30  S      Val( 1S)     0.76975
   441    H   30  S      Ryd( 2S)     0.00055

   442    H   31  S      Val( 1S)     0.79868
   443    H   31  S      Ryd( 2S)     0.00191

   444    H   32  S      Val( 1S)     0.79275
   445    H   32  S      Ryd( 2S)     0.00189

   446    H   33  S      Val( 1S)     0.76288
   447    H   33  S      Ryd( 2S)     0.00097

   448    H   34  S      Val( 1S)     0.76315
   449    H   34  S      Ryd( 2S)     0.00084

   450    H   35  S      Val( 1S)     0.76190
   451    H   35  S      Ryd( 2S)     0.00099

   452    H   36  S      Val( 1S)     0.77716
   453    H   36  S      Ryd( 2S)     0.00101

   454    H   37  S      Val( 1S)     0.78297
   455    H   37  S      Ryd( 2S)     0.00081

   456    H   38  S      Val( 1S)     0.77758
   457    H   38  S      Ryd( 2S)     0.00086

   458    H   39  S      Val( 1S)     0.79037
   459    H   39  S      Ryd( 2S)     0.00118

   460    H   40  S      Val( 1S)     0.76142
   461    H   40  S      Ryd( 2S)     0.00332

   462    H   41  S      Val( 1S)     0.76620
   463    H   41  S      Ryd( 2S)     0.00135

   464    H   42  S      Val( 1S)     0.74072
   465    H   42  S      Ryd( 2S)     0.00195

   466    H   43  S      Val( 1S)     0.77506
   467    H   43  S      Ryd( 2S)     0.00195

   468    H   44  S      Val( 1S)     0.75397
   469    H   44  S      Ryd( 2S)     0.00118

   470    H   45  S      Val( 1S)     0.76081
   471    H   45  S      Ryd( 2S)     0.00115

   472    H   46  S      Val( 1S)     0.76806
   473    H   46  S      Ryd( 2S)     0.00176

   474    H   47  S      Val( 1S)     0.77601
   475    H   47  S      Ryd( 2S)     0.00193

   476    H   48  S      Val( 1S)     0.76067
   477    H   48  S      Ryd( 2S)     0.00127

   478    H   49  S      Val( 1S)     0.75988
   479    H   49  S      Ryd( 2S)     0.00139

   480    H   50  S      Val( 1S)     0.74397
   481    H   50  S      Ryd( 2S)     0.00299

   482    H   51  S      Val( 1S)     0.73429
   483    H   51  S      Ryd( 2S)     0.00253

   484    H   52  S      Val( 1S)     0.76162
   485    H   52  S      Ryd( 2S)     0.00141

   486    H   53  S      Val( 1S)     0.77038
   487    H   53  S      Ryd( 2S)     0.00186

   488    H   54  S      Val( 1S)     0.77198
   489    H   54  S      Ryd( 2S)     0.00176

   490    H   55  S      Val( 1S)     0.75754
   491    H   55  S      Ryd( 2S)     0.00118

   492    H   56  S      Val( 1S)     0.75907
   493    H   56  S      Ryd( 2S)     0.00113

   494    H   57  S      Val( 1S)     0.77455
   495    H   57  S      Ryd( 2S)     0.00183

   496    H   58  S      Val( 1S)     0.77059
   497    H   58  S      Ryd( 2S)     0.00178

   498    H   59  S      Val( 1S)     0.75594
   499    H   59  S      Ryd( 2S)     0.00110

   500    H   60  S      Val( 1S)     0.72724
   501    H   60  S      Ryd( 2S)     0.00124

   502    H   61  S      Val( 1S)     0.77492
   503    H   61  S      Ryd( 2S)     0.00191

   504    H   62  S      Val( 1S)     0.76857
   505    H   62  S      Ryd( 2S)     0.00055

   506    H   63  S      Val( 1S)     0.79453
   507    H   63  S      Ryd( 2S)     0.00185

   508    H   64  S      Val( 1S)     0.79940
   509    H   64  S      Ryd( 2S)     0.00224

 WARNING:  1 low occupancy (<1.9990e) core orbital  found on  C    3
           1 low occupancy (<1.9990e) core orbital  found on  C    7
           1 low occupancy (<1.9990e) core orbital  found on  C    8
           1 low occupancy (<1.9990e) core orbital  found on  C    9
           1 low occupancy (<1.9990e) core orbital  found on  C   14
           1 low occupancy (<1.9990e) core orbital  found on  P   15


 Summary of Natural Population Analysis:                  
                                                          
                                       Natural Population 
                Natural  -----------------------------------------------
    Atom  No    Charge         Core      Valence    Rydberg      Total
 -----------------------------------------------------------------------
      C    1   -0.31662      1.99943     4.30309    0.01411     6.31662
      O    2   -0.50691      1.99973     6.49551    0.01167     8.50691
      C    3    0.34962      1.99871     3.62994    0.02173     5.65038
      C    4   -0.34778      1.99901     4.33631    0.01246     6.34778
      C    5   -0.19685      1.99911     4.18282    0.01492     6.19685
      C    6   -0.33730      1.99901     4.32604    0.01225     6.33730
      C    7    0.33909      1.99871     3.63990    0.02230     5.66091
      C    8   -0.09067      1.99889     4.07366    0.01812     6.09067
      C    9   -0.09943      1.99895     4.07856    0.02192     6.09943
      C   10   -0.19701      1.99901     4.18464    0.01336     6.19701
      C   11   -0.35073      1.99908     4.33352    0.01812     6.35073
      C   12   -0.25292      1.99907     4.23857    0.01529     6.25292
      C   13   -0.27061      1.99901     4.25367    0.01793     6.27061
      C   14   -0.53021      1.99880     4.50794    0.02347     6.53021
      P   15    1.28358      9.99763     3.67579    0.04300    13.71642
      C   16   -0.56734      1.99919     4.55014    0.01801     6.56734
      C   17   -0.46215      1.99926     4.44902    0.01387     6.46215
      C   18   -0.45154      1.99932     4.44027    0.01195     6.45154
      C   19   -0.46045      1.99933     4.44962    0.01150     6.46045
      C   20   -0.45417      1.99933     4.44284    0.01200     6.45417
      C   21   -0.47151      1.99929     4.45882    0.01340     6.47151
      C   22   -0.56349      1.99920     4.54801    0.01628     6.56349
      C   23   -0.46414      1.99930     4.45223    0.01261     6.46414
      C   24   -0.45649      1.99933     4.44495    0.01221     6.45649
      C   25   -0.45997      1.99933     4.44916    0.01149     6.45997
      C   26   -0.45765      1.99932     4.44614    0.01218     6.45765
      C   27   -0.46711      1.99930     4.45387    0.01395     6.46711
      O   28   -0.50485      1.99974     6.49352    0.01160     8.50485
      C   29   -0.31613      1.99943     4.30257    0.01413     6.31613
      H   30    0.22970      0.00000     0.76975    0.00055     0.77030
      H   31    0.19941      0.00000     0.79868    0.00191     0.80059
      H   32    0.20536      0.00000     0.79275    0.00189     0.79464
      H   33    0.23616      0.00000     0.76288    0.00097     0.76384
      H   34    0.23601      0.00000     0.76315    0.00084     0.76399
      H   35    0.23712      0.00000     0.76190    0.00099     0.76288
      H   36    0.22183      0.00000     0.77716    0.00101     0.77817
      H   37    0.21622      0.00000     0.78297    0.00081     0.78378
      H   38    0.22155      0.00000     0.77758    0.00086     0.77845
      H   39    0.20845      0.00000     0.79037    0.00118     0.79155
      H   40    0.23527      0.00000     0.76142    0.00332     0.76473
      H   41    0.23244      0.00000     0.76620    0.00135     0.76756
      H   42    0.25733      0.00000     0.74072    0.00195     0.74267
      H   43    0.22298      0.00000     0.77506    0.00195     0.77702
      H   44    0.24485      0.00000     0.75397    0.00118     0.75515
      H   45    0.23803      0.00000     0.76081    0.00115     0.76197
      H   46    0.23017      0.00000     0.76806    0.00176     0.76983
      H   47    0.22206      0.00000     0.77601    0.00193     0.77794
      H   48    0.23806      0.00000     0.76067    0.00127     0.76194
      H   49    0.23874      0.00000     0.75988    0.00139     0.76126
      H   50    0.25304      0.00000     0.74397    0.00299     0.74696
      H   51    0.26318      0.00000     0.73429    0.00253     0.73682
      H   52    0.23697      0.00000     0.76162    0.00141     0.76303
      H   53    0.22776      0.00000     0.77038    0.00186     0.77224
      H   54    0.22626      0.00000     0.77198    0.00176     0.77374
      H   55    0.24127      0.00000     0.75754    0.00118     0.75873
      H   56    0.23979      0.00000     0.75907    0.00113     0.76021
      H   57    0.22363      0.00000     0.77455    0.00183     0.77637
      H   58    0.22763      0.00000     0.77059    0.00178     0.77237
      H   59    0.24296      0.00000     0.75594    0.00110     0.75704
      H   60    0.27152      0.00000     0.72724    0.00124     0.72848
      H   61    0.22317      0.00000     0.77492    0.00191     0.77683
      H   62    0.23087      0.00000     0.76857    0.00055     0.76913
      H   63    0.20362      0.00000     0.79453    0.00185     0.79638
      H   64    0.19836      0.00000     0.79940    0.00224     0.80164
 =======================================================================
   * Total *    0.00000     65.97482   155.50571    0.51947   222.00000

                                 Natural Population      
 --------------------------------------------------------
   Core                      65.97482 ( 99.9619% of  66)
   Valence                  155.50571 ( 99.6831% of 156)
   Natural Minimal Basis    221.48053 ( 99.7660% of 222)
   Natural Rydberg Basis      0.51947 (  0.2340% of 222)
 --------------------------------------------------------

    Atom  No          Natural Electron Configuration
 ----------------------------------------------------------------------------
      C    1      [core]2S( 1.10)2p( 3.21)3p( 0.01)3d( 0.01)
      O    2      [core]2S( 1.59)2p( 4.91)3p( 0.01)3d( 0.01)
      C    3      [core]2S( 0.83)2p( 2.80)3p( 0.01)3d( 0.01)
      C    4      [core]2S( 0.95)2p( 3.38)3p( 0.01)
      C    5      [core]2S( 0.95)2p( 3.23)3p( 0.01)
      C    6      [core]2S( 0.95)2p( 3.37)3p( 0.01)
      C    7      [core]2S( 0.82)2p( 2.82)3p( 0.01)3d( 0.01)
      C    8      [core]2S( 0.88)2p( 3.20)3p( 0.01)
      C    9      [core]2S( 0.85)2p( 3.23)3p( 0.02)
      C   10      [core]2S( 0.94)2p( 3.24)3p( 0.01)
      C   11      [core]2S( 0.94)2p( 3.39)3p( 0.01)
      C   12      [core]2S( 0.95)2p( 3.29)3p( 0.01)
      C   13      [core]2S( 0.93)2p( 3.32)3p( 0.01)
      C   14      [core]2S( 0.94)2p( 3.57)3p( 0.02)
      P   15      [core]3S( 1.31)3p( 2.37)3d( 0.03)4p( 0.01)
      C   16      [core]2S( 1.07)2p( 3.48)3p( 0.01)
      C   17      [core]2S( 1.03)2p( 3.42)3p( 0.01)
      C   18      [core]2S( 1.03)2p( 3.41)3p( 0.01)
      C   19      [core]2S( 1.03)2p( 3.42)3p( 0.01)
      C   20      [core]2S( 1.03)2p( 3.41)3p( 0.01)
      C   21      [core]2S( 1.03)2p( 3.43)3p( 0.01)
      C   22      [core]2S( 1.07)2p( 3.48)3p( 0.01)
      C   23      [core]2S( 1.03)2p( 3.43)3p( 0.01)
      C   24      [core]2S( 1.03)2p( 3.41)3p( 0.01)
      C   25      [core]2S( 1.03)2p( 3.42)3p( 0.01)
      C   26      [core]2S( 1.03)2p( 3.41)3p( 0.01)
      C   27      [core]2S( 1.03)2p( 3.43)3p( 0.01)
      O   28      [core]2S( 1.59)2p( 4.90)3p( 0.01)3d( 0.01)
      C   29      [core]2S( 1.10)2p( 3.20)3p( 0.01)3d( 0.01)
      H   30            1S( 0.77)
      H   31            1S( 0.80)
      H   32            1S( 0.79)
      H   33            1S( 0.76)
      H   34            1S( 0.76)
      H   35            1S( 0.76)
      H   36            1S( 0.78)
      H   37            1S( 0.78)
      H   38            1S( 0.78)
      H   39            1S( 0.79)
      H   40            1S( 0.76)
      H   41            1S( 0.77)
      H   42            1S( 0.74)
      H   43            1S( 0.78)
      H   44            1S( 0.75)
      H   45            1S( 0.76)
      H   46            1S( 0.77)
      H   47            1S( 0.78)
      H   48            1S( 0.76)
      H   49            1S( 0.76)
      H   50            1S( 0.74)
      H   51            1S( 0.73)
      H   52            1S( 0.76)
      H   53            1S( 0.77)
      H   54            1S( 0.77)
      H   55            1S( 0.76)
      H   56            1S( 0.76)
      H   57            1S( 0.77)
      H   58            1S( 0.77)
      H   59            1S( 0.76)
      H   60            1S( 0.73)
      H   61            1S( 0.77)
      H   62            1S( 0.77)
      H   63            1S( 0.79)
      H   64            1S( 0.80)


 NBO analysis skipped by request.
 Leave Link  607 at Sun Oct  3 18:19:52 2021, MaxMem= 2684354560 cpu:      66.3
 (Enter /sw/target/amd/app/gaussian/Gaussian09RevA.02_gcc-4.9.2/g09/l9999.exe)
 1\1\GINC-HERMITE\SP\RTD-B3LYP-FC\6-31G(d)\C26H35O2P1\JSCHLEINITZ\03-Oc
 t-2021\0\\#p TD(NStates=10, Root=1) b3lyp/6-31G* volume pop=NPA densit
 y=current Geom=AllCheck Guess=Read\\COc1cccc(c1c1ccccc1P(C1CCCCC1)C1CC
 CCC1)OC_conf_0\\0,1\C,0,2.5576914931,-1.8456553874,1.2937051309\O,0,2.
 9934662025,-0.9652097336,0.2716300242\C,0,3.2763625757,-1.4849221021,-
 0.9583296806\C,0,3.1083488613,-2.8373100185,-1.2837336339\C,0,3.404489
 8756,-3.2657101971,-2.5752287336\C,0,3.8589577305,-2.377568564,-3.5465
 918719\C,0,4.0221081362,-1.0270991298,-3.2092467681\C,0,3.7496604186,-
 0.5608248695,-1.9093185293\C,0,3.8751451967,0.8944628707,-1.5768045608
 \C,0,2.907501887,1.7625560405,-2.1063621579\C,0,2.9279858042,3.1271821
 745,-1.8339774509\C,0,3.9325885472,3.6478288392,-1.0192485578\C,0,4.90
 47865604,2.7969816871,-0.4959299929\C,0,4.9063594189,1.4156178329,-0.7
 602344417\P,0,6.1890187671,0.2564805622,-0.0500263635\C,0,7.7395441431
 ,0.6504943762,-1.0773530983\C,0,8.1793868544,2.120700563,-1.2020906894
 \C,0,9.479006705,2.2595262868,-2.016413198\C,0,9.3480196393,1.61325277
 5,-3.4025696359\C,0,8.9097755902,0.1464139043,-3.2877421578\C,0,7.6136
 024821,0.0018374831,-2.4722483676\C,0,6.5815026766,1.0751292726,1.6102
 000327\C,0,7.7691941882,0.362434782,2.2926748815\C,0,8.0629379467,0.94
 33616393,3.6869658649\C,0,6.822597852,0.9126371549,4.5908178607\C,0,5.
 6341739424,1.6151346173,3.9198934564\C,0,5.3415090812,1.0287889698,2.5
 290644104\O,0,4.4575040832,-0.0774959614,-4.0947186991\C,0,4.736446322
 7,-0.472422182,-5.4273503863\H,0,2.4152294651,-1.2240320194,2.17956174
 03\H,0,3.308057214,-2.6173320668,1.508292516\H,0,1.6060271922,-2.32799
 61512,1.0333653262\H,0,2.7501947955,-3.5474332389,-0.5487332849\H,0,3.
 2759196679,-4.3141917892,-2.8308789615\H,0,4.0802798089,-2.7363954579,
 -4.5443196632\H,0,2.1247203569,1.3477925749,-2.7352093887\H,0,2.162746
 6982,3.7772616133,-2.2504684474\H,0,3.9627153286,4.7106599917,-0.79208
 03925\H,0,5.678441724,3.2232586159,0.1347496619\H,0,8.5309361441,0.104
 6972901,-0.5391583833\H,0,8.321274442,2.569002565,-0.2103528611\H,0,7.
 3850323615,2.6954131064,-1.6964628388\H,0,10.3038795159,1.7786934928,-
 1.4693249566\H,0,9.7466603035,3.3201796367,-2.1133060318\H,0,10.296648
 9627,1.6881353817,-3.9502329895\H,0,8.6015289135,2.1686753568,-3.98966
 69955\H,0,9.7103411849,-0.4323057056,-2.8026046366\H,0,8.773671922,-0.
 2897849636,-4.2865388297\H,0,7.3521932686,-1.0584626399,-2.3672720796\
 H,0,6.7855390154,0.4727389759,-3.0186550256\H,0,6.8635046348,2.1283422
 406,1.4683470605\H,0,8.6713642141,0.4347841468,1.6734692091\H,0,7.5399
 332671,-0.7094498565,2.3858623262\H,0,8.4055402147,1.9833701107,3.5790
 400324\H,0,8.8894424077,0.3907387759,4.1528717765\H,0,7.0457557788,1.3
 76672547,5.5603543802\H,0,6.553060624,-0.1336620551,4.7990582196\H,0,5
 .85530033,2.6885919751,3.8224600371\H,0,4.7396350044,1.5394121244,4.55
 22325612\H,0,4.5046272855,1.5615687667,2.0642395977\H,0,5.0209627473,-
 0.0177724946,2.6383762296\H,0,5.0460674132,0.4360929189,-5.947453038\H
 ,0,3.8477563272,-0.8874508532,-5.9209690919\H,0,5.5492833497,-1.209216
 9198,-5.4706359492\\Version=AM64L-G09RevA.02\State=1-A\HF=-1503.642781
 7\RMSD=8.355e-10\Dipole=1.4157584,-1.7079143,0.5771826\Quadrupole=-5.7
 510654,-4.098609,9.8496744,9.9076117,-2.0971362,2.6971091\PG=C01 [X(C2
 6H35O2P1)]\\@


 TO BEHOLD HARMS OF OUR OWN HANDS DOING,
 WHERE NONE BESIDE US WROUGHT,
 CAUSES SHARP RUING...

                                         SOPHOCLES
 Job cpu time:  0 days 21 hours 36 minutes 10.2 seconds.
 File lengths (MBytes):  RWF=    827 Int=      0 D2E=      0 Chk=    115 Scr=      1
 Normal termination of Gaussian 09 at Sun Oct  3 18:20:11 2021.
