 Entering Gaussian System, Link 0=g09
 Input=C26H48P2_2414_conf_0.com
 Output=C26H48P2_2414_conf_0.log
 Initial command:
 /sw/target/amd/app/gaussian/Gaussian09RevA.02_gcc-4.9.2/g09/l1.exe /home/jschleinitz/gaussian/Gau-2055636.inp -scrdir=/home/jschleinitz/gaussian/
 Entering Link 1 = /sw/target/amd/app/gaussian/Gaussian09RevA.02_gcc-4.9.2/g09/l1.exe PID=   2055649.
  
 Copyright (c) 1988,1990,1992,1993,1995,1998,2003,2009, Gaussian, Inc.
                  All Rights Reserved.
  
 This is part of the Gaussian(R) 09 program.  It is based on
 the Gaussian(R) 03 system (copyright 2003, Gaussian, Inc.),
 the Gaussian(R) 98 system (copyright 1998, Gaussian, Inc.),
 the Gaussian(R) 94 system (copyright 1995, Gaussian, Inc.),
 the Gaussian 92(TM) system (copyright 1992, Gaussian, Inc.),
 the Gaussian 90(TM) system (copyright 1990, Gaussian, Inc.),
 the Gaussian 88(TM) system (copyright 1988, Gaussian, Inc.),
 the Gaussian 86(TM) system (copyright 1986, Carnegie Mellon
 University), and the Gaussian 82(TM) system (copyright 1983,
 Carnegie Mellon University). Gaussian is a federally registered
 trademark of Gaussian, Inc.
  
 This software contains proprietary and confidential information,
 including trade secrets, belonging to Gaussian, Inc.
  
 This software is provided under written license and may be
 used, copied, transmitted, or stored only in accord with that
 written license.
  
 The following legend is applicable only to US Government
 contracts under FAR:
  
                    RESTRICTED RIGHTS LEGEND
  
 Use, reproduction and disclosure by the US Government is
 subject to restrictions as set forth in subparagraphs (a)
 and (c) of the Commercial Computer Software - Restricted
 Rights clause in FAR 52.227-19.
  
 Gaussian, Inc.
 340 Quinnipiac St., Bldg. 40, Wallingford CT 06492
  
  
 ---------------------------------------------------------------
 Warning -- This program may not be used in any manner that
 competes with the business of Gaussian, Inc. or will provide
 assistance to any competitor of Gaussian, Inc.  The licensee
 of this program is prohibited from giving any competitor of
 Gaussian, Inc. access to this program.  By using this program,
 the user acknowledges that Gaussian, Inc. is engaged in the
 business of creating and licensing software in the field of
 computational chemistry and represents and warrants to the
 licensee that it is not a competitor of Gaussian, Inc. and that
 it will not use this program in any manner prohibited above.
 ---------------------------------------------------------------
  

 Cite this work as:
 Gaussian 09, Revision A.02,
 M. J. Frisch, G. W. Trucks, H. B. Schlegel, G. E. Scuseria, 
 M. A. Robb, J. R. Cheeseman, G. Scalmani, V. Barone, B. Mennucci, 
 G. A. Petersson, H. Nakatsuji, M. Caricato, X. Li, H. P. Hratchian, 
 A. F. Izmaylov, J. Bloino, G. Zheng, J. L. Sonnenberg, M. Hada, 
 M. Ehara, K. Toyota, R. Fukuda, J. Hasegawa, M. Ishida, T. Nakajima, 
 Y. Honda, O. Kitao, H. Nakai, T. Vreven, J. A. Montgomery, Jr., 
 J. E. Peralta, F. Ogliaro, M. Bearpark, J. J. Heyd, E. Brothers, 
 K. N. Kudin, V. N. Staroverov, R. Kobayashi, J. Normand, 
 K. Raghavachari, A. Rendell, J. C. Burant, S. S. Iyengar, J. Tomasi, 
 M. Cossi, N. Rega, J. M. Millam, M. Klene, J. E. Knox, J. B. Cross, 
 V. Bakken, C. Adamo, J. Jaramillo, R. Gomperts, R. E. Stratmann, 
 O. Yazyev, A. J. Austin, R. Cammi, C. Pomelli, J. W. Ochterski, 
 R. L. Martin, K. Morokuma, V. G. Zakrzewski, G. A. Voth, 
 P. Salvador, J. J. Dannenberg, S. Dapprich, A. D. Daniels, 
 O. Farkas, J. B. Foresman, J. V. Ortiz, J. Cioslowski, 
 and D. J. Fox, Gaussian, Inc., Wallingford CT, 2009.
 
 ******************************************
 Gaussian 09:  AM64L-G09RevA.02 11-Jun-2009
                 1-Oct-2021 
 ******************************************
 %nproc=12
 Will use up to   12 processors via shared memory.
 %mem=24gb
 %chk=C26H48P2_2414_conf_0.chk
 -----------------------------------
 #p opt b3lyp/6-31G* scf=(xqc,tight)
 -----------------------------------
 1/14=-1,18=20,19=15,26=3,38=1/1,3;
 2/9=110,12=2,17=6,18=5,40=1/2;
 3/5=1,6=6,7=1,11=2,16=1,25=1,30=1,71=1,74=-5/1,2,3;
 4//1;
 5/5=2,8=3,13=1,32=2,38=5/2,8;
 6/7=2,8=2,9=2,10=2,28=1/1;
 7//1,2,3,16;
 1/14=-1,18=20,19=15/3(2);
 2/9=110/2;
 99//99;
 2/9=110/2;
 3/5=1,6=6,7=1,11=2,16=1,25=1,30=1,71=1,74=-5/1,2,3;
 4/5=5,16=3/1;
 5/5=2,8=3,13=1,32=2,38=5/2,8;
 7//1,2,3,16;
 1/14=-1,18=20,19=15/3(-5);
 2/9=110/2;
 6/7=2,8=2,9=2,10=2,19=2,28=1/1;
 99/9=1/99;
 Leave Link    1 at Fri Oct  1 18:35:35 2021, MaxMem= 3221225472 cpu:       0.1
 (Enter /sw/target/amd/app/gaussian/Gaussian09RevA.02_gcc-4.9.2/g09/l101.exe)
 -------------------------------------------------
 C1CCC(CC1)P(C1CCCCC1)CCP(C1CCCCC1)C1CCCCC1_conf_0
 -------------------------------------------------
 Symbolic Z-matrix:
 Charge =  0 Multiplicity = 1
 C                    -1.34409   0.4931   -1.13094 
 C                    -0.96751  -0.97259  -0.97364 
 C                     0.52638  -1.18092  -1.20477 
 C                     1.39853  -0.3028   -0.2821 
 C                     0.95466   1.17126  -0.32886 
 C                    -0.55463   1.35388  -0.1577 
 P                     3.2191   -0.49325  -0.76753 
 C                     4.08537   0.65661   0.42008 
 C                     5.60269   0.70417   0.15852 
 C                     6.33805   1.63885   1.1161 
 C                     6.02535   1.30128   2.56765 
 C                     4.52591   1.36938   2.82255 
 C                     3.75865   0.42282   1.9011 
 C                     3.5136   -2.20531  -0.12679 
 C                     4.90334  -2.78585  -0.36739 
 P                     5.16813  -4.52119   0.25772 
 C                     4.75575  -4.33666   2.08762 
 C                     5.80092  -3.3854    2.72525 
 C                     5.82157  -3.39997   4.25089 
 C                     5.97723  -4.816     4.77743 
 C                     4.80311  -5.65394   4.31736 
 C                     4.69643  -5.70086   2.7961 
 C                     3.78694  -5.48475  -0.5573 
 C                     3.84612  -6.9792   -0.17975 
 C                     2.8465   -7.832    -0.95624 
 C                     3.06403  -7.70098  -2.45151 
 C                     2.94058  -6.24309  -2.87337 
 C                     3.89945  -5.34046  -2.09656 
 H                    -2.4174    0.62177  -0.95616 
 H                    -1.14459   0.81766  -2.1603 
 H                    -1.5378   -1.57985  -1.68566 
 H                    -1.23807  -1.31937   0.03102 
 H                     0.75382  -0.96897  -2.25828 
 H                     0.74492  -2.2432   -1.04711 
 H                     1.27944  -0.6695    0.74509 
 H                     1.26144   1.63179  -1.27719 
 H                     1.44737   1.74191   0.46603 
 H                    -0.81164   2.40815  -0.30705 
 H                    -0.83979   1.09953   0.86982 
 H                     3.71596   1.65721   0.16093 
 H                     5.80053   1.02166  -0.87428 
 H                     6.05362  -0.28121   0.26783 
 H                     6.05634   2.67715   0.90526 
 H                     7.41821   1.55874   0.94572 
 H                     6.54783   1.99767   3.23212 
 H                     6.39328   0.29499   2.80268 
 H                     4.17476   2.39773   2.67033 
 H                     4.31618   1.11162   3.86657 
 H                     2.68883   0.56838   2.08812 
 H                     3.98831  -0.60486   2.19395 
 H                     2.79177  -2.84394  -0.64024 
 H                     3.24     -2.23457   0.93275 
 H                     5.66868  -2.18801   0.12629 
 H                     5.14252  -2.76125  -1.43245 
 H                     3.76651  -3.87809   2.18699 
 H                     5.61029  -2.35452   2.40434 
 H                     6.81149  -3.63185   2.37296 
 H                     4.89539  -2.95856   4.63908 
 H                     6.64768  -2.7772    4.61311 
 H                     6.02792  -4.80781   5.87049 
 H                     6.91887  -5.25239   4.41334 
 H                     3.87503  -5.24432   4.73561 
 H                     4.89844  -6.67525   4.70553 
 H                     3.72931  -6.16311   2.58101 
 H                     5.47438  -6.37328   2.41456 
 H                     2.82374  -5.0784   -0.22904 
 H                     3.62046  -7.12713   0.87292 
 H                     4.85613  -7.37564  -0.34258 
 H                     1.82366  -7.5262   -0.69943 
 H                     2.94947  -8.88074  -0.65491 
 H                     2.33092  -8.31086  -2.99035 
 H                     4.05732  -8.08362  -2.71553 
 H                     1.91042  -5.90313  -2.7169 
 H                     3.14578  -6.15839  -3.94667 
 H                     3.70129  -4.30686  -2.40173 
 H                     4.92356  -5.56806  -2.42379 
 
 NAtoms=     76 NQM=     76 NQMF=      0 NMic=      0 NMicF=      0 NTot=     76.
                    Isotopes and Nuclear Properties:
 (Nuclear quadrupole moments (NQMom) in fm**2, nuclear magnetic moments (NMagM)
  in nuclear magnetons)

  Atom         1           2           3           4           5           6           7           8           9          10
 IAtWgt=          12          12          12          12          12          12          31          12          12          12
 AtmWgt=  12.0000000  12.0000000  12.0000000  12.0000000  12.0000000  12.0000000  30.9737634  12.0000000  12.0000000  12.0000000
 NucSpn=           0           0           0           0           0           0           1           0           0           0
 AtZEff=   0.0000000   0.0000000   0.0000000   0.0000000   0.0000000   0.0000000   0.0000000   0.0000000   0.0000000   0.0000000
 NQMom=    0.0000000   0.0000000   0.0000000   0.0000000   0.0000000   0.0000000   0.0000000   0.0000000   0.0000000   0.0000000
 NMagM=    0.0000000   0.0000000   0.0000000   0.0000000   0.0000000   0.0000000   1.1316000   0.0000000   0.0000000   0.0000000

  Atom        11          12          13          14          15          16          17          18          19          20
 IAtWgt=          12          12          12          12          12          31          12          12          12          12
 AtmWgt=  12.0000000  12.0000000  12.0000000  12.0000000  12.0000000  30.9737634  12.0000000  12.0000000  12.0000000  12.0000000
 NucSpn=           0           0           0           0           0           1           0           0           0           0
 AtZEff=   0.0000000   0.0000000   0.0000000   0.0000000   0.0000000   0.0000000   0.0000000   0.0000000   0.0000000   0.0000000
 NQMom=    0.0000000   0.0000000   0.0000000   0.0000000   0.0000000   0.0000000   0.0000000   0.0000000   0.0000000   0.0000000
 NMagM=    0.0000000   0.0000000   0.0000000   0.0000000   0.0000000   1.1316000   0.0000000   0.0000000   0.0000000   0.0000000

  Atom        21          22          23          24          25          26          27          28          29          30
 IAtWgt=          12          12          12          12          12          12          12          12           1           1
 AtmWgt=  12.0000000  12.0000000  12.0000000  12.0000000  12.0000000  12.0000000  12.0000000  12.0000000   1.0078250   1.0078250
 NucSpn=           0           0           0           0           0           0           0           0           1           1
 AtZEff=   0.0000000   0.0000000   0.0000000   0.0000000   0.0000000   0.0000000   0.0000000   0.0000000   0.0000000   0.0000000
 NQMom=    0.0000000   0.0000000   0.0000000   0.0000000   0.0000000   0.0000000   0.0000000   0.0000000   0.0000000   0.0000000
 NMagM=    0.0000000   0.0000000   0.0000000   0.0000000   0.0000000   0.0000000   0.0000000   0.0000000   2.7928460   2.7928460

  Atom        31          32          33          34          35          36          37          38          39          40
 IAtWgt=           1           1           1           1           1           1           1           1           1           1
 AtmWgt=   1.0078250   1.0078250   1.0078250   1.0078250   1.0078250   1.0078250   1.0078250   1.0078250   1.0078250   1.0078250
 NucSpn=           1           1           1           1           1           1           1           1           1           1
 AtZEff=   0.0000000   0.0000000   0.0000000   0.0000000   0.0000000   0.0000000   0.0000000   0.0000000   0.0000000   0.0000000
 NQMom=    0.0000000   0.0000000   0.0000000   0.0000000   0.0000000   0.0000000   0.0000000   0.0000000   0.0000000   0.0000000
 NMagM=    2.7928460   2.7928460   2.7928460   2.7928460   2.7928460   2.7928460   2.7928460   2.7928460   2.7928460   2.7928460

  Atom        41          42          43          44          45          46          47          48          49          50
 IAtWgt=           1           1           1           1           1           1           1           1           1           1
 AtmWgt=   1.0078250   1.0078250   1.0078250   1.0078250   1.0078250   1.0078250   1.0078250   1.0078250   1.0078250   1.0078250
 NucSpn=           1           1           1           1           1           1           1           1           1           1
 AtZEff=   0.0000000   0.0000000   0.0000000   0.0000000   0.0000000   0.0000000   0.0000000   0.0000000   0.0000000   0.0000000
 NQMom=    0.0000000   0.0000000   0.0000000   0.0000000   0.0000000   0.0000000   0.0000000   0.0000000   0.0000000   0.0000000
 NMagM=    2.7928460   2.7928460   2.7928460   2.7928460   2.7928460   2.7928460   2.7928460   2.7928460   2.7928460   2.7928460

  Atom        51          52          53          54          55          56          57          58          59          60
 IAtWgt=           1           1           1           1           1           1           1           1           1           1
 AtmWgt=   1.0078250   1.0078250   1.0078250   1.0078250   1.0078250   1.0078250   1.0078250   1.0078250   1.0078250   1.0078250
 NucSpn=           1           1           1           1           1           1           1           1           1           1
 AtZEff=   0.0000000   0.0000000   0.0000000   0.0000000   0.0000000   0.0000000   0.0000000   0.0000000   0.0000000   0.0000000
 NQMom=    0.0000000   0.0000000   0.0000000   0.0000000   0.0000000   0.0000000   0.0000000   0.0000000   0.0000000   0.0000000
 NMagM=    2.7928460   2.7928460   2.7928460   2.7928460   2.7928460   2.7928460   2.7928460   2.7928460   2.7928460   2.7928460

  Atom        61          62          63          64          65          66          67          68          69          70
 IAtWgt=           1           1           1           1           1           1           1           1           1           1
 AtmWgt=   1.0078250   1.0078250   1.0078250   1.0078250   1.0078250   1.0078250   1.0078250   1.0078250   1.0078250   1.0078250
 NucSpn=           1           1           1           1           1           1           1           1           1           1
 AtZEff=   0.0000000   0.0000000   0.0000000   0.0000000   0.0000000   0.0000000   0.0000000   0.0000000   0.0000000   0.0000000
 NQMom=    0.0000000   0.0000000   0.0000000   0.0000000   0.0000000   0.0000000   0.0000000   0.0000000   0.0000000   0.0000000
 NMagM=    2.7928460   2.7928460   2.7928460   2.7928460   2.7928460   2.7928460   2.7928460   2.7928460   2.7928460   2.7928460

  Atom        71          72          73          74          75          76
 IAtWgt=           1           1           1           1           1           1
 AtmWgt=   1.0078250   1.0078250   1.0078250   1.0078250   1.0078250   1.0078250
 NucSpn=           1           1           1           1           1           1
 AtZEff=   0.0000000   0.0000000   0.0000000   0.0000000   0.0000000   0.0000000
 NQMom=    0.0000000   0.0000000   0.0000000   0.0000000   0.0000000   0.0000000
 NMagM=    2.7928460   2.7928460   2.7928460   2.7928460   2.7928460   2.7928460
 Leave Link  101 at Fri Oct  1 18:35:36 2021, MaxMem= 3221225472 cpu:       0.2
 (Enter /sw/target/amd/app/gaussian/Gaussian09RevA.02_gcc-4.9.2/g09/l103.exe)

 GradGradGradGradGradGradGradGradGradGradGradGradGradGradGradGradGradGrad
 Berny optimization.
 Initialization pass.
                           ----------------------------
                           !    Initial Parameters    !
                           ! (Angstroms and Degrees)  !
 --------------------------                            --------------------------
 ! Name  Definition              Value          Derivative Info.                !
 --------------------------------------------------------------------------------
 ! R1    R(1,2)                  1.5214         estimate D2E/DX2                !
 ! R2    R(1,6)                  1.5203         estimate D2E/DX2                !
 ! R3    R(1,29)                 1.095          estimate D2E/DX2                !
 ! R4    R(1,30)                 1.0976         estimate D2E/DX2                !
 ! R5    R(2,3)                  1.526          estimate D2E/DX2                !
 ! R6    R(2,31)                 1.0959         estimate D2E/DX2                !
 ! R7    R(2,32)                 1.0967         estimate D2E/DX2                !
 ! R8    R(3,4)                  1.5437         estimate D2E/DX2                !
 ! R9    R(3,33)                 1.0984         estimate D2E/DX2                !
 ! R10   R(3,34)                 1.0959         estimate D2E/DX2                !
 ! R11   R(4,5)                  1.5402         estimate D2E/DX2                !
 ! R12   R(4,7)                  1.8938         estimate D2E/DX2                !
 ! R13   R(4,35)                 1.0972         estimate D2E/DX2                !
 ! R14   R(5,6)                  1.5299         estimate D2E/DX2                !
 ! R15   R(5,36)                 1.098          estimate D2E/DX2                !
 ! R16   R(5,37)                 1.0956         estimate D2E/DX2                !
 ! R17   R(6,38)                 1.0954         estimate D2E/DX2                !
 ! R18   R(6,39)                 1.0963         estimate D2E/DX2                !
 ! R19   R(7,8)                  1.8663         estimate D2E/DX2                !
 ! R20   R(7,14)                 1.8516         estimate D2E/DX2                !
 ! R21   R(8,9)                  1.5404         estimate D2E/DX2                !
 ! R22   R(8,13)                 1.5345         estimate D2E/DX2                !
 ! R23   R(8,40)                 1.0976         estimate D2E/DX2                !
 ! R24   R(9,10)                 1.5269         estimate D2E/DX2                !
 ! R25   R(9,41)                 1.0985         estimate D2E/DX2                !
 ! R26   R(9,42)                 1.0892         estimate D2E/DX2                !
 ! R27   R(10,11)                1.5227         estimate D2E/DX2                !
 ! R28   R(10,43)                1.0963         estimate D2E/DX2                !
 ! R29   R(10,44)                1.0964         estimate D2E/DX2                !
 ! R30   R(11,12)                1.5225         estimate D2E/DX2                !
 ! R31   R(11,45)                1.0952         estimate D2E/DX2                !
 ! R32   R(11,46)                1.0969         estimate D2E/DX2                !
 ! R33   R(12,13)                1.5277         estimate D2E/DX2                !
 ! R34   R(12,47)                1.0973         estimate D2E/DX2                !
 ! R35   R(12,48)                1.0956         estimate D2E/DX2                !
 ! R36   R(13,49)                1.0958         estimate D2E/DX2                !
 ! R37   R(13,50)                1.093          estimate D2E/DX2                !
 ! R38   R(14,15)                1.5252         estimate D2E/DX2                !
 ! R39   R(14,51)                1.092          estimate D2E/DX2                !
 ! R40   R(14,52)                1.0947         estimate D2E/DX2                !
 ! R41   R(15,16)                1.8634         estimate D2E/DX2                !
 ! R42   R(15,53)                1.0894         estimate D2E/DX2                !
 ! R43   R(15,54)                1.0919         estimate D2E/DX2                !
 ! R44   R(16,17)                1.8848         estimate D2E/DX2                !
 ! R45   R(16,23)                1.8709         estimate D2E/DX2                !
 ! R46   R(17,18)                1.5504         estimate D2E/DX2                !
 ! R47   R(17,22)                1.5383         estimate D2E/DX2                !
 ! R48   R(17,55)                1.0949         estimate D2E/DX2                !
 ! R49   R(18,19)                1.5258         estimate D2E/DX2                !
 ! R50   R(18,56)                1.0964         estimate D2E/DX2                !
 ! R51   R(18,57)                1.0982         estimate D2E/DX2                !
 ! R52   R(19,20)                1.5188         estimate D2E/DX2                !
 ! R53   R(19,58)                1.097          estimate D2E/DX2                !
 ! R54   R(19,59)                1.0961         estimate D2E/DX2                !
 ! R55   R(20,21)                1.5141         estimate D2E/DX2                !
 ! R56   R(20,60)                1.0943         estimate D2E/DX2                !
 ! R57   R(20,61)                1.0999         estimate D2E/DX2                !
 ! R58   R(21,22)                1.5257         estimate D2E/DX2                !
 ! R59   R(21,62)                1.0973         estimate D2E/DX2                !
 ! R60   R(21,63)                1.0967         estimate D2E/DX2                !
 ! R61   R(22,64)                1.0933         estimate D2E/DX2                !
 ! R62   R(22,65)                1.0968         estimate D2E/DX2                !
 ! R63   R(23,24)                1.5425         estimate D2E/DX2                !
 ! R64   R(23,28)                1.5501         estimate D2E/DX2                !
 ! R65   R(23,66)                1.0957         estimate D2E/DX2                !
 ! R66   R(24,25)                1.5262         estimate D2E/DX2                !
 ! R67   R(24,67)                1.0867         estimate D2E/DX2                !
 ! R68   R(24,68)                1.0972         estimate D2E/DX2                !
 ! R69   R(25,26)                1.5167         estimate D2E/DX2                !
 ! R70   R(25,69)                1.098          estimate D2E/DX2                !
 ! R71   R(25,70)                1.096          estimate D2E/DX2                !
 ! R72   R(26,27)                1.5227         estimate D2E/DX2                !
 ! R73   R(26,71)                1.0953         estimate D2E/DX2                !
 ! R74   R(26,72)                1.0967         estimate D2E/DX2                !
 ! R75   R(27,28)                1.5289         estimate D2E/DX2                !
 ! R76   R(27,73)                1.096          estimate D2E/DX2                !
 ! R77   R(27,74)                1.096          estimate D2E/DX2                !
 ! R78   R(28,75)                1.0958         estimate D2E/DX2                !
 ! R79   R(28,76)                1.099          estimate D2E/DX2                !
 ! A1    A(2,1,6)              110.5314         estimate D2E/DX2                !
 ! A2    A(2,1,29)             109.8341         estimate D2E/DX2                !
 ! A3    A(2,1,30)             109.6842         estimate D2E/DX2                !
 ! A4    A(6,1,29)             109.8934         estimate D2E/DX2                !
 ! A5    A(6,1,30)             109.7883         estimate D2E/DX2                !
 ! A6    A(29,1,30)            107.0436         estimate D2E/DX2                !
 ! A7    A(1,2,3)              110.988          estimate D2E/DX2                !
 ! A8    A(1,2,31)             109.7453         estimate D2E/DX2                !
 ! A9    A(1,2,32)             109.7704         estimate D2E/DX2                !
 ! A10   A(3,2,31)             109.5967         estimate D2E/DX2                !
 ! A11   A(3,2,32)             109.7004         estimate D2E/DX2                !
 ! A12   A(31,2,32)            106.9534         estimate D2E/DX2                !
 ! A13   A(2,3,4)              112.6382         estimate D2E/DX2                !
 ! A14   A(2,3,33)             108.762          estimate D2E/DX2                !
 ! A15   A(2,3,34)             107.8037         estimate D2E/DX2                !
 ! A16   A(4,3,33)             110.2742         estimate D2E/DX2                !
 ! A17   A(4,3,34)             110.6542         estimate D2E/DX2                !
 ! A18   A(33,3,34)            106.4824         estimate D2E/DX2                !
 ! A19   A(3,4,5)              111.3126         estimate D2E/DX2                !
 ! A20   A(3,4,7)              109.4338         estimate D2E/DX2                !
 ! A21   A(3,4,35)             107.9463         estimate D2E/DX2                !
 ! A22   A(5,4,7)              111.4404         estimate D2E/DX2                !
 ! A23   A(5,4,35)             108.4833         estimate D2E/DX2                !
 ! A24   A(7,4,35)             108.1022         estimate D2E/DX2                !
 ! A25   A(4,5,6)              113.2763         estimate D2E/DX2                !
 ! A26   A(4,5,36)             110.3118         estimate D2E/DX2                !
 ! A27   A(4,5,37)             110.2965         estimate D2E/DX2                !
 ! A28   A(6,5,36)             108.7965         estimate D2E/DX2                !
 ! A29   A(6,5,37)             107.4778         estimate D2E/DX2                !
 ! A30   A(36,5,37)            106.4117         estimate D2E/DX2                !
 ! A31   A(1,6,5)              111.9057         estimate D2E/DX2                !
 ! A32   A(1,6,38)             109.6218         estimate D2E/DX2                !
 ! A33   A(1,6,39)             109.4855         estimate D2E/DX2                !
 ! A34   A(5,6,38)             109.3361         estimate D2E/DX2                !
 ! A35   A(5,6,39)             109.4988         estimate D2E/DX2                !
 ! A36   A(38,6,39)            106.8618         estimate D2E/DX2                !
 ! A37   A(4,7,8)              102.7766         estimate D2E/DX2                !
 ! A38   A(4,7,14)              99.0441         estimate D2E/DX2                !
 ! A39   A(8,7,14)             106.0013         estimate D2E/DX2                !
 ! A40   A(7,8,9)              111.6034         estimate D2E/DX2                !
 ! A41   A(7,8,13)             114.9268         estimate D2E/DX2                !
 ! A42   A(7,8,40)             104.7853         estimate D2E/DX2                !
 ! A43   A(9,8,13)             112.2281         estimate D2E/DX2                !
 ! A44   A(9,8,40)             105.2637         estimate D2E/DX2                !
 ! A45   A(13,8,40)            107.1627         estimate D2E/DX2                !
 ! A46   A(8,9,10)             112.7556         estimate D2E/DX2                !
 ! A47   A(8,9,41)             110.2414         estimate D2E/DX2                !
 ! A48   A(8,9,42)             111.274          estimate D2E/DX2                !
 ! A49   A(10,9,41)            109.0258         estimate D2E/DX2                !
 ! A50   A(10,9,42)            106.947          estimate D2E/DX2                !
 ! A51   A(41,9,42)            106.3368         estimate D2E/DX2                !
 ! A52   A(9,10,11)            111.2983         estimate D2E/DX2                !
 ! A53   A(9,10,43)            109.5961         estimate D2E/DX2                !
 ! A54   A(9,10,44)            109.4068         estimate D2E/DX2                !
 ! A55   A(11,10,43)           109.9087         estimate D2E/DX2                !
 ! A56   A(11,10,44)           109.5263         estimate D2E/DX2                !
 ! A57   A(43,10,44)           107.0055         estimate D2E/DX2                !
 ! A58   A(10,11,12)           110.6052         estimate D2E/DX2                !
 ! A59   A(10,11,45)           109.8412         estimate D2E/DX2                !
 ! A60   A(10,11,46)           109.7999         estimate D2E/DX2                !
 ! A61   A(12,11,45)           109.8663         estimate D2E/DX2                !
 ! A62   A(12,11,46)           109.6037         estimate D2E/DX2                !
 ! A63   A(45,11,46)           107.0563         estimate D2E/DX2                !
 ! A64   A(11,12,13)           111.4657         estimate D2E/DX2                !
 ! A65   A(11,12,47)           109.5043         estimate D2E/DX2                !
 ! A66   A(11,12,48)           109.727          estimate D2E/DX2                !
 ! A67   A(13,12,47)           109.6509         estimate D2E/DX2                !
 ! A68   A(13,12,48)           109.4422         estimate D2E/DX2                !
 ! A69   A(47,12,48)           106.9433         estimate D2E/DX2                !
 ! A70   A(8,13,12)            112.3839         estimate D2E/DX2                !
 ! A71   A(8,13,49)            110.6317         estimate D2E/DX2                !
 ! A72   A(8,13,50)            110.9222         estimate D2E/DX2                !
 ! A73   A(12,13,49)           107.7638         estimate D2E/DX2                !
 ! A74   A(12,13,50)           108.3874         estimate D2E/DX2                !
 ! A75   A(49,13,50)           106.5186         estimate D2E/DX2                !
 ! A76   A(7,14,15)            116.2494         estimate D2E/DX2                !
 ! A77   A(7,14,51)            105.837          estimate D2E/DX2                !
 ! A78   A(7,14,52)            108.6566         estimate D2E/DX2                !
 ! A79   A(15,14,51)           107.7897         estimate D2E/DX2                !
 ! A80   A(15,14,52)           111.7307         estimate D2E/DX2                !
 ! A81   A(51,14,52)           105.9169         estimate D2E/DX2                !
 ! A82   A(14,15,16)           115.5327         estimate D2E/DX2                !
 ! A83   A(14,15,53)           111.0851         estimate D2E/DX2                !
 ! A84   A(14,15,54)           110.1755         estimate D2E/DX2                !
 ! A85   A(16,15,53)           105.0228         estimate D2E/DX2                !
 ! A86   A(16,15,54)           108.4867         estimate D2E/DX2                !
 ! A87   A(53,15,54)           106.0079         estimate D2E/DX2                !
 ! A88   A(15,16,17)           101.7374         estimate D2E/DX2                !
 ! A89   A(15,16,23)           103.2134         estimate D2E/DX2                !
 ! A90   A(17,16,23)           108.1695         estimate D2E/DX2                !
 ! A91   A(16,17,18)           108.1709         estimate D2E/DX2                !
 ! A92   A(16,17,22)           111.638          estimate D2E/DX2                !
 ! A93   A(16,17,55)           109.0746         estimate D2E/DX2                !
 ! A94   A(18,17,22)           112.3758         estimate D2E/DX2                !
 ! A95   A(18,17,55)           108.347          estimate D2E/DX2                !
 ! A96   A(22,17,55)           107.1441         estimate D2E/DX2                !
 ! A97   A(17,18,19)           114.4857         estimate D2E/DX2                !
 ! A98   A(17,18,56)           109.8349         estimate D2E/DX2                !
 ! A99   A(17,18,57)           110.5298         estimate D2E/DX2                !
 ! A100  A(19,18,56)           107.6978         estimate D2E/DX2                !
 ! A101  A(19,18,57)           107.8269         estimate D2E/DX2                !
 ! A102  A(56,18,57)           106.0873         estimate D2E/DX2                !
 ! A103  A(18,19,20)           110.9124         estimate D2E/DX2                !
 ! A104  A(18,19,58)           109.7887         estimate D2E/DX2                !
 ! A105  A(18,19,59)           109.5835         estimate D2E/DX2                !
 ! A106  A(20,19,58)           109.8179         estimate D2E/DX2                !
 ! A107  A(20,19,59)           109.7498         estimate D2E/DX2                !
 ! A108  A(58,19,59)           106.9033         estimate D2E/DX2                !
 ! A109  A(19,20,21)           109.34           estimate D2E/DX2                !
 ! A110  A(19,20,60)           110.1254         estimate D2E/DX2                !
 ! A111  A(19,20,61)           110.0546         estimate D2E/DX2                !
 ! A112  A(21,20,60)           110.0964         estimate D2E/DX2                !
 ! A113  A(21,20,61)           110.1053         estimate D2E/DX2                !
 ! A114  A(60,20,61)           107.0967         estimate D2E/DX2                !
 ! A115  A(20,21,22)           111.9762         estimate D2E/DX2                !
 ! A116  A(20,21,62)           109.4795         estimate D2E/DX2                !
 ! A117  A(20,21,63)           109.9024         estimate D2E/DX2                !
 ! A118  A(22,21,62)           109.4143         estimate D2E/DX2                !
 ! A119  A(22,21,63)           109.289          estimate D2E/DX2                !
 ! A120  A(62,21,63)           106.6331         estimate D2E/DX2                !
 ! A121  A(17,22,21)           115.419          estimate D2E/DX2                !
 ! A122  A(17,22,64)           108.5696         estimate D2E/DX2                !
 ! A123  A(17,22,65)           110.8621         estimate D2E/DX2                !
 ! A124  A(21,22,64)           105.7246         estimate D2E/DX2                !
 ! A125  A(21,22,65)           108.428          estimate D2E/DX2                !
 ! A126  A(64,22,65)           107.4452         estimate D2E/DX2                !
 ! A127  A(16,23,24)           111.3468         estimate D2E/DX2                !
 ! A128  A(16,23,28)           109.3328         estimate D2E/DX2                !
 ! A129  A(16,23,66)           109.1138         estimate D2E/DX2                !
 ! A130  A(24,23,28)           109.2957         estimate D2E/DX2                !
 ! A131  A(24,23,66)           108.6441         estimate D2E/DX2                !
 ! A132  A(28,23,66)           109.0731         estimate D2E/DX2                !
 ! A133  A(23,24,25)           113.0592         estimate D2E/DX2                !
 ! A134  A(23,24,67)           111.1623         estimate D2E/DX2                !
 ! A135  A(23,24,68)           110.4294         estimate D2E/DX2                !
 ! A136  A(25,24,67)           106.3055         estimate D2E/DX2                !
 ! A137  A(25,24,68)           108.9975         estimate D2E/DX2                !
 ! A138  A(67,24,68)           106.6025         estimate D2E/DX2                !
 ! A139  A(24,25,26)           111.0612         estimate D2E/DX2                !
 ! A140  A(24,25,69)           109.6034         estimate D2E/DX2                !
 ! A141  A(24,25,70)           109.4658         estimate D2E/DX2                !
 ! A142  A(26,25,69)           109.8847         estimate D2E/DX2                !
 ! A143  A(26,25,70)           109.8908         estimate D2E/DX2                !
 ! A144  A(69,25,70)           106.8403         estimate D2E/DX2                !
 ! A145  A(25,26,27)           110.1337         estimate D2E/DX2                !
 ! A146  A(25,26,71)           109.9318         estimate D2E/DX2                !
 ! A147  A(25,26,72)           109.7012         estimate D2E/DX2                !
 ! A148  A(27,26,71)           110.0316         estimate D2E/DX2                !
 ! A149  A(27,26,72)           109.9246         estimate D2E/DX2                !
 ! A150  A(71,26,72)           107.0673         estimate D2E/DX2                !
 ! A151  A(26,27,28)           111.9396         estimate D2E/DX2                !
 ! A152  A(26,27,73)           109.4887         estimate D2E/DX2                !
 ! A153  A(26,27,74)           109.2757         estimate D2E/DX2                !
 ! A154  A(28,27,73)           109.5003         estimate D2E/DX2                !
 ! A155  A(28,27,74)           109.5422         estimate D2E/DX2                !
 ! A156  A(73,27,74)           106.9662         estimate D2E/DX2                !
 ! A157  A(23,28,27)           113.8316         estimate D2E/DX2                !
 ! A158  A(23,28,75)           110.5623         estimate D2E/DX2                !
 ! A159  A(23,28,76)           110.1238         estimate D2E/DX2                !
 ! A160  A(27,28,75)           107.5749         estimate D2E/DX2                !
 ! A161  A(27,28,76)           108.1126         estimate D2E/DX2                !
 ! A162  A(75,28,76)           106.3175         estimate D2E/DX2                !
 ! D1    D(6,1,2,3)            -58.2784         estimate D2E/DX2                !
 ! D2    D(6,1,2,31)          -179.5684         estimate D2E/DX2                !
 ! D3    D(6,1,2,32)            63.1585         estimate D2E/DX2                !
 ! D4    D(29,1,2,3)          -179.7011         estimate D2E/DX2                !
 ! D5    D(29,1,2,31)           59.0088         estimate D2E/DX2                !
 ! D6    D(29,1,2,32)          -58.2642         estimate D2E/DX2                !
 ! D7    D(30,1,2,3)            62.9146         estimate D2E/DX2                !
 ! D8    D(30,1,2,31)          -58.3755         estimate D2E/DX2                !
 ! D9    D(30,1,2,32)         -175.6485         estimate D2E/DX2                !
 ! D10   D(2,1,6,5)             56.5876         estimate D2E/DX2                !
 ! D11   D(2,1,6,38)           178.0699         estimate D2E/DX2                !
 ! D12   D(2,1,6,39)           -65.0066         estimate D2E/DX2                !
 ! D13   D(29,1,6,5)           177.9753         estimate D2E/DX2                !
 ! D14   D(29,1,6,38)          -60.5424         estimate D2E/DX2                !
 ! D15   D(29,1,6,39)           56.3811         estimate D2E/DX2                !
 ! D16   D(30,1,6,5)           -64.5436         estimate D2E/DX2                !
 ! D17   D(30,1,6,38)           56.9387         estimate D2E/DX2                !
 ! D18   D(30,1,6,39)          173.8622         estimate D2E/DX2                !
 ! D19   D(1,2,3,4)             55.8111         estimate D2E/DX2                !
 ! D20   D(1,2,3,33)           -66.7483         estimate D2E/DX2                !
 ! D21   D(1,2,3,34)           178.1769         estimate D2E/DX2                !
 ! D22   D(31,2,3,4)           177.1883         estimate D2E/DX2                !
 ! D23   D(31,2,3,33)           54.629          estimate D2E/DX2                !
 ! D24   D(31,2,3,34)          -60.4459         estimate D2E/DX2                !
 ! D25   D(32,2,3,4)           -65.6669         estimate D2E/DX2                !
 ! D26   D(32,2,3,33)          171.7738         estimate D2E/DX2                !
 ! D27   D(32,2,3,34)           56.699          estimate D2E/DX2                !
 ! D28   D(2,3,4,5)            -50.3974         estimate D2E/DX2                !
 ! D29   D(2,3,4,7)           -174.02           estimate D2E/DX2                !
 ! D30   D(2,3,4,35)            68.5537         estimate D2E/DX2                !
 ! D31   D(33,3,4,5)            71.3085         estimate D2E/DX2                !
 ! D32   D(33,3,4,7)           -52.3141         estimate D2E/DX2                !
 ! D33   D(33,3,4,35)         -169.7404         estimate D2E/DX2                !
 ! D34   D(34,3,4,5)          -171.1441         estimate D2E/DX2                !
 ! D35   D(34,3,4,7)            65.2333         estimate D2E/DX2                !
 ! D36   D(34,3,4,35)          -52.193          estimate D2E/DX2                !
 ! D37   D(3,4,5,6)             48.5756         estimate D2E/DX2                !
 ! D38   D(3,4,5,36)           -73.6492         estimate D2E/DX2                !
 ! D39   D(3,4,5,37)           169.0855         estimate D2E/DX2                !
 ! D40   D(7,4,5,6)            171.0487         estimate D2E/DX2                !
 ! D41   D(7,4,5,36)            48.824          estimate D2E/DX2                !
 ! D42   D(7,4,5,37)           -68.4413         estimate D2E/DX2                !
 ! D43   D(35,4,5,6)           -70.054          estimate D2E/DX2                !
 ! D44   D(35,4,5,36)          167.7213         estimate D2E/DX2                !
 ! D45   D(35,4,5,37)           50.456          estimate D2E/DX2                !
 ! D46   D(3,4,7,8)            178.7961         estimate D2E/DX2                !
 ! D47   D(3,4,7,14)           -72.4011         estimate D2E/DX2                !
 ! D48   D(5,4,7,8)             55.2489         estimate D2E/DX2                !
 ! D49   D(5,4,7,14)           164.0517         estimate D2E/DX2                !
 ! D50   D(35,4,7,8)           -63.8755         estimate D2E/DX2                !
 ! D51   D(35,4,7,14)           44.9273         estimate D2E/DX2                !
 ! D52   D(4,5,6,1)            -52.3825         estimate D2E/DX2                !
 ! D53   D(4,5,6,38)          -174.0293         estimate D2E/DX2                !
 ! D54   D(4,5,6,39)            69.204          estimate D2E/DX2                !
 ! D55   D(36,5,6,1)            70.6824         estimate D2E/DX2                !
 ! D56   D(36,5,6,38)          -50.9644         estimate D2E/DX2                !
 ! D57   D(36,5,6,39)         -167.7312         estimate D2E/DX2                !
 ! D58   D(37,5,6,1)          -174.4786         estimate D2E/DX2                !
 ! D59   D(37,5,6,38)           63.8746         estimate D2E/DX2                !
 ! D60   D(37,5,6,39)          -52.8922         estimate D2E/DX2                !
 ! D61   D(4,7,8,9)           -177.564          estimate D2E/DX2                !
 ! D62   D(4,7,8,13)            53.1856         estimate D2E/DX2                !
 ! D63   D(4,7,8,40)           -64.1503         estimate D2E/DX2                !
 ! D64   D(14,7,8,9)            78.9792         estimate D2E/DX2                !
 ! D65   D(14,7,8,13)          -50.2712         estimate D2E/DX2                !
 ! D66   D(14,7,8,40)         -167.6071         estimate D2E/DX2                !
 ! D67   D(4,7,14,15)          177.9186         estimate D2E/DX2                !
 ! D68   D(4,7,14,51)           58.316          estimate D2E/DX2                !
 ! D69   D(4,7,14,52)          -55.0529         estimate D2E/DX2                !
 ! D70   D(8,7,14,15)          -75.9043         estimate D2E/DX2                !
 ! D71   D(8,7,14,51)          164.4931         estimate D2E/DX2                !
 ! D72   D(8,7,14,52)           51.1241         estimate D2E/DX2                !
 ! D73   D(7,8,9,10)           179.968          estimate D2E/DX2                !
 ! D74   D(7,8,9,41)            57.8645         estimate D2E/DX2                !
 ! D75   D(7,8,9,42)           -59.865          estimate D2E/DX2                !
 ! D76   D(13,8,9,10)          -49.3754         estimate D2E/DX2                !
 ! D77   D(13,8,9,41)         -171.479          estimate D2E/DX2                !
 ! D78   D(13,8,9,42)           70.7915         estimate D2E/DX2                !
 ! D79   D(40,8,9,10)           66.853          estimate D2E/DX2                !
 ! D80   D(40,8,9,41)          -55.2505         estimate D2E/DX2                !
 ! D81   D(40,8,9,42)         -172.98           estimate D2E/DX2                !
 ! D82   D(7,8,13,12)          178.4768         estimate D2E/DX2                !
 ! D83   D(7,8,13,49)          -61.0173         estimate D2E/DX2                !
 ! D84   D(7,8,13,50)           56.9649         estimate D2E/DX2                !
 ! D85   D(9,8,13,12)           49.5356         estimate D2E/DX2                !
 ! D86   D(9,8,13,49)          170.0415         estimate D2E/DX2                !
 ! D87   D(9,8,13,50)          -71.9763         estimate D2E/DX2                !
 ! D88   D(40,8,13,12)         -65.543          estimate D2E/DX2                !
 ! D89   D(40,8,13,49)          54.9629         estimate D2E/DX2                !
 ! D90   D(40,8,13,50)         172.9451         estimate D2E/DX2                !
 ! D91   D(8,9,10,11)           53.466          estimate D2E/DX2                !
 ! D92   D(8,9,10,43)          -68.3197         estimate D2E/DX2                !
 ! D93   D(8,9,10,44)          174.6435         estimate D2E/DX2                !
 ! D94   D(41,9,10,11)         176.2517         estimate D2E/DX2                !
 ! D95   D(41,9,10,43)          54.466          estimate D2E/DX2                !
 ! D96   D(41,9,10,44)         -62.5708         estimate D2E/DX2                !
 ! D97   D(42,9,10,11)         -69.1584         estimate D2E/DX2                !
 ! D98   D(42,9,10,43)         169.0559         estimate D2E/DX2                !
 ! D99   D(42,9,10,44)          52.0191         estimate D2E/DX2                !
 ! D100  D(9,10,11,12)         -57.407          estimate D2E/DX2                !
 ! D101  D(9,10,11,45)        -178.8485         estimate D2E/DX2                !
 ! D102  D(9,10,11,46)          63.679          estimate D2E/DX2                !
 ! D103  D(43,10,11,12)         64.197          estimate D2E/DX2                !
 ! D104  D(43,10,11,45)        -57.2446         estimate D2E/DX2                !
 ! D105  D(43,10,11,46)       -174.717          estimate D2E/DX2                !
 ! D106  D(44,10,11,12)       -178.5145         estimate D2E/DX2                !
 ! D107  D(44,10,11,45)         60.0439         estimate D2E/DX2                !
 ! D108  D(44,10,11,46)        -57.4285         estimate D2E/DX2                !
 ! D109  D(10,11,12,13)         57.8717         estimate D2E/DX2                !
 ! D110  D(10,11,12,47)        -63.6371         estimate D2E/DX2                !
 ! D111  D(10,11,12,48)        179.2688         estimate D2E/DX2                !
 ! D112  D(45,11,12,13)        179.2985         estimate D2E/DX2                !
 ! D113  D(45,11,12,47)         57.7896         estimate D2E/DX2                !
 ! D114  D(45,11,12,48)        -59.3045         estimate D2E/DX2                !
 ! D115  D(46,11,12,13)        -63.3305         estimate D2E/DX2                !
 ! D116  D(46,11,12,47)        175.1606         estimate D2E/DX2                !
 ! D117  D(46,11,12,48)         58.0665         estimate D2E/DX2                !
 ! D118  D(11,12,13,8)         -54.1632         estimate D2E/DX2                !
 ! D119  D(11,12,13,49)       -176.31           estimate D2E/DX2                !
 ! D120  D(11,12,13,50)         68.7848         estimate D2E/DX2                !
 ! D121  D(47,12,13,8)          67.2604         estimate D2E/DX2                !
 ! D122  D(47,12,13,49)        -54.8864         estimate D2E/DX2                !
 ! D123  D(47,12,13,50)       -169.7916         estimate D2E/DX2                !
 ! D124  D(48,12,13,8)        -175.7257         estimate D2E/DX2                !
 ! D125  D(48,12,13,49)         62.1274         estimate D2E/DX2                !
 ! D126  D(48,12,13,50)        -52.7777         estimate D2E/DX2                !
 ! D127  D(7,14,15,16)        -178.9214         estimate D2E/DX2                !
 ! D128  D(7,14,15,53)          61.6034         estimate D2E/DX2                !
 ! D129  D(7,14,15,54)         -55.5616         estimate D2E/DX2                !
 ! D130  D(51,14,15,16)        -60.3802         estimate D2E/DX2                !
 ! D131  D(51,14,15,53)       -179.8554         estimate D2E/DX2                !
 ! D132  D(51,14,15,54)         62.9796         estimate D2E/DX2                !
 ! D133  D(52,14,15,16)         55.5921         estimate D2E/DX2                !
 ! D134  D(52,14,15,53)        -63.8831         estimate D2E/DX2                !
 ! D135  D(52,14,15,54)        178.9519         estimate D2E/DX2                !
 ! D136  D(14,15,16,17)        -57.2877         estimate D2E/DX2                !
 ! D137  D(14,15,16,23)         54.7943         estimate D2E/DX2                !
 ! D138  D(53,15,16,17)         65.4637         estimate D2E/DX2                !
 ! D139  D(53,15,16,23)        177.5457         estimate D2E/DX2                !
 ! D140  D(54,15,16,17)        178.4675         estimate D2E/DX2                !
 ! D141  D(54,15,16,23)        -69.4505         estimate D2E/DX2                !
 ! D142  D(15,16,17,18)        -64.4609         estimate D2E/DX2                !
 ! D143  D(15,16,17,22)        171.3977         estimate D2E/DX2                !
 ! D144  D(15,16,17,55)         53.1868         estimate D2E/DX2                !
 ! D145  D(23,16,17,18)       -172.7553         estimate D2E/DX2                !
 ! D146  D(23,16,17,22)         63.1033         estimate D2E/DX2                !
 ! D147  D(23,16,17,55)        -55.1076         estimate D2E/DX2                !
 ! D148  D(15,16,23,24)        178.9908         estimate D2E/DX2                !
 ! D149  D(15,16,23,28)         58.1202         estimate D2E/DX2                !
 ! D150  D(15,16,23,66)        -61.0949         estimate D2E/DX2                !
 ! D151  D(17,16,23,24)        -73.7328         estimate D2E/DX2                !
 ! D152  D(17,16,23,28)        165.3966         estimate D2E/DX2                !
 ! D153  D(17,16,23,66)         46.1815         estimate D2E/DX2                !
 ! D154  D(16,17,18,19)       -165.614          estimate D2E/DX2                !
 ! D155  D(16,17,18,56)         73.0952         estimate D2E/DX2                !
 ! D156  D(16,17,18,57)        -43.625          estimate D2E/DX2                !
 ! D157  D(22,17,18,19)        -41.916          estimate D2E/DX2                !
 ! D158  D(22,17,18,56)       -163.2069         estimate D2E/DX2                !
 ! D159  D(22,17,18,57)         80.073          estimate D2E/DX2                !
 ! D160  D(55,17,18,19)         76.2725         estimate D2E/DX2                !
 ! D161  D(55,17,18,56)        -45.0184         estimate D2E/DX2                !
 ! D162  D(55,17,18,57)       -161.7385         estimate D2E/DX2                !
 ! D163  D(16,17,22,21)        161.7789         estimate D2E/DX2                !
 ! D164  D(16,17,22,64)        -79.7837         estimate D2E/DX2                !
 ! D165  D(16,17,22,65)         38.0222         estimate D2E/DX2                !
 ! D166  D(18,17,22,21)         40.0351         estimate D2E/DX2                !
 ! D167  D(18,17,22,64)        158.4725         estimate D2E/DX2                !
 ! D168  D(18,17,22,65)        -83.7215         estimate D2E/DX2                !
 ! D169  D(55,17,22,21)        -78.8611         estimate D2E/DX2                !
 ! D170  D(55,17,22,64)         39.5763         estimate D2E/DX2                !
 ! D171  D(55,17,22,65)        157.3823         estimate D2E/DX2                !
 ! D172  D(17,18,19,20)         53.278          estimate D2E/DX2                !
 ! D173  D(17,18,19,58)        -68.2692         estimate D2E/DX2                !
 ! D174  D(17,18,19,59)        174.6029         estimate D2E/DX2                !
 ! D175  D(56,18,19,20)        175.7366         estimate D2E/DX2                !
 ! D176  D(56,18,19,58)         54.1894         estimate D2E/DX2                !
 ! D177  D(56,18,19,59)        -62.9384         estimate D2E/DX2                !
 ! D178  D(57,18,19,20)        -70.1744         estimate D2E/DX2                !
 ! D179  D(57,18,19,58)        168.2784         estimate D2E/DX2                !
 ! D180  D(57,18,19,59)         51.1505         estimate D2E/DX2                !
 ! D181  D(18,19,20,21)        -61.0056         estimate D2E/DX2                !
 ! D182  D(18,19,20,60)        177.9002         estimate D2E/DX2                !
 ! D183  D(18,19,20,61)         60.055          estimate D2E/DX2                !
 ! D184  D(58,19,20,21)         60.5244         estimate D2E/DX2                !
 ! D185  D(58,19,20,60)        -60.5697         estimate D2E/DX2                !
 ! D186  D(58,19,20,61)       -178.415          estimate D2E/DX2                !
 ! D187  D(59,19,20,21)        177.7673         estimate D2E/DX2                !
 ! D188  D(59,19,20,60)         56.6732         estimate D2E/DX2                !
 ! D189  D(59,19,20,61)        -61.1721         estimate D2E/DX2                !
 ! D190  D(19,20,21,22)         59.1952         estimate D2E/DX2                !
 ! D191  D(19,20,21,62)        -62.3347         estimate D2E/DX2                !
 ! D192  D(19,20,21,63)       -179.1404         estimate D2E/DX2                !
 ! D193  D(60,20,21,22)       -179.6931         estimate D2E/DX2                !
 ! D194  D(60,20,21,62)         58.7771         estimate D2E/DX2                !
 ! D195  D(60,20,21,63)        -58.0287         estimate D2E/DX2                !
 ! D196  D(61,20,21,22)        -61.8346         estimate D2E/DX2                !
 ! D197  D(61,20,21,62)        176.6356         estimate D2E/DX2                !
 ! D198  D(61,20,21,63)         59.8298         estimate D2E/DX2                !
 ! D199  D(20,21,22,17)        -49.732          estimate D2E/DX2                !
 ! D200  D(20,21,22,64)       -169.7388         estimate D2E/DX2                !
 ! D201  D(20,21,22,65)         75.2942         estimate D2E/DX2                !
 ! D202  D(62,21,22,17)         71.8353         estimate D2E/DX2                !
 ! D203  D(62,21,22,64)        -48.1715         estimate D2E/DX2                !
 ! D204  D(62,21,22,65)       -163.1385         estimate D2E/DX2                !
 ! D205  D(63,21,22,17)       -171.7481         estimate D2E/DX2                !
 ! D206  D(63,21,22,64)         68.2451         estimate D2E/DX2                !
 ! D207  D(63,21,22,65)        -46.7219         estimate D2E/DX2                !
 ! D208  D(16,23,24,25)       -172.8566         estimate D2E/DX2                !
 ! D209  D(16,23,24,67)         67.6713         estimate D2E/DX2                !
 ! D210  D(16,23,24,68)        -50.4378         estimate D2E/DX2                !
 ! D211  D(28,23,24,25)        -51.9642         estimate D2E/DX2                !
 ! D212  D(28,23,24,67)       -171.4363         estimate D2E/DX2                !
 ! D213  D(28,23,24,68)         70.4546         estimate D2E/DX2                !
 ! D214  D(66,23,24,25)         66.9515         estimate D2E/DX2                !
 ! D215  D(66,23,24,67)        -52.5206         estimate D2E/DX2                !
 ! D216  D(66,23,24,68)       -170.6296         estimate D2E/DX2                !
 ! D217  D(16,23,28,27)        171.9278         estimate D2E/DX2                !
 ! D218  D(16,23,28,75)        -66.8569         estimate D2E/DX2                !
 ! D219  D(16,23,28,76)         50.3395         estimate D2E/DX2                !
 ! D220  D(24,23,28,27)         49.8171         estimate D2E/DX2                !
 ! D221  D(24,23,28,75)        171.0324         estimate D2E/DX2                !
 ! D222  D(24,23,28,76)        -71.7713         estimate D2E/DX2                !
 ! D223  D(66,23,28,27)        -68.832          estimate D2E/DX2                !
 ! D224  D(66,23,28,75)         52.3834         estimate D2E/DX2                !
 ! D225  D(66,23,28,76)        169.5797         estimate D2E/DX2                !
 ! D226  D(23,24,25,26)         57.5867         estimate D2E/DX2                !
 ! D227  D(23,24,25,69)        -64.0178         estimate D2E/DX2                !
 ! D228  D(23,24,25,70)        179.1066         estimate D2E/DX2                !
 ! D229  D(67,24,25,26)        179.8174         estimate D2E/DX2                !
 ! D230  D(67,24,25,69)         58.2129         estimate D2E/DX2                !
 ! D231  D(67,24,25,70)        -58.6627         estimate D2E/DX2                !
 ! D232  D(68,24,25,26)        -65.6278         estimate D2E/DX2                !
 ! D233  D(68,24,25,69)        172.7677         estimate D2E/DX2                !
 ! D234  D(68,24,25,70)         55.8921         estimate D2E/DX2                !
 ! D235  D(24,25,26,27)        -57.9757         estimate D2E/DX2                !
 ! D236  D(24,25,26,71)       -179.3765         estimate D2E/DX2                !
 ! D237  D(24,25,26,72)         63.1425         estimate D2E/DX2                !
 ! D238  D(69,25,26,27)         63.4641         estimate D2E/DX2                !
 ! D239  D(69,25,26,71)        -57.9367         estimate D2E/DX2                !
 ! D240  D(69,25,26,72)       -175.4176         estimate D2E/DX2                !
 ! D241  D(70,25,26,27)       -179.2466         estimate D2E/DX2                !
 ! D242  D(70,25,26,71)         59.3526         estimate D2E/DX2                !
 ! D243  D(70,25,26,72)        -58.1283         estimate D2E/DX2                !
 ! D244  D(25,26,27,28)         55.876          estimate D2E/DX2                !
 ! D245  D(25,26,27,73)        -65.7449         estimate D2E/DX2                !
 ! D246  D(25,26,27,74)        177.403          estimate D2E/DX2                !
 ! D247  D(71,26,27,28)        177.2172         estimate D2E/DX2                !
 ! D248  D(71,26,27,73)         55.5964         estimate D2E/DX2                !
 ! D249  D(71,26,27,74)        -61.2557         estimate D2E/DX2                !
 ! D250  D(72,26,27,28)        -65.1086         estimate D2E/DX2                !
 ! D251  D(72,26,27,73)        173.2706         estimate D2E/DX2                !
 ! D252  D(72,26,27,74)         56.4184         estimate D2E/DX2                !
 ! D253  D(26,27,28,23)        -53.112          estimate D2E/DX2                !
 ! D254  D(26,27,28,75)       -175.9776         estimate D2E/DX2                !
 ! D255  D(26,27,28,76)         69.5859         estimate D2E/DX2                !
 ! D256  D(73,27,28,23)         68.5022         estimate D2E/DX2                !
 ! D257  D(73,27,28,75)        -54.3634         estimate D2E/DX2                !
 ! D258  D(73,27,28,76)       -168.7999         estimate D2E/DX2                !
 ! D259  D(74,27,28,23)       -174.4856         estimate D2E/DX2                !
 ! D260  D(74,27,28,75)         62.6488         estimate D2E/DX2                !
 ! D261  D(74,27,28,76)        -51.7877         estimate D2E/DX2                !
 --------------------------------------------------------------------------------
 Trust Radius=3.00D-01 FncErr=1.00D-07 GrdErr=1.00D-06
 Number of steps in this run= 456 maximum allowed number of steps= 456.
 GradGradGradGradGradGradGradGradGradGradGradGradGradGradGradGradGradGrad

 Leave Link  103 at Fri Oct  1 18:35:36 2021, MaxMem= 3221225472 cpu:       0.0
 (Enter /sw/target/amd/app/gaussian/Gaussian09RevA.02_gcc-4.9.2/g09/l202.exe)
 Stoichiometry    C26H48P2
 Framework group  C1[X(C26H48P2)]
 Deg. of freedom   222
 Full point group                 C1      NOp   1
 Largest Abelian subgroup         C1      NOp   1
 Largest concise Abelian subgroup C1      NOp   1
                         Standard orientation:                         
 ---------------------------------------------------------------------
 Center     Atomic      Atomic             Coordinates (Angstroms)
 Number     Number       Type             X           Y           Z
 ---------------------------------------------------------------------
      1          6           0       -4.319525   -3.818770    1.663083
      2          6           0       -2.802308   -3.782266    1.770444
      3          6           0       -2.192398   -2.980721    0.624114
      4          6           0       -2.756809   -1.546612    0.535614
      5          6           0       -4.296877   -1.549196    0.551318
      6          6           0       -4.888623   -2.408991    1.669875
      7         15           0       -2.081790   -0.698533   -1.017284
      8          6           0       -2.898865    0.978399   -0.959961
      9          6           0       -2.528970    1.831798   -2.187889
     10          6           0       -3.184685    3.210568   -2.168083
     11          6           0       -2.895565    3.941846   -0.864095
     12          6           0       -3.371651    3.121792    0.327034
     13          6           0       -2.712159    1.744137    0.356709
     14          6           0       -0.333618   -0.433579   -0.467638
     15          6           0        0.603819    0.207435   -1.485764
     16         15           0        2.365433    0.436113   -0.922992
     17          6           0        2.139579    1.482469    0.628380
     18          6           0        1.543083    2.850009    0.206612
     19          6           0        1.618443    3.931139    1.280710
     20          6           0        3.039587    4.088429    1.792785
     21          6           0        3.497714    2.783658    2.409272
     22          6           0        3.457406    1.633624    1.407462
     23          6           0        2.873124   -1.285917   -0.396438
     24          6           0        4.337045   -1.316001    0.088823
     25          6           0        4.846779   -2.728085    0.363829
     26          6           0        4.727554   -3.600703   -0.870934
     27          6           0        3.279087   -3.653376   -1.337655
     28          6           0        2.710145   -2.257457   -1.593237
     29          1           0       -4.737255   -4.393240    2.496495
     30          1           0       -4.612489   -4.333306    0.738878
     31          1           0       -2.405489   -4.803692    1.756645
     32          1           0       -2.508842   -3.338100    2.729296
     33          1           0       -2.370386   -3.518551   -0.316944
     34          1           0       -1.106419   -2.960424    0.770049
     35          1           0       -2.400971   -0.988660    1.410737
     36          1           0       -4.687259   -1.903842   -0.411679
     37          1           0       -4.677288   -0.530307    0.683219
     38          1           0       -5.977393   -2.451281    1.557445
     39          1           0       -4.687082   -1.937950    2.639050
     40          1           0       -3.971637    0.771023   -1.064734
     41          1           0       -2.815733    1.312138   -3.112190
     42          1           0       -1.453421    1.992592   -2.247893
     43          1           0       -4.267286    3.104850   -2.304700
     44          1           0       -2.811455    3.803638   -3.011383
     45          1           0       -3.393014    4.917549   -0.866891
     46          1           0       -1.818629    4.130022   -0.774505
     47          1           0       -4.462039    3.008005    0.281139
     48          1           0       -3.145101    3.654672    1.257146
     49          1           0       -3.144677    1.184405    1.193557
     50          1           0       -1.651337    1.874572    0.585317
     51          1           0        0.058076   -1.425208   -0.231507
     52          1           0       -0.343588    0.118212    0.477761
     53          1           0        0.262718    1.205476   -1.758595
     54          1           0        0.608415   -0.372557   -2.410838
     55          1           0        1.426187    0.985905    1.294156
     56          1           0        0.489098    2.727011   -0.069107
     57          1           0        2.049758    3.231096   -0.690139
     58          1           0        0.949695    3.676024    2.111991
     59          1           0        1.265658    4.883646    0.868647
     60          1           0        3.085755    4.891471    2.534677
     61          1           0        3.708726    4.372035    0.967245
     62          1           0        2.860030    2.541226    3.268710
     63          1           0        4.518276    2.891539    2.796122
     64          1           0        3.622072    0.724969    1.992687
     65          1           0        4.306466    1.741369    0.721594
     66          1           0        2.225459   -1.615978    0.423449
     67          1           0        4.454093   -0.763204    1.017063
     68          1           0        4.994341   -0.835986   -0.646936
     69          1           0        4.276260   -3.171158    1.190778
     70          1           0        5.892626   -2.682116    0.688393
     71          1           0        5.087583   -4.611338   -0.650127
     72          1           0        5.363241   -3.199909   -1.669680
     73          1           0        2.670090   -4.164142   -0.582985
     74          1           0        3.216211   -4.248656   -2.255779
     75          1           0        1.652013   -2.373904   -1.853089
     76          1           0        3.203447   -1.845403   -2.484617
 ---------------------------------------------------------------------
 Rotational constants (GHZ):      0.1492522      0.1056785      0.0745869
 Leave Link  202 at Fri Oct  1 18:35:36 2021, MaxMem= 3221225472 cpu:       0.2
 (Enter /sw/target/amd/app/gaussian/Gaussian09RevA.02_gcc-4.9.2/g09/l301.exe)
 Standard basis: 6-31G(d) (6D, 7F)
 Ernie: Thresh=  0.10000D-02 Tol=  0.10000D-05 Strict=F.
 There are   524 symmetry adapted basis functions of A   symmetry.
 Integral buffers will be    131072 words long.
 Raffenetti 2 integral format.
 Two-electron integral symmetry is turned on.
   524 basis functions,  1024 primitive gaussians,   524 cartesian basis functions
   117 alpha electrons      117 beta electrons
       nuclear repulsion energy      3247.7172000754 Hartrees.
 IExCor=  402 DFT=T Ex+Corr=B3LYP ExCW=0 ScaHFX=  0.200000
 ScaDFX=  0.800000  0.720000  1.000000  0.810000 ScalE2=  1.000000  1.000000
 IRadAn=      0 IRanWt=     -1 IRanGd=            0 ICorTp=0
 NAtoms=   76 NActive=   76 NUniq=   76 SFac= 7.50D-01 NAtFMM=   80 NAOKFM=F Big=T
 Leave Link  301 at Fri Oct  1 18:35:36 2021, MaxMem= 3221225472 cpu:       0.1
 (Enter /sw/target/amd/app/gaussian/Gaussian09RevA.02_gcc-4.9.2/g09/l302.exe)
 NPDir=0 NMtPBC=     1 NCelOv=     1 NCel=       1 NClECP=     1 NCelD=      1
         NCelK=      1 NCelE2=     1 NClLst=     1 CellRange=     0.0.
 One-electron integrals computed using PRISM.
 NBasis=   524 RedAO= T  NBF=   524
 NBsUse=   524 1.00D-06 NBFU=   524
 Precomputing XC quadrature grid using
 IXCGrd= 2 IRadAn=           0 IRanWt=          -1 IRanGd=           0 AccXCQ= 1.00D-10.
 NRdTot=    4865 NPtTot=      620368 NUsed=      655424 NTot=      655456
 NSgBfM=   512   512   513   513   513 NAtAll=    76    76.
 Leave Link  302 at Fri Oct  1 18:35:46 2021, MaxMem= 3221225472 cpu:      14.8
 (Enter /sw/target/amd/app/gaussian/Gaussian09RevA.02_gcc-4.9.2/g09/l303.exe)
 DipDrv:  MaxL=1.
 Leave Link  303 at Fri Oct  1 18:35:47 2021, MaxMem= 3221225472 cpu:       0.6
 (Enter /sw/target/amd/app/gaussian/Gaussian09RevA.02_gcc-4.9.2/g09/l401.exe)
 Harris functional with IExCor=  402 diagonalized for initial guess.
 ExpMin= 9.98D-02 ExpMax= 1.94D+04 ExpMxC= 2.91D+03 IAcc=2 IRadAn=         0 AccDes= 0.00D+00
 HarFok:  IExCor=  402 AccDes= 0.00D+00 IRadAn=         0 IDoV= 1
 ScaDFX=  1.000000  1.000000  1.000000  1.000000
 FoFCou: FMM=F IPFlag=           0 FMFlag=      100000 FMFlg1=           1
         NFxFlg=           0 DoJE=T BraDBF=F KetDBF=T FulRan=T
         Omega=  0.000000  0.000000  1.000000  0.000000  0.000000 ICntrl=     500 IOpCl=  0
         NMat0=    1 NMatS0=    1 NMatT0=    0 NMatD0=    1 NMtDS0=    0 NMtDT0=    0
         I1Cent=           4 NGrid=           0.
 Petite list used in FoFCou.
 Harris En= -1702.64960582374    
 Initial guess orbital symmetries:
       Occupied  (A) (A) (A) (A) (A) (A) (A) (A) (A) (A) (A) (A)
                 (A) (A) (A) (A) (A) (A) (A) (A) (A) (A) (A) (A)
                 (A) (A) (A) (A) (A) (A) (A) (A) (A) (A) (A) (A)
                 (A) (A) (A) (A) (A) (A) (A) (A) (A) (A) (A) (A)
                 (A) (A) (A) (A) (A) (A) (A) (A) (A) (A) (A) (A)
                 (A) (A) (A) (A) (A) (A) (A) (A) (A) (A) (A) (A)
                 (A) (A) (A) (A) (A) (A) (A) (A) (A) (A) (A) (A)
                 (A) (A) (A) (A) (A) (A) (A) (A) (A) (A) (A) (A)
                 (A) (A) (A) (A) (A) (A) (A) (A) (A) (A) (A) (A)
                 (A) (A) (A) (A) (A) (A) (A) (A) (A)
       Virtual   (A) (A) (A) (A) (A) (A) (A) (A) (A) (A) (A) (A)
                 (A) (A) (A) (A) (A) (A) (A) (A) (A) (A) (A) (A)
                 (A) (A) (A) (A) (A) (A) (A) (A) (A) (A) (A) (A)
                 (A) (A) (A) (A) (A) (A) (A) (A) (A) (A) (A) (A)
                 (A) (A) (A) (A) (A) (A) (A) (A) (A) (A) (A) (A)
                 (A) (A) (A) (A) (A) (A) (A) (A) (A) (A) (A) (A)
                 (A) (A) (A) (A) (A) (A) (A) (A) (A) (A) (A) (A)
                 (A) (A) (A) (A) (A) (A) (A) (A) (A) (A) (A) (A)
                 (A) (A) (A) (A) (A) (A) (A) (A) (A) (A) (A) (A)
                 (A) (A) (A) (A) (A) (A) (A) (A) (A) (A) (A) (A)
                 (A) (A) (A) (A) (A) (A) (A) (A) (A) (A) (A) (A)
                 (A) (A) (A) (A) (A) (A) (A) (A) (A) (A) (A) (A)
                 (A) (A) (A) (A) (A) (A) (A) (A) (A) (A) (A) (A)
                 (A) (A) (A) (A) (A) (A) (A) (A) (A) (A) (A) (A)
                 (A) (A) (A) (A) (A) (A) (A) (A) (A) (A) (A) (A)
                 (A) (A) (A) (A) (A) (A) (A) (A) (A) (A) (A) (A)
                 (A) (A) (A) (A) (A) (A) (A) (A) (A) (A) (A) (A)
                 (A) (A) (A) (A) (A) (A) (A) (A) (A) (A) (A) (A)
                 (A) (A) (A) (A) (A) (A) (A) (A) (A) (A) (A) (A)
                 (A) (A) (A) (A) (A) (A) (A) (A) (A) (A) (A) (A)
                 (A) (A) (A) (A) (A) (A) (A) (A) (A) (A) (A) (A)
                 (A) (A) (A) (A) (A) (A) (A) (A) (A) (A) (A) (A)
                 (A) (A) (A) (A) (A) (A) (A) (A) (A) (A) (A) (A)
                 (A) (A) (A) (A) (A) (A) (A) (A) (A) (A) (A) (A)
                 (A) (A) (A) (A) (A) (A) (A) (A) (A) (A) (A) (A)
                 (A) (A) (A) (A) (A) (A) (A) (A) (A) (A) (A) (A)
                 (A) (A) (A) (A) (A) (A) (A) (A) (A) (A) (A) (A)
                 (A) (A) (A) (A) (A) (A) (A) (A) (A) (A) (A) (A)
                 (A) (A) (A) (A) (A) (A) (A) (A) (A) (A) (A) (A)
                 (A) (A) (A) (A) (A) (A) (A) (A) (A) (A) (A) (A)
                 (A) (A) (A) (A) (A) (A) (A) (A) (A) (A) (A) (A)
                 (A) (A) (A) (A) (A) (A) (A) (A) (A) (A) (A) (A)
                 (A) (A) (A) (A) (A) (A) (A) (A) (A) (A) (A) (A)
                 (A) (A) (A) (A) (A) (A) (A) (A) (A) (A) (A)
 The electronic state of the initial guess is 1-A.
 Leave Link  401 at Fri Oct  1 18:36:59 2021, MaxMem= 3221225472 cpu:     110.0
 (Enter /sw/target/amd/app/gaussian/Gaussian09RevA.02_gcc-4.9.2/g09/l502.exe)
 Closed shell SCF:
 Requested convergence on RMS density matrix=1.00D-08 within  64 cycles.
 Requested convergence on MAX density matrix=1.00D-06.
 Requested convergence on             energy=1.00D-06.
 No special actions if energy rises.
 Using DIIS extrapolation, IDIIS=  1040.
 Integral symmetry usage will be decided dynamically.
       654727 words used for storage of precomputed grid.
 IEnd=     1494311 IEndB=     1494311 NGot=  3221225472 MDV=  3220010486
 LenX=  3220010486 LenY=  3219735386
 Fock matrices will be formed incrementally for  20 cycles.
 Integral accuracy reduced to 1.0D-05 until final iterations.

 Cycle   1  Pass 0  IDiag  1:
 FoFCou: FMM=T IPFlag=           0 FMFlag=      100000 FMFlg1=           1
         NFxFlg=           0 DoJE=F BraDBF=F KetDBF=F FulRan=T
         Omega=  0.000000  0.000000  1.000000  0.000000  0.000000 ICntrl=       0 IOpCl=  0
         NMat0=    1 NMatS0=    1 NMatT0=    0 NMatD0=    1 NMtDS0=    0 NMtDT0=    0
         I1Cent=           0 NGrid=           0.
 Symmetry not used in FoFCou.
 FMM levels:  10  Number of levels for PrismC:   9
 E= -1701.35813979320    
 DIIS: error= 2.10D-02 at cycle   1 NSaved=   1.
 NSaved= 1 IEnMin= 1 EnMin= -1701.35813979320     IErMin= 1 ErrMin= 2.10D-02
 ErrMax= 2.10D-02 EMaxC= 1.00D-01 BMatC= 9.54D-01 BMatP= 9.54D-01
 IDIUse=3 WtCom= 7.90D-01 WtEn= 2.10D-01
 Coeff-Com:  0.100D+01
 Coeff-En:   0.100D+01
 Coeff:      0.100D+01
 Gap=     0.302 Goal=   None    Shift=    0.000
 GapD=    0.302 DampG=1.000 DampE=0.500 DampFc=0.5000 IDamp=-1.
 Damping current iteration by 5.00D-01
 RMSDP=4.68D-03 MaxDP=1.61D-01              OVMax= 1.89D-01

 Cycle   2  Pass 0  IDiag  1:
 RMSU=  1.63D-03    CP:  9.74D-01
 E= -1701.77406974671     Delta-E=       -0.415929953505 Rises=F Damp=T
 DIIS: error= 6.68D-03 at cycle   2 NSaved=   2.
 NSaved= 2 IEnMin= 2 EnMin= -1701.77406974671     IErMin= 2 ErrMin= 6.68D-03
 ErrMax= 6.68D-03 EMaxC= 1.00D-01 BMatC= 6.44D-02 BMatP= 9.54D-01
 IDIUse=3 WtCom= 9.33D-01 WtEn= 6.68D-02
 Coeff-Com:  0.124D+00 0.876D+00
 Coeff-En:   0.210D+00 0.790D+00
 Coeff:      0.130D+00 0.870D+00
 Gap=     0.335 Goal=   None    Shift=    0.000
 RMSDP=1.01D-03 MaxDP=7.82D-02 DE=-4.16D-01 OVMax= 1.16D-01

 Cycle   3  Pass 0  IDiag  1:
 RMSU=  6.42D-04    CP:  9.75D-01  8.08D-01
 E= -1702.39743742193     Delta-E=       -0.623367675227 Rises=F Damp=F
 DIIS: error= 4.24D-03 at cycle   3 NSaved=   3.
 NSaved= 3 IEnMin= 3 EnMin= -1702.39743742193     IErMin= 3 ErrMin= 4.24D-03
 ErrMax= 4.24D-03 EMaxC= 1.00D-01 BMatC= 1.13D-02 BMatP= 6.44D-02
 IDIUse=3 WtCom= 9.58D-01 WtEn= 4.24D-02
 Coeff-Com:  0.796D-02 0.269D+00 0.723D+00
 Coeff-En:   0.000D+00 0.000D+00 0.100D+01
 Coeff:      0.762D-02 0.257D+00 0.735D+00
 Gap=     0.255 Goal=   None    Shift=    0.000
 RMSDP=3.83D-04 MaxDP=2.12D-02 DE=-6.23D-01 OVMax= 2.20D-02

 Cycle   4  Pass 0  IDiag  1:
 RMSU=  1.73D-04    CP:  9.75D-01  8.46D-01  6.90D-01
 E= -1702.40704280454     Delta-E=       -0.009605382607 Rises=F Damp=F
 DIIS: error= 1.03D-03 at cycle   4 NSaved=   4.
 NSaved= 4 IEnMin= 4 EnMin= -1702.40704280454     IErMin= 4 ErrMin= 1.03D-03
 ErrMax= 1.03D-03 EMaxC= 1.00D-01 BMatC= 1.67D-03 BMatP= 1.13D-02
 IDIUse=3 WtCom= 9.90D-01 WtEn= 1.03D-02
 Coeff-Com: -0.240D-02 0.506D-01 0.300D+00 0.652D+00
 Coeff-En:   0.000D+00 0.000D+00 0.269D-01 0.973D+00
 Coeff:     -0.238D-02 0.501D-01 0.297D+00 0.655D+00
 Gap=     0.249 Goal=   None    Shift=    0.000
 RMSDP=1.47D-04 MaxDP=8.40D-03 DE=-9.61D-03 OVMax= 1.19D-02

 Cycle   5  Pass 0  IDiag  1:
 RMSU=  5.87D-05    CP:  9.75D-01  8.40D-01  7.65D-01  5.96D-01
 E= -1702.40844887964     Delta-E=       -0.001406075098 Rises=F Damp=F
 DIIS: error= 4.57D-04 at cycle   5 NSaved=   5.
 NSaved= 5 IEnMin= 5 EnMin= -1702.40844887964     IErMin= 5 ErrMin= 4.57D-04
 ErrMax= 4.57D-04 EMaxC= 1.00D-01 BMatC= 3.85D-04 BMatP= 1.67D-03
 IDIUse=3 WtCom= 9.95D-01 WtEn= 4.57D-03
 Coeff-Com: -0.177D-02 0.496D-02 0.104D+00 0.380D+00 0.512D+00
 Coeff-En:   0.000D+00 0.000D+00 0.000D+00 0.167D+00 0.833D+00
 Coeff:     -0.176D-02 0.494D-02 0.104D+00 0.379D+00 0.513D+00
 Gap=     0.248 Goal=   None    Shift=    0.000
 RMSDP=5.14D-05 MaxDP=2.80D-03 DE=-1.41D-03 OVMax= 4.67D-03

 Cycle   6  Pass 0  IDiag  1:
 RMSU=  1.34D-05    CP:  9.75D-01  8.42D-01  7.64D-01  6.89D-01  4.95D-01
 E= -1702.40885842056     Delta-E=       -0.000409540924 Rises=F Damp=F
 DIIS: error= 7.89D-05 at cycle   6 NSaved=   6.
 NSaved= 6 IEnMin= 6 EnMin= -1702.40885842056     IErMin= 6 ErrMin= 7.89D-05
 ErrMax= 7.89D-05 EMaxC= 1.00D-01 BMatC= 9.69D-06 BMatP= 3.85D-04
 IDIUse=1 WtCom= 1.00D+00 WtEn= 0.00D+00
 Coeff-Com: -0.738D-03 0.387D-03 0.404D-01 0.164D+00 0.256D+00 0.540D+00
 Coeff:     -0.738D-03 0.387D-03 0.404D-01 0.164D+00 0.256D+00 0.540D+00
 Gap=     0.248 Goal=   None    Shift=    0.000
 RMSDP=1.01D-05 MaxDP=6.08D-04 DE=-4.10D-04 OVMax= 6.85D-04

 Cycle   7  Pass 0  IDiag  1:
 RMSU=  3.58D-06    CP:  9.75D-01  8.42D-01  7.63D-01  6.95D-01  5.30D-01
                    CP:  5.77D-01
 E= -1702.40886909130     Delta-E=       -0.000010670738 Rises=F Damp=F
 DIIS: error= 1.48D-05 at cycle   7 NSaved=   7.
 NSaved= 7 IEnMin= 7 EnMin= -1702.40886909130     IErMin= 7 ErrMin= 1.48D-05
 ErrMax= 1.48D-05 EMaxC= 1.00D-01 BMatC= 3.95D-07 BMatP= 9.69D-06
 IDIUse=1 WtCom= 1.00D+00 WtEn= 0.00D+00
 Coeff-Com: -0.627D-04-0.388D-03 0.563D-02 0.274D-01 0.525D-01 0.207D+00
 Coeff-Com:  0.708D+00
 Coeff:     -0.627D-04-0.388D-03 0.563D-02 0.274D-01 0.525D-01 0.207D+00
 Coeff:      0.708D+00
 Gap=     0.248 Goal=   None    Shift=    0.000
 RMSDP=1.92D-06 MaxDP=8.57D-05 DE=-1.07D-05 OVMax= 1.33D-04

 Initial convergence to 1.0D-05 achieved.  Increase integral accuracy.
 Cycle   8  Pass 1  IDiag  1:
 E= -1702.40901041216     Delta-E=       -0.000141320855 Rises=F Damp=F
 DIIS: error= 2.52D-05 at cycle   1 NSaved=   1.
 NSaved= 1 IEnMin= 1 EnMin= -1702.40901041216     IErMin= 1 ErrMin= 2.52D-05
 ErrMax= 2.52D-05 EMaxC= 1.00D-01 BMatC= 1.06D-06 BMatP= 1.06D-06
 IDIUse=1 WtCom= 1.00D+00 WtEn= 0.00D+00
 Coeff-Com:  0.100D+01
 Coeff:      0.100D+01
 Gap=     0.248 Goal=   None    Shift=    0.000
 RMSDP=1.92D-06 MaxDP=8.57D-05 DE=-1.41D-04 OVMax= 2.25D-04

 Cycle   9  Pass 1  IDiag  1:
 RMSU=  7.36D-06    CP:  1.00D+00
 E= -1702.40901171508     Delta-E=       -0.000001302925 Rises=F Damp=F
 DIIS: error= 8.86D-06 at cycle   2 NSaved=   2.
 NSaved= 2 IEnMin= 2 EnMin= -1702.40901171508     IErMin= 2 ErrMin= 8.86D-06
 ErrMax= 8.86D-06 EMaxC= 1.00D-01 BMatC= 1.22D-07 BMatP= 1.06D-06
 IDIUse=1 WtCom= 1.00D+00 WtEn= 0.00D+00
 Coeff-Com:  0.136D+00 0.864D+00
 Coeff:      0.136D+00 0.864D+00
 Gap=     0.248 Goal=   None    Shift=    0.000
 RMSDP=1.71D-06 MaxDP=1.03D-04 DE=-1.30D-06 OVMax= 1.30D-04

 Cycle  10  Pass 1  IDiag  1:
 RMSU=  1.21D-06    CP:  1.00D+00  1.00D+00
 E= -1702.40901169628     Delta-E=        0.000000018798 Rises=F Damp=F
 DIIS: error= 1.12D-05 at cycle   3 NSaved=   3.
 NSaved= 3 IEnMin= 2 EnMin= -1702.40901171508     IErMin= 2 ErrMin= 8.86D-06
 ErrMax= 1.12D-05 EMaxC= 1.00D-01 BMatC= 1.44D-07 BMatP= 1.22D-07
 IDIUse=1 WtCom= 1.00D+00 WtEn= 0.00D+00
 Coeff-Com: -0.155D-01 0.525D+00 0.490D+00
 Coeff:     -0.155D-01 0.525D+00 0.490D+00
 Gap=     0.248 Goal=   None    Shift=    0.000
 RMSDP=8.92D-07 MaxDP=5.23D-05 DE= 1.88D-08 OVMax= 7.72D-05

 Cycle  11  Pass 1  IDiag  1:
 RMSU=  2.24D-07    CP:  1.00D+00  1.02D+00  5.23D-01
 E= -1702.40901184253     Delta-E=       -0.000000146246 Rises=F Damp=F
 DIIS: error= 1.12D-06 at cycle   4 NSaved=   4.
 NSaved= 4 IEnMin= 4 EnMin= -1702.40901184253     IErMin= 4 ErrMin= 1.12D-06
 ErrMax= 1.12D-06 EMaxC= 1.00D-01 BMatC= 2.05D-09 BMatP= 1.22D-07
 IDIUse=1 WtCom= 1.00D+00 WtEn= 0.00D+00
 Coeff-Com: -0.995D-02 0.230D+00 0.233D+00 0.547D+00
 Coeff:     -0.995D-02 0.230D+00 0.233D+00 0.547D+00
 Gap=     0.248 Goal=   None    Shift=    0.000
 RMSDP=1.57D-07 MaxDP=7.33D-06 DE=-1.46D-07 OVMax= 1.62D-05

 Cycle  12  Pass 1  IDiag  1:
 RMSU=  7.05D-08    CP:  1.00D+00  1.02D+00  5.34D-01  6.27D-01
 E= -1702.40901184473     Delta-E=       -0.000000002199 Rises=F Damp=F
 DIIS: error= 2.80D-07 at cycle   5 NSaved=   5.
 NSaved= 5 IEnMin= 5 EnMin= -1702.40901184473     IErMin= 5 ErrMin= 2.80D-07
 ErrMax= 2.80D-07 EMaxC= 1.00D-01 BMatC= 1.55D-10 BMatP= 2.05D-09
 IDIUse=1 WtCom= 1.00D+00 WtEn= 0.00D+00
 Coeff-Com: -0.322D-02 0.612D-01 0.643D-01 0.254D+00 0.624D+00
 Coeff:     -0.322D-02 0.612D-01 0.643D-01 0.254D+00 0.624D+00
 Gap=     0.248 Goal=   None    Shift=    0.000
 RMSDP=3.51D-08 MaxDP=2.17D-06 DE=-2.20D-09 OVMax= 2.92D-06

 Cycle  13  Pass 1  IDiag  1:
 RMSU=  1.89D-08    CP:  1.00D+00  1.02D+00  5.32D-01  6.70D-01  8.23D-01
 E= -1702.40901184490     Delta-E=       -0.000000000173 Rises=F Damp=F
 DIIS: error= 8.00D-08 at cycle   6 NSaved=   6.
 NSaved= 6 IEnMin= 6 EnMin= -1702.40901184490     IErMin= 6 ErrMin= 8.00D-08
 ErrMax= 8.00D-08 EMaxC= 1.00D-01 BMatC= 1.70D-11 BMatP= 1.55D-10
 IDIUse=1 WtCom= 1.00D+00 WtEn= 0.00D+00
 Coeff-Com: -0.411D-03 0.238D-02 0.311D-02 0.588D-01 0.294D+00 0.642D+00
 Coeff:     -0.411D-03 0.238D-02 0.311D-02 0.588D-01 0.294D+00 0.642D+00
 Gap=     0.248 Goal=   None    Shift=    0.000
 RMSDP=1.08D-08 MaxDP=5.53D-07 DE=-1.73D-10 OVMax= 6.97D-07

 Cycle  14  Pass 1  IDiag  1:
 RMSU=  4.99D-09    CP:  1.00D+00  1.02D+00  5.32D-01  6.77D-01  8.64D-01
                    CP:  7.50D-01
 E= -1702.40901184486     Delta-E=        0.000000000042 Rises=F Damp=F
 DIIS: error= 2.21D-08 at cycle   7 NSaved=   7.
 NSaved= 7 IEnMin= 6 EnMin= -1702.40901184490     IErMin= 7 ErrMin= 2.21D-08
 ErrMax= 2.21D-08 EMaxC= 1.00D-01 BMatC= 1.19D-12 BMatP= 1.70D-11
 IDIUse=1 WtCom= 1.00D+00 WtEn= 0.00D+00
 Coeff-Com: -0.151D-05-0.266D-02-0.259D-02 0.110D-01 0.937D-01 0.296D+00
 Coeff-Com:  0.604D+00
 Coeff:     -0.151D-05-0.266D-02-0.259D-02 0.110D-01 0.937D-01 0.296D+00
 Coeff:      0.604D+00
 Gap=     0.248 Goal=   None    Shift=    0.000
 RMSDP=3.27D-09 MaxDP=1.47D-07 DE= 4.18D-11 OVMax= 2.83D-07

[...]
   401    C   27  S      Ryd( 3S)     0.00071
   402    C   27  S      Ryd( 4S)     0.00002
   403    C   27  px     Val( 2p)     1.06722
   404    C   27  px     Ryd( 3p)     0.00206
   405    C   27  py     Val( 2p)     1.10245
   406    C   27  py     Ryd( 3p)     0.00240
   407    C   27  pz     Val( 2p)     1.24120
   408    C   27  pz     Ryd( 3p)     0.00376
   409    C   27  dxy    Ryd( 3d)     0.00063
   410    C   27  dxz    Ryd( 3d)     0.00060
   411    C   27  dyz    Ryd( 3d)     0.00082
   412    C   27  dx2y2  Ryd( 3d)     0.00070
   413    C   27  dz2    Ryd( 3d)     0.00081

   414    C   28  S      Cor( 1S)     1.99929
   415    C   28  S      Val( 2S)     1.02902
   416    C   28  S      Ryd( 3S)     0.00101
   417    C   28  S      Ryd( 4S)     0.00003
   418    C   28  px     Val( 2p)     1.23349
   419    C   28  px     Ryd( 3p)     0.00439
   420    C   28  py     Val( 2p)     1.03718
   421    C   28  py     Ryd( 3p)     0.00223
   422    C   28  pz     Val( 2p)     1.15975
   423    C   28  pz     Ryd( 3p)     0.00257
   424    C   28  dxy    Ryd( 3d)     0.00047
   425    C   28  dxz    Ryd( 3d)     0.00029
   426    C   28  dyz    Ryd( 3d)     0.00070
   427    C   28  dx2y2  Ryd( 3d)     0.00104
   428    C   28  dz2    Ryd( 3d)     0.00100

   429    H   29  S      Val( 1S)     0.76583
   430    H   29  S      Ryd( 2S)     0.00124

   431    H   30  S      Val( 1S)     0.77459
   432    H   30  S      Ryd( 2S)     0.00189

   433    H   31  S      Val( 1S)     0.76683
   434    H   31  S      Ryd( 2S)     0.00140

   435    H   32  S      Val( 1S)     0.77779
   436    H   32  S      Ryd( 2S)     0.00189

   437    H   33  S      Val( 1S)     0.76679
   438    H   33  S      Ryd( 2S)     0.00225

   439    H   34  S      Val( 1S)     0.77369
   440    H   34  S      Ryd( 2S)     0.00361

   441    H   35  S      Val( 1S)     0.76584
   442    H   35  S      Ryd( 2S)     0.00367

   443    H   36  S      Val( 1S)     0.76505
   444    H   36  S      Ryd( 2S)     0.00368

   445    H   37  S      Val( 1S)     0.76426
   446    H   37  S      Ryd( 2S)     0.00152

   447    H   38  S      Val( 1S)     0.76314
   448    H   38  S      Ryd( 2S)     0.00124

   449    H   39  S      Val( 1S)     0.77697
   450    H   39  S      Ryd( 2S)     0.00196

   451    H   40  S      Val( 1S)     0.75069
   452    H   40  S      Ryd( 2S)     0.00225

   453    H   41  S      Val( 1S)     0.75618
   454    H   41  S      Ryd( 2S)     0.00142

   455    H   42  S      Val( 1S)     0.78865
   456    H   42  S      Ryd( 2S)     0.00588

   457    H   43  S      Val( 1S)     0.77712
   458    H   43  S      Ryd( 2S)     0.00205

   459    H   44  S      Val( 1S)     0.76728
   460    H   44  S      Ryd( 2S)     0.00128

   461    H   45  S      Val( 1S)     0.76720
   462    H   45  S      Ryd( 2S)     0.00122

   463    H   46  S      Val( 1S)     0.77764
   464    H   46  S      Ryd( 2S)     0.00321

   465    H   47  S      Val( 1S)     0.77888
   466    H   47  S      Ryd( 2S)     0.00189

   467    H   48  S      Val( 1S)     0.76633
   468    H   48  S      Ryd( 2S)     0.00167

   469    H   49  S      Val( 1S)     0.77033
   470    H   49  S      Ryd( 2S)     0.00198

   471    H   50  S      Val( 1S)     0.79953
   472    H   50  S      Ryd( 2S)     0.02384

   473    H   51  S      Val( 1S)     0.77665
   474    H   51  S      Ryd( 2S)     0.00896

   475    H   52  S      Val( 1S)     0.79264
   476    H   52  S      Ryd( 2S)     0.02145

   477    H   53  S      Val( 1S)     0.74309
   478    H   53  S      Ryd( 2S)     0.01249

   479    H   54  S      Val( 1S)     0.74015
   480    H   54  S      Ryd( 2S)     0.00750

   481    H   55  S      Val( 1S)     0.72655
   482    H   55  S      Ryd( 2S)     0.01583

   483    H   56  S      Val( 1S)     0.77885
   484    H   56  S      Ryd( 2S)     0.03123

   485    H   57  S      Val( 1S)     0.77960
   486    H   57  S      Ryd( 2S)     0.00403

   487    H   58  S      Val( 1S)     0.77092
   488    H   58  S      Ryd( 2S)     0.00834

   489    H   59  S      Val( 1S)     0.75618
   490    H   59  S      Ryd( 2S)     0.00280

   491    H   60  S      Val( 1S)     0.76116
   492    H   60  S      Ryd( 2S)     0.00230

   493    H   61  S      Val( 1S)     0.77445
   494    H   61  S      Ryd( 2S)     0.00207

   495    H   62  S      Val( 1S)     0.76948
   496    H   62  S      Ryd( 2S)     0.00288

   497    H   63  S      Val( 1S)     0.75749
   498    H   63  S      Ryd( 2S)     0.00175

   499    H   64  S      Val( 1S)     0.77250
   500    H   64  S      Ryd( 2S)     0.00434

   501    H   65  S      Val( 1S)     0.76966
   502    H   65  S      Ryd( 2S)     0.00229

   503    H   66  S      Val( 1S)     0.72388
   504    H   66  S      Ryd( 2S)     0.00787

   505    H   67  S      Val( 1S)     0.76014
   506    H   67  S      Ryd( 2S)     0.00207

   507    H   68  S      Val( 1S)     0.76843
   508    H   68  S      Ryd( 2S)     0.00184

   509    H   69  S      Val( 1S)     0.77004
   510    H   69  S      Ryd( 2S)     0.00225

   511    H   70  S      Val( 1S)     0.75378
   512    H   70  S      Ryd( 2S)     0.00117

   513    H   71  S      Val( 1S)     0.75722
   514    H   71  S      Ryd( 2S)     0.00163

   515    H   72  S      Val( 1S)     0.77216
   516    H   72  S      Ryd( 2S)     0.00180

   517    H   73  S      Val( 1S)     0.77016
   518    H   73  S      Ryd( 2S)     0.00341

   519    H   74  S      Val( 1S)     0.74854
   520    H   74  S      Ryd( 2S)     0.00140

   521    H   75  S      Val( 1S)     0.74837
   522    H   75  S      Ryd( 2S)     0.01197

   523    H   76  S      Val( 1S)     0.77044
   524    H   76  S      Ryd( 2S)     0.00193

 WARNING:  1 low occupancy (<1.9990e) core orbital  found on  P    7
           1 low occupancy (<1.9990e) core orbital  found on  P   16


 Summary of Natural Population Analysis:                  
                                                          
                                       Natural Population 
                Natural  -----------------------------------------------
    Atom  No    Charge         Core      Valence    Rydberg      Total
 -----------------------------------------------------------------------
      C    1   -0.45750      1.99933     4.44683    0.01135     6.45750
      C    2   -0.45400      1.99933     4.44293    0.01175     6.45400
      C    3   -0.45759      1.99930     4.44501    0.01327     6.45759
      C    4   -0.54413      1.99924     4.52612    0.01878     6.54413
      C    5   -0.46059      1.99929     4.44737    0.01393     6.46059
      C    6   -0.45368      1.99932     4.44253    0.01183     6.45368
      P    7    0.70593      9.99852     4.21899    0.07656    14.29407
      C    8   -0.55352      1.99922     4.53387    0.02043     6.55352
      C    9   -0.45115      1.99929     4.43861    0.01324     6.45115
      C   10   -0.45505      1.99933     4.44367    0.01205     6.45505
      C   11   -0.45673      1.99933     4.44615    0.01125     6.45673
      C   12   -0.45385      1.99933     4.44233    0.01220     6.45385
      C   13   -0.46827      1.99927     4.45474    0.01426     6.46827
      C   14   -0.82967      1.99930     4.80516    0.02521     6.82967
      C   15   -0.78154      1.99929     4.76876    0.01349     6.78154
      P   16    1.31761      9.99773     3.64937    0.03529    13.68239
      C   17   -0.55855      1.99917     4.54348    0.01590     6.55855
      C   18   -0.47664      1.99929     4.46304    0.01431     6.47664
      C   19   -0.45551      1.99932     4.44314    0.01304     6.45551
      C   20   -0.45914      1.99932     4.44814    0.01168     6.45914
      C   21   -0.45519      1.99933     4.44355    0.01232     6.45519
      C   22   -0.46398      1.99929     4.45216    0.01253     6.46398
      C   23   -0.55586      1.99919     4.54092    0.01575     6.55586
      C   24   -0.46533      1.99930     4.45304    0.01299     6.46533
      C   25   -0.45742      1.99933     4.44574    0.01236     6.45742
      C   26   -0.46061      1.99933     4.44960    0.01169     6.46061
      C   27   -0.45588      1.99932     4.44404    0.01251     6.45588
      C   28   -0.47246      1.99929     4.45944    0.01373     6.47246
      H   29    0.23293      0.00000     0.76583    0.00124     0.76707
      H   30    0.22351      0.00000     0.77459    0.00189     0.77649
      H   31    0.23177      0.00000     0.76683    0.00140     0.76823
      H   32    0.22032      0.00000     0.77779    0.00189     0.77968
      H   33    0.23096      0.00000     0.76679    0.00225     0.76904
      H   34    0.22271      0.00000     0.77369    0.00361     0.77729
      H   35    0.23049      0.00000     0.76584    0.00367     0.76951
      H   36    0.23127      0.00000     0.76505    0.00368     0.76873
      H   37    0.23422      0.00000     0.76426    0.00152     0.76578
      H   38    0.23562      0.00000     0.76314    0.00124     0.76438
      H   39    0.22107      0.00000     0.77697    0.00196     0.77893
      H   40    0.24706      0.00000     0.75069    0.00225     0.75294
      H   41    0.24240      0.00000     0.75618    0.00142     0.75760
      H   42    0.20547      0.00000     0.78865    0.00588     0.79453
      H   43    0.22084      0.00000     0.77712    0.00205     0.77916
      H   44    0.23144      0.00000     0.76728    0.00128     0.76856
      H   45    0.23158      0.00000     0.76720    0.00122     0.76842
      H   46    0.21915      0.00000     0.77764    0.00321     0.78085
      H   47    0.21923      0.00000     0.77888    0.00189     0.78077
      H   48    0.23201      0.00000     0.76633    0.00167     0.76799
      H   49    0.22769      0.00000     0.77033    0.00198     0.77231
      H   50    0.17664      0.00000     0.79953    0.02384     0.82336
      H   51    0.21439      0.00000     0.77665    0.00896     0.78561
      H   52    0.18591      0.00000     0.79264    0.02145     0.81409
      H   53    0.24442      0.00000     0.74309    0.01249     0.75558
      H   54    0.25235      0.00000     0.74015    0.00750     0.74765
      H   55    0.25762      0.00000     0.72655    0.01583     0.74238
      H   56    0.18992      0.00000     0.77885    0.03123     0.81008
      H   57    0.21637      0.00000     0.77960    0.00403     0.78363
      H   58    0.22074      0.00000     0.77092    0.00834     0.77926
      H   59    0.24102      0.00000     0.75618    0.00280     0.75898
      H   60    0.23655      0.00000     0.76116    0.00230     0.76345
      H   61    0.22348      0.00000     0.77445    0.00207     0.77652
      H   62    0.22764      0.00000     0.76948    0.00288     0.77236
      H   63    0.24077      0.00000     0.75749    0.00175     0.75923
      H   64    0.22317      0.00000     0.77250    0.00434     0.77683
      H   65    0.22805      0.00000     0.76966    0.00229     0.77195
      H   66    0.26824      0.00000     0.72388    0.00787     0.73176
      H   67    0.23779      0.00000     0.76014    0.00207     0.76221
      H   68    0.22973      0.00000     0.76843    0.00184     0.77027
      H   69    0.22772      0.00000     0.77004    0.00225     0.77228
      H   70    0.24504      0.00000     0.75378    0.00117     0.75496
      H   71    0.24115      0.00000     0.75722    0.00163     0.75885
      H   72    0.22604      0.00000     0.77216    0.00180     0.77396
      H   73    0.22644      0.00000     0.77016    0.00341     0.77356
      H   74    0.25006      0.00000     0.74854    0.00140     0.74994
      H   75    0.23966      0.00000     0.74837    0.01197     0.76034
      H   76    0.22763      0.00000     0.77044    0.00193     0.77237
 =======================================================================
   * Total *   -0.00000     71.97787   161.31183    0.71029   234.00000

                                 Natural Population      
 --------------------------------------------------------
   Core                      71.97787 ( 99.9693% of  72)
   Valence                  161.31183 ( 99.5752% of 162)
   Natural Minimal Basis    233.28971 ( 99.6965% of 234)
   Natural Rydberg Basis      0.71029 (  0.3035% of 234)
 --------------------------------------------------------

    Atom  No          Natural Electron Configuration
 ----------------------------------------------------------------------------
      C    1      [core]2S( 1.03)2p( 3.41)3p( 0.01)
      C    2      [core]2S( 1.03)2p( 3.41)3p( 0.01)
      C    3      [core]2S( 1.02)2p( 3.42)3p( 0.01)
      C    4      [core]2S( 1.06)2p( 3.47)3p( 0.01)
      C    5      [core]2S( 1.03)2p( 3.42)3p( 0.01)
      C    6      [core]2S( 1.03)2p( 3.41)3p( 0.01)
      P    7      [core]3S( 1.42)3p( 2.80)3d( 0.03)4p( 0.05)
      C    8      [core]2S( 1.06)2p( 3.48)3p( 0.01)
      C    9      [core]2S( 1.02)2p( 3.41)3p( 0.01)
      C   10      [core]2S( 1.03)2p( 3.41)3p( 0.01)
      C   11      [core]2S( 1.03)2p( 3.41)3p( 0.01)
      C   12      [core]2S( 1.03)2p( 3.41)3p( 0.01)
      C   13      [core]2S( 1.03)2p( 3.42)3p( 0.01)
      C   14      [core]2S( 1.19)2p( 3.62)3S( 0.01)3p( 0.01)
      C   15      [core]2S( 1.13)2p( 3.64)3p( 0.01)
      P   16      [core]3S( 1.33)3p( 2.32)3d( 0.02)4p( 0.01)
      C   17      [core]2S( 1.08)2p( 3.46)3p( 0.01)
      C   18      [core]2S( 1.03)2p( 3.43)3p( 0.01)
      C   19      [core]2S( 1.03)2p( 3.41)3p( 0.01)
      C   20      [core]2S( 1.03)2p( 3.41)3p( 0.01)
      C   21      [core]2S( 1.03)2p( 3.41)3p( 0.01)
      C   22      [core]2S( 1.03)2p( 3.43)3p( 0.01)
      C   23      [core]2S( 1.07)2p( 3.47)3p( 0.01)
      C   24      [core]2S( 1.03)2p( 3.43)3p( 0.01)
      C   25      [core]2S( 1.03)2p( 3.41)3p( 0.01)
      C   26      [core]2S( 1.03)2p( 3.42)3p( 0.01)
      C   27      [core]2S( 1.03)2p( 3.41)3p( 0.01)
      C   28      [core]2S( 1.03)2p( 3.43)3p( 0.01)
      H   29            1S( 0.77)
      H   30            1S( 0.77)
      H   31            1S( 0.77)
      H   32            1S( 0.78)
      H   33            1S( 0.77)
      H   34            1S( 0.77)
      H   35            1S( 0.77)
      H   36            1S( 0.77)
      H   37            1S( 0.76)
      H   38            1S( 0.76)
      H   39            1S( 0.78)
      H   40            1S( 0.75)
      H   41            1S( 0.76)
      H   42            1S( 0.79)2S( 0.01)
      H   43            1S( 0.78)
      H   44            1S( 0.77)
      H   45            1S( 0.77)
      H   46            1S( 0.78)
      H   47            1S( 0.78)
      H   48            1S( 0.77)
      H   49            1S( 0.77)
      H   50            1S( 0.80)2S( 0.02)
      H   51            1S( 0.78)2S( 0.01)
      H   52            1S( 0.79)2S( 0.02)
      H   53            1S( 0.74)2S( 0.01)
      H   54            1S( 0.74)2S( 0.01)
      H   55            1S( 0.73)2S( 0.02)
      H   56            1S( 0.78)2S( 0.03)
      H   57            1S( 0.78)
      H   58            1S( 0.77)2S( 0.01)
      H   59            1S( 0.76)
      H   60            1S( 0.76)
      H   61            1S( 0.77)
      H   62            1S( 0.77)
      H   63            1S( 0.76)
      H   64            1S( 0.77)
      H   65            1S( 0.77)
      H   66            1S( 0.72)2S( 0.01)
      H   67            1S( 0.76)
      H   68            1S( 0.77)
      H   69            1S( 0.77)
      H   70            1S( 0.75)
      H   71            1S( 0.76)
      H   72            1S( 0.77)
      H   73            1S( 0.77)
      H   74            1S( 0.75)
      H   75            1S( 0.75)2S( 0.01)
      H   76            1S( 0.77)


 NBO analysis skipped by request.
 Leave Link  607 at Sun Oct  3 15:03:32 2021, MaxMem= 3221225472 cpu:      90.1
 (Enter /sw/target/amd/app/gaussian/Gaussian09RevA.02_gcc-4.9.2/g09/l9999.exe)
 1\1\GINC-HERMITE\SP\RTD-B3LYP-FC\6-31G(d)\C26H48P2\JSCHLEINITZ\03-Oct-
 2021\0\\#p TD(NStates=10, Root=1) b3lyp/6-31G* volume pop=NPA density=
 current Geom=AllCheck Guess=Read\\C1CCC(CC1)P(C1CCCCC1)CCP(C1CCCCC1)C1
 CCCCC1_conf_0\\0,1\C,0,-1.3844196465,0.2613934635,-0.7545239976\C,0,-0
 .9189058595,-1.1776109007,-0.4968282613\C,0,0.5598501424,-1.3661038712
 ,-0.8747282652\C,0,1.4849138722,-0.3687244103,-0.1398569622\C,0,1.0033
 07051,1.0745521705,-0.3988004835\C,0,-0.4790576796,1.2672712838,-0.031
 8680432\P,0,3.2762535239,-0.6398800579,-0.7073943488\C,0,4.2113828831,
 0.709980179,0.2412812117\C,0,5.6857250112,0.7934003171,-0.2135309058\C
 ,0,6.399328122,2.0048730576,0.4099381024\C,0,6.2987320599,1.994295344,
 1.9424454038\C,0,4.8373745982,1.9028039443,2.4047861917\C,0,4.11890638
 29,0.6932653163,1.7790878839\C,0,3.6497924681,-2.2202119134,0.25665795
 99\C,0,5.0166091459,-2.8482660311,-0.0660934858\P,0,5.3407546504,-4.64
 39348682,0.4253515554\C,0,4.685952051,-4.6297607916,2.2074583423\C,0,5
 .591992442,-3.7241150708,3.0716616567\C,0,5.147813924,-3.6832983591,4.
 5430759376\C,0,5.0727021655,-5.0914667417,5.1468999802\C,0,4.166716765
 8,-5.9986421523,4.3042786823\C,0,4.6049522187,-6.039507479,2.829184001
 \C,0,3.9817523815,-5.5830709621,-0.5197743006\C,0,4.3409331771,-7.0876
 660662,-0.5780250589\C,0,3.2930285537,-7.9091765439,-1.3466305209\C,0,
 3.0929530644,-7.3699580127,-2.7688470405\C,0,2.7531656558,-5.874188163
 1,-2.7448067119\C,0,3.794583421,-5.0565315141,-1.9605589518\H,0,-2.427
 0887471,0.3900936185,-0.4368546607\H,0,-1.3590885917,0.461694974,-1.83
 59442577\H,0,-1.5391896966,-1.8874351283,-1.0593798201\H,0,-1.05566478
 36,-1.4182449716,0.5679569883\H,0,0.6766513177,-1.2245026693,-1.959001
 4503\H,0,0.8585923079,-2.4003523768,-0.6649268165\H,0,1.4137697676,-0.
 5669284965,0.941074511\H,0,1.1482051149,1.3167797078,-1.4624686299\H,0
 ,1.6075308592,1.7909968209,0.1693812291\H,0,-0.7866089612,2.2951321627
 ,-0.2645197352\H,0,-0.5987089323,1.1449574106,1.0549587202\H,0,3.72976
 00902,1.6347273707,-0.1116240213\H,0,5.7377687999,0.8441632846,-1.3079
 290336\H,0,6.2192432546,-0.1213098946,0.0801457336\H,0,5.9436694917,2.
 9287365133,0.023265437\H,0,7.4515090936,2.0219173391,0.0973771455\H,0,
 6.7751989906,2.8893931529,2.3626807702\H,0,6.8566503515,1.1309192863,2
 .3352297991\H,0,4.3085663051,2.8241970289,2.1187333326\H,0,4.786604692
 5,1.8426519654,3.499972482\H,0,3.0709833506,0.6760445412,2.1044344548\
 H,0,4.5802366389,-0.2272568321,2.1646024093\H,0,2.8495595374,-2.915173
 2884,-0.0219072824\H,0,3.5441653957,-2.0492594176,1.3340844981\H,0,5.8
 206451223,-2.2675619602,0.39977501\H,0,5.215220411,-2.7965342798,-1.14
 27879065\H,0,3.6703419974,-4.2061574277,2.2070350494\H,0,5.6121049365,
 -2.7031170397,2.6715889954\H,0,6.6250009147,-4.0981052747,3.0168030893
 \H,0,4.1582771446,-3.2068183521,4.609955855\H,0,5.8365852361,-3.054097
 0513,5.1217992881\H,0,4.7115086458,-5.046442923,6.1824029844\H,0,6.083
 8307667,-5.5231680278,5.1855905622\H,0,3.1321763472,-5.6284729685,4.36
 1996109\H,0,4.155763394,-7.01692248,4.7143441373\H,0,3.9012624098,-6.6
 633412429,2.2672789105\H,0,5.5882266663,-6.5271850616,2.7552014881\H,0
 ,3.0255755798,-5.4694522325,0.0151347955\H,0,4.4677008753,-7.499999123
 6,0.4283783928\H,0,5.3169254891,-7.1925414242,-1.0734380882\H,0,2.3350
 325584,-7.8757232771,-0.8061374207\H,0,3.5967407495,-8.963753563,-1.37
 65743813\H,0,2.3052106585,-7.9321805766,-3.286781383\H,0,4.0174529715,
 -7.5222599028,-3.3454377993\H,0,1.7653490475,-5.7351049703,-2.28035099
 76\H,0,2.6726765341,-5.4833449926,-3.7675280104\H,0,3.4923159538,-4.00
 43275903,-1.9600767295\H,0,4.7593700107,-5.103079736,-2.488647875\\Ver
 sion=AM64L-G09RevA.02\State=1-A\HF=-1702.4230643\RMSD=2.816e-09\Dipole
 =0.6145118,-2.9019336,0.3258777\Quadrupole=-0.1063346,3.935499,-3.8291
 644,-4.3108081,-1.3719704,4.2489662\PG=C01 [X(C26H48P2)]\\@


 WHEN YOU'VE SEEN ONE NUCLEAR WAR YOU'VE SEEN THEM ALL.
 Job cpu time:  1 days  0 hours 42 minutes 55.1 seconds.
 File lengths (MBytes):  RWF=    879 Int=      0 D2E=      0 Chk=    124 Scr=      1
 Normal termination of Gaussian 09 at Sun Oct  3 15:06:43 2021.
