 Entering Gaussian System, Link 0=g09
 Input=C26H24P2_1906_conf_0.com
 Output=C26H24P2_1906_conf_0.log
 Initial command:
 /sw/target/amd/app/gaussian/Gaussian09RevA.02_gcc-4.9.2/g09/l1.exe /home/jschleinitz/gaussian/Gau-2053540.inp -scrdir=/home/jschleinitz/gaussian/
 Entering Link 1 = /sw/target/amd/app/gaussian/Gaussian09RevA.02_gcc-4.9.2/g09/l1.exe PID=   2053545.
  
 Copyright (c) 1988,1990,1992,1993,1995,1998,2003,2009, Gaussian, Inc.
                  All Rights Reserved.
  
 This is part of the Gaussian(R) 09 program.  It is based on
 the Gaussian(R) 03 system (copyright 2003, Gaussian, Inc.),
 the Gaussian(R) 98 system (copyright 1998, Gaussian, Inc.),
 the Gaussian(R) 94 system (copyright 1995, Gaussian, Inc.),
 the Gaussian 92(TM) system (copyright 1992, Gaussian, Inc.),
 the Gaussian 90(TM) system (copyright 1990, Gaussian, Inc.),
 the Gaussian 88(TM) system (copyright 1988, Gaussian, Inc.),
 the Gaussian 86(TM) system (copyright 1986, Carnegie Mellon
 University), and the Gaussian 82(TM) system (copyright 1983,
 Carnegie Mellon University). Gaussian is a federally registered
 trademark of Gaussian, Inc.
  
 This software contains proprietary and confidential information,
 including trade secrets, belonging to Gaussian, Inc.
  
 This software is provided under written license and may be
 used, copied, transmitted, or stored only in accord with that
 written license.
  
 The following legend is applicable only to US Government
 contracts under FAR:
  
                    RESTRICTED RIGHTS LEGEND
  
 Use, reproduction and disclosure by the US Government is
 subject to restrictions as set forth in subparagraphs (a)
 and (c) of the Commercial Computer Software - Restricted
 Rights clause in FAR 52.227-19.
  
 Gaussian, Inc.
 340 Quinnipiac St., Bldg. 40, Wallingford CT 06492
  
  
 ---------------------------------------------------------------
 Warning -- This program may not be used in any manner that
 competes with the business of Gaussian, Inc. or will provide
 assistance to any competitor of Gaussian, Inc.  The licensee
 of this program is prohibited from giving any competitor of
 Gaussian, Inc. access to this program.  By using this program,
 the user acknowledges that Gaussian, Inc. is engaged in the
 business of creating and licensing software in the field of
 computational chemistry and represents and warrants to the
 licensee that it is not a competitor of Gaussian, Inc. and that
 it will not use this program in any manner prohibited above.
 ---------------------------------------------------------------
  

 Cite this work as:
 Gaussian 09, Revision A.02,
 M. J. Frisch, G. W. Trucks, H. B. Schlegel, G. E. Scuseria, 
 M. A. Robb, J. R. Cheeseman, G. Scalmani, V. Barone, B. Mennucci, 
 G. A. Petersson, H. Nakatsuji, M. Caricato, X. Li, H. P. Hratchian, 
 A. F. Izmaylov, J. Bloino, G. Zheng, J. L. Sonnenberg, M. Hada, 
 M. Ehara, K. Toyota, R. Fukuda, J. Hasegawa, M. Ishida, T. Nakajima, 
 Y. Honda, O. Kitao, H. Nakai, T. Vreven, J. A. Montgomery, Jr., 
 J. E. Peralta, F. Ogliaro, M. Bearpark, J. J. Heyd, E. Brothers, 
 K. N. Kudin, V. N. Staroverov, R. Kobayashi, J. Normand, 
 K. Raghavachari, A. Rendell, J. C. Burant, S. S. Iyengar, J. Tomasi, 
 M. Cossi, N. Rega, J. M. Millam, M. Klene, J. E. Knox, J. B. Cross, 
 V. Bakken, C. Adamo, J. Jaramillo, R. Gomperts, R. E. Stratmann, 
 O. Yazyev, A. J. Austin, R. Cammi, C. Pomelli, J. W. Ochterski, 
 R. L. Martin, K. Morokuma, V. G. Zakrzewski, G. A. Voth, 
 P. Salvador, J. J. Dannenberg, S. Dapprich, A. D. Daniels, 
 O. Farkas, J. B. Foresman, J. V. Ortiz, J. Cioslowski, 
 and D. J. Fox, Gaussian, Inc., Wallingford CT, 2009.
 
 ******************************************
 Gaussian 09:  AM64L-G09RevA.02 11-Jun-2009
                 1-Oct-2021 
 ******************************************
 %nproc=8
 Will use up to    8 processors via shared memory.
 %mem=16gb
 %chk=C26H24P2_1906_conf_0.chk
 -----------------------------------
 #p opt b3lyp/6-31G* scf=(xqc,tight)
 -----------------------------------
 1/14=-1,18=20,19=15,26=3,38=1/1,3;
 2/9=110,12=2,17=6,18=5,40=1/2;
 3/5=1,6=6,7=1,11=2,16=1,25=1,30=1,71=1,74=-5/1,2,3;
 4//1;
 5/5=2,8=3,13=1,32=2,38=5/2,8;
 6/7=2,8=2,9=2,10=2,28=1/1;
 7//1,2,3,16;
 1/14=-1,18=20,19=15/3(2);
 2/9=110/2;
 99//99;
 2/9=110/2;
 3/5=1,6=6,7=1,11=2,16=1,25=1,30=1,71=1,74=-5/1,2,3;
 4/5=5,16=3/1;
 5/5=2,8=3,13=1,32=2,38=5/2,8;
 7//1,2,3,16;
 1/14=-1,18=20,19=15/3(-5);
 2/9=110/2;
 6/7=2,8=2,9=2,10=2,19=2,28=1/1;
 99/9=1/99;
 Leave Link    1 at Fri Oct  1 18:35:24 2021, MaxMem= 2147483648 cpu:       0.1
 (Enter /sw/target/amd/app/gaussian/Gaussian09RevA.02_gcc-4.9.2/g09/l101.exe)
 -------------------------------------------------
 c1ccc(cc1)P(c1ccccc1)CCP(c1ccccc1)c1ccccc1_conf_0
 -------------------------------------------------
 Symbolic Z-matrix:
 Charge =  0 Multiplicity = 1
 C                     1.40157  -0.66802  -0.09953 
 C                     0.97669   0.52181   0.48273 
 C                    -0.3764    0.87319   0.45018 
 C                    -1.33011   0.04107  -0.1611 
 C                    -0.8815   -1.1573   -0.73473 
 C                     0.47328  -1.5064   -0.70935 
 P                    -3.07049   0.58605  -0.14617 
 C                    -3.19917   1.56525  -1.68309 
 C                    -2.45833   1.30675  -2.84464 
 C                    -2.57188   2.13049  -3.97139 
 C                    -3.4397    3.21914  -3.96101 
 C                    -4.19319   3.48532  -2.82168 
 C                    -4.07123   2.66755  -1.69381 
 C                    -4.04153  -0.93636  -0.54667 
 C                    -5.55161  -0.67964  -0.55124 
 P                    -6.52522  -2.2171   -0.95759 
 C                    -8.23499  -1.55373  -0.91028 
 C                    -9.121    -1.63348  -1.99461 
 C                    -10.42185  -1.1265   -1.90192 
 C                    -10.86661  -0.54423  -0.72132 
 C                    -10.01254  -0.47498   0.37616 
 C                    -8.71118  -0.98053   0.27996 
 C                    -6.20914  -2.46401  -2.73691 
 C                    -6.20465  -3.76934  -3.25677 
 C                    -5.98747  -3.99946  -4.62092 
 C                    -5.76467  -2.92876  -5.48345 
 C                    -5.76398  -1.63073  -4.9861 
 C                    -5.99034  -1.40192  -3.62485 
 H                     2.45317  -0.94135  -0.07843 
 H                     1.69573   1.18027   0.96298 
 H                    -0.67951   1.81144   0.91168 
 H                    -1.56732  -1.83916  -1.22807 
 H                     0.80082  -2.43544  -1.16899 
 H                    -1.76354   0.47311  -2.89369 
 H                    -1.97112   1.92518  -4.85398 
 H                    -3.52033   3.86257  -4.83207 
 H                    -4.86837   4.33691  -2.80373 
 H                    -4.66011   2.91325  -0.81126 
 H                    -3.81523  -1.67876   0.22974 
 H                    -3.72     -1.35926  -1.50308 
 H                    -5.81522   0.12751  -1.24077 
 H                    -5.85786  -0.33477   0.44351 
 H                    -8.82504  -2.09485  -2.93198 
 H                    -11.09055  -1.19668  -2.76102 
 H                    -11.87984  -0.15551  -0.64922 
 H                    -10.35645  -0.03365   1.30654 
 H                    -8.07697  -0.92857   1.16433 
 H                    -6.38225  -4.62486  -2.60788 
 H                    -5.99725  -5.01516  -5.00985 
 H                    -5.59779  -3.10354  -6.54218 
 H                    -5.59705  -0.78807  -5.64961 
 H                    -6.00837  -0.37009  -3.28765 
 
 NAtoms=     52 NQM=     52 NQMF=      0 NMic=      0 NMicF=      0 NTot=     52.
                    Isotopes and Nuclear Properties:
 (Nuclear quadrupole moments (NQMom) in fm**2, nuclear magnetic moments (NMagM)
  in nuclear magnetons)

  Atom         1           2           3           4           5           6           7           8           9          10
 IAtWgt=          12          12          12          12          12          12          31          12          12          12
 AtmWgt=  12.0000000  12.0000000  12.0000000  12.0000000  12.0000000  12.0000000  30.9737634  12.0000000  12.0000000  12.0000000
 NucSpn=           0           0           0           0           0           0           1           0           0           0
 AtZEff=   0.0000000   0.0000000   0.0000000   0.0000000   0.0000000   0.0000000   0.0000000   0.0000000   0.0000000   0.0000000
 NQMom=    0.0000000   0.0000000   0.0000000   0.0000000   0.0000000   0.0000000   0.0000000   0.0000000   0.0000000   0.0000000
 NMagM=    0.0000000   0.0000000   0.0000000   0.0000000   0.0000000   0.0000000   1.1316000   0.0000000   0.0000000   0.0000000

  Atom        11          12          13          14          15          16          17          18          19          20
 IAtWgt=          12          12          12          12          12          31          12          12          12          12
 AtmWgt=  12.0000000  12.0000000  12.0000000  12.0000000  12.0000000  30.9737634  12.0000000  12.0000000  12.0000000  12.0000000
 NucSpn=           0           0           0           0           0           1           0           0           0           0
 AtZEff=   0.0000000   0.0000000   0.0000000   0.0000000   0.0000000   0.0000000   0.0000000   0.0000000   0.0000000   0.0000000
 NQMom=    0.0000000   0.0000000   0.0000000   0.0000000   0.0000000   0.0000000   0.0000000   0.0000000   0.0000000   0.0000000
 NMagM=    0.0000000   0.0000000   0.0000000   0.0000000   0.0000000   1.1316000   0.0000000   0.0000000   0.0000000   0.0000000

  Atom        21          22          23          24          25          26          27          28          29          30
 IAtWgt=          12          12          12          12          12          12          12          12           1           1
 AtmWgt=  12.0000000  12.0000000  12.0000000  12.0000000  12.0000000  12.0000000  12.0000000  12.0000000   1.0078250   1.0078250
 NucSpn=           0           0           0           0           0           0           0           0           1           1
 AtZEff=   0.0000000   0.0000000   0.0000000   0.0000000   0.0000000   0.0000000   0.0000000   0.0000000   0.0000000   0.0000000
 NQMom=    0.0000000   0.0000000   0.0000000   0.0000000   0.0000000   0.0000000   0.0000000   0.0000000   0.0000000   0.0000000
 NMagM=    0.0000000   0.0000000   0.0000000   0.0000000   0.0000000   0.0000000   0.0000000   0.0000000   2.7928460   2.7928460

  Atom        31          32          33          34          35          36          37          38          39          40
 IAtWgt=           1           1           1           1           1           1           1           1           1           1
 AtmWgt=   1.0078250   1.0078250   1.0078250   1.0078250   1.0078250   1.0078250   1.0078250   1.0078250   1.0078250   1.0078250
 NucSpn=           1           1           1           1           1           1           1           1           1           1
 AtZEff=   0.0000000   0.0000000   0.0000000   0.0000000   0.0000000   0.0000000   0.0000000   0.0000000   0.0000000   0.0000000
 NQMom=    0.0000000   0.0000000   0.0000000   0.0000000   0.0000000   0.0000000   0.0000000   0.0000000   0.0000000   0.0000000
 NMagM=    2.7928460   2.7928460   2.7928460   2.7928460   2.7928460   2.7928460   2.7928460   2.7928460   2.7928460   2.7928460

  Atom        41          42          43          44          45          46          47          48          49          50
 IAtWgt=           1           1           1           1           1           1           1           1           1           1
 AtmWgt=   1.0078250   1.0078250   1.0078250   1.0078250   1.0078250   1.0078250   1.0078250   1.0078250   1.0078250   1.0078250
 NucSpn=           1           1           1           1           1           1           1           1           1           1
 AtZEff=   0.0000000   0.0000000   0.0000000   0.0000000   0.0000000   0.0000000   0.0000000   0.0000000   0.0000000   0.0000000
 NQMom=    0.0000000   0.0000000   0.0000000   0.0000000   0.0000000   0.0000000   0.0000000   0.0000000   0.0000000   0.0000000
 NMagM=    2.7928460   2.7928460   2.7928460   2.7928460   2.7928460   2.7928460   2.7928460   2.7928460   2.7928460   2.7928460

  Atom        51          52
 IAtWgt=           1           1
 AtmWgt=   1.0078250   1.0078250
 NucSpn=           1           1
 AtZEff=   0.0000000   0.0000000
 NQMom=    0.0000000   0.0000000
 NMagM=    2.7928460   2.7928460
 Leave Link  101 at Fri Oct  1 18:35:24 2021, MaxMem= 2147483648 cpu:       0.2
 (Enter /sw/target/amd/app/gaussian/Gaussian09RevA.02_gcc-4.9.2/g09/l103.exe)

 GradGradGradGradGradGradGradGradGradGradGradGradGradGradGradGradGradGrad
 Berny optimization.
 Initialization pass.
                           ----------------------------
                           !    Initial Parameters    !
                           ! (Angstroms and Degrees)  !
 --------------------------                            --------------------------
 ! Name  Definition              Value          Derivative Info.                !
 --------------------------------------------------------------------------------
 ! R1    R(1,2)                  1.3911         estimate D2E/DX2                !
 ! R2    R(1,6)                  1.3916         estimate D2E/DX2                !
 ! R3    R(1,29)                 1.0867         estimate D2E/DX2                !
 ! R4    R(2,3)                  1.3983         estimate D2E/DX2                !
 ! R5    R(2,30)                 1.0869         estimate D2E/DX2                !
 ! R6    R(3,4)                  1.4056         estimate D2E/DX2                !
 ! R7    R(3,31)                 1.0887         estimate D2E/DX2                !
 ! R8    R(4,5)                  1.4023         estimate D2E/DX2                !
 ! R9    R(4,7)                  1.8238         estimate D2E/DX2                !
 ! R10   R(5,6)                  1.3993         estimate D2E/DX2                !
 ! R11   R(5,32)                 1.0857         estimate D2E/DX2                !
 ! R12   R(6,33)                 1.087          estimate D2E/DX2                !
 ! R13   R(7,8)                  1.8269         estimate D2E/DX2                !
 ! R14   R(7,14)                 1.8496         estimate D2E/DX2                !
 ! R15   R(8,9)                  1.4017         estimate D2E/DX2                !
 ! R16   R(8,13)                 1.4056         estimate D2E/DX2                !
 ! R17   R(9,10)                 1.4004         estimate D2E/DX2                !
 ! R18   R(9,34)                 1.0863         estimate D2E/DX2                !
 ! R19   R(10,11)                1.3923         estimate D2E/DX2                !
 ! R20   R(10,35)                1.0872         estimate D2E/DX2                !
 ! R21   R(11,12)                1.3916         estimate D2E/DX2                !
 ! R22   R(11,36)                1.0859         estimate D2E/DX2                !
 ! R23   R(12,13)                1.3985         estimate D2E/DX2                !
 ! R24   R(12,37)                1.0869         estimate D2E/DX2                !
 ! R25   R(13,38)                1.0891         estimate D2E/DX2                !
 ! R26   R(14,15)                1.5318         estimate D2E/DX2                !
 ! R27   R(14,39)                1.0978         estimate D2E/DX2                !
 ! R28   R(14,40)                1.0941         estimate D2E/DX2                !
 ! R29   R(15,16)                1.8646         estimate D2E/DX2                !
 ! R30   R(15,41)                1.0938         estimate D2E/DX2                !
 ! R31   R(15,42)                1.0965         estimate D2E/DX2                !
 ! R32   R(16,17)                1.8346         estimate D2E/DX2                !
 ! R33   R(16,23)                1.824          estimate D2E/DX2                !
 ! R34   R(17,18)                1.4025         estimate D2E/DX2                !
 ! R35   R(17,22)                1.4043         estimate D2E/DX2                !
 ! R36   R(18,19)                1.3992         estimate D2E/DX2                !
 ! R37   R(18,43)                1.0859         estimate D2E/DX2                !
 ! R38   R(19,20)                1.3895         estimate D2E/DX2                !
 ! R39   R(19,44)                1.0909         estimate D2E/DX2                !
 ! R40   R(20,21)                1.3924         estimate D2E/DX2                !
 ! R41   R(20,45)                1.0876         estimate D2E/DX2                !
 ! R42   R(21,22)                1.3994         estimate D2E/DX2                !
 ! R43   R(21,46)                1.0857         estimate D2E/DX2                !
 ! R44   R(22,47)                1.0895         estimate D2E/DX2                !
 ! R45   R(23,24)                1.405          estimate D2E/DX2                !
 ! R46   R(23,28)                1.4016         estimate D2E/DX2                !
 ! R47   R(24,25)                1.4004         estimate D2E/DX2                !
 ! R48   R(24,48)                1.0884         estimate D2E/DX2                !
 ! R49   R(25,26)                1.3928         estimate D2E/DX2                !
 ! R50   R(25,49)                1.0877         estimate D2E/DX2                !
 ! R51   R(26,27)                1.3901         estimate D2E/DX2                !
 ! R52   R(26,50)                1.086          estimate D2E/DX2                !
 ! R53   R(27,28)                1.3988         estimate D2E/DX2                !
 ! R54   R(27,51)                1.0854         estimate D2E/DX2                !
 ! R55   R(28,52)                1.0857         estimate D2E/DX2                !
 ! A1    A(2,1,6)              119.6673         estimate D2E/DX2                !
 ! A2    A(2,1,29)             120.168          estimate D2E/DX2                !
 ! A3    A(6,1,29)             120.1647         estimate D2E/DX2                !
 ! A4    A(1,2,3)              120.0476         estimate D2E/DX2                !
 ! A5    A(1,2,30)             120.07           estimate D2E/DX2                !
 ! A6    A(3,2,30)             119.8824         estimate D2E/DX2                !
 ! A7    A(2,3,4)              121.1926         estimate D2E/DX2                !
 ! A8    A(2,3,31)             118.4319         estimate D2E/DX2                !
 ! A9    A(4,3,31)             120.3754         estimate D2E/DX2                !
 ! A10   A(3,4,5)              117.8242         estimate D2E/DX2                !
 ! A11   A(3,4,7)              117.8416         estimate D2E/DX2                !
 ! A12   A(5,4,7)              124.333          estimate D2E/DX2                !
 ! A13   A(4,5,6)              121.033          estimate D2E/DX2                !
 ! A14   A(4,5,32)             121.3675         estimate D2E/DX2                !
 ! A15   A(6,5,32)             117.592          estimate D2E/DX2                !
 ! A16   A(1,6,5)              120.2328         estimate D2E/DX2                !
 ! A17   A(1,6,33)             119.9465         estimate D2E/DX2                !
 ! A18   A(5,6,33)             119.8207         estimate D2E/DX2                !
 ! A19   A(4,7,8)              102.7382         estimate D2E/DX2                !
 ! A20   A(4,7,14)             104.6707         estimate D2E/DX2                !
 ! A21   A(8,7,14)             102.8285         estimate D2E/DX2                !
 ! A22   A(7,8,9)              124.1284         estimate D2E/DX2                !
 ! A23   A(7,8,13)             118.0644         estimate D2E/DX2                !
 ! A24   A(9,8,13)             117.7884         estimate D2E/DX2                !
 ! A25   A(8,9,10)             121.0246         estimate D2E/DX2                !
 ! A26   A(8,9,34)             121.1286         estimate D2E/DX2                !
 ! A27   A(10,9,34)            117.8363         estimate D2E/DX2                !
 ! A28   A(9,10,11)            120.2984         estimate D2E/DX2                !
 ! A29   A(9,10,35)            119.8205         estimate D2E/DX2                !
 ! A30   A(11,10,35)           119.8774         estimate D2E/DX2                !
 ! A31   A(10,11,12)           119.5477         estimate D2E/DX2                !
 ! A32   A(10,11,36)           120.2384         estimate D2E/DX2                !
 ! A33   A(12,11,36)           120.2106         estimate D2E/DX2                !
 ! A34   A(11,12,13)           120.0806         estimate D2E/DX2                !
 ! A35   A(11,12,37)           119.9805         estimate D2E/DX2                !
 ! A36   A(13,12,37)           119.9346         estimate D2E/DX2                !
 ! A37   A(8,13,12)            121.2551         estimate D2E/DX2                !
 ! A38   A(8,13,38)            120.4125         estimate D2E/DX2                !
 ! A39   A(12,13,38)           118.3263         estimate D2E/DX2                !
 ! A40   A(7,14,15)            112.3503         estimate D2E/DX2                !
 ! A41   A(7,14,39)            107.1732         estimate D2E/DX2                !
 ! A42   A(7,14,40)            110.6814         estimate D2E/DX2                !
 ! A43   A(15,14,39)           108.5828         estimate D2E/DX2                !
 ! A44   A(15,14,40)           110.6039         estimate D2E/DX2                !
 ! A45   A(39,14,40)           107.2335         estimate D2E/DX2                !
 ! A46   A(14,15,16)           112.1614         estimate D2E/DX2                !
 ! A47   A(14,15,41)           111.2937         estimate D2E/DX2                !
 ! A48   A(14,15,42)           108.987          estimate D2E/DX2                !
 ! A49   A(16,15,41)           110.1959         estimate D2E/DX2                !
 ! A50   A(16,15,42)           108.1322         estimate D2E/DX2                !
 ! A51   A(41,15,42)           105.8132         estimate D2E/DX2                !
 ! A52   A(15,16,17)           100.5362         estimate D2E/DX2                !
 ! A53   A(15,16,23)           103.5166         estimate D2E/DX2                !
 ! A54   A(17,16,23)           103.6274         estimate D2E/DX2                !
 ! A55   A(16,17,18)           123.2469         estimate D2E/DX2                !
 ! A56   A(16,17,22)           119.0445         estimate D2E/DX2                !
 ! A57   A(18,17,22)           117.663          estimate D2E/DX2                !
 ! A58   A(17,18,19)           121.0299         estimate D2E/DX2                !
 ! A59   A(17,18,43)           121.2896         estimate D2E/DX2                !
 ! A60   A(19,18,43)           117.6796         estimate D2E/DX2                !
 ! A61   A(18,19,20)           120.3783         estimate D2E/DX2                !
 ! A62   A(18,19,44)           119.6292         estimate D2E/DX2                !
 ! A63   A(20,19,44)           119.991          estimate D2E/DX2                !
 ! A64   A(19,20,21)           119.6181         estimate D2E/DX2                !
 ! A65   A(19,20,45)           120.2845         estimate D2E/DX2                !
 ! A66   A(21,20,45)           120.093          estimate D2E/DX2                !
 ! A67   A(20,21,22)           119.8853         estimate D2E/DX2                !
 ! A68   A(20,21,46)           120.0915         estimate D2E/DX2                !
 ! A69   A(22,21,46)           120.0226         estimate D2E/DX2                !
 ! A70   A(17,22,21)           121.4034         estimate D2E/DX2                !
 ! A71   A(17,22,47)           120.6683         estimate D2E/DX2                !
 ! A72   A(21,22,47)           117.9235         estimate D2E/DX2                !
 ! A73   A(16,23,24)           119.1605         estimate D2E/DX2                !
 ! A74   A(16,23,28)           122.8543         estimate D2E/DX2                !
 ! A75   A(24,23,28)           117.9761         estimate D2E/DX2                !
 ! A76   A(23,24,25)           120.9034         estimate D2E/DX2                !
 ! A77   A(23,24,48)           120.608          estimate D2E/DX2                !
 ! A78   A(25,24,48)           118.4845         estimate D2E/DX2                !
 ! A79   A(24,25,26)           120.114          estimate D2E/DX2                !
 ! A80   A(24,25,49)           120.0265         estimate D2E/DX2                !
 ! A81   A(26,25,49)           119.8588         estimate D2E/DX2                !
 ! A82   A(25,26,27)           119.7587         estimate D2E/DX2                !
 ! A83   A(25,26,50)           120.3042         estimate D2E/DX2                !
 ! A84   A(27,26,50)           119.936          estimate D2E/DX2                !
 ! A85   A(26,27,28)           120.057          estimate D2E/DX2                !
 ! A86   A(26,27,51)           120.4174         estimate D2E/DX2                !
 ! A87   A(28,27,51)           119.5234         estimate D2E/DX2                !
 ! A88   A(23,28,27)           121.1879         estimate D2E/DX2                !
 ! A89   A(23,28,52)           121.3888         estimate D2E/DX2                !
 ! A90   A(27,28,52)           117.4135         estimate D2E/DX2                !
 ! D1    D(6,1,2,3)             -0.2042         estimate D2E/DX2                !
 ! D2    D(6,1,2,30)           179.8451         estimate D2E/DX2                !
 ! D3    D(29,1,2,3)           179.7852         estimate D2E/DX2                !
 ! D4    D(29,1,2,30)           -0.1654         estimate D2E/DX2                !
 ! D5    D(2,1,6,5)             -0.1531         estimate D2E/DX2                !
 ! D6    D(2,1,6,33)           179.7722         estimate D2E/DX2                !
 ! D7    D(29,1,6,5)           179.8574         estimate D2E/DX2                !
 ! D8    D(29,1,6,33)           -0.2173         estimate D2E/DX2                !
 ! D9    D(1,2,3,4)              0.178          estimate D2E/DX2                !
 ! D10   D(1,2,3,31)          -179.8455         estimate D2E/DX2                !
 ! D11   D(30,2,3,4)          -179.8713         estimate D2E/DX2                !
 ! D12   D(30,2,3,31)            0.1052         estimate D2E/DX2                !
 ! D13   D(2,3,4,5)              0.2026         estimate D2E/DX2                !
 ! D14   D(2,3,4,7)            179.8115         estimate D2E/DX2                !
 ! D15   D(31,3,4,5)          -179.7734         estimate D2E/DX2                !
 ! D16   D(31,3,4,7)            -0.1645         estimate D2E/DX2                !
 ! D17   D(3,4,5,6)             -0.5632         estimate D2E/DX2                !
 ! D18   D(3,4,5,32)          -179.5404         estimate D2E/DX2                !
 ! D19   D(7,4,5,6)            179.8556         estimate D2E/DX2                !
 ! D20   D(7,4,5,32)             0.8784         estimate D2E/DX2                !
 ! D21   D(3,4,7,8)             89.5592         estimate D2E/DX2                !
 ! D22   D(3,4,7,14)          -163.3138         estimate D2E/DX2                !
 ! D23   D(5,4,7,8)            -90.8597         estimate D2E/DX2                !
 ! D24   D(5,4,7,14)            16.2673         estimate D2E/DX2                !
 ! D25   D(4,5,6,1)              0.5478         estimate D2E/DX2                !
 ! D26   D(4,5,6,33)          -179.3776         estimate D2E/DX2                !
 ! D27   D(32,5,6,1)           179.5624         estimate D2E/DX2                !
 ! D28   D(32,5,6,33)           -0.3629         estimate D2E/DX2                !
 ! D29   D(4,7,8,9)             31.2932         estimate D2E/DX2                !
 ! D30   D(4,7,8,13)          -147.0928         estimate D2E/DX2                !
 ! D31   D(14,7,8,9)           -77.2355         estimate D2E/DX2                !
 ! D32   D(14,7,8,13)          104.3785         estimate D2E/DX2                !
 ! D33   D(4,7,14,15)          178.7843         estimate D2E/DX2                !
 ! D34   D(4,7,14,39)           59.5947         estimate D2E/DX2                !
 ! D35   D(4,7,14,40)          -57.0279         estimate D2E/DX2                !
 ! D36   D(8,7,14,15)          -74.1553         estimate D2E/DX2                !
 ! D37   D(8,7,14,39)          166.655          estimate D2E/DX2                !
 ! D38   D(8,7,14,40)           50.0324         estimate D2E/DX2                !
 ! D39   D(7,8,9,10)          -177.592          estimate D2E/DX2                !
 ! D40   D(7,8,9,34)             1.2045         estimate D2E/DX2                !
 ! D41   D(13,8,9,10)            0.7981         estimate D2E/DX2                !
 ! D42   D(13,8,9,34)          179.5946         estimate D2E/DX2                !
 ! D43   D(7,8,13,12)          178.1713         estimate D2E/DX2                !
 ! D44   D(7,8,13,38)           -0.9161         estimate D2E/DX2                !
 ! D45   D(9,8,13,12)           -0.3186         estimate D2E/DX2                !
 ! D46   D(9,8,13,38)         -179.406          estimate D2E/DX2                !
 ! D47   D(8,9,10,11)           -0.702          estimate D2E/DX2                !
 ! D48   D(8,9,10,35)          178.6049         estimate D2E/DX2                !
 ! D49   D(34,9,10,11)        -179.537          estimate D2E/DX2                !
 ! D50   D(34,9,10,35)          -0.2301         estimate D2E/DX2                !
 ! D51   D(9,10,11,12)           0.0991         estimate D2E/DX2                !
 ! D52   D(9,10,11,36)         179.4447         estimate D2E/DX2                !
 ! D53   D(35,10,11,12)       -179.2075         estimate D2E/DX2                !
 ! D54   D(35,10,11,36)          0.1382         estimate D2E/DX2                !
 ! D55   D(10,11,12,13)          0.3765         estimate D2E/DX2                !
 ! D56   D(10,11,12,37)        179.6268         estimate D2E/DX2                !
 ! D57   D(36,11,12,13)       -178.9694         estimate D2E/DX2                !
 ! D58   D(36,11,12,37)          0.281          estimate D2E/DX2                !
 ! D59   D(11,12,13,8)          -0.2648         estimate D2E/DX2                !
 ! D60   D(11,12,13,38)        178.8411         estimate D2E/DX2                !
 ! D61   D(37,12,13,8)        -179.5155         estimate D2E/DX2                !
 ! D62   D(37,12,13,38)         -0.4096         estimate D2E/DX2                !
 ! D63   D(7,14,15,16)         179.9295         estimate D2E/DX2                !
 ! D64   D(7,14,15,41)          55.9542         estimate D2E/DX2                !
 ! D65   D(7,14,15,42)         -60.3669         estimate D2E/DX2                !
 ! D66   D(39,14,15,16)        -61.7089         estimate D2E/DX2                !
 ! D67   D(39,14,15,41)        174.3158         estimate D2E/DX2                !
 ! D68   D(39,14,15,42)         57.9947         estimate D2E/DX2                !
 ! D69   D(40,14,15,16)         55.6987         estimate D2E/DX2                !
 ! D70   D(40,14,15,41)        -68.2765         estimate D2E/DX2                !
 ! D71   D(40,14,15,42)        175.4024         estimate D2E/DX2                !
 ! D72   D(14,15,16,17)       -178.8943         estimate D2E/DX2                !
 ! D73   D(14,15,16,23)        -71.9654         estimate D2E/DX2                !
 ! D74   D(41,15,16,17)        -54.3091         estimate D2E/DX2                !
 ! D75   D(41,15,16,23)         52.6198         estimate D2E/DX2                !
 ! D76   D(42,15,16,17)         60.904          estimate D2E/DX2                !
 ! D77   D(42,15,16,23)        167.8328         estimate D2E/DX2                !
 ! D78   D(15,16,17,18)        122.7637         estimate D2E/DX2                !
 ! D79   D(15,16,17,22)        -59.7508         estimate D2E/DX2                !
 ! D80   D(23,16,17,18)         15.923          estimate D2E/DX2                !
 ! D81   D(23,16,17,22)       -166.5915         estimate D2E/DX2                !
 ! D82   D(15,16,23,24)        149.4356         estimate D2E/DX2                !
 ! D83   D(15,16,23,28)        -31.6795         estimate D2E/DX2                !
 ! D84   D(17,16,23,24)       -105.9809         estimate D2E/DX2                !
 ! D85   D(17,16,23,28)         72.904          estimate D2E/DX2                !
 ! D86   D(16,17,18,19)        179.1836         estimate D2E/DX2                !
 ! D87   D(16,17,18,43)         -0.4545         estimate D2E/DX2                !
 ! D88   D(22,17,18,19)          1.6656         estimate D2E/DX2                !
 ! D89   D(22,17,18,43)       -177.9726         estimate D2E/DX2                !
 ! D90   D(16,17,22,21)       -179.1761         estimate D2E/DX2                !
 ! D91   D(16,17,22,47)          0.0215         estimate D2E/DX2                !
 ! D92   D(18,17,22,21)         -1.5504         estimate D2E/DX2                !
 ! D93   D(18,17,22,47)        177.6472         estimate D2E/DX2                !
 ! D94   D(17,18,19,20)         -0.7068         estimate D2E/DX2                !
 ! D95   D(17,18,19,44)        179.7269         estimate D2E/DX2                !
 ! D96   D(43,18,19,20)        178.944          estimate D2E/DX2                !
 ! D97   D(43,18,19,44)         -0.6223         estimate D2E/DX2                !
 ! D98   D(18,19,20,21)         -0.4293         estimate D2E/DX2                !
 ! D99   D(18,19,20,45)       -179.6669         estimate D2E/DX2                !
 ! D100  D(44,19,20,21)        179.1354         estimate D2E/DX2                !
 ! D101  D(44,19,20,45)         -0.1022         estimate D2E/DX2                !
 ! D102  D(19,20,21,22)          0.5469         estimate D2E/DX2                !
 ! D103  D(19,20,21,46)       -179.1814         estimate D2E/DX2                !
 ! D104  D(45,20,21,22)        179.7859         estimate D2E/DX2                !
 ! D105  D(45,20,21,46)          0.0576         estimate D2E/DX2                !
 ! D106  D(20,21,22,17)          0.4666         estimate D2E/DX2                !
 ! D107  D(20,21,22,47)       -178.7523         estimate D2E/DX2                !
 ! D108  D(46,21,22,17)       -179.8049         estimate D2E/DX2                !
 ! D109  D(46,21,22,47)          0.9762         estimate D2E/DX2                !
 ! D110  D(16,23,24,25)        178.9603         estimate D2E/DX2                !
 ! D111  D(16,23,24,48)         -0.3016         estimate D2E/DX2                !
 ! D112  D(28,23,24,25)          0.021          estimate D2E/DX2                !
 ! D113  D(28,23,24,48)       -179.2408         estimate D2E/DX2                !
 ! D114  D(16,23,28,27)       -179.37           estimate D2E/DX2                !
 ! D115  D(16,23,28,52)         -0.5397         estimate D2E/DX2                !
 ! D116  D(24,23,28,27)         -0.4727         estimate D2E/DX2                !
 ! D117  D(24,23,28,52)        178.3577         estimate D2E/DX2                !
 ! D118  D(23,24,25,26)          0.3418         estimate D2E/DX2                !
 ! D119  D(23,24,25,49)       -179.3637         estimate D2E/DX2                !
 ! D120  D(48,24,25,26)        179.6189         estimate D2E/DX2                !
 ! D121  D(48,24,25,49)         -0.0865         estimate D2E/DX2                !
 ! D122  D(24,25,26,27)         -0.2555         estimate D2E/DX2                !
 ! D123  D(24,25,26,50)       -179.8834         estimate D2E/DX2                !
 ! D124  D(49,25,26,27)        179.4505         estimate D2E/DX2                !
 ! D125  D(49,25,26,50)         -0.1774         estimate D2E/DX2                !
 ! D126  D(25,26,27,28)         -0.1908         estimate D2E/DX2                !
 ! D127  D(25,26,27,51)       -179.6547         estimate D2E/DX2                !
 ! D128  D(50,26,27,28)        179.4385         estimate D2E/DX2                !
 ! D129  D(50,26,27,51)         -0.0254         estimate D2E/DX2                !
 ! D130  D(26,27,28,23)          0.5644         estimate D2E/DX2                !
 ! D131  D(26,27,28,52)       -178.3108         estimate D2E/DX2                !
 ! D132  D(51,27,28,23)       -179.9669         estimate D2E/DX2                !
 ! D133  D(51,27,28,52)          1.1579         estimate D2E/DX2                !
 --------------------------------------------------------------------------------
 Trust Radius=3.00D-01 FncErr=1.00D-07 GrdErr=1.00D-06
 Number of steps in this run= 288 maximum allowed number of steps= 312.
 GradGradGradGradGradGradGradGradGradGradGradGradGradGradGradGradGradGrad

 Leave Link  103 at Fri Oct  1 18:35:24 2021, MaxMem= 2147483648 cpu:       0.0
 (Enter /sw/target/amd/app/gaussian/Gaussian09RevA.02_gcc-4.9.2/g09/l202.exe)
 Stoichiometry    C26H24P2
 Framework group  C1[X(C26H24P2)]
 Deg. of freedom   150
 Full point group                 C1      NOp   1
 Largest Abelian subgroup         C1      NOp   1
 Largest concise Abelian subgroup C1      NOp   1
                         Standard orientation:                         
 ---------------------------------------------------------------------
 Center     Atomic      Atomic             Coordinates (Angstroms)
 Number     Number       Type             X           Y           Z
 ---------------------------------------------------------------------
      1          6           0        6.004939    0.744312   -1.859072
      2          6           0        5.986543   -0.580503   -1.435073
      3          6           0        4.782523   -1.173296   -1.042268
      4          6           0        3.574618   -0.455039   -1.069275
      5          6           0        3.614469    0.876366   -1.507643
      6          6           0        4.819850    1.472895   -1.893845
      7         15           0        2.057660   -1.319496   -0.542306
      8          6           0        2.009092   -0.989203    1.253823
      9          6           0        2.507529    0.175900    1.852963
     10          6           0        2.481774    0.340244    3.243413
     11          6           0        1.943476   -0.652144    4.058147
     12          6           0        1.432296   -1.811009    3.481612
     13          6           0        1.467820   -1.977869    2.093591
     14          6           0        0.674762   -0.275508   -1.189389
     15          6           0       -0.701207   -0.865758   -0.865996
     16         15           0       -2.091283    0.191773   -1.518788
     17          6           0       -3.543485   -0.767122   -0.938056
     18          6           0       -4.543521   -0.226332   -0.116705
     19          6           0       -5.640920   -0.995675    0.285372
     20          6           0       -5.767645   -2.313436   -0.136644
     21          6           0       -4.799349   -2.864739   -0.971611
     22          6           0       -3.701515   -2.093875   -1.370217
     23          6           0       -2.070878    1.648046   -0.420754
     24          6           0       -2.477651    2.893629   -0.927923
     25          6           0       -2.496935    4.031115   -0.111353
     26          6           0       -2.103185    3.941192    1.221640
     27          6           0       -1.696136    2.717221    1.739759
     28          6           0       -1.686331    1.580058    0.925303
     29          1           0        6.940117    1.208017   -2.161465
     30          1           0        6.907879   -1.156382   -1.407736
     31          1           0        4.798841   -2.210748   -0.712712
     32          1           0        2.717080    1.486283   -1.544522
     33          1           0        4.829575    2.509543   -2.220864
     34          1           0        2.943667    0.971900    1.256088
     35          1           0        2.894314    1.242084    3.688970
     36          1           0        1.932169   -0.527638    5.136855
     37          1           0        1.015919   -2.592908    4.111418
     38          1           0        1.077397   -2.904054    1.674300
     39          1           0        0.787482   -0.228134   -2.280368
     40          1           0        0.753356    0.747889   -0.810668
     41          1           0       -0.821793   -1.026367    0.209222
     42          1           0       -0.781338   -1.857351   -1.327059
     43          1           0       -4.497314    0.803490    0.224529
     44          1           0       -6.403281   -0.553217    0.928155
     45          1           0       -6.624056   -2.908392    0.172421
     46          1           0       -4.897594   -3.889385   -1.316715
     47          1           0       -2.973918   -2.550428   -2.040432
     48          1           0       -2.796757    2.992766   -1.963717
     49          1           0       -2.824256    4.986139   -0.516056
     50          1           0       -2.118730    4.820930    1.858148
     51          1           0       -1.392437    2.633808    2.778505
     52          1           0       -1.387586    0.641175    1.381317
 ---------------------------------------------------------------------
 Rotational constants (GHZ):      0.2177326      0.0892524      0.0868664
 Leave Link  202 at Fri Oct  1 18:35:24 2021, MaxMem= 2147483648 cpu:       0.0
 (Enter /sw/target/amd/app/gaussian/Gaussian09RevA.02_gcc-4.9.2/g09/l301.exe)
 Standard basis: 6-31G(d) (6D, 7F)
 Ernie: Thresh=  0.10000D-02 Tol=  0.10000D-05 Strict=F.
 There are   476 symmetry adapted basis functions of A   symmetry.
 Integral buffers will be    131072 words long.
 Raffenetti 2 integral format.
 Two-electron integral symmetry is turned on.
   476 basis functions,   928 primitive gaussians,   476 cartesian basis functions
   105 alpha electrons      105 beta electrons
       nuclear repulsion energy      2680.0722624025 Hartrees.
 IExCor=  402 DFT=T Ex+Corr=B3LYP ExCW=0 ScaHFX=  0.200000
 ScaDFX=  0.800000  0.720000  1.000000  0.810000 ScalE2=  1.000000  1.000000
 IRadAn=      0 IRanWt=     -1 IRanGd=            0 ICorTp=0
 NAtoms=   52 NActive=   52 NUniq=   52 SFac= 7.50D-01 NAtFMM=   80 NAOKFM=F Big=F
 Leave Link  301 at Fri Oct  1 18:35:24 2021, MaxMem= 2147483648 cpu:       0.1
 (Enter /sw/target/amd/app/gaussian/Gaussian09RevA.02_gcc-4.9.2/g09/l302.exe)
 NPDir=0 NMtPBC=     1 NCelOv=     1 NCel=       1 NClECP=     1 NCelD=      1
         NCelK=      1 NCelE2=     1 NClLst=     1 CellRange=     0.0.
 One-electron integrals computed using PRISM.
 NBasis=   476 RedAO= T  NBF=   476
 NBsUse=   476 1.00D-06 NBFU=   476
 Precomputing XC quadrature grid using
 IXCGrd= 2 IRadAn=           0 IRanWt=          -1 IRanGd=           0 AccXCQ= 1.00D-10.
 NRdTot=    3318 NPtTot=      423460 NUsed=      447375 NTot=      447407
 NSgBfM=   460   460   462   463   463 NAtAll=    52    52.
 Leave Link  302 at Fri Oct  1 18:35:25 2021, MaxMem= 2147483648 cpu:       5.9
 (Enter /sw/target/amd/app/gaussian/Gaussian09RevA.02_gcc-4.9.2/g09/l303.exe)
 DipDrv:  MaxL=1.
 Leave Link  303 at Fri Oct  1 18:35:25 2021, MaxMem= 2147483648 cpu:       0.2
 (Enter /sw/target/amd/app/gaussian/Gaussian09RevA.02_gcc-4.9.2/g09/l401.exe)
 Harris functional with IExCor=  402 diagonalized for initial guess.
 ExpMin= 9.98D-02 ExpMax= 1.94D+04 ExpMxC= 2.91D+03 IAcc=2 IRadAn=         0 AccDes= 0.00D+00
 HarFok:  IExCor=  402 AccDes= 0.00D+00 IRadAn=         0 IDoV= 1
 ScaDFX=  1.000000  1.000000  1.000000  1.000000
 FoFCou: FMM=F IPFlag=           0 FMFlag=      100000 FMFlg1=           0
         NFxFlg=           0 DoJE=T BraDBF=F KetDBF=T FulRan=T
         Omega=  0.000000  0.000000  1.000000  0.000000  0.000000 ICntrl=     500 IOpCl=  0
         NMat0=    1 NMatS0=    1 NMatT0=    0 NMatD0=    1 NMtDS0=    0 NMtDT0=    0
         I1Cent=           4 NGrid=           0.
 Petite list used in FoFCou.
 Harris En= -1688.09442379647    
 Initial guess orbital symmetries:
       Occupied  (A) (A) (A) (A) (A) (A) (A) (A) (A) (A) (A) (A)
                 (A) (A) (A) (A) (A) (A) (A) (A) (A) (A) (A) (A)
                 (A) (A) (A) (A) (A) (A) (A) (A) (A) (A) (A) (A)
                 (A) (A) (A) (A) (A) (A) (A) (A) (A) (A) (A) (A)
                 (A) (A) (A) (A) (A) (A) (A) (A) (A) (A) (A) (A)
                 (A) (A) (A) (A) (A) (A) (A) (A) (A) (A) (A) (A)
                 (A) (A) (A) (A) (A) (A) (A) (A) (A) (A) (A) (A)
                 (A) (A) (A) (A) (A) (A) (A) (A) (A) (A) (A) (A)
                 (A) (A) (A) (A) (A) (A) (A) (A) (A)
       Virtual   (A) (A) (A) (A) (A) (A) (A) (A) (A) (A) (A) (A)
                 (A) (A) (A) (A) (A) (A) (A) (A) (A) (A) (A) (A)
                 (A) (A) (A) (A) (A) (A) (A) (A) (A) (A) (A) (A)
                 (A) (A) (A) (A) (A) (A) (A) (A) (A) (A) (A) (A)
                 (A) (A) (A) (A) (A) (A) (A) (A) (A) (A) (A) (A)
                 (A) (A) (A) (A) (A) (A) (A) (A) (A) (A) (A) (A)
                 (A) (A) (A) (A) (A) (A) (A) (A) (A) (A) (A) (A)
                 (A) (A) (A) (A) (A) (A) (A) (A) (A) (A) (A) (A)
                 (A) (A) (A) (A) (A) (A) (A) (A) (A) (A) (A) (A)
                 (A) (A) (A) (A) (A) (A) (A) (A) (A) (A) (A) (A)
                 (A) (A) (A) (A) (A) (A) (A) (A) (A) (A) (A) (A)
                 (A) (A) (A) (A) (A) (A) (A) (A) (A) (A) (A) (A)
                 (A) (A) (A) (A) (A) (A) (A) (A) (A) (A) (A) (A)
                 (A) (A) (A) (A) (A) (A) (A) (A) (A) (A) (A) (A)
                 (A) (A) (A) (A) (A) (A) (A) (A) (A) (A) (A) (A)
                 (A) (A) (A) (A) (A) (A) (A) (A) (A) (A) (A) (A)
                 (A) (A) (A) (A) (A) (A) (A) (A) (A) (A) (A) (A)
                 (A) (A) (A) (A) (A) (A) (A) (A) (A) (A) (A) (A)
                 (A) (A) (A) (A) (A) (A) (A) (A) (A) (A) (A) (A)
                 (A) (A) (A) (A) (A) (A) (A) (A) (A) (A) (A) (A)
                 (A) (A) (A) (A) (A) (A) (A) (A) (A) (A) (A) (A)
                 (A) (A) (A) (A) (A) (A) (A) (A) (A) (A) (A) (A)
                 (A) (A) (A) (A) (A) (A) (A) (A) (A) (A) (A) (A)
                 (A) (A) (A) (A) (A) (A) (A) (A) (A) (A) (A) (A)
                 (A) (A) (A) (A) (A) (A) (A) (A) (A) (A) (A) (A)
                 (A) (A) (A) (A) (A) (A) (A) (A) (A) (A) (A) (A)
                 (A) (A) (A) (A) (A) (A) (A) (A) (A) (A) (A) (A)
                 (A) (A) (A) (A) (A) (A) (A) (A) (A) (A) (A) (A)
                 (A) (A) (A) (A) (A) (A) (A) (A) (A) (A) (A) (A)
                 (A) (A) (A) (A) (A) (A) (A) (A) (A) (A) (A) (A)
                 (A) (A) (A) (A) (A) (A) (A) (A) (A) (A) (A)
 The electronic state of the initial guess is 1-A.
 Leave Link  401 at Fri Oct  1 18:35:35 2021, MaxMem= 2147483648 cpu:      54.7
 (Enter /sw/target/amd/app/gaussian/Gaussian09RevA.02_gcc-4.9.2/g09/l502.exe)
 Closed shell SCF:
 Requested convergence on RMS density matrix=1.00D-08 within  64 cycles.
 Requested convergence on MAX density matrix=1.00D-06.
 Requested convergence on             energy=1.00D-06.
 No special actions if energy rises.
 Using DIIS extrapolation, IDIIS=  1040.
 Integral symmetry usage will be decided dynamically.
       446894 words used for storage of precomputed grid.
 IEnd=     1139566 IEndB=     1139566 NGot=  2147483648 MDV=  2146575359
 LenX=  2146575359 LenY=  2146348307
 Fock matrices will be formed incrementally for  20 cycles.
 Integral accuracy reduced to 1.0D-05 until final iterations.

 Cycle   1  Pass 0  IDiag  1:
 FoFCou: FMM=F IPFlag=           0 FMFlag=      100000 FMFlg1=           0
         NFxFlg=           0 DoJE=F BraDBF=F KetDBF=F FulRan=T
         Omega=  0.000000  0.000000  1.000000  0.000000  0.000000 ICntrl=       0 IOpCl=  0
         NMat0=    1 NMatS0=    1 NMatT0=    0 NMatD0=    1 NMtDS0=    0 NMtDT0=    0
         I1Cent=           0 NGrid=           0.
 Symmetry not used in FoFCou.
 E= -1687.15326381524    
 DIIS: error= 3.02D-02 at cycle   1 NSaved=   1.
 NSaved= 1 IEnMin= 1 EnMin= -1687.15326381524     IErMin= 1 ErrMin= 3.02D-02
 ErrMax= 3.02D-02 EMaxC= 1.00D-01 BMatC= 6.81D-01 BMatP= 6.81D-01
 IDIUse=3 WtCom= 6.98D-01 WtEn= 3.02D-01
 Coeff-Com:  0.100D+01
 Coeff-En:   0.100D+01
 Coeff:      0.100D+01
 Gap=     0.330 Goal=   None    Shift=    0.000
 GapD=    0.330 DampG=1.000 DampE=0.500 DampFc=0.5000 IDamp=-1.
 Damping current iteration by 5.00D-01
 RMSDP=4.38D-03 MaxDP=1.40D-01              OVMax= 2.21D-01

 Cycle   2  Pass 0  IDiag  1:
 RMSU=  1.52D-03    CP:  9.76D-01
 E= -1687.47264185393     Delta-E=       -0.319378038684 Rises=F Damp=T
 DIIS: error= 6.15D-03 at cycle   2 NSaved=   2.
 NSaved= 2 IEnMin= 2 EnMin= -1687.47264185393     IErMin= 2 ErrMin= 6.15D-03
 ErrMax= 6.15D-03 EMaxC= 1.00D-01 BMatC= 4.49D-02 BMatP= 6.81D-01
 IDIUse=3 WtCom= 9.39D-01 WtEn= 6.15D-02
 Coeff-Com:  0.826D-01 0.917D+00
 Coeff-En:   0.158D+00 0.842D+00
 Coeff:      0.872D-01 0.913D+00
 Gap=     0.271 Goal=   None    Shift=    0.000
 RMSDP=1.25D-03 MaxDP=1.01D-01 DE=-3.19D-01 OVMax= 1.61D-01

 Cycle   3  Pass 0  IDiag  1:
 RMSU=  8.07D-04    CP:  9.70D-01  7.72D-01
 E= -1687.87748442699     Delta-E=       -0.404842573060 Rises=F Damp=F
 DIIS: error= 6.63D-03 at cycle   3 NSaved=   3.
 NSaved= 3 IEnMin= 3 EnMin= -1687.87748442699     IErMin= 2 ErrMin= 6.15D-03
 ErrMax= 6.63D-03 EMaxC= 1.00D-01 BMatC= 3.29D-02 BMatP= 4.49D-02
 IDIUse=3 WtCom= 9.34D-01 WtEn= 6.63D-02
 Coeff-Com: -0.352D-02 0.452D+00 0.551D+00
 Coeff-En:   0.000D+00 0.000D+00 0.100D+01
 Coeff:     -0.328D-02 0.422D+00 0.581D+00
 Gap=     0.193 Goal=   None    Shift=    0.000
 RMSDP=7.87D-04 MaxDP=3.46D-02 DE=-4.05D-01 OVMax= 7.43D-02

 Cycle   4  Pass 0  IDiag  1:
 RMSU=  3.97D-04    CP:  9.70D-01  8.76D-01  5.59D-01
 E= -1687.89906699661     Delta-E=       -0.021582569624 Rises=F Damp=F
 DIIS: error= 5.00D-03 at cycle   4 NSaved=   4.
 NSaved= 4 IEnMin= 4 EnMin= -1687.89906699661     IErMin= 4 ErrMin= 5.00D-03
 ErrMax= 5.00D-03 EMaxC= 1.00D-01 BMatC= 1.62D-02 BMatP= 3.29D-02
 IDIUse=3 WtCom= 9.50D-01 WtEn= 5.00D-02
 Coeff-Com: -0.147D-01 0.127D+00 0.414D+00 0.474D+00
 Coeff-En:   0.000D+00 0.000D+00 0.354D+00 0.646D+00
 Coeff:     -0.140D-01 0.120D+00 0.411D+00 0.483D+00
 Gap=     0.188 Goal=   None    Shift=    0.000
 RMSDP=3.38D-04 MaxDP=1.17D-02 DE=-2.16D-02 OVMax= 3.17D-02

 Cycle   5  Pass 0  IDiag  1:
 RMSU=  1.08D-04    CP:  9.70D-01  8.64D-01  6.85D-01  5.30D-01
 E= -1687.91787044120     Delta-E=       -0.018803444585 Rises=F Damp=F
 DIIS: error= 5.85D-04 at cycle   5 NSaved=   5.
 NSaved= 5 IEnMin= 5 EnMin= -1687.91787044120     IErMin= 5 ErrMin= 5.85D-04
 ErrMax= 5.85D-04 EMaxC= 1.00D-01 BMatC= 4.24D-04 BMatP= 1.62D-02
 IDIUse=3 WtCom= 9.94D-01 WtEn= 5.85D-03
 Coeff-Com: -0.547D-02 0.201D-01 0.142D+00 0.220D+00 0.624D+00
 Coeff-En:   0.000D+00 0.000D+00 0.000D+00 0.000D+00 0.100D+01
 Coeff:     -0.544D-02 0.200D-01 0.141D+00 0.219D+00 0.626D+00
 Gap=     0.186 Goal=   None    Shift=    0.000
 RMSDP=7.45D-05 MaxDP=6.30D-03 DE=-1.88D-02 OVMax= 4.90D-03

 Cycle   6  Pass 0  IDiag  1:
 RMSU=  2.93D-05    CP:  9.70D-01  8.60D-01  7.05D-01  5.58D-01  6.45D-01
 E= -1687.91826768207     Delta-E=       -0.000397240877 Rises=F Damp=F
 DIIS: error= 2.28D-04 at cycle   6 NSaved=   6.
 NSaved= 6 IEnMin= 6 EnMin= -1687.91826768207     IErMin= 6 ErrMin= 2.28D-04
 ErrMax= 2.28D-04 EMaxC= 1.00D-01 BMatC= 6.52D-05 BMatP= 4.24D-04
 IDIUse=3 WtCom= 9.98D-01 WtEn= 2.28D-03
 Coeff-Com: -0.223D-02 0.393D-02 0.552D-01 0.955D-01 0.357D+00 0.490D+00
 Coeff-En:   0.000D+00 0.000D+00 0.000D+00 0.000D+00 0.641D-01 0.936D+00
 Coeff:     -0.223D-02 0.393D-02 0.550D-01 0.953D-01 0.357D+00 0.491D+00
 Gap=     0.186 Goal=   None    Shift=    0.000
 RMSDP=2.29D-05 MaxDP=1.43D-03 DE=-3.97D-04 OVMax= 2.48D-03

 Cycle   7  Pass 0  IDiag  1:
 RMSU=  9.34D-06    CP:  9.70D-01  8.60D-01  7.04D-01  5.61D-01  7.06D-01
                    CP:  6.10D-01
 E= -1687.91833383355     Delta-E=       -0.000066151477 Rises=F Damp=F
 DIIS: error= 9.47D-05 at cycle   7 NSaved=   7.
 NSaved= 7 IEnMin= 7 EnMin= -1687.91833383355     IErMin= 7 ErrMin= 9.47D-05
 ErrMax= 9.47D-05 EMaxC= 1.00D-01 BMatC= 6.07D-06 BMatP= 6.52D-05
 IDIUse=1 WtCom= 1.00D+00 WtEn= 0.00D+00
 Coeff-Com: -0.704D-03 0.154D-03 0.172D-01 0.321D-01 0.139D+00 0.285D+00
 Coeff-Com:  0.527D+00
 Coeff:     -0.704D-03 0.154D-03 0.172D-01 0.321D-01 0.139D+00 0.285D+00
 Coeff:      0.527D+00
 Gap=     0.186 Goal=   None    Shift=    0.000
 RMSDP=7.38D-06 MaxDP=4.64D-04 DE=-6.62D-05 OVMax= 8.13D-04

 Initial convergence to 1.0D-05 achieved.  Increase integral accuracy.
 Cycle   8  Pass 1  IDiag  1:
 E= -1687.91826923210     Delta-E=        0.000064601449 Rises=F Damp=F
 DIIS: error= 3.29D-05 at cycle   1 NSaved=   1.
 NSaved= 1 IEnMin= 1 EnMin= -1687.91826923210     IErMin= 1 ErrMin= 3.29D-05
 ErrMax= 3.29D-05 EMaxC= 1.00D-01 BMatC= 9.65D-07 BMatP= 9.65D-07
 IDIUse=1 WtCom= 1.00D+00 WtEn= 0.00D+00
 Coeff-Com:  0.100D+01
 Coeff:      0.100D+01
 Gap=     0.186 Goal=   None    Shift=    0.000
 RMSDP=7.38D-06 MaxDP=4.64D-04 DE= 6.46D-05 OVMax= 4.57D-04

 Cycle   9  Pass 1  IDiag  1:
 RMSU=  1.20D-05    CP:  1.00D+00
 E= -1687.91826870679     Delta-E=        0.000000525308 Rises=F Damp=F
 DIIS: error= 3.91D-05 at cycle   2 NSaved=   2.
 NSaved= 2 IEnMin= 1 EnMin= -1687.91826923210     IErMin= 1 ErrMin= 3.29D-05
 ErrMax= 3.91D-05 EMaxC= 1.00D-01 BMatC= 1.52D-06 BMatP= 9.65D-07
 IDIUse=1 WtCom= 1.00D+00 WtEn= 0.00D+00
 Coeff-Com:  0.567D+00 0.433D+00
 Coeff:      0.567D+00 0.433D+00
 Gap=     0.186 Goal=   None    Shift=    0.000
 RMSDP=3.72D-06 MaxDP=1.47D-04 DE= 5.25D-07 OVMax= 3.85D-04

 Cycle  10  Pass 1  IDiag  1:
 RMSU=  2.54D-06    CP:  1.00D+00  9.44D-01
 E= -1687.91827027978     Delta-E=       -0.000001572989 Rises=F Damp=F
 DIIS: error= 1.27D-05 at cycle   3 NSaved=   3.
 NSaved= 3 IEnMin= 3 EnMin= -1687.91827027978     IErMin= 3 ErrMin= 1.27D-05
 ErrMax= 1.27D-05 EMaxC= 1.00D-01 BMatC= 1.26D-07 BMatP= 9.65D-07
 IDIUse=1 WtCom= 1.00D+00 WtEn= 0.00D+00
 Coeff-Com:  0.637D-01 0.225D+00 0.711D+00
 Coeff:      0.637D-01 0.225D+00 0.711D+00
 Gap=     0.186 Goal=   None    Shift=    0.000
 RMSDP=1.13D-06 MaxDP=5.28D-05 DE=-1.57D-06 OVMax= 1.22D-04

 Cycle  11  Pass 1  IDiag  1:
 RMSU=  5.07D-07    CP:  1.00D+00  9.65D-01  7.77D-01
 E= -1687.91827038874     Delta-E=       -0.000000108959 Rises=F Damp=F
 DIIS: error= 6.93D-06 at cycle   4 NSaved=   4.
 NSaved= 4 IEnMin= 4 EnMin= -1687.91827038874     IErMin= 4 ErrMin= 6.93D-06
 ErrMax= 6.93D-06 EMaxC= 1.00D-01 BMatC= 3.29D-08 BMatP= 1.26D-07
 IDIUse=1 WtCom= 1.00D+00 WtEn= 0.00D+00
 Coeff-Com: -0.765D-02 0.111D+00 0.462D+00 0.434D+00
 Coeff:     -0.765D-02 0.111D+00 0.462D+00 0.434D+00
 Gap=     0.186 Goal=   None    Shift=    0.000
 RMSDP=4.26D-07 MaxDP=2.34D-05 DE=-1.09D-07 OVMax= 4.47D-05

 Cycle  12  Pass 1  IDiag  1:
 RMSU=  1.26D-07    CP:  1.00D+00  9.65D-01  8.10D-01  4.86D-01
 E= -1687.91827042332     Delta-E=       -0.000000034574 Rises=F Damp=F
 DIIS: error= 9.89D-07 at cycle   5 NSaved=   5.
 NSaved= 5 IEnMin= 5 EnMin= -1687.91827042332     IErMin= 5 ErrMin= 9.89D-07
 ErrMax= 9.89D-07 EMaxC= 1.00D-01 BMatC= 5.33D-10 BMatP= 3.29D-08
 IDIUse=1 WtCom= 1.00D+00 WtEn= 0.00D+00
 Coeff-Com: -0.558D-02 0.483D-01 0.202D+00 0.215D+00 0.541D+00
 Coeff:     -0.558D-02 0.483D-01 0.202D+00 0.215D+00 0.541D+00
 Gap=     0.186 Goal=   None    Shift=    0.000
 RMSDP=9.17D-08 MaxDP=5.23D-06 DE=-3.46D-08 OVMax= 7.97D-06

 Cycle  13  Pass 1  IDiag  1:
 RMSU=  5.07D-08    CP:  1.00D+00  9.65D-01  8.04D-01  4.91D-01  7.07D-01
 E= -1687.91827042383     Delta-E=       -0.000000000515 Rises=F Damp=F
 DIIS: error= 4.51D-07 at cycle   6 NSaved=   6.
 NSaved= 6 IEnMin= 6 EnMin= -1687.91827042383     IErMin= 6 ErrMin= 4.51D-07
 ErrMax= 4.51D-07 EMaxC= 1.00D-01 BMatC= 1.38D-10 BMatP= 5.33D-10
 IDIUse=1 WtCom= 1.00D+00 WtEn= 0.00D+00
 Coeff-Com: -0.269D-02 0.184D-01 0.756D-01 0.857D-01 0.352D+00 0.471D+00
 Coeff:     -0.269D-02 0.184D-01 0.756D-01 0.857D-01 0.352D+00 0.471D+00
 Gap=     0.186 Goal=   None    Shift=    0.000
 RMSDP=3.28D-08 MaxDP=1.57D-06 DE=-5.15D-10 OVMax= 3.11D-06

 Cycle  14  Pass 1  IDiag  1:
 RMSU=  1.46D-08    CP:  1.00D+00  9.65D-01  8.04D-01  4.96D-01  7.84D-01
                    CP:  7.05D-01
 E= -1687.91827042397     Delta-E=       -0.000000000136 Rises=F Damp=F
 DIIS: error= 6.48D-08 at cycle   7 NSaved=   7.
 NSaved= 7 IEnMin= 7 EnMin= -1687.91827042397     IErMin= 7 ErrMin= 6.48D-08
 ErrMax= 6.48D-08 EMaxC= 1.00D-01 BMatC= 6.40D-12 BMatP= 1.38D-10
 IDIUse=1 WtCom= 1.00D+00 WtEn= 0.00D+00
 Coeff-Com: -0.430D-03 0.122D-02 0.400D-02 0.580D-02 0.834D-01 0.216D+00
 Coeff-Com:  0.690D+00
 Coeff:     -0.430D-03 0.122D-02 0.400D-02 0.580D-02 0.834D-01 0.216D+00
 Coeff:      0.690D+00
 Gap=     0.186 Goal=   None    Shift=    0.000
 RMSDP=7.32D-09 MaxDP=6.78D-07 DE=-1.36D-10 OVMax= 5.85D-07

 SCF Done:  E(RB3LYP) =  -1687.91827042     A.U. after   14 cycles
             Convg  =    0.7325D-08             -V/T =  2.0073
 KE= 1.675670360822D+03 PE=-9.310005511016D+03 EE= 3.266344617367D+03
 Leave Link  502 at Fri Oct  1 18:58:58 2021, MaxMem= 2147483648 cpu:    1558.3
 (Enter /sw/target/amd/app/gaussian/Gaussian09RevA.02_gcc-4.9.2/g09/l508.exe)
 QCSCF skips out because SCF is already converged.
 Leave Link  508 at Fri Oct  1 18:58:58 2021, MaxMem= 2147483648 cpu:       0.0
 (Enter /sw/target/amd/app/gaussian/Gaussian09RevA.02_gcc-4.9.2/g09/l601.exe)
 Copying SCF densities to generalized density rwf, IOpCl= 0 IROHF=0.

 **********************************************************************

            Population analysis using the SCF density.

 **********************************************************************

 Orbital symmetries:
       Occupied  (A) (A) (A) (A) (A) (A) (A) (A) (A) (A) (A) (A)
                 (A) (A) (A) (A) (A) (A) (A) (A) (A) (A) (A) (A)
                 (A) (A) (A) (A) (A) (A) (A) (A) (A) (A) (A) (A)
                 (A) (A) (A) (A) (A) (A) (A) (A) (A) (A) (A) (A)
                 (A) (A) (A) (A) (A) (A) (A) (A) (A) (A) (A) (A)
                 (A) (A) (A) (A) (A) (A) (A) (A) (A) (A) (A) (A)
                 (A) (A) (A) (A) (A) (A) (A) (A) (A) (A) (A) (A)
                 (A) (A) (A) (A) (A) (A) (A) (A) (A) (A) (A) (A)
                 (A) (A) (A) (A) (A) (A) (A) (A) (A)
       Virtual   (A) (A) (A) (A) (A) (A) (A) (A) (A) (A) (A) (A)
                 (A) (A) (A) (A) (A) (A) (A) (A) (A) (A) (A) (A)
                 (A) (A) (A) (A) (A) (A) (A) (A) (A) (A) (A) (A)
                 (A) (A) (A) (A) (A) (A) (A) (A) (A) (A) (A) (A)
                 (A) (A) (A) (A) (A) (A) (A) (A) (A) (A) (A) (A)
                 (A) (A) (A) (A) (A) (A) (A) (A) (A) (A) (A) (A)
                 (A) (A) (A) (A) (A) (A) (A) (A) (A) (A) (A) (A)
                 (A) (A) (A) (A) (A) (A) (A) (A) (A) (A) (A) (A)
                 (A) (A) (A) (A) (A) (A) (A) (A) (A) (A) (A) (A)
                 (A) (A) (A) (A) (A) (A) (A) (A) (A) (A) (A) (A)
                 (A) (A) (A) (A) (A) (A) (A) (A) (A) (A) (A) (A)
                 (A) (A) (A) (A) (A) (A) (A) (A) (A) (A) (A) (A)
                 (A) (A) (A) (A) (A) (A) (A) (A) (A) (A) (A) (A)
                 (A) (A) (A) (A) (A) (A) (A) (A) (A) (A) (A) (A)
                 (A) (A) (A) (A) (A) (A) (A) (A) (A) (A) (A) (A)
                 (A) (A) (A) (A) (A) (A) (A) (A) (A) (A) (A) (A)
                 (A) (A) (A) (A) (A) (A) (A) (A) (A) (A) (A) (A)
                 (A) (A) (A) (A) (A) (A) (A) (A) (A) (A) (A) (A)
                 (A) (A) (A) (A) (A) (A) (A) (A) (A) (A) (A) (A)
                 (A) (A) (A) (A) (A) (A) (A) (A) (A) (A) (A) (A)
                 (A) (A) (A) (A) (A) (A) (A) (A) (A) (A) (A) (A)
                 (A) (A) (A) (A) (A) (A) (A) (A) (A) (A) (A) (A)
                 (A) (A) (A) (A) (A) (A) (A) (A) (A) (A) (A) (A)
                 (A) (A) (A) (A) (A) (A) (A) (A) (A) (A) (A) (A)
                 (A) (A) (A) (A) (A) (A) (A) (A) (A) (A) (A) (A)
                 (A) (A) (A) (A) (A) (A) (A) (A) (A) (A) (A) (A)
                 (A) (A) (A) (A) (A) (A) (A) (A) (A) (A) (A) (A)
                 (A) (A) (A) (A) (A) (A) (A) (A) (A) (A) (A) (A)
                 (A) (A) (A) (A) (A) (A) (A) (A) (A) (A) (A) (A)
                 (A) (A) (A) (A) (A) (A) (A) (A) (A) (A) (A) (A)
                 (A) (A) (A) (A) (A) (A) (A) (A) (A) (A) (A)
 The electronic state is 1-A.
 Alpha  occ. eigenvalues --  -77.07495 -77.07265 -10.19613 -10.19551 -10.19485
 Alpha  occ. eigenvalues --  -10.19434 -10.19428 -10.19376 -10.19294 -10.19265
 Alpha  occ. eigenvalues --  -10.19265 -10.19220 -10.19220 -10.19201 -10.19187
 Alpha  occ. eigenvalues --  -10.19125 -10.19125 -10.19075 -10.19074 -10.19052
 Alpha  occ. eigenvalues --  -10.19036 -10.19023 -10.18980 -10.18853 -10.18664
 Alpha  occ. eigenvalues --  -10.18577 -10.18514 -10.18446  -6.54354  -6.54159
 Alpha  occ. eigenvalues --   -4.70627  -4.70593  -4.70426  -4.70399  -4.70094
 Alpha  occ. eigenvalues --   -4.69896  -0.85653  -0.85498  -0.84970  -0.84682
 Alpha  occ. eigenvalues --   -0.78838  -0.76476  -0.74808  -0.74557  -0.74410
 Alpha  occ. eigenvalues --   -0.74280  -0.74074  -0.74049  -0.73729  -0.66635
 Alpha  occ. eigenvalues --   -0.62969  -0.61154  -0.60544  -0.60336  -0.60105
 Alpha  occ. eigenvalues --   -0.59528  -0.59381  -0.59265  -0.55188  -0.54945
 Alpha  occ. eigenvalues --   -0.51669  -0.51474  -0.50077  -0.49453  -0.46254
 Alpha  occ. eigenvalues --   -0.45598  -0.45390  -0.45003  -0.44847  -0.44683
 Alpha  occ. eigenvalues --   -0.44418  -0.44350  -0.44125  -0.42128  -0.42000
 Alpha  occ. eigenvalues --   -0.41823  -0.41529  -0.41069  -0.40689  -0.40365
 Alpha  occ. eigenvalues --   -0.38040  -0.37549  -0.36714  -0.36506  -0.36303
 Alpha  occ. eigenvalues --   -0.35890  -0.35766  -0.34827  -0.34684  -0.34448
 Alpha  occ. eigenvalues --   -0.34303  -0.33936  -0.31886  -0.31667  -0.30614
 Alpha  occ. eigenvalues --   -0.26885  -0.25927  -0.25569  -0.25326  -0.25047
 Alpha  occ. eigenvalues --   -0.24954  -0.24858  -0.24412  -0.21213  -0.20743
 Alpha virt. eigenvalues --   -0.02141  -0.01998  -0.00899  -0.00765  -0.00327
 Alpha virt. eigenvalues --   -0.00067   0.00177   0.00489   0.05787   0.06636
 Alpha virt. eigenvalues --    0.07594   0.08350   0.09041   0.09756   0.10849
 Alpha virt. eigenvalues --    0.11542   0.11917   0.12406   0.13111   0.14001
 Alpha virt. eigenvalues --    0.14256   0.14569   0.14818   0.15027   0.15208
 Alpha virt. eigenvalues --    0.15531   0.15924   0.16267   0.16637   0.17091
 Alpha virt. eigenvalues --    0.17309   0.17377   0.17975   0.18420   0.18855
 Alpha virt. eigenvalues --    0.19172   0.19264   0.19680   0.20382   0.21872
 Alpha virt. eigenvalues --    0.22316   0.23208   0.24361   0.25784   0.26986
 Alpha virt. eigenvalues --    0.28580   0.28959   0.29715   0.30264   0.30376
 Alpha virt. eigenvalues --    0.30515   0.30903   0.31053   0.31300   0.31432
 Alpha virt. eigenvalues --    0.32508   0.32778   0.33557   0.34531   0.37487
 Alpha virt. eigenvalues --    0.37834   0.38503   0.39685   0.40601   0.40927
 Alpha virt. eigenvalues --    0.42914   0.44238   0.46392   0.47455   0.49561
 Alpha virt. eigenvalues --    0.50679   0.51041   0.52566   0.52979   0.53138
 Alpha virt. eigenvalues --    0.53961   0.53989   0.54323   0.54595   0.54963
 Alpha virt. eigenvalues --    0.55774   0.56034   0.56108   0.56431   0.56726
 Alpha virt. eigenvalues --    0.57028   0.57143   0.57677   0.58267   0.58519
 Alpha virt. eigenvalues --    0.59024   0.59209   0.59506   0.59873   0.60081
 Alpha virt. eigenvalues --    0.60157   0.60328   0.60445   0.60726   0.60844
 Alpha virt. eigenvalues --    0.60947   0.61242   0.61380   0.61519   0.61762
 Alpha virt. eigenvalues --    0.62059   0.62099   0.62660   0.62906   0.63788
 Alpha virt. eigenvalues --    0.64695   0.65087   0.65360   0.65526   0.66090
 Alpha virt. eigenvalues --    0.67471   0.69327   0.70462   0.71631   0.72694
 Alpha virt. eigenvalues --    0.73336   0.74610   0.75868   0.77402   0.80086
 Alpha virt. eigenvalues --    0.80469   0.81591   0.82465   0.82494   0.83183
 Alpha virt. eigenvalues --    0.83382   0.83519   0.83788   0.83946   0.84125
 Alpha virt. eigenvalues --    0.84160   0.84267   0.84660   0.84879   0.85132
 Alpha virt. eigenvalues --    0.85419   0.85736   0.86333   0.86750   0.87872
 Alpha virt. eigenvalues --    0.88394   0.88995   0.89200   0.89415   0.90005
 Alpha virt. eigenvalues --    0.91129   0.91221   0.92005   0.92320   0.92708
 Alpha virt. eigenvalues --    0.93395   0.93750   0.94143   0.94521   0.95477
 Alpha virt. eigenvalues --    0.95571   0.95657   0.96145   0.96857   0.97556
 Alpha virt. eigenvalues --    0.98705   0.99529   1.00491   1.00497   1.01424
 Alpha virt. eigenvalues --    1.02358   1.02742   1.05278   1.05548   1.05806
 Alpha virt. eigenvalues --    1.06666   1.08191   1.08252   1.11213   1.11794
 Alpha virt. eigenvalues --    1.12112   1.12533   1.13060   1.13487   1.14335
 Alpha virt. eigenvalues --    1.15381   1.16405   1.17878   1.18857   1.19080
 Alpha virt. eigenvalues --    1.20600   1.22744   1.24971   1.25680   1.25876
 Alpha virt. eigenvalues --    1.27535   1.27671   1.29041   1.30472   1.31810
 Alpha virt. eigenvalues --    1.32185   1.33223   1.35192   1.38736   1.41308
 Alpha virt. eigenvalues --    1.41742   1.42044   1.42872   1.43455   1.43584
 Alpha virt. eigenvalues --    1.44292   1.45022   1.45420   1.46020   1.47270
 Alpha virt. eigenvalues --    1.48230   1.48496   1.48578   1.49268   1.49605
 Alpha virt. eigenvalues --    1.49712   1.49792   1.50454   1.50713   1.51338
 Alpha virt. eigenvalues --    1.51471   1.51576   1.52187   1.55562   1.57044
 Alpha virt. eigenvalues --    1.57439   1.58960   1.61101   1.64122   1.71702
 Alpha virt. eigenvalues --    1.75982   1.76547   1.78558   1.79441   1.81213
 Alpha virt. eigenvalues --    1.81516   1.82075   1.82201   1.82481   1.83792
 Alpha virt. eigenvalues --    1.85637   1.86187   1.89386   1.89515   1.90033
 Alpha virt. eigenvalues --    1.90770   1.94751   1.97435   1.97860   1.98048
 Alpha virt. eigenvalues --    1.98085   1.98238   1.98717   2.00156   2.00996
 Alpha virt. eigenvalues --    2.01329   2.04920   2.07545   2.07886   2.08489
 Alpha virt. eigenvalues --    2.08931   2.09587   2.10453   2.11627   2.12304
 Alpha virt. eigenvalues --    2.13823   2.14027   2.14296   2.14511   2.14966
 Alpha virt. eigenvalues --    2.15003   2.15416   2.15719   2.16176   2.16626
 Alpha virt. eigenvalues --    2.16725   2.16768   2.16883   2.17258   2.17479
 Alpha virt. eigenvalues --    2.17879   2.25937   2.28773   2.29503   2.29669
 Alpha virt. eigenvalues --    2.29759   2.30211   2.30352   2.30569   2.30877
 Alpha virt. eigenvalues --    2.31081   2.32165   2.32846   2.33540   2.34139
 Alpha virt. eigenvalues --    2.34905   2.36111   2.54209   2.54815   2.55682
 Alpha virt. eigenvalues --    2.55837   2.56909   2.57427   2.57927   2.58189
 Alpha virt. eigenvalues --    2.64532   2.64816   2.64871   2.65311   2.66313
 Alpha virt. eigenvalues --    2.67216   2.67587   2.68528   2.69059   2.69686
 Alpha virt. eigenvalues --    2.70145   2.70244   2.71037   2.74521   2.74738
 Alpha virt. eigenvalues --    2.75090   2.75301   2.75749   2.76263   2.76717
 Alpha virt. eigenvalues --    2.77680   2.77865   2.78204   2.79943   2.80755
 Alpha virt. eigenvalues --    3.02895   3.03073   3.04108   3.04349   3.35756
 Alpha virt. eigenvalues --    3.36072   3.38786   3.38993   3.60174   3.61865
 Alpha virt. eigenvalues --    4.08945   4.09148   4.09634   4.09981   4.11163
 Alpha virt. eigenvalues --    4.11281   4.11944   4.12395   4.16759   4.17721
 Alpha virt. eigenvalues --    4.19579   4.22021   4.23354   4.32590   4.32770
 Alpha virt. eigenvalues --    4.34186   4.34651   4.36128   4.36491   4.37245
 Alpha virt. eigenvalues --    4.39143   4.46576   4.66884   4.67300   4.67383
 Alpha virt. eigenvalues --    4.67745
          Condensed to atoms (all electrons):
 Mulliken atomic charges:
              1
     1  C   -0.130585
     2  C   -0.117453
     3  C   -0.168578
     4  C   -0.080046
     5  C   -0.172843
     6  C   -0.118982
     7  P    0.335830
     8  C   -0.074956
     9  C   -0.153949
    10  C   -0.121587
    11  C   -0.131323
    12  C   -0.119687
    13  C   -0.173023
    14  C   -0.466224
    15  C   -0.479658
    16  P    0.351970
    17  C   -0.059315
    18  C   -0.178097
    19  C   -0.115860
    20  C   -0.134308
    21  C   -0.116446
    22  C   -0.182917
    23  C   -0.093080
    24  C   -0.168542
    25  C   -0.121254
    26  C   -0.129694
    27  C   -0.120457
    28  C   -0.153639
    29  H    0.131430
    30  H    0.132372
    31  H    0.142115
    32  H    0.135345
    33  H    0.131008
    34  H    0.139812
    35  H    0.130328
    36  H    0.131159
    37  H    0.131719
    38  H    0.140762
    39  H    0.175596
    40  H    0.171074
    41  H    0.174493
    42  H    0.177267
    43  H    0.141883
    44  H    0.128200
    45  H    0.127513
    46  H    0.129648
    47  H    0.129639
    48  H    0.144984
    49  H    0.133436
    50  H    0.132888
    51  H    0.135037
    52  H    0.146992
 Sum of Mulliken atomic charges =  -0.00000
 Mulliken charges with hydrogens summed into heavy atoms:
              1
     1  C    0.000846
     2  C    0.014919
     3  C   -0.026463
     4  C   -0.080046
     5  C   -0.037498
     6  C    0.012026
     7  P    0.335830
     8  C   -0.074956
     9  C   -0.014137
    10  C    0.008741
    11  C   -0.000164
    12  C    0.012032
    13  C   -0.032261
    14  C   -0.119554
    15  C   -0.127898
    16  P    0.351970
    17  C   -0.059315
    18  C   -0.036214
    19  C    0.012340
    20  C   -0.006795
    21  C    0.013202
    22  C   -0.053278
    23  C   -0.093080
    24  C   -0.023558
    25  C    0.012182
    26  C    0.003194
    27  C    0.014580
    28  C   -0.006647
 Sum of Mulliken charges with hydrogens summed into heavy atoms =  -0.00000
 Electronic spatial extent (au):  <R**2>=          13702.0846
 Charge=              0.0000 electrons
 Dipole moment (field-independent basis, Debye):
    X=              0.4254    Y=              1.4912    Z=              2.0556  Tot=              2.5749
 Quadrupole moment (field-independent basis, Debye-Ang):
   XX=           -168.4873   YY=           -164.3770   ZZ=           -173.8728
   XY=              4.2852   XZ=             -5.2993   YZ=              0.0230
 Traceless Quadrupole moment (field-independent basis, Debye-Ang):
   XX=              0.4251   YY=              4.5353   ZZ=             -4.9604
   XY=              4.2852   XZ=             -5.2993   YZ=              0.0230
 Octapole moment (field-independent basis, Debye-Ang**2):
  XXX=             49.0942  YYY=             29.9937  ZZZ=             63.4631  XYY=            -31.4321
  XXY=              0.1220  XXZ=             -1.8913  XZZ=             13.2395  YZZ=              9.0802
  YYZ=              1.8177  XYZ=             -8.9623
 Hexadecapole moment (field-independent basis, Debye-Ang**3):
 XXXX=         -11607.7334 YYYY=          -3304.8703 ZZZZ=          -3004.0390 XXXY=            153.3004
 XXXZ=           -378.0821 YYYX=              0.6425 YYYZ=             15.2405 ZZZX=             48.7624
 ZZZY=             -5.8672 XXYY=          -2462.6086 XXZZ=          -2670.6602 YYZZ=          -1042.9325
 XXYZ=            -30.2243 YYXZ=             17.6290 ZZXY=             32.5598
 N-N= 2.680072262403D+03 E-N=-9.310005533704D+03  KE= 1.675670360822D+03
 No NMR shielding tensors so no spin-rotation constants.
 Leave Link  601 at Fri Oct  1 18:59:05 2021, MaxMem= 2147483648 cpu:       4.0
 (Enter /sw/target/amd/app/gaussian/Gaussian09RevA.02_gcc-4.9.2/g09/l701.exe)
 Compute integral first derivatives.
 ... and contract with generalized density number  0.
 Leave Link  701 at Fri Oct  1 18:59:11 2021, MaxMem= 2147483648 cpu:       3.8
 (Enter /sw/target/amd/app/gaussian/Gaussian09RevA.02_gcc-4.9.2/g09/l702.exe)
 L702 exits ... SP integral derivatives will be done elsewhere.
 Leave Link  702 at Fri Oct  1 18:59:11 2021, MaxMem= 2147483648 cpu:       0.1
 (Enter /sw/target/amd/app/gaussian/Gaussian09RevA.02_gcc-4.9.2/g09/l703.exe)
 Compute integral first derivatives, UseDBF=F ICtDFT=           0.
 Integral derivatives from FoFDir, PRISM(SPDF).
 Calling FoFJK, ICntrl=      2127 FMM=F ISym2X=0 I1Cent= 0 IOpClX= 0 NMat=1 NMatS=1 NMatT=0.
 FoFCou: FMM=F IPFlag=           0 FMFlag=      100000 FMFlg1=         800
         NFxFlg=           0 DoJE=F BraDBF=F KetDBF=F FulRan=T
         Omega=  0.000000  0.000000  1.000000  0.000000  0.000000 ICntrl=    2127 IOpCl=  0
         NMat0=    1 NMatS0=    1 NMatT0=    0 NMatD0=    1 NMtDS0=    0 NMtDT0=    0
         I1Cent=           0 NGrid=           0.
 Symmetry not used in FoFCou.
 Leave Link  703 at Fri Oct  1 19:06:54 2021, MaxMem= 2147483648 cpu:     510.9
 (Enter /sw/target/amd/app/gaussian/Gaussian09RevA.02_gcc-4.9.2/g09/l716.exe)
 Dipole        = 1.67378840D-01 5.86676652D-01 8.08717021D-01
 ***** Axes restored to original set *****
 -------------------------------------------------------------------
 Center     Atomic                   Forces (Hartrees/Bohr)
 Number     Number              X              Y              Z
 -------------------------------------------------------------------
      1        6           0.003538246   -0.001849530   -0.000473521
      2        6          -0.004312485    0.003723579    0.000307104
      3        6           0.004234204    0.001499320    0.002102892
      4        6           0.007109699   -0.004735832   -0.002864125
      5        6           0.005544803   -0.004096548   -0.002141913
      6        6          -0.003058992   -0.001086931   -0.000138445
      7       15          -0.006617073    0.011267982    0.018389215
      8        6          -0.001752426    0.004749332   -0.008695306
      9        6           0.002382089    0.002589185   -0.008221921
     10        6           0.001756438   -0.003904720    0.002566453
     11        6          -0.000108639    0.001504610   -0.001464900
     12        6          -0.001612634   -0.001005479    0.002749467
     13        6          -0.002281083    0.003941107   -0.000623844
     14        6           0.000367484   -0.009720024   -0.002744556
     15        6           0.001482558    0.007432298   -0.001140742
     16       15           0.001992486   -0.012395989    0.015552537
     17        6          -0.005422232    0.004277455   -0.003525180
     18        6          -0.005788528    0.000686395   -0.003255931
     19        6           0.001375315   -0.003436271   -0.003565849
     20        6          -0.005075774    0.002324715    0.001425277
     21        6           0.005902544   -0.002393234   -0.000631724
     22        6          -0.004073157    0.002411584    0.005919450
     23        6          -0.000195074    0.001764994   -0.008798137
     24        6           0.000401700   -0.002971636   -0.003634684
     25        6          -0.001304154   -0.001034066    0.003444717
     26        6           0.000466220   -0.002200492   -0.003052996
     27        6          -0.000472882    0.003250246    0.005263466
     28        6           0.001071181    0.002792272   -0.008740291
     29        1           0.000187181   -0.000191162    0.000121885
     30        1          -0.000408290    0.000375219    0.000086816
     31        1          -0.002213072   -0.001368236   -0.000372201
     32        1          -0.002239554    0.000985959    0.000828998
     33        1          -0.000509962   -0.000253959    0.000032530
     34        1          -0.000251337   -0.000597273    0.002795685
     35        1          -0.000114906   -0.000831519    0.000120555
     36        1          -0.000089846    0.000411678   -0.000701434
     37        1          -0.000316404   -0.000214949    0.000576045
     38        1           0.002015680   -0.002066847    0.000590429
     39        1           0.001655641   -0.000019695   -0.000575903
     40        1          -0.000767680   -0.001710554   -0.002092918
     41        1           0.000611826    0.002071398   -0.000825421
     42        1          -0.001744932   -0.002109903   -0.000205874
     43        1           0.003268514    0.000633377    0.000958421
     44        1           0.001938921   -0.000008331    0.001711349
     45        1           0.000358914    0.000095819   -0.000203158
     46        1           0.000516637    0.000220110    0.001003059
     47        1           0.000934156   -0.000479295   -0.001897842
     48        1           0.000718891    0.002183517    0.001966436
     49        1           0.000089968    0.000205073    0.001033901
     50        1           0.000334676   -0.000715377   -0.000694878
     51        1           0.000240502    0.000676473   -0.000710134
     52        1           0.000234642   -0.000675844    0.002447140
 -------------------------------------------------------------------
 Cartesian Forces:  Max     0.018389215 RMS     0.003711051
 Leave Link  716 at Fri Oct  1 19:06:55 2021, MaxMem= 2147483648 cpu:       0.1
 (Enter /sw/target/amd/app/gaussian/Gaussian09RevA.02_gcc-4.9.2/g09/l103.exe)

 GradGradGradGradGradGradGradGradGradGradGradGradGradGradGradGradGradGrad
 Berny optimization.
 Internal  Forces:  Max     0.011156991 RMS     0.002052586
 Search for a local minimum.
 Step number   1 out of a maximum of  288
 All quantities printed in internal units (Hartrees-Bohrs-Radians)
 RMS Force = .20526D-02 SwitMx=.10000D-02 MixMth= 1
 Mixed Optimization -- RFO/linear search
 Second derivative matrix not updated -- first step.
     Eigenvalues ---    0.00309   0.00346   0.00508   0.00707   0.00809
     Eigenvalues ---    0.00847   0.00850   0.01624   0.01654   0.01664
     Eigenvalues ---    0.01669   0.02044   0.02045   0.02046   0.02051
     Eigenvalues ---    0.02058   0.02065   0.02065   0.02066   0.02075
     Eigenvalues ---    0.02077   0.02079   0.02087   0.02105   0.02107
     Eigenvalues ---    0.02108   0.02111   0.02132   0.02136   0.02141
     Eigenvalues ---    0.02146   0.02154   0.02159   0.02161   0.02162
     Eigenvalues ---    0.02172   0.02178   0.02180   0.02183   0.02195
     Eigenvalues ---    0.02203   0.02203   0.02210   0.03963   0.04053
     Eigenvalues ---    0.05320   0.05418   0.06031   0.06330   0.09272
     Eigenvalues ---    0.09302   0.12793   0.12806   0.14195   0.14923
     Eigenvalues ---    0.15997   0.15997   0.15998   0.15998   0.15998
     Eigenvalues ---    0.15999   0.15999   0.15999   0.15999   0.15999
     Eigenvalues ---    0.15999   0.16000   0.16000   0.16000   0.16000
     Eigenvalues ---    0.16000   0.16000   0.16000   0.16000   0.16000
     Eigenvalues ---    0.16166   0.16221   0.21622   0.21896   0.21960
     Eigenvalues ---    0.21998   0.22000   0.22000   0.22000   0.22000
     Eigenvalues ---    0.22000   0.22000   0.22000   0.22569   0.23460
     Eigenvalues ---    0.23465   0.23467   0.23468   0.23573   0.24108
     Eigenvalues ---    0.24317   0.24330   0.24975   0.24990   0.24995
     Eigenvalues ---    0.24999   0.29262   0.33925   0.34075   0.34349
     Eigenvalues ---    0.34375   0.34705   0.34870   0.34921   0.34968
     Eigenvalues ---    0.35003   0.35085   0.35088   0.35137   0.35156
     Eigenvalues ---    0.35171   0.35179   0.35191   0.35241   0.35283
     Eigenvalues ---    0.35287   0.35295   0.35317   0.35319   0.35319
     Eigenvalues ---    0.35345   0.41399   0.41443   0.41460   0.41463
     Eigenvalues ---    0.41872   0.41882   0.41892   0.41917   0.45157
     Eigenvalues ---    0.45161   0.45204   0.45211   0.45701   0.45728
     Eigenvalues ---    0.45733   0.45822   0.46203   0.46235   0.46254
     Eigenvalues ---    0.46269   0.46802   0.46900   0.46921   0.47009
     Eigenvalues --- 1000.000001000.000001000.000001000.000001000.00000
     Eigenvalues --- 1000.000001000.000001000.000001000.000001000.00000
     Eigenvalues --- 1000.000001000.000001000.000001000.000001000.00000
     Eigenvalues --- 1000.000001000.000001000.000001000.000001000.00000
     Eigenvalues --- 1000.000001000.000001000.000001000.000001000.00000
     Eigenvalues --- 1000.000001000.000001000.000001000.000001000.00000
     Eigenvalues --- 1000.000001000.000001000.000001000.000001000.00000
     Eigenvalues --- 1000.000001000.000001000.000001000.000001000.00000
     Eigenvalues --- 1000.000001000.000001000.000001000.000001000.00000
     Eigenvalues --- 1000.000001000.000001000.000001000.000001000.00000
     Eigenvalues --- 1000.000001000.000001000.000001000.000001000.00000
[...]
   283    C   19  px     Val( 2p)     1.04856
   284    C   19  px     Ryd( 3p)     0.00303
   285    C   19  py     Val( 2p)     1.02876
   286    C   19  py     Ryd( 3p)     0.00216
   287    C   19  pz     Val( 2p)     1.17677
   288    C   19  pz     Ryd( 3p)     0.00527
   289    C   19  dxy    Ryd( 3d)     0.00040
   290    C   19  dxz    Ryd( 3d)     0.00061
   291    C   19  dyz    Ryd( 3d)     0.00051
   292    C   19  dx2y2  Ryd( 3d)     0.00049
   293    C   19  dz2    Ryd( 3d)     0.00077

   294    C   20  S      Cor( 1S)     1.99909
   295    C   20  S      Val( 2S)     0.96422
   296    C   20  S      Ryd( 3S)     0.00056
   297    C   20  S      Ryd( 4S)     0.00004
   298    C   20  px     Val( 2p)     1.11454
   299    C   20  px     Ryd( 3p)     0.00341
   300    C   20  py     Val( 2p)     1.06928
   301    C   20  py     Ryd( 3p)     0.00245
   302    C   20  pz     Val( 2p)     1.06552
   303    C   20  pz     Ryd( 3p)     0.00444
   304    C   20  dxy    Ryd( 3d)     0.00067
   305    C   20  dxz    Ryd( 3d)     0.00059
   306    C   20  dyz    Ryd( 3d)     0.00057
   307    C   20  dx2y2  Ryd( 3d)     0.00034
   308    C   20  dz2    Ryd( 3d)     0.00062

   309    C   21  S      Cor( 1S)     1.99909
   310    C   21  S      Val( 2S)     0.96111
   311    C   21  S      Ryd( 3S)     0.00059
   312    C   21  S      Ryd( 4S)     0.00003
   313    C   21  px     Val( 2p)     1.06507
   314    C   21  px     Ryd( 3p)     0.00312
   315    C   21  py     Val( 2p)     1.04332
   316    C   21  py     Ryd( 3p)     0.00229
   317    C   21  pz     Val( 2p)     1.15106
   318    C   21  pz     Ryd( 3p)     0.00503
   319    C   21  dxy    Ryd( 3d)     0.00043
   320    C   21  dxz    Ryd( 3d)     0.00067
   321    C   21  dyz    Ryd( 3d)     0.00059
   322    C   21  dx2y2  Ryd( 3d)     0.00044
   323    C   21  dz2    Ryd( 3d)     0.00063

   324    C   22  S      Cor( 1S)     1.99902
   325    C   22  S      Val( 2S)     0.95373
   326    C   22  S      Ryd( 3S)     0.00075
   327    C   22  S      Ryd( 4S)     0.00004
   328    C   22  px     Val( 2p)     1.04703
   329    C   22  px     Ryd( 3p)     0.00343
   330    C   22  py     Val( 2p)     1.02651
   331    C   22  py     Ryd( 3p)     0.00214
   332    C   22  pz     Val( 2p)     1.18249
   333    C   22  pz     Ryd( 3p)     0.00599
   334    C   22  dxy    Ryd( 3d)     0.00042
   335    C   22  dxz    Ryd( 3d)     0.00059
   336    C   22  dyz    Ryd( 3d)     0.00050
   337    C   22  dx2y2  Ryd( 3d)     0.00050
   338    C   22  dz2    Ryd( 3d)     0.00077

   339    C   23  S      Cor( 1S)     1.99895
   340    C   23  S      Val( 2S)     0.98204
   341    C   23  S      Ryd( 3S)     0.00255
   342    C   23  S      Ryd( 4S)     0.00005
   343    C   23  px     Val( 2p)     1.06646
   344    C   23  px     Ryd( 3p)     0.00261
   345    C   23  py     Val( 2p)     1.13831
   346    C   23  py     Ryd( 3p)     0.00705
   347    C   23  pz     Val( 2p)     1.16231
   348    C   23  pz     Ryd( 3p)     0.00707
   349    C   23  dxy    Ryd( 3d)     0.00048
   350    C   23  dxz    Ryd( 3d)     0.00043
   351    C   23  dyz    Ryd( 3d)     0.00085
   352    C   23  dx2y2  Ryd( 3d)     0.00055
   353    C   23  dz2    Ryd( 3d)     0.00084

   354    C   24  S      Cor( 1S)     1.99902
   355    C   24  S      Val( 2S)     0.95234
   356    C   24  S      Ryd( 3S)     0.00075
   357    C   24  S      Ryd( 4S)     0.00004
   358    C   24  px     Val( 2p)     1.04167
   359    C   24  px     Ryd( 3p)     0.00241
   360    C   24  py     Val( 2p)     1.05508
   361    C   24  py     Ryd( 3p)     0.00353
   362    C   24  pz     Val( 2p)     1.15559
   363    C   24  pz     Ryd( 3p)     0.00585
   364    C   24  dxy    Ryd( 3d)     0.00046
   365    C   24  dxz    Ryd( 3d)     0.00065
   366    C   24  dyz    Ryd( 3d)     0.00056
   367    C   24  dx2y2  Ryd( 3d)     0.00045
   368    C   24  dz2    Ryd( 3d)     0.00065

   369    C   25  S      Cor( 1S)     1.99909
   370    C   25  S      Val( 2S)     0.96133
   371    C   25  S      Ryd( 3S)     0.00059
   372    C   25  S      Ryd( 4S)     0.00003
   373    C   25  px     Val( 2p)     1.05558
   374    C   25  px     Ryd( 3p)     0.00210
   375    C   25  py     Val( 2p)     1.14584
   376    C   25  py     Ryd( 3p)     0.00435
   377    C   25  pz     Val( 2p)     1.05606
   378    C   25  pz     Ryd( 3p)     0.00399
   379    C   25  dxy    Ryd( 3d)     0.00065
   380    C   25  dxz    Ryd( 3d)     0.00051
   381    C   25  dyz    Ryd( 3d)     0.00055
   382    C   25  dx2y2  Ryd( 3d)     0.00044
   383    C   25  dz2    Ryd( 3d)     0.00064

   384    C   26  S      Cor( 1S)     1.99909
   385    C   26  S      Val( 2S)     0.96408
   386    C   26  S      Ryd( 3S)     0.00055
   387    C   26  S      Ryd( 4S)     0.00004
   388    C   26  px     Val( 2p)     1.01642
   389    C   26  px     Ryd( 3p)     0.00205
   390    C   26  py     Val( 2p)     1.10518
   391    C   26  py     Ryd( 3p)     0.00398
   392    C   26  pz     Val( 2p)     1.13111
   393    C   26  pz     Ryd( 3p)     0.00435
   394    C   26  dxy    Ryd( 3d)     0.00041
   395    C   26  dxz    Ryd( 3d)     0.00042
   396    C   26  dyz    Ryd( 3d)     0.00085
   397    C   26  dx2y2  Ryd( 3d)     0.00054
   398    C   26  dz2    Ryd( 3d)     0.00057

   399    C   27  S      Cor( 1S)     1.99909
   400    C   27  S      Val( 2S)     0.96240
   401    C   27  S      Ryd( 3S)     0.00065
   402    C   27  S      Ryd( 4S)     0.00003
   403    C   27  px     Val( 2p)     1.04887
   404    C   27  px     Ryd( 3p)     0.00228
   405    C   27  py     Val( 2p)     1.05148
   406    C   27  py     Ryd( 3p)     0.00372
   407    C   27  pz     Val( 2p)     1.15015
   408    C   27  pz     Ryd( 3p)     0.00486
   409    C   27  dxy    Ryd( 3d)     0.00048
   410    C   27  dxz    Ryd( 3d)     0.00065
   411    C   27  dyz    Ryd( 3d)     0.00056
   412    C   27  dx2y2  Ryd( 3d)     0.00047
   413    C   27  dz2    Ryd( 3d)     0.00062

   414    C   28  S      Cor( 1S)     1.99901
   415    C   28  S      Val( 2S)     0.95395
   416    C   28  S      Ryd( 3S)     0.00108
   417    C   28  S      Ryd( 4S)     0.00005
   418    C   28  px     Val( 2p)     1.06084
   419    C   28  px     Ryd( 3p)     0.00263
   420    C   28  py     Val( 2p)     1.15355
   421    C   28  py     Ryd( 3p)     0.00509
   422    C   28  pz     Val( 2p)     1.05642
   423    C   28  pz     Ryd( 3p)     0.00429
   424    C   28  dxy    Ryd( 3d)     0.00069
   425    C   28  dxz    Ryd( 3d)     0.00049
   426    C   28  dyz    Ryd( 3d)     0.00055
   427    C   28  dx2y2  Ryd( 3d)     0.00042
   428    C   28  dz2    Ryd( 3d)     0.00064

   429    H   29  S      Val( 1S)     0.75466
   430    H   29  S      Ryd( 2S)     0.00079

   431    H   30  S      Val( 1S)     0.75143
   432    H   30  S      Ryd( 2S)     0.00079

   433    H   31  S      Val( 1S)     0.74693
   434    H   31  S      Ryd( 2S)     0.00152

   435    H   32  S      Val( 1S)     0.75421
   436    H   32  S      Ryd( 2S)     0.00113

   437    H   33  S      Val( 1S)     0.75206
   438    H   33  S      Ryd( 2S)     0.00083

   439    H   34  S      Val( 1S)     0.78239
   440    H   34  S      Ryd( 2S)     0.00109

   441    H   35  S      Val( 1S)     0.77384
   442    H   35  S      Ryd( 2S)     0.00087

   443    H   36  S      Val( 1S)     0.78235
   444    H   36  S      Ryd( 2S)     0.00078

   445    H   37  S      Val( 1S)     0.77714
   446    H   37  S      Ryd( 2S)     0.00085

   447    H   38  S      Val( 1S)     0.78420
   448    H   38  S      Ryd( 2S)     0.00074

   449    H   39  S      Val( 1S)     0.74876
   450    H   39  S      Ryd( 2S)     0.00254

   451    H   40  S      Val( 1S)     0.72085
   452    H   40  S      Ryd( 2S)     0.00201

   453    H   41  S      Val( 1S)     0.73540
   454    H   41  S      Ryd( 2S)     0.00271

   455    H   42  S      Val( 1S)     0.74274
   456    H   42  S      Ryd( 2S)     0.00161

   457    H   43  S      Val( 1S)     0.75455
   458    H   43  S      Ryd( 2S)     0.00150

   459    H   44  S      Val( 1S)     0.76074
   460    H   44  S      Ryd( 2S)     0.00090

   461    H   45  S      Val( 1S)     0.76274
   462    H   45  S      Ryd( 2S)     0.00085

   463    H   46  S      Val( 1S)     0.76255
   464    H   46  S      Ryd( 2S)     0.00090

   465    H   47  S      Val( 1S)     0.76029
   466    H   47  S      Ryd( 2S)     0.00110

   467    H   48  S      Val( 1S)     0.75934
   468    H   48  S      Ryd( 2S)     0.00111

   469    H   49  S      Val( 1S)     0.76222
   470    H   49  S      Ryd( 2S)     0.00089

   471    H   50  S      Val( 1S)     0.76276
   472    H   50  S      Ryd( 2S)     0.00085

   473    H   51  S      Val( 1S)     0.75553
   474    H   51  S      Ryd( 2S)     0.00101

   475    H   52  S      Val( 1S)     0.75007
   476    H   52  S      Ryd( 2S)     0.00176

 WARNING:  1 low occupancy (<1.9990e) core orbital  found on  C    4
           1 low occupancy (<1.9990e) core orbital  found on  P    7
           1 low occupancy (<1.9990e) core orbital  found on  C    8
           1 low occupancy (<1.9990e) core orbital  found on  C    9
           1 low occupancy (<1.9990e) core orbital  found on  P   16
           1 low occupancy (<1.9990e) core orbital  found on  C   17
           1 low occupancy (<1.9990e) core orbital  found on  C   23


 Summary of Natural Population Analysis:                  
                                                          
                                       Natural Population 
                Natural  -----------------------------------------------
    Atom  No    Charge         Core      Valence    Rydberg      Total
 -----------------------------------------------------------------------
      C    1   -0.19002      1.99909     4.17698    0.01394     6.19002
      C    2   -0.23455      1.99910     4.22123    0.01421     6.23455
      C    3   -0.18070      1.99902     4.16591    0.01577     6.18070
      C    4   -0.36656      1.99892     4.34480    0.02283     6.36656
      C    5   -0.21512      1.99900     4.20075    0.01536     6.21512
      C    6   -0.22115      1.99910     4.20793    0.01412     6.22115
      P    7    1.25983      9.99756     3.69462    0.04799    13.74017
      C    8   -0.53385      1.99883     4.50991    0.02512     6.53385
      C    9   -0.31603      1.99898     4.29683    0.02023     6.31603
      C   10   -0.22076      1.99908     4.20717    0.01451     6.22076
      C   11   -0.34485      1.99910     4.32809    0.01766     6.34485
      C   12   -0.27058      1.99910     4.25549    0.01599     6.27058
      C   13   -0.23909      1.99902     4.22412    0.01596     6.23909
      C   14   -0.79706      1.99931     4.78208    0.01568     6.79706
      C   15   -0.77585      1.99935     4.76019    0.01631     6.77585
      P   16    0.87807      9.99853     4.08067    0.04273    14.12193
      C   17   -0.35693      1.99893     4.33429    0.02371     6.35693
      C   18   -0.21795      1.99900     4.20359    0.01536     6.21795
      C   19   -0.22925      1.99909     4.21629    0.01387     6.22925
      C   20   -0.22633      1.99909     4.21356    0.01368     6.22633
      C   21   -0.23350      1.99909     4.22057    0.01384     6.23350
      C   22   -0.22391      1.99902     4.20976    0.01513     6.22391
      C   23   -0.37055      1.99895     4.34912    0.02248     6.37055
      C   24   -0.21906      1.99902     4.20468    0.01535     6.21906
      C   25   -0.23175      1.99909     4.21881    0.01385     6.23175
      C   26   -0.22963      1.99909     4.21679    0.01375     6.22963
      C   27   -0.22630      1.99909     4.21290    0.01432     6.22630
      C   28   -0.23970      1.99901     4.22476    0.01592     6.23970
      H   29    0.24455      0.00000     0.75466    0.00079     0.75545
      H   30    0.24777      0.00000     0.75143    0.00079     0.75223
      H   31    0.25155      0.00000     0.74693    0.00152     0.74845
      H   32    0.24465      0.00000     0.75421    0.00113     0.75535
      H   33    0.24712      0.00000     0.75206    0.00083     0.75288
      H   34    0.21651      0.00000     0.78239    0.00109     0.78349
      H   35    0.22529      0.00000     0.77384    0.00087     0.77471
      H   36    0.21688      0.00000     0.78235    0.00078     0.78312
      H   37    0.22201      0.00000     0.77714    0.00085     0.77799
      H   38    0.21506      0.00000     0.78420    0.00074     0.78494
      H   39    0.24870      0.00000     0.74876    0.00254     0.75130
      H   40    0.27714      0.00000     0.72085    0.00201     0.72286
      H   41    0.26189      0.00000     0.73540    0.00271     0.73811
      H   42    0.25565      0.00000     0.74274    0.00161     0.74435
      H   43    0.24395      0.00000     0.75455    0.00150     0.75605
      H   44    0.23836      0.00000     0.76074    0.00090     0.76164
      H   45    0.23641      0.00000     0.76274    0.00085     0.76359
      H   46    0.23655      0.00000     0.76255    0.00090     0.76345
      H   47    0.23860      0.00000     0.76029    0.00110     0.76140
      H   48    0.23955      0.00000     0.75934    0.00111     0.76045
      H   49    0.23689      0.00000     0.76222    0.00089     0.76311
      H   50    0.23639      0.00000     0.76276    0.00085     0.76361
      H   51    0.24346      0.00000     0.75553    0.00101     0.75654
      H   52    0.24817      0.00000     0.75007    0.00176     0.75183
 =======================================================================
   * Total *    0.00000     71.97156   137.47965    0.54879   210.00000

                                 Natural Population      
 --------------------------------------------------------
   Core                      71.97156 ( 99.9605% of  72)
   Valence                  137.47965 ( 99.6229% of 138)
   Natural Minimal Basis    209.45121 ( 99.7387% of 210)
   Natural Rydberg Basis      0.54879 (  0.2613% of 210)
 --------------------------------------------------------

    Atom  No          Natural Electron Configuration
 ----------------------------------------------------------------------------
      C    1      [core]2S( 0.97)2p( 3.21)3p( 0.01)
      C    2      [core]2S( 0.97)2p( 3.26)3p( 0.01)
      C    3      [core]2S( 0.96)2p( 3.21)3p( 0.01)
      C    4      [core]2S( 1.00)2p( 3.35)3p( 0.02)
      C    5      [core]2S( 0.95)2p( 3.25)3p( 0.01)
      C    6      [core]2S( 0.97)2p( 3.24)3p( 0.01)
      P    7      [core]3S( 1.29)3p( 2.41)3d( 0.03)4p( 0.01)
      C    8      [core]2S( 0.95)2p( 3.56)3p( 0.02)
      C    9      [core]2S( 0.93)2p( 3.36)3p( 0.02)
      C   10      [core]2S( 0.95)2p( 3.25)3p( 0.01)
      C   11      [core]2S( 0.94)2p( 3.38)3p( 0.01)
      C   12      [core]2S( 0.95)2p( 3.31)3p( 0.01)
      C   13      [core]2S( 0.94)2p( 3.28)3p( 0.01)
      C   14      [core]2S( 1.14)2p( 3.64)3p( 0.01)
      C   15      [core]2S( 1.13)2p( 3.63)3p( 0.01)
      P   16      [core]3S( 1.41)3p( 2.67)3d( 0.03)4p( 0.01)
      C   17      [core]2S( 0.98)2p( 3.35)3p( 0.02)
      C   18      [core]2S( 0.95)2p( 3.25)3p( 0.01)
      C   19      [core]2S( 0.96)2p( 3.25)3p( 0.01)
      C   20      [core]2S( 0.96)2p( 3.25)3p( 0.01)
      C   21      [core]2S( 0.96)2p( 3.26)3p( 0.01)
      C   22      [core]2S( 0.95)2p( 3.26)3p( 0.01)
      C   23      [core]2S( 0.98)2p( 3.37)3p( 0.02)
      C   24      [core]2S( 0.95)2p( 3.25)3p( 0.01)
      C   25      [core]2S( 0.96)2p( 3.26)3p( 0.01)
      C   26      [core]2S( 0.96)2p( 3.25)3p( 0.01)
      C   27      [core]2S( 0.96)2p( 3.25)3p( 0.01)
      C   28      [core]2S( 0.95)2p( 3.27)3p( 0.01)
      H   29            1S( 0.75)
      H   30            1S( 0.75)
      H   31            1S( 0.75)
      H   32            1S( 0.75)
      H   33            1S( 0.75)
      H   34            1S( 0.78)
      H   35            1S( 0.77)
      H   36            1S( 0.78)
      H   37            1S( 0.78)
      H   38            1S( 0.78)
      H   39            1S( 0.75)
      H   40            1S( 0.72)
      H   41            1S( 0.74)
      H   42            1S( 0.74)
      H   43            1S( 0.75)
      H   44            1S( 0.76)
      H   45            1S( 0.76)
      H   46            1S( 0.76)
      H   47            1S( 0.76)
      H   48            1S( 0.76)
      H   49            1S( 0.76)
      H   50            1S( 0.76)
      H   51            1S( 0.76)
      H   52            1S( 0.75)


 NBO analysis skipped by request.
 Leave Link  607 at Sun Oct  3 20:10:07 2021, MaxMem= 2147483648 cpu:      49.5
 (Enter /sw/target/amd/app/gaussian/Gaussian09RevA.02_gcc-4.9.2/g09/l9999.exe)
 1\1\GINC-HERMITE\SP\RTD-B3LYP-FC\6-31G(d)\C26H24P2\JSCHLEINITZ\03-Oct-
 2021\0\\#p TD(NStates=10, Root=1) b3lyp/6-31G* volume pop=NPA density=
 current Geom=AllCheck Guess=Read\\c1ccc(cc1)P(c1ccccc1)CCP(c1ccccc1)c1
 ccccc1_conf_0\\0,1\C,0,1.439381,-0.5861799215,-0.1992591023\C,0,1.0499
 827632,0.7345256125,0.0395589783\C,0,-0.3014980844,1.0714315952,0.0625
 24746\C,0,-1.2952161454,0.1031676141,-0.1702269617\C,0,-0.8892257469,-
 1.2189081085,-0.4068934944\C,0,0.4664019257,-1.5601952553,-0.418128155
 6\P,0,-3.0597987626,0.656326881,-0.0475071104\C,0,-3.2502888865,1.6344
 297471,-1.6168399981\C,0,-2.6431892374,1.2797818083,-2.8332427153\C,0,
 -2.8540528573,2.0415657573,-3.9826022102\C,0,-3.6761892654,3.171263910
 9,-3.9357169337\C,0,-4.2821740414,3.537182482,-2.7339990851\C,0,-4.066
 1511152,2.7754120734,-1.5826496043\C,0,-4.0015103596,-0.9032414006,-0.
 5114819363\C,0,-5.5147891866,-0.6493849247,-0.5719249346\P,0,-6.489222
 6084,-2.2163815204,-0.9294505658\C,0,-8.2084294468,-1.5123770666,-0.93
 41792854\C,0,-8.7673886014,-0.7927288608,-2.0016360679\C,0,-10.0605034
 434,-0.2763582785,-1.9115510328\C,0,-10.8151279949,-0.4676552709,-0.75
 18390239\C,0,-10.2728946844,-1.1841228074,0.3157941981\C,0,-8.98237542
 43,-1.7080670903,0.2206199302\C,0,-6.1699357372,-2.5102303146,-2.73296
 71788\C,0,-6.4875042146,-3.7874700554,-3.226823087\C,0,-6.2797461549,-
 4.1142503694,-4.5664867862\C,0,-5.72846945,-3.1729019178,-5.438337255\
 C,0,-5.3929098103,-1.9055725119,-4.9610147876\C,0,-5.6143522938,-1.575
 4655549,-3.6216583581\H,0,2.4929187473,-0.8526638052,-0.2094677661\H,0
 ,1.8002897313,1.5010642251,0.2158573078\H,0,-0.5920953688,2.100498694,
 0.2625551837\H,0,-1.6249552727,-1.9965239963,-0.5857273646\H,0,0.75833
 36798,-2.5910751401,-0.6023370871\H,0,-1.9930952736,0.4098436619,-2.87
 7651984\H,0,-2.373139188,1.7569563178,-4.9152466998\H,0,-3.8371942648,
 3.7654950914,-4.8314659\H,0,-4.9179789086,4.4176355904,-2.6886946454\H
 ,0,-4.5316456408,3.0702899409,-0.6452423489\H,0,-3.787584397,-1.653418
 7529,0.2598548596\H,0,-3.6400149784,-1.3036292073,-1.4663689687\H,0,-5
 .7582622544,0.1414487974,-1.2912096876\H,0,-5.87622787,-0.300696449,0.
 4032000124\H,0,-8.1937310113,-0.6429466847,-2.9119998321\H,0,-10.48010
 69727,0.2759377843,-2.7487848494\H,0,-11.8227554241,-0.065757002,-0.68
 41299421\H,0,-10.8565792349,-1.3440529795,1.2187760931\H,0,-8.57161682
 3,-2.2810259084,1.0489711044\H,0,-6.8985131824,-4.533521755,-2.5503550
 19\H,0,-6.5385818862,-5.1064177346,-4.9272265878\H,0,-5.5562322322,-3.
 4278878694,-6.4807355243\H,0,-4.9580473397,-1.1672819274,-5.6300912689
 \H,0,-5.3436941287,-0.5811997836,-3.2793842638\\Version=AM64L-G09RevA.
 02\State=1-A\HF=-1687.9229046\RMSD=6.184e-09\Dipole=1.1300804,-1.24968
 9,1.3185747\Quadrupole=16.2588358,-15.0822078,-1.176628,-6.1538558,6.7
 009172,8.1403471\PG=C01 [X(C26H24P2)]\\@


 "THE TIME HAS COME", THE WALRUS SAID,
 "TO TALK OF MANY THINGS,
 OF SHOES AND SHIPS AND SEALING WAX,
 OF CABBAGES AND KINGS,
 AND WHY THE SEA IS BOILING HOT,
 AND WHETHER PIGS HAVE WINGS."
 Job cpu time:  0 days 18 hours 29 minutes 53.0 seconds.
 File lengths (MBytes):  RWF=    675 Int=      0 D2E=      0 Chk=     98 Scr=      1
 Normal termination of Gaussian 09 at Sun Oct  3 20:10:58 2021.
