 Entering Gaussian System, Link 0=g09
 Input=C27H33N5_7986_conf_0.com
 Output=C27H33N5_7986_conf_0.log
 Initial command:
 /sw/target/amd/app/gaussian/Gaussian09RevA.02_gcc-4.9.2/g09/l1.exe /home/jschleinitz/gaussian/Gau-2057304.inp -scrdir=/home/jschleinitz/gaussian/
 Entering Link 1 = /sw/target/amd/app/gaussian/Gaussian09RevA.02_gcc-4.9.2/g09/l1.exe PID=   2057314.
  
 Copyright (c) 1988,1990,1992,1993,1995,1998,2003,2009, Gaussian, Inc.
                  All Rights Reserved.
  
 This is part of the Gaussian(R) 09 program.  It is based on
 the Gaussian(R) 03 system (copyright 2003, Gaussian, Inc.),
 the Gaussian(R) 98 system (copyright 1998, Gaussian, Inc.),
 the Gaussian(R) 94 system (copyright 1995, Gaussian, Inc.),
 the Gaussian 92(TM) system (copyright 1992, Gaussian, Inc.),
 the Gaussian 90(TM) system (copyright 1990, Gaussian, Inc.),
 the Gaussian 88(TM) system (copyright 1988, Gaussian, Inc.),
 the Gaussian 86(TM) system (copyright 1986, Carnegie Mellon
 University), and the Gaussian 82(TM) system (copyright 1983,
 Carnegie Mellon University). Gaussian is a federally registered
 trademark of Gaussian, Inc.
  
 This software contains proprietary and confidential information,
 including trade secrets, belonging to Gaussian, Inc.
  
 This software is provided under written license and may be
 used, copied, transmitted, or stored only in accord with that
 written license.
  
 The following legend is applicable only to US Government
 contracts under FAR:
  
                    RESTRICTED RIGHTS LEGEND
  
 Use, reproduction and disclosure by the US Government is
 subject to restrictions as set forth in subparagraphs (a)
 and (c) of the Commercial Computer Software - Restricted
 Rights clause in FAR 52.227-19.
  
 Gaussian, Inc.
 340 Quinnipiac St., Bldg. 40, Wallingford CT 06492
  
  
 ---------------------------------------------------------------
 Warning -- This program may not be used in any manner that
 competes with the business of Gaussian, Inc. or will provide
 assistance to any competitor of Gaussian, Inc.  The licensee
 of this program is prohibited from giving any competitor of
 Gaussian, Inc. access to this program.  By using this program,
 the user acknowledges that Gaussian, Inc. is engaged in the
 business of creating and licensing software in the field of
 computational chemistry and represents and warrants to the
 licensee that it is not a competitor of Gaussian, Inc. and that
 it will not use this program in any manner prohibited above.
 ---------------------------------------------------------------
  

 Cite this work as:
 Gaussian 09, Revision A.02,
 M. J. Frisch, G. W. Trucks, H. B. Schlegel, G. E. Scuseria, 
 M. A. Robb, J. R. Cheeseman, G. Scalmani, V. Barone, B. Mennucci, 
 G. A. Petersson, H. Nakatsuji, M. Caricato, X. Li, H. P. Hratchian, 
 A. F. Izmaylov, J. Bloino, G. Zheng, J. L. Sonnenberg, M. Hada, 
 M. Ehara, K. Toyota, R. Fukuda, J. Hasegawa, M. Ishida, T. Nakajima, 
 Y. Honda, O. Kitao, H. Nakai, T. Vreven, J. A. Montgomery, Jr., 
 J. E. Peralta, F. Ogliaro, M. Bearpark, J. J. Heyd, E. Brothers, 
 K. N. Kudin, V. N. Staroverov, R. Kobayashi, J. Normand, 
 K. Raghavachari, A. Rendell, J. C. Burant, S. S. Iyengar, J. Tomasi, 
 M. Cossi, N. Rega, J. M. Millam, M. Klene, J. E. Knox, J. B. Cross, 
 V. Bakken, C. Adamo, J. Jaramillo, R. Gomperts, R. E. Stratmann, 
 O. Yazyev, A. J. Austin, R. Cammi, C. Pomelli, J. W. Ochterski, 
 R. L. Martin, K. Morokuma, V. G. Zakrzewski, G. A. Voth, 
 P. Salvador, J. J. Dannenberg, S. Dapprich, A. D. Daniels, 
 O. Farkas, J. B. Foresman, J. V. Ortiz, J. Cioslowski, 
 and D. J. Fox, Gaussian, Inc., Wallingford CT, 2009.
 
 ******************************************
 Gaussian 09:  AM64L-G09RevA.02 11-Jun-2009
                 1-Oct-2021 
 ******************************************
 %nproc=10
 Will use up to   10 processors via shared memory.
 %mem=20gb
 %chk=C27H33N5_7986_conf_0.chk
 -----------------------------------
 #p opt b3lyp/6-31G* scf=(xqc,tight)
 -----------------------------------
 1/14=-1,18=20,19=15,26=3,38=1/1,3;
 2/9=110,12=2,17=6,18=5,40=1/2;
 3/5=1,6=6,7=1,11=2,16=1,25=1,30=1,71=1,74=-5/1,2,3;
 4//1;
 5/5=2,8=3,13=1,32=2,38=5/2,8;
 6/7=2,8=2,9=2,10=2,28=1/1;
 7//1,2,3,16;
 1/14=-1,18=20,19=15/3(2);
 2/9=110/2;
 99//99;
 2/9=110/2;
 3/5=1,6=6,7=1,11=2,16=1,25=1,30=1,71=1,74=-5/1,2,3;
 4/5=5,16=3/1;
 5/5=2,8=3,13=1,32=2,38=5/2,8;
 7//1,2,3,16;
 1/14=-1,18=20,19=15/3(-5);
 2/9=110/2;
 6/7=2,8=2,9=2,10=2,19=2,28=1/1;
 99/9=1/99;
 Leave Link    1 at Fri Oct  1 18:35:41 2021, MaxMem= 2684354560 cpu:       0.1
 (Enter /sw/target/amd/app/gaussian/Gaussian09RevA.02_gcc-4.9.2/g09/l101.exe)
 -------------------------------------------------------
 CCCCN1CN(c2c1cccc2)c1cccc(n1)N1CN(c2c1cccc2)CCCC_conf_0
 -------------------------------------------------------
 Symbolic Z-matrix:
 Charge =  0 Multiplicity = 1
 C                     6.25472   0.29949  -0.92252 
 C                     6.77743  -0.26328   0.38602 
 C                     7.42922   0.77299   1.30341 
 C                     6.57105   1.95013   1.78998 
 N                     5.47317   1.68847   2.76407 
 C                     5.21864   2.91876   3.6253 
 N                     6.00775   2.80247   4.8518 
 C                     6.1791    1.4094    4.9909 
 C                     5.82481   0.7696    3.79823 
 C                     5.79736  -0.61564   3.71522 
 C                     6.23081  -1.36691   4.80703 
 C                     6.63655  -0.72798   5.98204 
 C                     6.58389   0.66617   6.08699 
 C                     6.21054   3.87437   5.71605 
 C                     7.28206   3.81447   6.60768 
 C                     7.50372   4.83609   7.512 
 C                     6.66012   5.93204   7.48157 
 C                     5.63226   6.00974   6.53843 
 N                     5.4109    4.97654   5.67221 
 N                     4.83185   7.15097   6.49723 
 C                     5.33144   8.49597   6.80504 
 N                     4.30334   9.30369   7.52279 
 C                     3.1296    8.53968   7.19599 
 C                     3.43949   7.28719   6.64318 
 C                     2.44007   6.36618   6.39662 
 C                     1.11425   6.72955   6.66961 
 C                     0.8054    7.99801   7.18825 
 C                     1.8202    8.9148    7.46006 
 C                     4.46018   9.3517    8.99139 
 C                     5.25829   10.57656   9.45369 
 C                     6.75001   10.52093   9.12564 
 C                     7.51922   11.62173   9.84174 
 H                     5.9356   -0.52087  -1.57475 
 H                     7.02734   0.86817  -1.44733 
 H                     5.38959   0.94642  -0.75512 
 H                     7.53276  -1.02592   0.15557 
 H                     5.96049  -0.78448   0.88465 
 H                     8.27616   1.20335   0.7506 
 H                     7.88878   0.2583    2.1551 
 H                     6.12767   2.45831   0.9255 
 H                     7.27291   2.67333   2.22967 
 H                     4.14538   2.95605   3.86043 
 H                     5.46326   3.83217   3.06603 
 H                     5.43039  -1.11476   2.83046 
 H                     6.23982  -2.45182   4.74443 
 H                     6.96881  -1.32187   6.82953 
 H                     6.83723   1.12927   7.03151 
 H                     7.97165   2.97803   6.58953 
 H                     8.31618   4.77753   8.22478 
 H                     6.80956   6.70498   8.22567 
 H                     5.54511   9.00585   5.85469 
 H                     6.27682   8.50169   7.35203 
 H                     2.67468   5.38531   5.99844 
 H                     0.31213   6.01982   6.47942 
 H                    -0.22887   8.26408   7.39129 
 H                     1.59425   9.89077   7.87559 
 H                     4.92125   8.42989   9.37038 
 H                     3.48167   9.43097   9.48359 
 H                     5.14598   10.64944   10.54359 
 H                     4.8219    11.48939   9.03046 
 H                     6.89922   10.63387   8.04669 
 H                     7.16617   9.55069   9.42017 
 H                     7.12029   12.60956   9.59107 
 H                     8.57473   11.59604   9.55308 
 H                     7.4638    11.49393   10.9279 
 
 NAtoms=     65 NQM=     65 NQMF=      0 NMic=      0 NMicF=      0 NTot=     65.
                    Isotopes and Nuclear Properties:
 (Nuclear quadrupole moments (NQMom) in fm**2, nuclear magnetic moments (NMagM)
  in nuclear magnetons)

  Atom         1           2           3           4           5           6           7           8           9          10
 IAtWgt=          12          12          12          12          14          12          14          12          12          12
 AtmWgt=  12.0000000  12.0000000  12.0000000  12.0000000  14.0030740  12.0000000  14.0030740  12.0000000  12.0000000  12.0000000
 NucSpn=           0           0           0           0           2           0           2           0           0           0
 AtZEff=   0.0000000   0.0000000   0.0000000   0.0000000   0.0000000   0.0000000   0.0000000   0.0000000   0.0000000   0.0000000
 NQMom=    0.0000000   0.0000000   0.0000000   0.0000000   2.0440000   0.0000000   2.0440000   0.0000000   0.0000000   0.0000000
 NMagM=    0.0000000   0.0000000   0.0000000   0.0000000   0.4037610   0.0000000   0.4037610   0.0000000   0.0000000   0.0000000

  Atom        11          12          13          14          15          16          17          18          19          20
 IAtWgt=          12          12          12          12          12          12          12          12          14          14
 AtmWgt=  12.0000000  12.0000000  12.0000000  12.0000000  12.0000000  12.0000000  12.0000000  12.0000000  14.0030740  14.0030740
 NucSpn=           0           0           0           0           0           0           0           0           2           2
 AtZEff=   0.0000000   0.0000000   0.0000000   0.0000000   0.0000000   0.0000000   0.0000000   0.0000000   0.0000000   0.0000000
 NQMom=    0.0000000   0.0000000   0.0000000   0.0000000   0.0000000   0.0000000   0.0000000   0.0000000   2.0440000   2.0440000
 NMagM=    0.0000000   0.0000000   0.0000000   0.0000000   0.0000000   0.0000000   0.0000000   0.0000000   0.4037610   0.4037610

  Atom        21          22          23          24          25          26          27          28          29          30
 IAtWgt=          12          14          12          12          12          12          12          12          12          12
 AtmWgt=  12.0000000  14.0030740  12.0000000  12.0000000  12.0000000  12.0000000  12.0000000  12.0000000  12.0000000  12.0000000
 NucSpn=           0           2           0           0           0           0           0           0           0           0
 AtZEff=   0.0000000   0.0000000   0.0000000   0.0000000   0.0000000   0.0000000   0.0000000   0.0000000   0.0000000   0.0000000
 NQMom=    0.0000000   2.0440000   0.0000000   0.0000000   0.0000000   0.0000000   0.0000000   0.0000000   0.0000000   0.0000000
 NMagM=    0.0000000   0.4037610   0.0000000   0.0000000   0.0000000   0.0000000   0.0000000   0.0000000   0.0000000   0.0000000

  Atom        31          32          33          34          35          36          37          38          39          40
 IAtWgt=          12          12           1           1           1           1           1           1           1           1
 AtmWgt=  12.0000000  12.0000000   1.0078250   1.0078250   1.0078250   1.0078250   1.0078250   1.0078250   1.0078250   1.0078250
 NucSpn=           0           0           1           1           1           1           1           1           1           1
 AtZEff=   0.0000000   0.0000000   0.0000000   0.0000000   0.0000000   0.0000000   0.0000000   0.0000000   0.0000000   0.0000000
 NQMom=    0.0000000   0.0000000   0.0000000   0.0000000   0.0000000   0.0000000   0.0000000   0.0000000   0.0000000   0.0000000
 NMagM=    0.0000000   0.0000000   2.7928460   2.7928460   2.7928460   2.7928460   2.7928460   2.7928460   2.7928460   2.7928460

  Atom        41          42          43          44          45          46          47          48          49          50
 IAtWgt=           1           1           1           1           1           1           1           1           1           1
 AtmWgt=   1.0078250   1.0078250   1.0078250   1.0078250   1.0078250   1.0078250   1.0078250   1.0078250   1.0078250   1.0078250
 NucSpn=           1           1           1           1           1           1           1           1           1           1
 AtZEff=   0.0000000   0.0000000   0.0000000   0.0000000   0.0000000   0.0000000   0.0000000   0.0000000   0.0000000   0.0000000
 NQMom=    0.0000000   0.0000000   0.0000000   0.0000000   0.0000000   0.0000000   0.0000000   0.0000000   0.0000000   0.0000000
 NMagM=    2.7928460   2.7928460   2.7928460   2.7928460   2.7928460   2.7928460   2.7928460   2.7928460   2.7928460   2.7928460

  Atom        51          52          53          54          55          56          57          58          59          60
 IAtWgt=           1           1           1           1           1           1           1           1           1           1
 AtmWgt=   1.0078250   1.0078250   1.0078250   1.0078250   1.0078250   1.0078250   1.0078250   1.0078250   1.0078250   1.0078250
 NucSpn=           1           1           1           1           1           1           1           1           1           1
 AtZEff=   0.0000000   0.0000000   0.0000000   0.0000000   0.0000000   0.0000000   0.0000000   0.0000000   0.0000000   0.0000000
 NQMom=    0.0000000   0.0000000   0.0000000   0.0000000   0.0000000   0.0000000   0.0000000   0.0000000   0.0000000   0.0000000
 NMagM=    2.7928460   2.7928460   2.7928460   2.7928460   2.7928460   2.7928460   2.7928460   2.7928460   2.7928460   2.7928460

  Atom        61          62          63          64          65
 IAtWgt=           1           1           1           1           1
 AtmWgt=   1.0078250   1.0078250   1.0078250   1.0078250   1.0078250
 NucSpn=           1           1           1           1           1
 AtZEff=   0.0000000   0.0000000   0.0000000   0.0000000   0.0000000
 NQMom=    0.0000000   0.0000000   0.0000000   0.0000000   0.0000000
 NMagM=    2.7928460   2.7928460   2.7928460   2.7928460   2.7928460
 Leave Link  101 at Fri Oct  1 18:35:42 2021, MaxMem= 2684354560 cpu:       0.2
 (Enter /sw/target/amd/app/gaussian/Gaussian09RevA.02_gcc-4.9.2/g09/l103.exe)

 GradGradGradGradGradGradGradGradGradGradGradGradGradGradGradGradGradGrad
 Berny optimization.
 Initialization pass.
                           ----------------------------
                           !    Initial Parameters    !
                           ! (Angstroms and Degrees)  !
 --------------------------                            --------------------------
 ! Name  Definition              Value          Derivative Info.                !
 --------------------------------------------------------------------------------
 ! R1    R(1,2)                  1.5173         estimate D2E/DX2                !
 ! R2    R(1,33)                 1.0955         estimate D2E/DX2                !
 ! R3    R(1,34)                 1.0935         estimate D2E/DX2                !
 ! R4    R(1,35)                 1.0932         estimate D2E/DX2                !
 ! R5    R(2,3)                  1.5298         estimate D2E/DX2                !
 ! R6    R(2,36)                 1.0978         estimate D2E/DX2                !
 ! R7    R(2,37)                 1.0898         estimate D2E/DX2                !
 ! R8    R(3,4)                  1.5359         estimate D2E/DX2                !
 ! R9    R(3,38)                 1.0991         estimate D2E/DX2                !
 ! R10   R(3,39)                 1.0961         estimate D2E/DX2                !
 ! R11   R(4,5)                  1.4909         estimate D2E/DX2                !
 ! R12   R(4,40)                 1.0964         estimate D2E/DX2                !
 ! R13   R(4,41)                 1.0995         estimate D2E/DX2                !
 ! R14   R(5,6)                  1.5232         estimate D2E/DX2                !
 ! R15   R(5,9)                  1.4274         estimate D2E/DX2                !
 ! R16   R(6,7)                  1.463          estimate D2E/DX2                !
 ! R17   R(6,42)                 1.0993         estimate D2E/DX2                !
 ! R18   R(6,43)                 1.0986         estimate D2E/DX2                !
 ! R19   R(7,8)                  1.4104         estimate D2E/DX2                !
 ! R20   R(7,14)                 1.3918         estimate D2E/DX2                !
 ! R21   R(8,9)                  1.399          estimate D2E/DX2                !
 ! R22   R(8,13)                 1.3848         estimate D2E/DX2                !
 ! R23   R(9,10)                 1.388          estimate D2E/DX2                !
 ! R24   R(10,11)                1.3944         estimate D2E/DX2                !
 ! R25   R(10,44)                1.0801         estimate D2E/DX2                !
 ! R26   R(11,12)                1.3977         estimate D2E/DX2                !
 ! R27   R(11,45)                1.0868         estimate D2E/DX2                !
 ! R28   R(12,13)                1.3991         estimate D2E/DX2                !
 ! R29   R(12,46)                1.0869         estimate D2E/DX2                !
 ! R30   R(13,47)                1.082          estimate D2E/DX2                !
 ! R31   R(14,15)                1.3953         estimate D2E/DX2                !
 ! R32   R(14,19)                1.3624         estimate D2E/DX2                !
 ! R33   R(15,16)                1.3823         estimate D2E/DX2                !
 ! R34   R(15,48)                1.0842         estimate D2E/DX2                !
 ! R35   R(16,17)                1.3834         estimate D2E/DX2                !
 ! R36   R(16,49)                1.0824         estimate D2E/DX2                !
 ! R37   R(17,18)                1.3972         estimate D2E/DX2                !
 ! R38   R(17,50)                1.0833         estimate D2E/DX2                !
 ! R39   R(18,19)                1.3663         estimate D2E/DX2                !
 ! R40   R(18,20)                1.3945         estimate D2E/DX2                !
 ! R41   R(20,21)                1.4674         estimate D2E/DX2                !
 ! R42   R(20,24)                1.4066         estimate D2E/DX2                !
 ! R43   R(21,22)                1.4915         estimate D2E/DX2                !
 ! R44   R(21,51)                1.0994         estimate D2E/DX2                !
 ! R45   R(21,52)                1.0922         estimate D2E/DX2                !
 ! R46   R(22,23)                1.4381         estimate D2E/DX2                !
 ! R47   R(22,29)                1.4777         estimate D2E/DX2                !
 ! R48   R(23,24)                1.4037         estimate D2E/DX2                !
 ! R49   R(23,28)                1.3874         estimate D2E/DX2                !
 ! R50   R(24,25)                1.3813         estimate D2E/DX2                !
 ! R51   R(25,26)                1.4016         estimate D2E/DX2                !
 ! R52   R(25,53)                1.0843         estimate D2E/DX2                !
 ! R53   R(26,27)                1.4048         estimate D2E/DX2                !
 ! R54   R(26,54)                1.0878         estimate D2E/DX2                !
 ! R55   R(27,28)                1.3943         estimate D2E/DX2                !
 ! R56   R(27,55)                1.0871         estimate D2E/DX2                !
 ! R57   R(28,56)                1.0845         estimate D2E/DX2                !
 ! R58   R(29,30)                1.5333         estimate D2E/DX2                !
 ! R59   R(29,57)                1.0982         estimate D2E/DX2                !
 ! R60   R(29,58)                1.0982         estimate D2E/DX2                !
 ! R61   R(30,31)                1.5284         estimate D2E/DX2                !
 ! R62   R(30,59)                1.0981         estimate D2E/DX2                !
 ! R63   R(30,60)                1.0967         estimate D2E/DX2                !
 ! R64   R(31,32)                1.5219         estimate D2E/DX2                !
 ! R65   R(31,61)                1.0951         estimate D2E/DX2                !
 ! R66   R(31,62)                1.096          estimate D2E/DX2                !
 ! R67   R(32,63)                1.0944         estimate D2E/DX2                !
 ! R68   R(32,64)                1.0946         estimate D2E/DX2                !
 ! R69   R(32,65)                1.0951         estimate D2E/DX2                !
 ! A1    A(2,1,33)             109.6364         estimate D2E/DX2                !
 ! A2    A(2,1,34)             111.3082         estimate D2E/DX2                !
 ! A3    A(2,1,35)             111.1046         estimate D2E/DX2                !
 ! A4    A(33,1,34)            108.0292         estimate D2E/DX2                !
 ! A5    A(33,1,35)            107.6852         estimate D2E/DX2                !
 ! A6    A(34,1,35)            108.9589         estimate D2E/DX2                !
 ! A7    A(1,2,3)              114.375          estimate D2E/DX2                !
 ! A8    A(1,2,36)             108.2791         estimate D2E/DX2                !
 ! A9    A(1,2,37)             108.284          estimate D2E/DX2                !
 ! A10   A(3,2,36)             107.6564         estimate D2E/DX2                !
 ! A11   A(3,2,37)             111.6519         estimate D2E/DX2                !
 ! A12   A(36,2,37)            106.2342         estimate D2E/DX2                !
 ! A13   A(2,3,4)              118.1055         estimate D2E/DX2                !
 ! A14   A(2,3,38)             106.9727         estimate D2E/DX2                !
 ! A15   A(2,3,39)             109.0574         estimate D2E/DX2                !
 ! A16   A(4,3,38)             106.8453         estimate D2E/DX2                !
 ! A17   A(4,3,39)             110.3645         estimate D2E/DX2                !
 ! A18   A(38,3,39)            104.5711         estimate D2E/DX2                !
 ! A19   A(3,4,5)              118.943          estimate D2E/DX2                !
 ! A20   A(3,4,40)             109.3537         estimate D2E/DX2                !
 ! A21   A(3,4,41)             105.9104         estimate D2E/DX2                !
 ! A22   A(5,4,40)             107.3804         estimate D2E/DX2                !
 ! A23   A(5,4,41)             108.919          estimate D2E/DX2                !
 ! A24   A(40,4,41)            105.5798         estimate D2E/DX2                !
 ! A25   A(4,5,6)              110.5312         estimate D2E/DX2                !
 ! A26   A(4,5,9)              113.8881         estimate D2E/DX2                !
 ! A27   A(6,5,9)               98.7119         estimate D2E/DX2                !
 ! A28   A(5,6,7)              108.643          estimate D2E/DX2                !
 ! A29   A(5,6,42)             108.1474         estimate D2E/DX2                !
 ! A30   A(5,6,43)             110.2737         estimate D2E/DX2                !
 ! A31   A(7,6,42)             110.4847         estimate D2E/DX2                !
 ! A32   A(7,6,43)             111.8855         estimate D2E/DX2                !
 ! A33   A(42,6,43)            107.3406         estimate D2E/DX2                !
 ! A34   A(6,7,8)              103.1031         estimate D2E/DX2                !
 ! A35   A(6,7,14)             122.5438         estimate D2E/DX2                !
 ! A36   A(8,7,14)             132.9801         estimate D2E/DX2                !
 ! A37   A(7,8,9)              109.6848         estimate D2E/DX2                !
 ! A38   A(7,8,13)             130.0659         estimate D2E/DX2                !
 ! A39   A(9,8,13)             120.2209         estimate D2E/DX2                !
 ! A40   A(5,9,8)              112.6827         estimate D2E/DX2                !
 ! A41   A(5,9,10)             126.4594         estimate D2E/DX2                !
 ! A42   A(8,9,10)             120.824          estimate D2E/DX2                !
 ! A43   A(9,10,11)            118.9945         estimate D2E/DX2                !
 ! A44   A(9,10,44)            121.1251         estimate D2E/DX2                !
 ! A45   A(11,10,44)           119.8704         estimate D2E/DX2                !
 ! A46   A(10,11,12)           120.1461         estimate D2E/DX2                !
 ! A47   A(10,11,45)           119.6916         estimate D2E/DX2                !
 ! A48   A(12,11,45)           120.1579         estimate D2E/DX2                !
 ! A49   A(11,12,13)           120.5081         estimate D2E/DX2                !
 ! A50   A(11,12,46)           119.6352         estimate D2E/DX2                !
 ! A51   A(13,12,46)           119.8343         estimate D2E/DX2                !
 ! A52   A(8,13,12)            119.107          estimate D2E/DX2                !
 ! A53   A(8,13,47)            121.983          estimate D2E/DX2                !
 ! A54   A(12,13,47)           118.8916         estimate D2E/DX2                !
 ! A55   A(7,14,15)            118.4025         estimate D2E/DX2                !
 ! A56   A(7,14,19)            121.1686         estimate D2E/DX2                !
 ! A57   A(15,14,19)           120.4009         estimate D2E/DX2                !
 ! A58   A(14,15,16)           120.6307         estimate D2E/DX2                !
 ! A59   A(14,15,48)           120.7224         estimate D2E/DX2                !
 ! A60   A(16,15,48)           118.6304         estimate D2E/DX2                !
 ! A61   A(15,16,17)           118.2528         estimate D2E/DX2                !
 ! A62   A(15,16,49)           120.7441         estimate D2E/DX2                !
 ! A63   A(17,16,49)           121.0031         estimate D2E/DX2                !
 ! A64   A(16,17,18)           120.4997         estimate D2E/DX2                !
 ! A65   A(16,17,50)           117.7784         estimate D2E/DX2                !
 ! A66   A(18,17,50)           121.7019         estimate D2E/DX2                !
 ! A67   A(17,18,19)           120.3382         estimate D2E/DX2                !
 ! A68   A(17,18,20)           119.1898         estimate D2E/DX2                !
 ! A69   A(19,18,20)           120.4712         estimate D2E/DX2                !
 ! A70   A(14,19,18)           119.7526         estimate D2E/DX2                !
 ! A71   A(18,20,21)           123.2622         estimate D2E/DX2                !
 ! A72   A(18,20,24)           130.1157         estimate D2E/DX2                !
 ! A73   A(21,20,24)           103.0896         estimate D2E/DX2                !
 ! A74   A(20,21,22)           111.2621         estimate D2E/DX2                !
 ! A75   A(20,21,51)           108.0543         estimate D2E/DX2                !
 ! A76   A(20,21,52)           113.8616         estimate D2E/DX2                !
 ! A77   A(22,21,51)           107.3844         estimate D2E/DX2                !
 ! A78   A(22,21,52)           110.658          estimate D2E/DX2                !
 ! A79   A(51,21,52)           105.2027         estimate D2E/DX2                !
 ! A80   A(21,22,23)            99.5278         estimate D2E/DX2                !
 ! A81   A(21,22,29)           115.0047         estimate D2E/DX2                !
 ! A82   A(23,22,29)           109.2521         estimate D2E/DX2                !
 ! A83   A(22,23,24)           112.5407         estimate D2E/DX2                !
 ! A84   A(22,23,28)           125.6881         estimate D2E/DX2                !
 ! A85   A(24,23,28)           121.6383         estimate D2E/DX2                !
 ! A86   A(20,24,23)           110.2313         estimate D2E/DX2                !
 ! A87   A(20,24,25)           129.2816         estimate D2E/DX2                !
 ! A88   A(23,24,25)           120.3659         estimate D2E/DX2                !
 ! A89   A(24,25,26)           118.4775         estimate D2E/DX2                !
 ! A90   A(24,25,53)           120.8092         estimate D2E/DX2                !
 ! A91   A(26,25,53)           120.7131         estimate D2E/DX2                !
 ! A92   A(25,26,27)           120.9303         estimate D2E/DX2                !
 ! A93   A(25,26,54)           119.6252         estimate D2E/DX2                !
 ! A94   A(27,26,54)           119.4444         estimate D2E/DX2                !
 ! A95   A(26,27,28)           120.3758         estimate D2E/DX2                !
 ! A96   A(26,27,55)           119.9431         estimate D2E/DX2                !
 ! A97   A(28,27,55)           119.6767         estimate D2E/DX2                !
 ! A98   A(23,28,27)           118.1634         estimate D2E/DX2                !
 ! A99   A(23,28,56)           120.8533         estimate D2E/DX2                !
 ! A100  A(27,28,56)           120.9805         estimate D2E/DX2                !
 ! A101  A(22,29,30)           112.3858         estimate D2E/DX2                !
 ! A102  A(22,29,57)           111.1169         estimate D2E/DX2                !
 ! A103  A(22,29,58)           110.6829         estimate D2E/DX2                !
 ! A104  A(30,29,57)           110.3624         estimate D2E/DX2                !
 ! A105  A(30,29,58)           105.7239         estimate D2E/DX2                !
 ! A106  A(57,29,58)           106.2614         estimate D2E/DX2                !
 ! A107  A(29,30,31)           114.4722         estimate D2E/DX2                !
 ! A108  A(29,30,59)           107.3997         estimate D2E/DX2                !
 ! A109  A(29,30,60)           109.9636         estimate D2E/DX2                !
 ! A110  A(31,30,59)           108.3772         estimate D2E/DX2                !
 ! A111  A(31,30,60)           109.6226         estimate D2E/DX2                !
 ! A112  A(59,30,60)           106.6837         estimate D2E/DX2                !
 ! A113  A(30,31,32)           111.4682         estimate D2E/DX2                !
 ! A114  A(30,31,61)           109.9202         estimate D2E/DX2                !
 ! A115  A(30,31,62)           110.1896         estimate D2E/DX2                !
 ! A116  A(32,31,61)           108.6713         estimate D2E/DX2                !
 ! A117  A(32,31,62)           108.7803         estimate D2E/DX2                !
 ! A118  A(61,31,62)           107.7176         estimate D2E/DX2                !
 ! A119  A(31,32,63)           111.1522         estimate D2E/DX2                !
 ! A120  A(31,32,64)           110.2628         estimate D2E/DX2                !
 ! A121  A(31,32,65)           110.8981         estimate D2E/DX2                !
 ! A122  A(63,32,64)           108.197          estimate D2E/DX2                !
 ! A123  A(63,32,65)           108.3046         estimate D2E/DX2                !
 ! A124  A(64,32,65)           107.9166         estimate D2E/DX2                !
 ! D1    D(33,1,2,3)           172.0604         estimate D2E/DX2                !
 ! D2    D(33,1,2,36)           52.0374         estimate D2E/DX2                !
 ! D3    D(33,1,2,37)          -62.7476         estimate D2E/DX2                !
 ! D4    D(34,1,2,3)            52.5953         estimate D2E/DX2                !
 ! D5    D(34,1,2,36)          -67.4278         estimate D2E/DX2                !
 ! D6    D(34,1,2,37)          177.7873         estimate D2E/DX2                !
 ! D7    D(35,1,2,3)           -69.0289         estimate D2E/DX2                !
 ! D8    D(35,1,2,36)          170.9481         estimate D2E/DX2                !
 ! D9    D(35,1,2,37)           56.1631         estimate D2E/DX2                !
 ! D10   D(1,2,3,4)             60.3088         estimate D2E/DX2                !
 ! D11   D(1,2,3,38)           -60.1217         estimate D2E/DX2                !
 ! D12   D(1,2,3,39)          -172.6863         estimate D2E/DX2                !
 ! D13   D(36,2,3,4)          -179.3211         estimate D2E/DX2                !
 ! D14   D(36,2,3,38)           60.2484         estimate D2E/DX2                !
 ! D15   D(36,2,3,39)          -52.3162         estimate D2E/DX2                !
 ! D16   D(37,2,3,4)           -63.0886         estimate D2E/DX2                !
 ! D17   D(37,2,3,38)          176.4809         estimate D2E/DX2                !
 ! D18   D(37,2,3,39)           63.9163         estimate D2E/DX2                !
 ! D19   D(2,3,4,5)             69.6205         estimate D2E/DX2                !
 ! D20   D(2,3,4,40)           -54.1616         estimate D2E/DX2                !
 ! D21   D(2,3,4,41)          -167.498          estimate D2E/DX2                !
 ! D22   D(38,3,4,5)          -169.8832         estimate D2E/DX2                !
 ! D23   D(38,3,4,40)           66.3347         estimate D2E/DX2                !
 ! D24   D(38,3,4,41)          -47.0017         estimate D2E/DX2                !
 ! D25   D(39,3,4,5)           -56.7559         estimate D2E/DX2                !
 ! D26   D(39,3,4,40)          179.462          estimate D2E/DX2                !
 ! D27   D(39,3,4,41)           66.1255         estimate D2E/DX2                !
 ! D28   D(3,4,5,6)            151.738          estimate D2E/DX2                !
 ! D29   D(3,4,5,9)             41.693          estimate D2E/DX2                !
 ! D30   D(40,4,5,6)           -83.5181         estimate D2E/DX2                !
 ! D31   D(40,4,5,9)           166.4369         estimate D2E/DX2                !
 ! D32   D(41,4,5,6)            30.3594         estimate D2E/DX2                !
 ! D33   D(41,4,5,9)           -79.6857         estimate D2E/DX2                !
 ! D34   D(4,5,6,7)            -93.3848         estimate D2E/DX2                !
 ! D35   D(4,5,6,42)           146.6648         estimate D2E/DX2                !
 ! D36   D(4,5,6,43)            29.5714         estimate D2E/DX2                !
 ! D37   D(9,5,6,7)             26.2753         estimate D2E/DX2                !
 ! D38   D(9,5,6,42)           -93.6752         estimate D2E/DX2                !
 ! D39   D(9,5,6,43)           149.2315         estimate D2E/DX2                !
 ! D40   D(4,5,9,8)             99.1452         estimate D2E/DX2                !
 ! D41   D(4,5,9,10)           -82.9707         estimate D2E/DX2                !
 ! D42   D(6,5,9,8)            -17.9788         estimate D2E/DX2                !
 ! D43   D(6,5,9,10)           159.9053         estimate D2E/DX2                !
 ! D44   D(5,6,7,8)            -25.2383         estimate D2E/DX2                !
 ! D45   D(5,6,7,14)           166.5563         estimate D2E/DX2                !
 ! D46   D(42,6,7,8)            93.2472         estimate D2E/DX2                !
 ! D47   D(42,6,7,14)          -74.9582         estimate D2E/DX2                !
 ! D48   D(43,6,7,8)          -147.218          estimate D2E/DX2                !
 ! D49   D(43,6,7,14)           44.5766         estimate D2E/DX2                !
 ! D50   D(6,7,8,9)             13.6204         estimate D2E/DX2                !
 ! D51   D(6,7,8,13)          -164.4054         estimate D2E/DX2                !
 ! D52   D(14,7,8,9)           179.9977         estimate D2E/DX2                !
 ! D53   D(14,7,8,13)            1.972          estimate D2E/DX2                !
 ! D54   D(6,7,14,15)         -160.153          estimate D2E/DX2                !
 ! D55   D(6,7,14,19)           17.9303         estimate D2E/DX2                !
 ! D56   D(8,7,14,15)           35.6376         estimate D2E/DX2                !
 ! D57   D(8,7,14,19)         -146.2791         estimate D2E/DX2                !
 ! D58   D(7,8,9,5)              3.5325         estimate D2E/DX2                !
 ! D59   D(7,8,9,10)          -174.4858         estimate D2E/DX2                !
 ! D60   D(13,8,9,5)          -178.2159         estimate D2E/DX2                !
 ! D61   D(13,8,9,10)            3.7657         estimate D2E/DX2                !
 ! D62   D(7,8,13,12)          178.0379         estimate D2E/DX2                !
 ! D63   D(7,8,13,47)           -0.385          estimate D2E/DX2                !
 ! D64   D(9,8,13,12)            0.1892         estimate D2E/DX2                !
 ! D65   D(9,8,13,47)         -178.2337         estimate D2E/DX2                !
 ! D66   D(5,9,10,11)          177.2265         estimate D2E/DX2                !
 ! D67   D(5,9,10,44)           -3.9243         estimate D2E/DX2                !
 ! D68   D(8,9,10,11)           -5.0469         estimate D2E/DX2                !
 ! D69   D(8,9,10,44)          173.8023         estimate D2E/DX2                !
 ! D70   D(9,10,11,12)           2.4348         estimate D2E/DX2                !
 ! D71   D(9,10,11,45)        -178.3308         estimate D2E/DX2                !
 ! D72   D(44,10,11,12)       -176.4292         estimate D2E/DX2                !
 ! D73   D(44,10,11,45)          2.8053         estimate D2E/DX2                !
 ! D74   D(10,11,12,13)          1.4626         estimate D2E/DX2                !
 ! D75   D(10,11,12,46)        179.7358         estimate D2E/DX2                !
 ! D76   D(45,11,12,13)       -177.7682         estimate D2E/DX2                !
 ! D77   D(45,11,12,46)          0.505          estimate D2E/DX2                !
 ! D78   D(11,12,13,8)          -2.7723         estimate D2E/DX2                !
 ! D79   D(11,12,13,47)        175.6998         estimate D2E/DX2                !
 ! D80   D(46,12,13,8)         178.9579         estimate D2E/DX2                !
 ! D81   D(46,12,13,47)         -2.57           estimate D2E/DX2                !
 ! D82   D(7,14,15,16)        -178.1673         estimate D2E/DX2                !
 ! D83   D(7,14,15,48)           3.3311         estimate D2E/DX2                !
 ! D84   D(19,14,15,16)          3.7341         estimate D2E/DX2                !
 ! D85   D(19,14,15,48)       -174.7675         estimate D2E/DX2                !
 ! D86   D(7,14,19,18)         179.7024         estimate D2E/DX2                !
 ! D87   D(15,14,19,18)         -2.2523         estimate D2E/DX2                !
 ! D88   D(14,15,16,17)         -1.8397         estimate D2E/DX2                !
 ! D89   D(14,15,16,49)        178.1137         estimate D2E/DX2                !
 ! D90   D(48,15,16,17)        176.6927         estimate D2E/DX2                !
 ! D91   D(48,15,16,49)         -3.3538         estimate D2E/DX2                !
 ! D92   D(15,16,17,18)         -1.4143         estimate D2E/DX2                !
 ! D93   D(15,16,17,50)        176.9867         estimate D2E/DX2                !
 ! D94   D(49,16,17,18)        178.6323         estimate D2E/DX2                !
 ! D95   D(49,16,17,50)         -2.9667         estimate D2E/DX2                !
 ! D96   D(16,17,18,19)          2.8893         estimate D2E/DX2                !
 ! D97   D(16,17,18,20)       -177.4392         estimate D2E/DX2                !
 ! D98   D(50,17,18,19)       -175.4478         estimate D2E/DX2                !
 ! D99   D(50,17,18,20)          4.2237         estimate D2E/DX2                !
 ! D100  D(17,18,19,14)         -1.014          estimate D2E/DX2                !
 ! D101  D(20,18,19,14)        179.3188         estimate D2E/DX2                !
 ! D102  D(17,18,20,21)         33.5199         estimate D2E/DX2                !
 ! D103  D(17,18,20,24)       -121.5501         estimate D2E/DX2                !
 ! D104  D(19,18,20,21)       -146.8091         estimate D2E/DX2                !
 ! D105  D(19,18,20,24)         58.1209         estimate D2E/DX2                !
 ! D106  D(18,20,21,22)       -143.4121         estimate D2E/DX2                !
 ! D107  D(18,20,21,51)         98.9393         estimate D2E/DX2                !
 ! D108  D(18,20,21,52)        -17.5341         estimate D2E/DX2                !
 ! D109  D(24,20,21,22)         17.2616         estimate D2E/DX2                !
 ! D110  D(24,20,21,51)       -100.387          estimate D2E/DX2                !
 ! D111  D(24,20,21,52)        143.1396         estimate D2E/DX2                !
 ! D112  D(18,20,24,23)        150.1647         estimate D2E/DX2                !
 ! D113  D(18,20,24,25)        -25.7749         estimate D2E/DX2                !
 ! D114  D(21,20,24,23)         -8.621          estimate D2E/DX2                !
 ! D115  D(21,20,24,25)        175.4393         estimate D2E/DX2                !
 ! D116  D(20,21,22,23)        -18.3207         estimate D2E/DX2                !
 ! D117  D(20,21,22,29)         98.2433         estimate D2E/DX2                !
 ! D118  D(51,21,22,23)         99.7331         estimate D2E/DX2                !
 ! D119  D(51,21,22,29)       -143.703          estimate D2E/DX2                !
 ! D120  D(52,21,22,23)       -145.9546         estimate D2E/DX2                !
 ! D121  D(52,21,22,29)        -29.3906         estimate D2E/DX2                !
 ! D122  D(21,22,23,24)         12.7618         estimate D2E/DX2                !
 ! D123  D(21,22,23,28)       -171.3943         estimate D2E/DX2                !
 ! D124  D(29,22,23,24)       -108.0762         estimate D2E/DX2                !
 ! D125  D(29,22,23,28)         67.7677         estimate D2E/DX2                !
 ! D126  D(21,22,29,30)         93.9639         estimate D2E/DX2                !
 ! D127  D(21,22,29,57)        -30.2633         estimate D2E/DX2                !
 ! D128  D(21,22,29,58)       -148.0811         estimate D2E/DX2                !
 ! D129  D(23,22,29,30)       -155.1593         estimate D2E/DX2                !
 ! D130  D(23,22,29,57)         80.6135         estimate D2E/DX2                !
 ! D131  D(23,22,29,58)        -37.2043         estimate D2E/DX2                !
 ! D132  D(22,23,24,20)         -3.0            estimate D2E/DX2                !
 ! D133  D(22,23,24,25)        173.358          estimate D2E/DX2                !
 ! D134  D(28,23,24,20)       -179.0354         estimate D2E/DX2                !
 ! D135  D(28,23,24,25)         -2.6774         estimate D2E/DX2                !
 ! D136  D(22,23,28,27)       -174.1065         estimate D2E/DX2                !
 ! D137  D(22,23,28,56)          5.2993         estimate D2E/DX2                !
 ! D138  D(24,23,28,27)          1.3841         estimate D2E/DX2                !
 ! D139  D(24,23,28,56)       -179.2101         estimate D2E/DX2                !
 ! D140  D(20,24,25,26)        177.6548         estimate D2E/DX2                !
 ! D141  D(20,24,25,53)         -2.5109         estimate D2E/DX2                !
 ! D142  D(23,24,25,26)          2.0711         estimate D2E/DX2                !
 ! D143  D(23,24,25,53)       -178.0946         estimate D2E/DX2                !
 ! D144  D(24,25,26,27)         -0.3054         estimate D2E/DX2                !
 ! D145  D(24,25,26,54)        179.8046         estimate D2E/DX2                !
 ! D146  D(53,25,26,27)        179.8601         estimate D2E/DX2                !
 ! D147  D(53,25,26,54)         -0.0298         estimate D2E/DX2                !
 ! D148  D(25,26,27,28)         -0.9495         estimate D2E/DX2                !
 ! D149  D(25,26,27,55)        179.8167         estimate D2E/DX2                !
 ! D150  D(54,26,27,28)        178.9406         estimate D2E/DX2                !
 ! D151  D(54,26,27,55)         -0.2932         estimate D2E/DX2                !
 ! D152  D(26,27,28,23)          0.4053         estimate D2E/DX2                !
 ! D153  D(26,27,28,56)       -178.9998         estimate D2E/DX2                !
 ! D154  D(55,27,28,23)        179.6411         estimate D2E/DX2                !
 ! D155  D(55,27,28,56)          0.236          estimate D2E/DX2                !
 ! D156  D(22,29,30,31)        -71.3827         estimate D2E/DX2                !
 ! D157  D(22,29,30,59)        168.244          estimate D2E/DX2                !
 ! D158  D(22,29,30,60)         52.5272         estimate D2E/DX2                !
 ! D159  D(57,29,30,31)         53.2612         estimate D2E/DX2                !
 ! D160  D(57,29,30,59)        -67.112          estimate D2E/DX2                !
 ! D161  D(57,29,30,60)        177.1712         estimate D2E/DX2                !
 ! D162  D(58,29,30,31)        167.7672         estimate D2E/DX2                !
 ! D163  D(58,29,30,59)         47.394          estimate D2E/DX2                !
 ! D164  D(58,29,30,60)        -68.3228         estimate D2E/DX2                !
 ! D165  D(29,30,31,32)       -168.8891         estimate D2E/DX2                !
 ! D166  D(29,30,31,61)         70.5525         estimate D2E/DX2                !
 ! D167  D(29,30,31,62)        -48.0118         estimate D2E/DX2                !
 ! D168  D(59,30,31,32)        -49.0602         estimate D2E/DX2                !
 ! D169  D(59,30,31,61)       -169.6185         estimate D2E/DX2                !
 ! D170  D(59,30,31,62)         71.8172         estimate D2E/DX2                !
 ! D171  D(60,30,31,32)         67.019          estimate D2E/DX2                !
 ! D172  D(60,30,31,61)        -53.5394         estimate D2E/DX2                !
 ! D173  D(60,30,31,62)       -172.1037         estimate D2E/DX2                !
 ! D174  D(30,31,32,63)        -57.093          estimate D2E/DX2                !
 ! D175  D(30,31,32,64)       -177.0781         estimate D2E/DX2                !
 ! D176  D(30,31,32,65)         63.4513         estimate D2E/DX2                !
 ! D177  D(61,31,32,63)         64.1953         estimate D2E/DX2                !
 ! D178  D(61,31,32,64)        -55.7898         estimate D2E/DX2                !
 ! D179  D(61,31,32,65)       -175.2604         estimate D2E/DX2                !
 ! D180  D(62,31,32,63)       -178.791          estimate D2E/DX2                !
 ! D181  D(62,31,32,64)         61.224          estimate D2E/DX2                !
 ! D182  D(62,31,32,65)        -58.2467         estimate D2E/DX2                !
 --------------------------------------------------------------------------------
 Trust Radius=3.00D-01 FncErr=1.00D-07 GrdErr=1.00D-06
 Number of steps in this run= 385 maximum allowed number of steps= 390.
 GradGradGradGradGradGradGradGradGradGradGradGradGradGradGradGradGradGrad

 Leave Link  103 at Fri Oct  1 18:35:42 2021, MaxMem= 2684354560 cpu:       0.0
 (Enter /sw/target/amd/app/gaussian/Gaussian09RevA.02_gcc-4.9.2/g09/l202.exe)
 Stoichiometry    C27H33N5
 Framework group  C1[X(C27H33N5)]
 Deg. of freedom   189
 Full point group                 C1      NOp   1
 Largest Abelian subgroup         C1      NOp   1
 Largest concise Abelian subgroup C1      NOp   1
                         Standard orientation:                         
 ---------------------------------------------------------------------
 Center     Atomic      Atomic             Coordinates (Angstroms)
 Number     Number       Type             X           Y           Z
 ---------------------------------------------------------------------
      1          6           0        7.386004    1.580019    2.746215
      2          6           0        7.248760    0.512875    1.676375
      3          6           0        6.006597   -0.368513    1.819469
      4          6           0        4.628981    0.308253    1.764508
      5          7           0        4.153846    0.873231    0.469243
      6          6           0        2.632217    0.852340    0.403420
      7          7           0        2.209579   -0.382715   -0.257282
      8          6           0        3.324879   -0.717383   -1.053173
      9          6           0        4.430470    0.044063   -0.659215
     10          6           0        5.624239   -0.017515   -1.364656
     11          6           0        5.744046   -0.930091   -2.412128
     12          6           0        4.656893   -1.730822   -2.773263
     13          6           0        3.431073   -1.605106   -2.110687
     14          6           0        0.892755   -0.832544   -0.231958
     15          6           0        0.645973   -2.178778   -0.503066
     16          6           0       -0.647055   -2.666757   -0.527416
     17          6           0       -1.681528   -1.794955   -0.238433
     18          6           0       -1.415264   -0.465224    0.097656
     19          7           0       -0.132665    0.005613    0.087628
     20          7           0       -2.474752    0.375942    0.436312
     21          6           0       -3.676932   -0.086877    1.139114
     22          7           0       -4.896473    0.615117    0.644637
     23          6           0       -4.278099    1.746663    0.007919
     24          6           0       -2.891892    1.587060   -0.144813
     25          6           0       -2.156717    2.513717   -0.858052
     26          6           0       -2.819441    3.631552   -1.383038
     27          6           0       -4.200733    3.805834   -1.195890
     28          6           0       -4.943226    2.854380   -0.497590
     29          6           0       -5.686782   -0.134251   -0.354133
     30          6           0       -6.821882   -0.942049    0.286167
     31          6           0       -6.359548   -2.160205    1.085086
     32          6           0       -7.530042   -3.058381    1.458520
     33          1           0        8.362281    2.068789    2.655577
     34          1           0        7.315031    1.149086    3.748730
     35          1           0        6.617706    2.349702    2.635278
     36          1           0        8.128929   -0.141296    1.727632
     37          1           0        7.286783    0.998969    0.701727
     38          1           0        6.077779   -0.867125    2.796420
     39          1           0        6.060351   -1.184052    1.089067
     40          1           0        4.590044    1.113901    2.507179
     41          1           0        3.908212   -0.446846    2.109875
     42          1           0        2.302324    1.728915   -0.172211
     43          1           0        2.206270    0.943676    1.411969
     44          1           0        6.447866    0.639456   -1.126730
     45          1           0        6.682695   -1.006934   -2.954413
     46          1           0        4.758155   -2.436322   -3.593840
     47          1           0        2.587405   -2.187287   -2.457179
     48          1           0        1.464788   -2.868313   -0.675017
     49          1           0       -0.842617   -3.703963   -0.767319
     50          1           0       -2.694424   -2.172573   -0.308370
     51          1           0       -3.565038    0.160090    2.204607
     52          1           0       -3.816857   -1.169701    1.109241
     53          1           0       -1.090804    2.381565   -1.006551
     54          1           0       -2.258008    4.374648   -1.945086
     55          1           0       -4.697983    4.680476   -1.607582
     56          1           0       -6.012823    2.971034   -0.361206
     57          1           0       -5.043795   -0.789851   -0.956390
     58          1           0       -6.172044    0.553177   -1.059804
     59          1           0       -7.476648   -1.287969   -0.524659
     60          1           0       -7.430004   -0.291144    0.925963
     61          1           0       -5.859412   -1.836008    2.003733
     62          1           0       -5.638881   -2.744214    0.501229
     63          1           0       -8.285726   -2.506695    2.026296
     64          1           0       -7.184429   -3.895582    2.073111
     65          1           0       -8.006345   -3.471755    0.563299
 ---------------------------------------------------------------------
 Rotational constants (GHZ):      0.2581928      0.0536163      0.0506574
 Leave Link  202 at Fri Oct  1 18:35:42 2021, MaxMem= 2684354560 cpu:       0.1
 (Enter /sw/target/amd/app/gaussian/Gaussian09RevA.02_gcc-4.9.2/g09/l301.exe)
 Standard basis: 6-31G(d) (6D, 7F)
 Ernie: Thresh=  0.10000D-02 Tol=  0.10000D-05 Strict=F.
 There are   546 symmetry adapted basis functions of A   symmetry.
 Integral buffers will be    131072 words long.
 Raffenetti 2 integral format.
 Two-electron integral symmetry is turned on.
   546 basis functions,  1028 primitive gaussians,   546 cartesian basis functions
   115 alpha electrons      115 beta electrons
       nuclear repulsion energy      3051.4953023174 Hartrees.
 IExCor=  402 DFT=T Ex+Corr=B3LYP ExCW=0 ScaHFX=  0.200000
 ScaDFX=  0.800000  0.720000  1.000000  0.810000 ScalE2=  1.000000  1.000000
 IRadAn=      0 IRanWt=     -1 IRanGd=            0 ICorTp=0
 NAtoms=   65 NActive=   65 NUniq=   65 SFac= 7.50D-01 NAtFMM=   80 NAOKFM=F Big=T
 Leave Link  301 at Fri Oct  1 18:35:43 2021, MaxMem= 2684354560 cpu:       0.1
 (Enter /sw/target/amd/app/gaussian/Gaussian09RevA.02_gcc-4.9.2/g09/l302.exe)
 NPDir=0 NMtPBC=     1 NCelOv=     1 NCel=       1 NClECP=     1 NCelD=      1
         NCelK=      1 NCelE2=     1 NClLst=     1 CellRange=     0.0.
 One-electron integrals computed using PRISM.
 NBasis=   546 RedAO= T  NBF=   546
 NBsUse=   546 1.00D-06 NBFU=   546
 Precomputing XC quadrature grid using
 IXCGrd= 2 IRadAn=           0 IRanWt=          -1 IRanGd=           0 AccXCQ= 1.00D-10.
 NRdTot=    4206 NPtTot=      538258 NUsed=      568558 NTot=      568590
 NSgBfM=   522   522   522   522   522 NAtAll=    65    65.
 Leave Link  302 at Fri Oct  1 18:35:57 2021, MaxMem= 2684354560 cpu:      10.4
 (Enter /sw/target/amd/app/gaussian/Gaussian09RevA.02_gcc-4.9.2/g09/l303.exe)
 DipDrv:  MaxL=1.
 Leave Link  303 at Fri Oct  1 18:35:58 2021, MaxMem= 2684354560 cpu:       0.5
 (Enter /sw/target/amd/app/gaussian/Gaussian09RevA.02_gcc-4.9.2/g09/l401.exe)
 Harris functional with IExCor=  402 diagonalized for initial guess.
 ExpMin= 1.61D-01 ExpMax= 4.17D+03 ExpMxC= 6.27D+02 IAcc=1 IRadAn=         1 AccDes= 0.00D+00
 HarFok:  IExCor=  402 AccDes= 0.00D+00 IRadAn=         1 IDoV= 1
 ScaDFX=  1.000000  1.000000  1.000000  1.000000
 FoFCou: FMM=F IPFlag=           0 FMFlag=      100000 FMFlg1=           1
         NFxFlg=           0 DoJE=T BraDBF=F KetDBF=T FulRan=T
         Omega=  0.000000  0.000000  1.000000  0.000000  0.000000 ICntrl=     500 IOpCl=  0
         NMat0=    1 NMatS0=    1 NMatT0=    0 NMatD0=    1 NMtDS0=    0 NMtDT0=    0
         I1Cent=           4 NGrid=           0.
 Petite list used in FoFCou.
 Harris En= -1322.62653981070    
 Initial guess orbital symmetries:
       Occupied  (A) (A) (A) (A) (A) (A) (A) (A) (A) (A) (A) (A)
                 (A) (A) (A) (A) (A) (A) (A) (A) (A) (A) (A) (A)
                 (A) (A) (A) (A) (A) (A) (A) (A) (A) (A) (A) (A)
                 (A) (A) (A) (A) (A) (A) (A) (A) (A) (A) (A) (A)
                 (A) (A) (A) (A) (A) (A) (A) (A) (A) (A) (A) (A)
                 (A) (A) (A) (A) (A) (A) (A) (A) (A) (A) (A) (A)
                 (A) (A) (A) (A) (A) (A) (A) (A) (A) (A) (A) (A)
                 (A) (A) (A) (A) (A) (A) (A) (A) (A) (A) (A) (A)
                 (A) (A) (A) (A) (A) (A) (A) (A) (A) (A) (A) (A)
                 (A) (A) (A) (A) (A) (A) (A)
       Virtual   (A) (A) (A) (A) (A) (A) (A) (A) (A) (A) (A) (A)
                 (A) (A) (A) (A) (A) (A) (A) (A) (A) (A) (A) (A)
                 (A) (A) (A) (A) (A) (A) (A) (A) (A) (A) (A) (A)
                 (A) (A) (A) (A) (A) (A) (A) (A) (A) (A) (A) (A)
                 (A) (A) (A) (A) (A) (A) (A) (A) (A) (A) (A) (A)
                 (A) (A) (A) (A) (A) (A) (A) (A) (A) (A) (A) (A)
                 (A) (A) (A) (A) (A) (A) (A) (A) (A) (A) (A) (A)
                 (A) (A) (A) (A) (A) (A) (A) (A) (A) (A) (A) (A)
                 (A) (A) (A) (A) (A) (A) (A) (A) (A) (A) (A) (A)
                 (A) (A) (A) (A) (A) (A) (A) (A) (A) (A) (A) (A)
                 (A) (A) (A) (A) (A) (A) (A) (A) (A) (A) (A) (A)
                 (A) (A) (A) (A) (A) (A) (A) (A) (A) (A) (A) (A)
                 (A) (A) (A) (A) (A) (A) (A) (A) (A) (A) (A) (A)
                 (A) (A) (A) (A) (A) (A) (A) (A) (A) (A) (A) (A)
                 (A) (A) (A) (A) (A) (A) (A) (A) (A) (A) (A) (A)
                 (A) (A) (A) (A) (A) (A) (A) (A) (A) (A) (A) (A)
                 (A) (A) (A) (A) (A) (A) (A) (A) (A) (A) (A) (A)
                 (A) (A) (A) (A) (A) (A) (A) (A) (A) (A) (A) (A)
                 (A) (A) (A) (A) (A) (A) (A) (A) (A) (A) (A) (A)
                 (A) (A) (A) (A) (A) (A) (A) (A) (A) (A) (A) (A)
                 (A) (A) (A) (A) (A) (A) (A) (A) (A) (A) (A) (A)
                 (A) (A) (A) (A) (A) (A) (A) (A) (A) (A) (A) (A)
                 (A) (A) (A) (A) (A) (A) (A) (A) (A) (A) (A) (A)
                 (A) (A) (A) (A) (A) (A) (A) (A) (A) (A) (A) (A)
                 (A) (A) (A) (A) (A) (A) (A) (A) (A) (A) (A) (A)
                 (A) (A) (A) (A) (A) (A) (A) (A) (A) (A) (A) (A)
                 (A) (A) (A) (A) (A) (A) (A) (A) (A) (A) (A) (A)
                 (A) (A) (A) (A) (A) (A) (A) (A) (A) (A) (A) (A)
                 (A) (A) (A) (A) (A) (A) (A) (A) (A) (A) (A) (A)
                 (A) (A) (A) (A) (A) (A) (A) (A) (A) (A) (A) (A)
                 (A) (A) (A) (A) (A) (A) (A) (A) (A) (A) (A) (A)
                 (A) (A) (A) (A) (A) (A) (A) (A) (A) (A) (A) (A)
                 (A) (A) (A) (A) (A) (A) (A) (A) (A) (A) (A) (A)
                 (A) (A) (A) (A) (A) (A) (A) (A) (A) (A) (A) (A)
                 (A) (A) (A) (A) (A) (A) (A) (A) (A) (A) (A) (A)
                 (A) (A) (A) (A) (A) (A) (A) (A) (A) (A) (A)
 The electronic state of the initial guess is 1-A.
 Leave Link  401 at Fri Oct  1 18:36:34 2021, MaxMem= 2684354560 cpu:      36.5
 (Enter /sw/target/amd/app/gaussian/Gaussian09RevA.02_gcc-4.9.2/g09/l502.exe)
 Closed shell SCF:
 Requested convergence on RMS density matrix=1.00D-08 within  64 cycles.
 Requested convergence on MAX density matrix=1.00D-06.
 Requested convergence on             energy=1.00D-06.
 No special actions if energy rises.
 Using DIIS extrapolation, IDIIS=  1040.
 Integral symmetry usage will be decided dynamically.
       567960 words used for storage of precomputed grid.
 IEnd=     1477452 IEndB=     1477452 NGot=  2684354560 MDV=  2683179995
 LenX=  2683179995 LenY=  2682881333
 Fock matrices will be formed incrementally for  20 cycles.
 Integral accuracy reduced to 1.0D-05 until final iterations.

 Cycle   1  Pass 0  IDiag  1:
 FoFCou: FMM=T IPFlag=           0 FMFlag=      100000 FMFlg1=           1
         NFxFlg=           0 DoJE=F BraDBF=F KetDBF=F FulRan=T
         Omega=  0.000000  0.000000  1.000000  0.000000  0.000000 ICntrl=       0 IOpCl=  0
         NMat0=    1 NMatS0=    1 NMatT0=    0 NMatD0=    1 NMtDS0=    0 NMtDT0=    0
         I1Cent=           0 NGrid=           0.
 Symmetry not used in FoFCou.
 FMM levels:  10  Number of levels for PrismC:   9
 E= -1321.64875120024    
 DIIS: error= 2.57D-02 at cycle   1 NSaved=   1.
 NSaved= 1 IEnMin= 1 EnMin= -1321.64875120024     IErMin= 1 ErrMin= 2.57D-02
 ErrMax= 2.57D-02 EMaxC= 1.00D-01 BMatC= 7.43D-01 BMatP= 7.43D-01
 IDIUse=3 WtCom= 7.43D-01 WtEn= 2.57D-01
 Coeff-Com:  0.100D+01
 Coeff-En:   0.100D+01
 Coeff:      0.100D+01
 Gap=     0.173 Goal=   None    Shift=    0.000
 GapD=    0.173 DampG=1.000 DampE=0.500 DampFc=0.5000 IDamp=-1.
 Damping current iteration by 5.00D-01
 RMSDP=3.85D-03 MaxDP=1.43D-01              OVMax= 2.04D-01

 Cycle   2  Pass 0  IDiag  1:
 RMSU=  1.34D-03    CP:  9.74D-01
 E= -1322.01104292949     Delta-E=       -0.362291729248 Rises=F Damp=T
 DIIS: error= 7.48D-03 at cycle   2 NSaved=   2.
 NSaved= 2 IEnMin= 2 EnMin= -1322.01104292949     IErMin= 2 ErrMin= 7.48D-03
 ErrMax= 7.48D-03 EMaxC= 1.00D-01 BMatC= 4.93D-02 BMatP= 7.43D-01
 IDIUse=3 WtCom= 9.25D-01 WtEn= 7.48D-02
 Coeff-Com:  0.626D-01 0.937D+00
 Coeff-En:   0.101D+00 0.899D+00
 Coeff:      0.654D-01 0.935D+00
 Gap=     0.172 Goal=   None    Shift=    0.000
 RMSDP=1.03D-03 MaxDP=5.70D-02 DE=-3.62D-01 OVMax= 1.87D-01

 Cycle   3  Pass 0  IDiag  1:
 RMSU=  7.05D-04    CP:  9.66D-01  8.91D-01
 E= -1322.41213918665     Delta-E=       -0.401096257156 Rises=F Damp=F
 DIIS: error= 6.36D-03 at cycle   3 NSaved=   3.
 NSaved= 3 IEnMin= 3 EnMin= -1322.41213918665     IErMin= 3 ErrMin= 6.36D-03
 ErrMax= 6.36D-03 EMaxC= 1.00D-01 BMatC= 4.92D-02 BMatP= 4.93D-02
 IDIUse=3 WtCom= 9.36D-01 WtEn= 6.36D-02
 Coeff-Com: -0.949D-02 0.503D+00 0.507D+00
 Coeff-En:   0.000D+00 0.000D+00 0.100D+01
 Coeff:     -0.888D-02 0.471D+00 0.538D+00
 Gap=     0.167 Goal=   None    Shift=    0.000
 RMSDP=7.54D-04 MaxDP=3.83D-02 DE=-4.01D-01 OVMax= 1.03D-01

 Cycle   4  Pass 0  IDiag  1:
 RMSU=  3.69D-04    CP:  9.67D-01  9.51D-01  4.67D-01
 E= -1322.44701923743     Delta-E=       -0.034880050781 Rises=F Damp=F
 DIIS: error= 3.71D-03 at cycle   4 NSaved=   4.
 NSaved= 4 IEnMin= 4 EnMin= -1322.44701923743     IErMin= 4 ErrMin= 3.71D-03
 ErrMax= 3.71D-03 EMaxC= 1.00D-01 BMatC= 1.65D-02 BMatP= 4.92D-02
 IDIUse=3 WtCom= 9.63D-01 WtEn= 3.71D-02
 Coeff-Com: -0.120D-01 0.117D+00 0.371D+00 0.525D+00
 Coeff-En:   0.000D+00 0.000D+00 0.296D+00 0.704D+00
 Coeff:     -0.116D-01 0.112D+00 0.368D+00 0.531D+00
 Gap=     0.158 Goal=   None    Shift=    0.000
 RMSDP=3.11D-04 MaxDP=1.48D-02 DE=-3.49D-02 OVMax= 4.04D-02

 Cycle   5  Pass 0  IDiag  1:
 RMSU=  7.46D-05    CP:  9.67D-01  9.38D-01  6.37D-01  5.45D-01
 E= -1322.46424492839     Delta-E=       -0.017225690960 Rises=F Damp=F
 DIIS: error= 4.29D-04 at cycle   5 NSaved=   5.
 NSaved= 5 IEnMin= 5 EnMin= -1322.46424492839     IErMin= 5 ErrMin= 4.29D-04
 ErrMax= 4.29D-04 EMaxC= 1.00D-01 BMatC= 5.21D-04 BMatP= 1.65D-02
 IDIUse=3 WtCom= 9.96D-01 WtEn= 4.29D-03
 Coeff-Com: -0.417D-02 0.213D-01 0.146D+00 0.260D+00 0.577D+00
 Coeff-En:   0.000D+00 0.000D+00 0.000D+00 0.000D+00 0.100D+01
 Coeff:     -0.415D-02 0.212D-01 0.145D+00 0.259D+00 0.579D+00
 Gap=     0.158 Goal=   None    Shift=    0.000
 RMSDP=5.74D-05 MaxDP=3.48D-03 DE=-1.72D-02 OVMax= 4.99D-03

 Cycle   6  Pass 0  IDiag  1:
 RMSU=  2.69D-05    CP:  9.67D-01  9.40D-01  6.38D-01  5.74D-01  6.21D-01
 E= -1322.46469429728     Delta-E=       -0.000449368889 Rises=F Damp=F
 DIIS: error= 1.97D-04 at cycle   6 NSaved=   6.
 NSaved= 6 IEnMin= 6 EnMin= -1322.46469429728     IErMin= 6 ErrMin= 1.97D-04
 ErrMax= 1.97D-04 EMaxC= 1.00D-01 BMatC= 7.87D-05 BMatP= 5.21D-04
 IDIUse=3 WtCom= 9.98D-01 WtEn= 1.97D-03
 Coeff-Com: -0.106D-02 0.131D-02 0.466D-01 0.948D-01 0.332D+00 0.526D+00
 Coeff-En:   0.000D+00 0.000D+00 0.000D+00 0.000D+00 0.863D-01 0.914D+00
 Coeff:     -0.105D-02 0.130D-02 0.465D-01 0.946D-01 0.331D+00 0.527D+00
 Gap=     0.158 Goal=   None    Shift=    0.000
 RMSDP=2.07D-05 MaxDP=2.07D-03 DE=-4.49D-04 OVMax= 2.44D-03

 Cycle   7  Pass 0  IDiag  1:
 RMSU=  8.93D-06    CP:  9.67D-01  9.40D-01  6.41D-01  5.75D-01  6.77D-01
                    CP:  6.07D-01
 E= -1322.46476121328     Delta-E=       -0.000066916002 Rises=F Damp=F
 DIIS: error= 7.40D-05 at cycle   7 NSaved=   7.
 NSaved= 7 IEnMin= 7 EnMin= -1322.46476121328     IErMin= 7 ErrMin= 7.40D-05
 ErrMax= 7.40D-05 EMaxC= 1.00D-01 BMatC= 9.44D-06 BMatP= 7.87D-05
 IDIUse=1 WtCom= 1.00D+00 WtEn= 0.00D+00
 Coeff-Com: -0.286D-03-0.873D-03 0.175D-01 0.379D-01 0.161D+00 0.331D+00
 Coeff-Com:  0.453D+00
 Coeff:     -0.286D-03-0.873D-03 0.175D-01 0.379D-01 0.161D+00 0.331D+00
 Coeff:      0.453D+00
 Gap=     0.158 Goal=   None    Shift=    0.000
 RMSDP=7.66D-06 MaxDP=6.27D-04 DE=-6.69D-05 OVMax= 8.45D-04

 Initial convergence to 1.0D-05 achieved.  Increase integral accuracy.
 Cycle   8  Pass 1  IDiag  1:
 E= -1322.46471912795     Delta-E=        0.000042085323 Rises=F Damp=F
 DIIS: error= 4.90D-05 at cycle   1 NSaved=   1.
 NSaved= 1 IEnMin= 1 EnMin= -1322.46471912795     IErMin= 1 ErrMin= 4.90D-05
 ErrMax= 4.90D-05 EMaxC= 1.00D-01 BMatC= 1.62D-06 BMatP= 1.62D-06
 IDIUse=1 WtCom= 1.00D+00 WtEn= 0.00D+00
 Coeff-Com:  0.100D+01
 Coeff:      0.100D+01
 Gap=     0.158 Goal=   None    Shift=    0.000
 RMSDP=7.66D-06 MaxDP=6.27D-04 DE= 4.21D-05 OVMax= 4.42D-04

 Cycle   9  Pass 1  IDiag  1:
 RMSU=  1.96D-05    CP:  1.00D+00
 E= -1322.46471952955     Delta-E=       -0.000000401596 Rises=F Damp=F
 DIIS: error= 3.45D-05 at cycle   2 NSaved=   2.
 NSaved= 2 IEnMin= 2 EnMin= -1322.46471952955     IErMin= 2 ErrMin= 3.45D-05
 ErrMax= 3.45D-05 EMaxC= 1.00D-01 BMatC= 1.20D-06 BMatP= 1.62D-06
 IDIUse=1 WtCom= 1.00D+00 WtEn= 0.00D+00
 Coeff-Com:  0.448D+00 0.552D+00
 Coeff:      0.448D+00 0.552D+00
 Gap=     0.158 Goal=   None    Shift=    0.000
 RMSDP=4.09D-06 MaxDP=3.07D-04 DE=-4.02D-07 OVMax= 5.25D-04

 Cycle  10  Pass 1  IDiag  1:
 RMSU=  2.88D-06    CP:  1.00D+00  9.85D-01
 E= -1322.46472014098     Delta-E=       -0.000000611428 Rises=F Damp=F
 DIIS: error= 2.53D-05 at cycle   3 NSaved=   3.
 NSaved= 3 IEnMin= 3 EnMin= -1322.46472014098     IErMin= 3 ErrMin= 2.53D-05
 ErrMax= 2.53D-05 EMaxC= 1.00D-01 BMatC= 6.49D-07 BMatP= 1.20D-06
 IDIUse=1 WtCom= 1.00D+00 WtEn= 0.00D+00
 Coeff-Com:  0.127D-01 0.421D+00 0.567D+00
 Coeff:      0.127D-01 0.421D+00 0.567D+00
 Gap=     0.158 Goal=   None    Shift=    0.000
 RMSDP=1.84D-06 MaxDP=1.62D-04 DE=-6.11D-07 OVMax= 2.46D-04

 Cycle  11  Pass 1  IDiag  1:
 RMSU=  3.69D-07    CP:  1.00D+00  1.00D+00  5.80D-01
 E= -1322.46472082144     Delta-E=       -0.000000680460 Rises=F Damp=F
 DIIS: error= 2.68D-06 at cycle   4 NSaved=   4.
 NSaved= 4 IEnMin= 4 EnMin= -1322.46472082144     IErMin= 4 ErrMin= 2.68D-06
 ErrMax= 2.68D-06 EMaxC= 1.00D-01 BMatC= 2.05D-08 BMatP= 6.49D-07
 IDIUse=1 WtCom= 1.00D+00 WtEn= 0.00D+00
 Coeff-Com: -0.523D-02 0.232D+00 0.331D+00 0.443D+00
 Coeff:     -0.523D-02 0.232D+00 0.331D+00 0.443D+00
 Gap=     0.158 Goal=   None    Shift=    0.000
 RMSDP=2.91D-07 MaxDP=2.18D-05 DE=-6.80D-07 OVMax= 2.52D-05

 Cycle  12  Pass 1  IDiag  1:
 RMSU=  1.08D-07    CP:  1.00D+00  1.00D+00  5.91D-01  5.33D-01
 E= -1322.46472083969     Delta-E=       -0.000000018256 Rises=F Damp=F
 DIIS: error= 7.37D-07 at cycle   5 NSaved=   5.
 NSaved= 5 IEnMin= 5 EnMin= -1322.46472083969     IErMin= 5 ErrMin= 7.37D-07
 ErrMax= 7.37D-07 EMaxC= 1.00D-01 BMatC= 7.20D-10 BMatP= 2.05D-08
 IDIUse=1 WtCom= 1.00D+00 WtEn= 0.00D+00
 Coeff-Com: -0.342D-02 0.957D-01 0.139D+00 0.230D+00 0.539D+00
 Coeff:     -0.342D-02 0.957D-01 0.139D+00 0.230D+00 0.539D+00
 Gap=     0.158 Goal=   None    Shift=    0.000
 RMSDP=7.20D-08 MaxDP=3.65D-06 DE=-1.83D-08 OVMax= 8.23D-06

 Cycle  13  Pass 1  IDiag  1:
 RMSU=  3.72D-08    CP:  1.00D+00  1.00D+00  5.89D-01  5.58D-01  6.92D-01
 E= -1322.46472084050     Delta-E=       -0.000000000802 Rises=F Damp=F
 DIIS: error= 3.17D-07 at cycle   6 NSaved=   6.
 NSaved= 6 IEnMin= 6 EnMin= -1322.46472084050     IErMin= 6 ErrMin= 3.17D-07
 ErrMax= 3.17D-07 EMaxC= 1.00D-01 BMatC= 1.01D-10 BMatP= 7.20D-10
 IDIUse=1 WtCom= 1.00D+00 WtEn= 0.00D+00
 Coeff-Com: -0.151D-02 0.351D-01 0.515D-01 0.946D-01 0.320D+00 0.500D+00
 Coeff:     -0.151D-02 0.351D-01 0.515D-01 0.946D-01 0.320D+00 0.500D+00
 Gap=     0.158 Goal=   None    Shift=    0.000
 RMSDP=2.79D-08 MaxDP=1.31D-06 DE=-8.02D-10 OVMax= 4.22D-06

 Cycle  14  Pass 1  IDiag  1:
 RMSU=  1.39D-08    CP:  1.00D+00  1.00D+00  5.90D-01  5.53D-01  7.56D-01
                    CP:  6.78D-01
 E= -1322.46472084050     Delta-E=       -0.000000000005 Rises=F Damp=F
 DIIS: error= 1.00D-07 at cycle   7 NSaved=   7.
 NSaved= 7 IEnMin= 7 EnMin= -1322.46472084050     IErMin= 7 ErrMin= 1.00D-07
 ErrMax= 1.00D-07 EMaxC= 1.00D-01 BMatC= 1.14D-11 BMatP= 1.01D-10
 IDIUse=1 WtCom= 1.00D+00 WtEn= 0.00D+00
 Coeff-Com: -0.273D-03 0.311D-02 0.482D-02 0.133D-01 0.862D-01 0.283D+00
 Coeff-Com:  0.609D+00
 Coeff:     -0.273D-03 0.311D-02 0.482D-02 0.133D-01 0.862D-01 0.283D+00
 Coeff:      0.609D+00
 Gap=     0.158 Goal=   None    Shift=    0.000
 RMSDP=9.30D-09 MaxDP=5.63D-07 DE=-5.46D-12 OVMax= 1.20D-06

 SCF Done:  E(RB3LYP) =  -1322.46472084     A.U. after   14 cycles
             Convg  =    0.9299D-08             -V/T =  2.0096
 KE= 1.309871383205D+03 PE=-9.167292993375D+03 EE= 3.483461587012D+03
 Leave Link  502 at Fri Oct  1 18:55:27 2021, MaxMem= 2684354560 cpu:    1545.0
 (Enter /sw/target/amd/app/gaussian/Gaussian09RevA.02_gcc-4.9.2/g09/l508.exe)
 QCSCF skips out because SCF is already converged.
 Leave Link  508 at Fri Oct  1 18:55:27 2021, MaxMem= 2684354560 cpu:       0.0
 (Enter /sw/target/amd/app/gaussian/Gaussian09RevA.02_gcc-4.9.2/g09/l601.exe)
 Copying SCF densities to generalized density rwf, IOpCl= 0 IROHF=0.

 **********************************************************************

            Population analysis using the SCF density.

 **********************************************************************

 Orbital symmetries:
       Occupied  (A) (A) (A) (A) (A) (A) (A) (A) (A) (A) (A) (A)
                 (A) (A) (A) (A) (A) (A) (A) (A) (A) (A) (A) (A)
                 (A) (A) (A) (A) (A) (A) (A) (A) (A) (A) (A) (A)
                 (A) (A) (A) (A) (A) (A) (A) (A) (A) (A) (A) (A)
                 (A) (A) (A) (A) (A) (A) (A) (A) (A) (A) (A) (A)
                 (A) (A) (A) (A) (A) (A) (A) (A) (A) (A) (A) (A)
                 (A) (A) (A) (A) (A) (A) (A) (A) (A) (A) (A) (A)
                 (A) (A) (A) (A) (A) (A) (A) (A) (A) (A) (A) (A)
                 (A) (A) (A) (A) (A) (A) (A) (A) (A) (A) (A) (A)
                 (A) (A) (A) (A) (A) (A) (A)
       Virtual   (A) (A) (A) (A) (A) (A) (A) (A) (A) (A) (A) (A)
                 (A) (A) (A) (A) (A) (A) (A) (A) (A) (A) (A) (A)
                 (A) (A) (A) (A) (A) (A) (A) (A) (A) (A) (A) (A)
                 (A) (A) (A) (A) (A) (A) (A) (A) (A) (A) (A) (A)
                 (A) (A) (A) (A) (A) (A) (A) (A) (A) (A) (A) (A)
                 (A) (A) (A) (A) (A) (A) (A) (A) (A) (A) (A) (A)
                 (A) (A) (A) (A) (A) (A) (A) (A) (A) (A) (A) (A)
                 (A) (A) (A) (A) (A) (A) (A) (A) (A) (A) (A) (A)
                 (A) (A) (A) (A) (A) (A) (A) (A) (A) (A) (A) (A)
                 (A) (A) (A) (A) (A) (A) (A) (A) (A) (A) (A) (A)
                 (A) (A) (A) (A) (A) (A) (A) (A) (A) (A) (A) (A)
                 (A) (A) (A) (A) (A) (A) (A) (A) (A) (A) (A) (A)
                 (A) (A) (A) (A) (A) (A) (A) (A) (A) (A) (A) (A)
                 (A) (A) (A) (A) (A) (A) (A) (A) (A) (A) (A) (A)
                 (A) (A) (A) (A) (A) (A) (A) (A) (A) (A) (A) (A)
                 (A) (A) (A) (A) (A) (A) (A) (A) (A) (A) (A) (A)
                 (A) (A) (A) (A) (A) (A) (A) (A) (A) (A) (A) (A)
                 (A) (A) (A) (A) (A) (A) (A) (A) (A) (A) (A) (A)
                 (A) (A) (A) (A) (A) (A) (A) (A) (A) (A) (A) (A)
                 (A) (A) (A) (A) (A) (A) (A) (A) (A) (A) (A) (A)
                 (A) (A) (A) (A) (A) (A) (A) (A) (A) (A) (A) (A)
                 (A) (A) (A) (A) (A) (A) (A) (A) (A) (A) (A) (A)
                 (A) (A) (A) (A) (A) (A) (A) (A) (A) (A) (A) (A)
                 (A) (A) (A) (A) (A) (A) (A) (A) (A) (A) (A) (A)
                 (A) (A) (A) (A) (A) (A) (A) (A) (A) (A) (A) (A)
                 (A) (A) (A) (A) (A) (A) (A) (A) (A) (A) (A) (A)
                 (A) (A) (A) (A) (A) (A) (A) (A) (A) (A) (A) (A)
                 (A) (A) (A) (A) (A) (A) (A) (A) (A) (A) (A) (A)
                 (A) (A) (A) (A) (A) (A) (A) (A) (A) (A) (A) (A)
                 (A) (A) (A) (A) (A) (A) (A) (A) (A) (A) (A) (A)
                 (A) (A) (A) (A) (A) (A) (A) (A) (A) (A) (A) (A)
                 (A) (A) (A) (A) (A) (A) (A) (A) (A) (A) (A) (A)
                 (A) (A) (A) (A) (A) (A) (A) (A) (A) (A) (A) (A)
                 (A) (A) (A) (A) (A) (A) (A) (A) (A) (A) (A) (A)
                 (A) (A) (A) (A) (A) (A) (A) (A) (A) (A) (A) (A)
                 (A) (A) (A) (A) (A) (A) (A) (A) (A) (A) (A)
 The electronic state is 1-A.
 Alpha  occ. eigenvalues --  -14.36945 -14.36190 -14.34358 -14.34049 -14.32771
 Alpha  occ. eigenvalues --  -10.26858 -10.26754 -10.24748 -10.24433 -10.22715
 Alpha  occ. eigenvalues --  -10.21878 -10.21238 -10.21091 -10.21076 -10.20792
 Alpha  occ. eigenvalues --  -10.20376 -10.18835 -10.18697 -10.18590 -10.18536
 Alpha  occ. eigenvalues --  -10.18347 -10.18255 -10.18161 -10.18128 -10.18037
 Alpha  occ. eigenvalues --  -10.18013 -10.17914 -10.17688 -10.17647 -10.17631
 Alpha  occ. eigenvalues --  -10.17459 -10.16926  -0.99929  -0.99252  -0.94311
 Alpha  occ. eigenvalues --   -0.90899  -0.88197  -0.84188  -0.83616  -0.80206
 Alpha  occ. eigenvalues --   -0.79654  -0.79250  -0.76869  -0.74168  -0.73934
 Alpha  occ. eigenvalues --   -0.73656  -0.72891  -0.72241  -0.71266  -0.67512
 Alpha  occ. eigenvalues --   -0.66357  -0.64043  -0.63468  -0.62889  -0.62128
 Alpha  occ. eigenvalues --   -0.59981  -0.59514  -0.58846  -0.57829  -0.56997
 Alpha  occ. eigenvalues --   -0.55890  -0.54291  -0.52092  -0.50005  -0.49808
 Alpha  occ. eigenvalues --   -0.49037  -0.48714  -0.48092  -0.47742  -0.47274
 Alpha  occ. eigenvalues --   -0.47075  -0.46290  -0.45691  -0.45165  -0.45006
 Alpha  occ. eigenvalues --   -0.44237  -0.43418  -0.43092  -0.42935  -0.42824
 Alpha  occ. eigenvalues --   -0.42455  -0.41107  -0.41069  -0.40219  -0.39997
 Alpha  occ. eigenvalues --   -0.39130  -0.38620  -0.38312  -0.38204  -0.37678
 Alpha  occ. eigenvalues --   -0.37219  -0.36899  -0.36722  -0.36480  -0.35739
 Alpha  occ. eigenvalues --   -0.35614  -0.34696  -0.34345  -0.33717  -0.33286
 Alpha  occ. eigenvalues --   -0.32976  -0.32628  -0.32291  -0.32073  -0.31542
 Alpha  occ. eigenvalues --   -0.29718  -0.27817  -0.27023  -0.26915  -0.26217
 Alpha  occ. eigenvalues --   -0.25428  -0.22494  -0.22087  -0.19028  -0.18004
 Alpha virt. eigenvalues --   -0.02215  -0.01257   0.00264   0.00986   0.02261
 Alpha virt. eigenvalues --    0.02831   0.06816   0.08493   0.09483   0.09788
 Alpha virt. eigenvalues --    0.10532   0.11171   0.11510   0.11993   0.12532
 Alpha virt. eigenvalues --    0.12638   0.13136   0.13251   0.13740   0.14504
 Alpha virt. eigenvalues --    0.14818   0.14881   0.15208   0.15316   0.15616
 Alpha virt. eigenvalues --    0.15959   0.16621   0.16748   0.17040   0.17254
 Alpha virt. eigenvalues --    0.17532   0.17620   0.18094   0.18259   0.18329
 Alpha virt. eigenvalues --    0.18616   0.19188   0.19510   0.19795   0.20189
 Alpha virt. eigenvalues --    0.20643   0.20922   0.21238   0.21677   0.21989
 Alpha virt. eigenvalues --    0.22411   0.22763   0.23420   0.24217   0.24489
 Alpha virt. eigenvalues --    0.25046   0.25726   0.26097   0.26684   0.26941
 Alpha virt. eigenvalues --    0.27299   0.28286   0.28522   0.29239   0.29875
 Alpha virt. eigenvalues --    0.31281   0.33230   0.33707   0.34346   0.34446
 Alpha virt. eigenvalues --    0.34885   0.35033   0.35872   0.36904   0.39137
 Alpha virt. eigenvalues --    0.39467   0.42034   0.45926   0.46732   0.48220
 Alpha virt. eigenvalues --    0.48831   0.49482   0.49976   0.50431   0.51335
 Alpha virt. eigenvalues --    0.51631   0.51683   0.52362   0.52654   0.53240
 Alpha virt. eigenvalues --    0.53395   0.53855   0.54247   0.54820   0.55117
 Alpha virt. eigenvalues --    0.55504   0.55904   0.56120   0.56535   0.57236
 Alpha virt. eigenvalues --    0.57487   0.57964   0.58096   0.58426   0.58565
 Alpha virt. eigenvalues --    0.59027   0.59462   0.59902   0.60083   0.60276
 Alpha virt. eigenvalues --    0.60851   0.61395   0.61532   0.61818   0.61920
 Alpha virt. eigenvalues --    0.62067   0.62561   0.62757   0.63149   0.63320
 Alpha virt. eigenvalues --    0.64261   0.64471   0.65116   0.65211   0.66257
 Alpha virt. eigenvalues --    0.66634   0.66897   0.67974   0.68327   0.69075
 Alpha virt. eigenvalues --    0.69338   0.70931   0.71628   0.71954   0.72346
 Alpha virt. eigenvalues --    0.72995   0.74212   0.74488   0.76222   0.77366
 Alpha virt. eigenvalues --    0.77513   0.78685   0.79774   0.79875   0.80395
 Alpha virt. eigenvalues --    0.80668   0.81376   0.81989   0.82746   0.83327
 Alpha virt. eigenvalues --    0.83749   0.83869   0.84412   0.85004   0.85542
 Alpha virt. eigenvalues --    0.85887   0.86028   0.86353   0.86644   0.86906
 Alpha virt. eigenvalues --    0.87185   0.87663   0.88105   0.88903   0.88970
 Alpha virt. eigenvalues --    0.89519   0.90218   0.90351   0.91000   0.91053
 Alpha virt. eigenvalues --    0.91247   0.92130   0.92534   0.92705   0.92866
 Alpha virt. eigenvalues --    0.93509   0.93790   0.94316   0.94761   0.95551
 Alpha virt. eigenvalues --    0.96079   0.96361   0.96718   0.97463   0.97500
 Alpha virt. eigenvalues --    0.98047   0.99063   0.99387   0.99537   0.99954
 Alpha virt. eigenvalues --    1.00839   1.01098   1.01452   1.02280   1.02707
 Alpha virt. eigenvalues --    1.04068   1.04863   1.04962   1.05844   1.06072
 Alpha virt. eigenvalues --    1.07825   1.08438   1.10567   1.11450   1.12971
 Alpha virt. eigenvalues --    1.13331   1.13820   1.14649   1.16062   1.16327
 Alpha virt. eigenvalues --    1.17078   1.17583   1.20236   1.20713   1.22688
 Alpha virt. eigenvalues --    1.23064   1.23260   1.24204   1.25384   1.25981
 Alpha virt. eigenvalues --    1.26933   1.27388   1.29878   1.31221   1.34176
 Alpha virt. eigenvalues --    1.34590   1.36232   1.36912   1.38364   1.40297
 Alpha virt. eigenvalues --    1.41238   1.42447   1.43446   1.44043   1.44592
 Alpha virt. eigenvalues --    1.45324   1.45624   1.45947   1.46304   1.46846
 Alpha virt. eigenvalues --    1.48267   1.49010   1.49345   1.49423   1.50628
 Alpha virt. eigenvalues --    1.50795   1.51191   1.52643   1.53367   1.53879
 Alpha virt. eigenvalues --    1.55615   1.56643   1.57927   1.59135   1.59825
 Alpha virt. eigenvalues --    1.62743   1.64876   1.65898   1.66494   1.69573
 Alpha virt. eigenvalues --    1.69702   1.70503   1.71188   1.73252   1.74757
 Alpha virt. eigenvalues --    1.75081   1.76803   1.78772   1.80318   1.81386
 Alpha virt. eigenvalues --    1.81994   1.82527   1.83494   1.84253   1.84663
 Alpha virt. eigenvalues --    1.85543   1.85723   1.86072   1.86647   1.88038
 Alpha virt. eigenvalues --    1.88457   1.89300   1.90080   1.91001   1.91390
 Alpha virt. eigenvalues --    1.91542   1.92417   1.92729   1.93874   1.94684
 Alpha virt. eigenvalues --    1.94717   1.95044   1.96108   1.96191   1.96365
 Alpha virt. eigenvalues --    1.97193   1.98255   1.98878   1.99081   2.00148
 Alpha virt. eigenvalues --    2.00931   2.01414   2.02273   2.03088   2.04360
 Alpha virt. eigenvalues --    2.05234   2.05930   2.08306   2.08662   2.09075
 Alpha virt. eigenvalues --    2.11414   2.11720   2.12178   2.13184   2.13336
 Alpha virt. eigenvalues --    2.13410   2.14093   2.15245   2.15985   2.17220
 Alpha virt. eigenvalues --    2.17356   2.19719   2.20029   2.20472   2.21143
 Alpha virt. eigenvalues --    2.22021   2.22525   2.23542   2.24702   2.25507
 Alpha virt. eigenvalues --    2.26388   2.27212   2.28164   2.28718   2.30116
 Alpha virt. eigenvalues --    2.30494   2.31028   2.31442   2.31826   2.32115
 Alpha virt. eigenvalues --    2.32697   2.33167   2.33999   2.34829   2.36235
 Alpha virt. eigenvalues --    2.36336   2.39097   2.40053   2.41230   2.41753
 Alpha virt. eigenvalues --    2.43226   2.43788   2.45470   2.48469   2.50853
 Alpha virt. eigenvalues --    2.51158   2.52039   2.53349   2.54902   2.55969
 Alpha virt. eigenvalues --    2.56905   2.58170   2.59116   2.59926   2.60558
 Alpha virt. eigenvalues --    2.61335   2.61652   2.63072   2.65455   2.65967
 Alpha virt. eigenvalues --    2.67397   2.68204   2.69133   2.70059   2.70203
 Alpha virt. eigenvalues --    2.71249   2.71913   2.72636   2.73913   2.74516
 Alpha virt. eigenvalues --    2.75681   2.76093   2.76746   2.78477   2.79538
 Alpha virt. eigenvalues --    2.80123   2.82382   2.83537   2.83793   2.85110
 Alpha virt. eigenvalues --    2.86616   2.87752   2.90958   2.96596   2.99595
 Alpha virt. eigenvalues --    3.01864   3.04636   3.10264   3.20227   3.24992
 Alpha virt. eigenvalues --    3.30944   3.45251   3.47328   3.48439   4.06540
 Alpha virt. eigenvalues --    4.08585   4.10082   4.10421   4.12768   4.13779
 Alpha virt. eigenvalues --    4.14392   4.15499   4.15867   4.18633   4.20663
 Alpha virt. eigenvalues --    4.22716   4.24265   4.26697   4.28766   4.31700
 Alpha virt. eigenvalues --    4.34784   4.37340   4.37856   4.40834   4.42076
 Alpha virt. eigenvalues --    4.43604   4.44877   4.47967   4.48381   4.50055
 Alpha virt. eigenvalues --    4.50480   4.54456   4.57211   4.67319   4.79678
 Alpha virt. eigenvalues --    4.80336
          Condensed to atoms (all electrons):
[...]
   392    C   27  S      Val( 2S)     0.95306
   393    C   27  S      Ryd( 3S)     0.00055
   394    C   27  S      Ryd( 4S)     0.00003
   395    C   27  px     Val( 2p)     1.07059
   396    C   27  px     Ryd( 3p)     0.00474
   397    C   27  py     Val( 2p)     1.17522
   398    C   27  py     Ryd( 3p)     0.00490
   399    C   27  pz     Val( 2p)     1.03979
   400    C   27  pz     Ryd( 3p)     0.00160
   401    C   27  dxy    Ryd( 3d)     0.00068
   402    C   27  dxz    Ryd( 3d)     0.00060
   403    C   27  dyz    Ryd( 3d)     0.00033
   404    C   27  dx2y2  Ryd( 3d)     0.00077
   405    C   27  dz2    Ryd( 3d)     0.00044

   406    C   28  S      Cor( 1S)     1.99902
   407    C   28  S      Val( 2S)     0.94300
   408    C   28  S      Ryd( 3S)     0.00074
   409    C   28  S      Ryd( 4S)     0.00004
   410    C   28  px     Val( 2p)     1.19256
   411    C   28  px     Ryd( 3p)     0.00400
   412    C   28  py     Val( 2p)     1.06221
   413    C   28  py     Ryd( 3p)     0.00422
   414    C   28  pz     Val( 2p)     1.08729
   415    C   28  pz     Ryd( 3p)     0.00130
   416    C   28  dxy    Ryd( 3d)     0.00053
   417    C   28  dxz    Ryd( 3d)     0.00034
   418    C   28  dyz    Ryd( 3d)     0.00059
   419    C   28  dx2y2  Ryd( 3d)     0.00085
   420    C   28  dz2    Ryd( 3d)     0.00044

   421    C   29  S      Cor( 1S)     1.99932
   422    C   29  S      Val( 2S)     1.00717
   423    C   29  S      Ryd( 3S)     0.00165
   424    C   29  S      Ryd( 4S)     0.00003
   425    C   29  px     Val( 2p)     0.85932
   426    C   29  px     Ryd( 3p)     0.00180
   427    C   29  py     Val( 2p)     1.24886
   428    C   29  py     Ryd( 3p)     0.00597
   429    C   29  pz     Val( 2p)     1.11807
   430    C   29  pz     Ryd( 3p)     0.00188
   431    C   29  dxy    Ryd( 3d)     0.00041
   432    C   29  dxz    Ryd( 3d)     0.00131
   433    C   29  dyz    Ryd( 3d)     0.00117
   434    C   29  dx2y2  Ryd( 3d)     0.00150
   435    C   29  dz2    Ryd( 3d)     0.00068

   436    C   30  S      Cor( 1S)     1.99932
   437    C   30  S      Val( 2S)     1.03928
   438    C   30  S      Ryd( 3S)     0.00093
   439    C   30  S      Ryd( 4S)     0.00002
   440    C   30  px     Val( 2p)     1.15869
   441    C   30  px     Ryd( 3p)     0.00277
   442    C   30  py     Val( 2p)     1.16408
   443    C   30  py     Ryd( 3p)     0.00184
   444    C   30  pz     Val( 2p)     1.08879
   445    C   30  pz     Ryd( 3p)     0.00233
   446    C   30  dxy    Ryd( 3d)     0.00021
   447    C   30  dxz    Ryd( 3d)     0.00092
   448    C   30  dyz    Ryd( 3d)     0.00083
   449    C   30  dx2y2  Ryd( 3d)     0.00113
   450    C   30  dz2    Ryd( 3d)     0.00042

   451    C   31  S      Cor( 1S)     1.99935
   452    C   31  S      Val( 2S)     1.03608
   453    C   31  S      Ryd( 3S)     0.00092
   454    C   31  S      Ryd( 4S)     0.00002
   455    C   31  px     Val( 2p)     1.17717
   456    C   31  px     Ryd( 3p)     0.00221
   457    C   31  py     Val( 2p)     1.15106
   458    C   31  py     Ryd( 3p)     0.00151
   459    C   31  pz     Val( 2p)     1.08631
   460    C   31  pz     Ryd( 3p)     0.00229
   461    C   31  dxy    Ryd( 3d)     0.00020
   462    C   31  dxz    Ryd( 3d)     0.00078
   463    C   31  dyz    Ryd( 3d)     0.00089
   464    C   31  dx2y2  Ryd( 3d)     0.00119
   465    C   31  dz2    Ryd( 3d)     0.00045

   466    C   32  S      Cor( 1S)     1.99947
   467    C   32  S      Val( 2S)     1.10152
   468    C   32  S      Ryd( 3S)     0.00032
   469    C   32  S      Ryd( 4S)     0.00001
   470    C   32  px     Val( 2p)     1.16734
   471    C   32  px     Ryd( 3p)     0.00096
   472    C   32  py     Val( 2p)     1.23837
   473    C   32  py     Ryd( 3p)     0.00158
   474    C   32  pz     Val( 2p)     1.15846
   475    C   32  pz     Ryd( 3p)     0.00136
   476    C   32  dxy    Ryd( 3d)     0.00012
   477    C   32  dxz    Ryd( 3d)     0.00059
   478    C   32  dyz    Ryd( 3d)     0.00114
   479    C   32  dx2y2  Ryd( 3d)     0.00112
   480    C   32  dz2    Ryd( 3d)     0.00033

   481    H   33  S      Val( 1S)     0.75834
   482    H   33  S      Ryd( 2S)     0.00075

   483    H   34  S      Val( 1S)     0.77178
   484    H   34  S      Ryd( 2S)     0.00109

   485    H   35  S      Val( 1S)     0.77604
   486    H   35  S      Ryd( 2S)     0.00103

   487    H   36  S      Val( 1S)     0.75682
   488    H   36  S      Ryd( 2S)     0.00129

   489    H   37  S      Val( 1S)     0.76745
   490    H   37  S      Ryd( 2S)     0.00164

   491    H   38  S      Val( 1S)     0.76004
   492    H   38  S      Ryd( 2S)     0.00155

   493    H   39  S      Val( 1S)     0.75950
   494    H   39  S      Ryd( 2S)     0.00141

   495    H   40  S      Val( 1S)     0.75564
   496    H   40  S      Ryd( 2S)     0.00144

   497    H   41  S      Val( 1S)     0.75256
   498    H   41  S      Ryd( 2S)     0.00193

   499    H   42  S      Val( 1S)     0.74993
   500    H   42  S      Ryd( 2S)     0.00214

   501    H   43  S      Val( 1S)     0.73845
   502    H   43  S      Ryd( 2S)     0.00247

   503    H   44  S      Val( 1S)     0.75870
   504    H   44  S      Ryd( 2S)     0.00089

   505    H   45  S      Val( 1S)     0.75832
   506    H   45  S      Ryd( 2S)     0.00077

   507    H   46  S      Val( 1S)     0.75625
   508    H   46  S      Ryd( 2S)     0.00069

   509    H   47  S      Val( 1S)     0.74503
   510    H   47  S      Ryd( 2S)     0.00144

   511    H   48  S      Val( 1S)     0.77954
   512    H   48  S      Ryd( 2S)     0.00125

   513    H   49  S      Val( 1S)     0.77796
   514    H   49  S      Ryd( 2S)     0.00065

   515    H   50  S      Val( 1S)     0.77825
   516    H   50  S      Ryd( 2S)     0.00103

   517    H   51  S      Val( 1S)     0.76791
   518    H   51  S      Ryd( 2S)     0.00334

   519    H   52  S      Val( 1S)     0.78815
   520    H   52  S      Ryd( 2S)     0.00452

   521    H   53  S      Val( 1S)     0.74798
   522    H   53  S      Ryd( 2S)     0.00145

   523    H   54  S      Val( 1S)     0.77193
   524    H   54  S      Ryd( 2S)     0.00082

   525    H   55  S      Val( 1S)     0.76933
   526    H   55  S      Ryd( 2S)     0.00083

   527    H   56  S      Val( 1S)     0.76678
   528    H   56  S      Ryd( 2S)     0.00097

   529    H   57  S      Val( 1S)     0.77121
   530    H   57  S      Ryd( 2S)     0.00209

   531    H   58  S      Val( 1S)     0.76386
   532    H   58  S      Ryd( 2S)     0.00251

   533    H   59  S      Val( 1S)     0.76748
   534    H   59  S      Ryd( 2S)     0.00168

   535    H   60  S      Val( 1S)     0.76605
   536    H   60  S      Ryd( 2S)     0.00162

   537    H   61  S      Val( 1S)     0.76206
   538    H   61  S      Ryd( 2S)     0.00180

   539    H   62  S      Val( 1S)     0.77566
   540    H   62  S      Ryd( 2S)     0.00171

   541    H   63  S      Val( 1S)     0.77281
   542    H   63  S      Ryd( 2S)     0.00107

   543    H   64  S      Val( 1S)     0.76624
   544    H   64  S      Ryd( 2S)     0.00082

   545    H   65  S      Val( 1S)     0.77564
   546    H   65  S      Ryd( 2S)     0.00110

 WARNING:  1 low occupancy (<1.9990e) core orbital  found on  C    8
           1 low occupancy (<1.9990e) core orbital  found on  C    9
           1 low occupancy (<1.9990e) core orbital  found on  C   23
           1 low occupancy (<1.9990e) core orbital  found on  C   24


 Summary of Natural Population Analysis:                  
                                                          
                                       Natural Population 
                Natural  -----------------------------------------------
    Atom  No    Charge         Core      Valence    Rydberg      Total
 -----------------------------------------------------------------------
      C    1   -0.68352      1.99946     4.67626    0.00780     6.68352
      C    2   -0.46412      1.99935     4.45399    0.01078     6.46412
      C    3   -0.46625      1.99932     4.45568    0.01126     6.46625
      C    4   -0.25995      1.99931     4.24394    0.01670     6.25995
      N    5   -0.38984      1.99930     5.37721    0.01333     7.38984
      C    6   -0.04210      1.99938     4.02443    0.01830     6.04210
      N    7   -0.37163      1.99926     5.35980    0.01257     7.37163
      C    8    0.18049      1.99894     3.80360    0.01698     5.81951
      C    9    0.18435      1.99899     3.79919    0.01747     5.81565
      C   10   -0.29063      1.99903     4.27834    0.01326     6.29063
      C   11   -0.23389      1.99912     4.22018    0.01459     6.23389
      C   12   -0.21137      1.99912     4.19837    0.01389     6.21137
      C   13   -0.28788      1.99904     4.27434    0.01451     6.28788
      C   14    0.34739      1.99912     3.62589    0.02760     5.65261
      C   15   -0.30789      1.99903     4.29539    0.01347     6.30789
      C   16   -0.32924      1.99913     4.30975    0.02036     6.32924
      C   17   -0.30156      1.99904     4.28959    0.01292     6.30156
      C   18    0.35798      1.99912     3.61571    0.02719     5.64202
      N   19   -0.66401      1.99929     5.64711    0.01761     7.66401
      N   20   -0.39225      1.99926     5.38081    0.01218     7.39225
      C   21   -0.03625      1.99940     4.02099    0.01586     6.03625
      N   22   -0.45682      1.99931     5.44326    0.01424     7.45682
      C   23    0.16432      1.99898     3.81908    0.01763     5.83568
      C   24    0.14825      1.99892     3.83373    0.01910     5.85175
      C   25   -0.26536      1.99903     4.25255    0.01379     6.26536
      C   26   -0.25135      1.99911     4.23851    0.01372     6.25135
      C   27   -0.25241      1.99911     4.23866    0.01464     6.25241
      C   28   -0.29713      1.99902     4.28506    0.01305     6.29713
      C   29   -0.24914      1.99932     4.23342    0.01640     6.24914
      C   30   -0.46156      1.99932     4.45085    0.01139     6.46156
      C   31   -0.46043      1.99935     4.45062    0.01046     6.46043
      C   32   -0.67269      1.99947     4.66568    0.00754     6.67269
      H   33    0.24091      0.00000     0.75834    0.00075     0.75909
      H   34    0.22713      0.00000     0.77178    0.00109     0.77287
      H   35    0.22293      0.00000     0.77604    0.00103     0.77707
      H   36    0.24188      0.00000     0.75682    0.00129     0.75812
      H   37    0.23091      0.00000     0.76745    0.00164     0.76909
      H   38    0.23841      0.00000     0.76004    0.00155     0.76159
      H   39    0.23909      0.00000     0.75950    0.00141     0.76091
      H   40    0.24292      0.00000     0.75564    0.00144     0.75708
      H   41    0.24551      0.00000     0.75256    0.00193     0.75449
      H   42    0.24794      0.00000     0.74993    0.00214     0.75206
      H   43    0.25908      0.00000     0.73845    0.00247     0.74092
      H   44    0.24041      0.00000     0.75870    0.00089     0.75959
      H   45    0.24091      0.00000     0.75832    0.00077     0.75909
      H   46    0.24306      0.00000     0.75625    0.00069     0.75694
      H   47    0.25353      0.00000     0.74503    0.00144     0.74647
      H   48    0.21922      0.00000     0.77954    0.00125     0.78078
      H   49    0.22139      0.00000     0.77796    0.00065     0.77861
      H   50    0.22071      0.00000     0.77825    0.00103     0.77929
      H   51    0.22875      0.00000     0.76791    0.00334     0.77125
      H   52    0.20734      0.00000     0.78815    0.00452     0.79266
      H   53    0.25057      0.00000     0.74798    0.00145     0.74943
      H   54    0.22725      0.00000     0.77193    0.00082     0.77275
      H   55    0.22984      0.00000     0.76933    0.00083     0.77016
      H   56    0.23224      0.00000     0.76678    0.00097     0.76776
      H   57    0.22670      0.00000     0.77121    0.00209     0.77330
      H   58    0.23363      0.00000     0.76386    0.00251     0.76637
      H   59    0.23084      0.00000     0.76748    0.00168     0.76916
      H   60    0.23233      0.00000     0.76605    0.00162     0.76767
      H   61    0.23614      0.00000     0.76206    0.00180     0.76386
      H   62    0.22263      0.00000     0.77566    0.00171     0.77737
      H   63    0.22612      0.00000     0.77281    0.00107     0.77388
      H   64    0.23294      0.00000     0.76624    0.00082     0.76706
      H   65    0.22326      0.00000     0.77564    0.00110     0.77674
 =======================================================================
   * Total *   -0.00000     63.97395   165.49569    0.53036   230.00000

                                 Natural Population      
 --------------------------------------------------------
   Core                      63.97395 ( 99.9593% of  64)
   Valence                  165.49569 ( 99.6962% of 166)
   Natural Minimal Basis    229.46964 ( 99.7694% of 230)
   Natural Rydberg Basis      0.53036 (  0.2306% of 230)
 --------------------------------------------------------

    Atom  No          Natural Electron Configuration
 ----------------------------------------------------------------------------
      C    1      [core]2S( 1.10)2p( 3.57)
      C    2      [core]2S( 1.04)2p( 3.42)3p( 0.01)
      C    3      [core]2S( 1.04)2p( 3.41)3p( 0.01)
      C    4      [core]2S( 1.01)2p( 3.24)3p( 0.01)
      N    5      [core]2S( 1.18)2p( 4.20)3p( 0.01)
      C    6      [core]2S( 1.00)2p( 3.02)3p( 0.01)3d( 0.01)
      N    7      [core]2S( 1.18)2p( 4.18)3p( 0.01)
      C    8      [core]2S( 0.83)2p( 2.98)3p( 0.01)
      C    9      [core]2S( 0.83)2p( 2.97)3p( 0.01)
      C   10      [core]2S( 0.95)2p( 3.33)3p( 0.01)
      C   11      [core]2S( 0.96)2p( 3.26)3p( 0.01)
      C   12      [core]2S( 0.96)2p( 3.24)3p( 0.01)
      C   13      [core]2S( 0.95)2p( 3.32)3p( 0.01)
      C   14      [core]2S( 0.78)2p( 2.85)3p( 0.02)3d( 0.01)
      C   15      [core]2S( 0.95)2p( 3.34)3p( 0.01)
      C   16      [core]2S( 0.94)2p( 3.37)3p( 0.02)
      C   17      [core]2S( 0.96)2p( 3.33)3p( 0.01)
      C   18      [core]2S( 0.77)2p( 2.84)3p( 0.02)3d( 0.01)
      N   19      [core]2S( 1.33)2p( 4.32)3p( 0.01)
      N   20      [core]2S( 1.17)2p( 4.21)3p( 0.01)
      C   21      [core]2S( 1.00)2p( 3.02)3p( 0.01)3d( 0.01)
      N   22      [core]2S( 1.20)2p( 4.25)3p( 0.01)
      C   23      [core]2S( 0.82)2p( 3.00)3p( 0.01)
      C   24      [core]2S( 0.82)2p( 3.01)3p( 0.01)
      C   25      [core]2S( 0.95)2p( 3.30)3p( 0.01)
      C   26      [core]2S( 0.96)2p( 3.28)3p( 0.01)
      C   27      [core]2S( 0.95)2p( 3.29)3p( 0.01)
      C   28      [core]2S( 0.94)2p( 3.34)3p( 0.01)
      C   29      [core]2S( 1.01)2p( 3.23)3p( 0.01)3d( 0.01)
      C   30      [core]2S( 1.04)2p( 3.41)3p( 0.01)
      C   31      [core]2S( 1.04)2p( 3.41)3p( 0.01)
      C   32      [core]2S( 1.10)2p( 3.56)
      H   33            1S( 0.76)
      H   34            1S( 0.77)
      H   35            1S( 0.78)
      H   36            1S( 0.76)
      H   37            1S( 0.77)
      H   38            1S( 0.76)
      H   39            1S( 0.76)
      H   40            1S( 0.76)
      H   41            1S( 0.75)
      H   42            1S( 0.75)
      H   43            1S( 0.74)
      H   44            1S( 0.76)
      H   45            1S( 0.76)
      H   46            1S( 0.76)
      H   47            1S( 0.75)
      H   48            1S( 0.78)
      H   49            1S( 0.78)
      H   50            1S( 0.78)
      H   51            1S( 0.77)
      H   52            1S( 0.79)
      H   53            1S( 0.75)
      H   54            1S( 0.77)
      H   55            1S( 0.77)
      H   56            1S( 0.77)
      H   57            1S( 0.77)
      H   58            1S( 0.76)
      H   59            1S( 0.77)
      H   60            1S( 0.77)
      H   61            1S( 0.76)
      H   62            1S( 0.78)
      H   63            1S( 0.77)
      H   64            1S( 0.77)
      H   65            1S( 0.78)


 NBO analysis skipped by request.
 Leave Link  607 at Mon Oct  4 00:42:18 2021, MaxMem= 2684354560 cpu:      72.8
 (Enter /sw/target/amd/app/gaussian/Gaussian09RevA.02_gcc-4.9.2/g09/l9999.exe)
 1\1\GINC-HERMITE\SP\RTD-B3LYP-FC\6-31G(d)\C27H33N5\JSCHLEINITZ\04-Oct-
 2021\0\\#p TD(NStates=10, Root=1) b3lyp/6-31G* volume pop=NPA density=
 current Geom=AllCheck Guess=Read\\CCCCN1CN(c2c1cccc2)c1cccc(n1)N1CN(c2
 c1cccc2)CCCC_conf_0\\0,1\C,0,3.7878439689,3.282065164,1.1716353266\C,0
 ,4.038297463,1.8085180668,1.5158218929\C,0,5.4298643928,1.2891503848,1
 .122472302\C,0,6.6104615565,1.9309029596,1.8765537728\N,0,6.6098344111
 ,1.7117052935,3.3087161539\C,0,6.2052114193,2.7267079278,4.2686971508\
 N,0,6.7139306604,2.1995880283,5.5428684884\C,0,7.2172510049,0.89610546
 95,5.3498189885\C,0,7.1706719276,0.6285697604,3.9597285327\C,0,7.63876
 41955,-0.5758103981,3.4474176571\C,0,8.1298990669,-1.5386177278,4.3462
 570692\C,0,8.1279240988,-1.3001341708,5.7151662087\C,0,7.6631730663,-0
 .076115804,6.2345595407\C,0,6.737668185,3.0225616988,6.6566017255\C,0,
 7.5017780128,2.7394938393,7.8059348365\C,0,7.4341750529,3.6489310148,8
 .8540014325\C,0,6.6541613476,4.7967700021,8.7605975641\C,0,5.962366188
 1,5.0143468337,7.5502141114\N,0,5.9992148218,4.1394093397,6.5334657191
 \N,0,5.2169763852,6.1665972593,7.3726778737\C,0,5.2104857645,7.2266561
 486,8.384253381\N,0,4.493591036,8.3195201895,7.7417321763\C,0,3.898867
 3257,7.8386494775,6.5740131378\C,0,4.3502299572,6.5264004846,6.3178754
 958\C,0,3.9047578101,5.8306541055,5.2023670964\C,0,2.9971745194,6.4685
 521792,4.3378436849\C,0,2.5516654854,7.7618192296,4.5909989653\C,0,3.0
 021986734,8.4670891442,5.7198181532\C,0,3.8843734127,9.3641145151,8.55
 56385725\C,0,4.4592820128,10.7653678343,8.2999819939\C,0,5.9473806888,
 10.8972694946,8.6432940211\C,0,6.503995982,12.2980406059,8.3706464815\
 H,0,2.7596958007,3.5714680332,1.4171534711\H,0,3.938594323,3.469296229
 2,0.1010029897\H,0,4.4544213649,3.9575562216,1.7208524696\H,0,3.285399
 5202,1.1926581213,1.0066140018\H,0,3.8822920975,1.6442281439,2.5901583
 839\H,0,5.5917289032,1.4495665374,0.0462163074\H,0,5.4648600169,0.2042
 455101,1.2846218473\H,0,6.627273598,3.0143727604,1.7042898265\H,0,7.55
 22068146,1.538018894,1.4676982394\H,0,5.1115266382,2.8568320143,4.3071
 456027\H,0,6.6460047517,3.7104584102,4.0503952958\H,0,7.609782996,-0.7
 765862031,2.3809656639\H,0,8.4966326063,-2.4855484561,3.9598879747\H,0
 ,8.481589364,-2.0625290898,6.4029503834\H,0,7.6393166964,0.0761699108,
 7.3057120677\H,0,8.1574378454,1.8833464583,7.855284971\H,0,8.007778831
 4,3.4644920004,9.758816827\H,0,6.5912764931,5.4888688472,9.5905811914\
 H,0,6.2387370675,7.510317987,8.6519403906\H,0,4.7015485534,6.895052627
 4,9.3120304931\H,0,4.2453108634,4.8224907598,5.0204746673\H,0,2.643010
 8218,5.9338327397,3.460869324\H,0,1.850370655,8.2393251245,3.912225974
 \H,0,2.6614393617,9.479416495,5.9143414401\H,0,4.0283908968,9.09858392
 46,9.6123094625\H,0,2.7989984416,9.3694506938,8.3779916652\H,0,3.87555
 19333,11.4858100486,8.8915436956\H,0,4.3030891098,11.0298069591,7.2452
 66111\H,0,6.5122940987,10.157187676,8.0618479691\H,0,6.0984979798,10.6
 430773777,9.7030890949\H,0,6.39759185,12.5665434341,7.312565105\H,0,7.
 5682443159,12.3606118154,8.6242182746\H,0,5.9757986444,13.0580994161,8
 .9595793871\\Version=AM64L-G09RevA.02\State=1-A\HF=-1322.5114321\RMSD=
 6.502e-09\Dipole=0.1172649,-0.7197989,-1.4791163\Quadrupole=-13.364272
 6,7.9964695,5.367803,-6.5109198,-3.0848614,16.944731\PG=C01 [X(C27H33N
 5)]\\@


 A CHEMICAL PHYSICIST MAKES PRECISE MEASUREMENTS ON IMPURE COMPOUNDS.
 A THEORETICAL PHYSICAL CHEMIST MAKES IMPRECISE
     MEASUREMENTS ON PURE COMPOUNDS.
 AN EXPERIMENTAL PHYSICAL CHEMIST MAKES IMPRECISE
     MEASUREMENTS ON IMPURE COMPOUNDS.
 Job cpu time:  0 days 20 hours 12 minutes 29.5 seconds.
 File lengths (MBytes):  RWF=    952 Int=      0 D2E=      0 Chk=    132 Scr=      1
 Normal termination of Gaussian 09 at Mon Oct  4 00:42:36 2021.
