 Entering Gaussian System, Link 0=g09
 Input=C28H46P2S_37fd_conf_0.com
 Output=C28H46P2S_37fd_conf_0.log
 Initial command:
 /sw/target/amd/app/gaussian/Gaussian09RevA.02_gcc-4.9.2/g09/l1.exe /home/jschleinitz/gaussian/Gau-246516.inp -scrdir=/home/jschleinitz/gaussian/
 Entering Link 1 = /sw/target/amd/app/gaussian/Gaussian09RevA.02_gcc-4.9.2/g09/l1.exe PID=    246526.
  
 Copyright (c) 1988,1990,1992,1993,1995,1998,2003,2009, Gaussian, Inc.
                  All Rights Reserved.
  
 This is part of the Gaussian(R) 09 program.  It is based on
 the Gaussian(R) 03 system (copyright 2003, Gaussian, Inc.),
 the Gaussian(R) 98 system (copyright 1998, Gaussian, Inc.),
 the Gaussian(R) 94 system (copyright 1995, Gaussian, Inc.),
 the Gaussian 92(TM) system (copyright 1992, Gaussian, Inc.),
 the Gaussian 90(TM) system (copyright 1990, Gaussian, Inc.),
 the Gaussian 88(TM) system (copyright 1988, Gaussian, Inc.),
 the Gaussian 86(TM) system (copyright 1986, Carnegie Mellon
 University), and the Gaussian 82(TM) system (copyright 1983,
 Carnegie Mellon University). Gaussian is a federally registered
 trademark of Gaussian, Inc.
  
 This software contains proprietary and confidential information,
 including trade secrets, belonging to Gaussian, Inc.
  
 This software is provided under written license and may be
 used, copied, transmitted, or stored only in accord with that
 written license.
  
 The following legend is applicable only to US Government
 contracts under FAR:
  
                    RESTRICTED RIGHTS LEGEND
  
 Use, reproduction and disclosure by the US Government is
 subject to restrictions as set forth in subparagraphs (a)
 and (c) of the Commercial Computer Software - Restricted
 Rights clause in FAR 52.227-19.
  
 Gaussian, Inc.
 340 Quinnipiac St., Bldg. 40, Wallingford CT 06492
  
  
 ---------------------------------------------------------------
 Warning -- This program may not be used in any manner that
 competes with the business of Gaussian, Inc. or will provide
 assistance to any competitor of Gaussian, Inc.  The licensee
 of this program is prohibited from giving any competitor of
 Gaussian, Inc. access to this program.  By using this program,
 the user acknowledges that Gaussian, Inc. is engaged in the
 business of creating and licensing software in the field of
 computational chemistry and represents and warrants to the
 licensee that it is not a competitor of Gaussian, Inc. and that
 it will not use this program in any manner prohibited above.
 ---------------------------------------------------------------
  

 Cite this work as:
 Gaussian 09, Revision A.02,
 M. J. Frisch, G. W. Trucks, H. B. Schlegel, G. E. Scuseria, 
 M. A. Robb, J. R. Cheeseman, G. Scalmani, V. Barone, B. Mennucci, 
 G. A. Petersson, H. Nakatsuji, M. Caricato, X. Li, H. P. Hratchian, 
 A. F. Izmaylov, J. Bloino, G. Zheng, J. L. Sonnenberg, M. Hada, 
 M. Ehara, K. Toyota, R. Fukuda, J. Hasegawa, M. Ishida, T. Nakajima, 
 Y. Honda, O. Kitao, H. Nakai, T. Vreven, J. A. Montgomery, Jr., 
 J. E. Peralta, F. Ogliaro, M. Bearpark, J. J. Heyd, E. Brothers, 
 K. N. Kudin, V. N. Staroverov, R. Kobayashi, J. Normand, 
 K. Raghavachari, A. Rendell, J. C. Burant, S. S. Iyengar, J. Tomasi, 
 M. Cossi, N. Rega, J. M. Millam, M. Klene, J. E. Knox, J. B. Cross, 
 V. Bakken, C. Adamo, J. Jaramillo, R. Gomperts, R. E. Stratmann, 
 O. Yazyev, A. J. Austin, R. Cammi, C. Pomelli, J. W. Ochterski, 
 R. L. Martin, K. Morokuma, V. G. Zakrzewski, G. A. Voth, 
 P. Salvador, J. J. Dannenberg, S. Dapprich, A. D. Daniels, 
 O. Farkas, J. B. Foresman, J. V. Ortiz, J. Cioslowski, 
 and D. J. Fox, Gaussian, Inc., Wallingford CT, 2009.
 
 ******************************************
 Gaussian 09:  AM64L-G09RevA.02 11-Jun-2009
                 1-Oct-2021 
 ******************************************
 %nproc=12
 Will use up to   12 processors via shared memory.
 %mem=24gb
 %chk=C28H46P2S_37fd_conf_0.chk
 -----------------------------------
 #p opt b3lyp/6-31G* scf=(xqc,tight)
 -----------------------------------
 1/14=-1,18=20,19=15,26=3,38=1/1,3;
 2/9=110,12=2,17=6,18=5,40=1/2;
 3/5=1,6=6,7=1,11=2,16=1,25=1,30=1,71=1,74=-5/1,2,3;
 4//1;
 5/5=2,8=3,13=1,32=2,38=5/2,8;
 6/7=2,8=2,9=2,10=2,28=1/1;
 7//1,2,3,16;
 1/14=-1,18=20,19=15/3(2);
 2/9=110/2;
 99//99;
 2/9=110/2;
 3/5=1,6=6,7=1,11=2,16=1,25=1,30=1,71=1,74=-5/1,2,3;
 4/5=5,16=3/1;
 5/5=2,8=3,13=1,32=2,38=5/2,8;
 7//1,2,3,16;
 1/14=-1,18=20,19=15/3(-5);
 2/9=110/2;
 6/7=2,8=2,9=2,10=2,19=2,28=1/1;
 99/9=1/99;
 Leave Link    1 at Fri Oct  1 23:22:27 2021, MaxMem= 3221225472 cpu:       0.1
 (Enter /sw/target/amd/app/gaussian/Gaussian09RevA.02_gcc-4.9.2/g09/l101.exe)
 ------------------------------------------------------
 C1CCC(CC1)P(c1sccc1P(C1CCCCC1)C1CCCCC1)C1CCCCC1_conf_0
 ------------------------------------------------------
 Symbolic Z-matrix:
 Charge =  0 Multiplicity = 1
 C                     6.89542  -3.70001  -2.90374 
 C                     5.81023  -3.15136  -3.8181 
 C                     4.57072  -2.73337  -3.0223 
 C                     4.90324  -1.6505   -1.96865 
 C                     5.98986  -2.25255  -1.04218 
 C                     7.2355   -2.70308  -1.80778 
 P                     3.37086  -1.13797  -0.9714 
 C                     4.06443   0.02195   0.28427 
 S                     5.25589   1.17739  -0.17173 
 C                     5.48264   1.68342   1.43568 
 C                     4.6294    1.03846   2.30134 
 C                     3.75735   0.11838   1.63657 
 P                     2.4616   -0.80397   2.54494 
 C                     3.49119  -2.23941   3.25016 
 C                     4.09194  -3.04197   2.07619 
 C                     4.80319  -4.32492   2.49041 
 C                     3.89369  -5.22143   3.31076 
 C                     3.3814   -4.47116   4.5246 
 C                     2.65757  -3.18376   4.13411 
 C                     2.08569   0.29279   4.07298 
 C                     1.02016  -0.35789   4.98492 
 C                     0.43016   0.56034   6.05456 
 C                    -0.0889    1.85555   5.4643 
 C                     1.03169   2.55981   4.71971 
 C                     1.58508   1.68196   3.59552 
 C                     2.50551   0.11463  -2.10893 
 C                     1.18041   0.53348  -1.4247 
 C                     0.32344   1.44088  -2.3039 
 C                     0.03091   0.7939   -3.64935 
 C                     1.32593   0.45107  -4.36617 
 C                     2.22912  -0.43805  -3.51453 
 H                     7.79202  -3.93724  -3.48627 
 H                     6.55043  -4.6379   -2.45155 
 H                     5.5349   -3.91197  -4.55821 
 H                     6.19808  -2.29015  -4.37589 
 H                     4.14145  -3.61764  -2.53314 
 H                     3.82518  -2.40575  -3.7436 
 H                     5.30377  -0.76428  -2.476 
 H                     5.58282  -3.12275  -0.51347 
 H                     6.30769  -1.54195  -0.27191 
 H                     7.9502   -3.15565  -1.10988 
 H                     7.72935  -1.82637  -2.24524 
 H                     6.22202   2.43546   1.67298 
 H                     4.63781   1.25297   3.36139 
 H                     4.30637  -1.81385   3.84775 
 H                     4.82316  -2.42596   1.55011 
 H                     3.30341  -3.30678   1.35944 
 H                     5.69963  -4.07485   3.06862 
 H                     5.13751  -4.86157   1.59426 
 H                     4.44093  -6.11547   3.62812 
 H                     3.04864  -5.56042   2.69837 
 H                     4.22132  -4.22731   5.187 
 H                     2.70236  -5.1125    5.09692 
 H                     2.41611  -2.70187   5.07795 
 H                     1.70878  -3.43629   3.64371 
 H                     3.00572   0.41594   4.65636 
 H                     1.45039  -1.18527   5.53873 
 H                     0.20015  -0.76675   4.38108 
 H                     1.19623   0.78084   6.80989 
 H                    -0.38059   0.03918   6.57443 
 H                    -0.47827   2.49906   6.26125 
 H                    -0.92235   1.64711   4.78218 
 H                     1.83523   2.82058   5.42003 
 H                     0.65584   3.50016   4.3011 
 H                     2.39073   2.24234   3.11269 
 H                     0.79989   1.55826   2.83901 
 H                     3.14324   0.99847  -2.2227 
 H                     1.39101   1.06063  -0.48462 
 H                     0.59498  -0.35307  -1.16348 
 H                     0.83467   2.39853  -2.45827 
 H                    -0.62016   1.65952  -1.79061 
 H                    -0.56633   1.47224  -4.26874 
 H                    -0.56378  -0.11669  -3.50469 
 H                     1.86024   1.375    -4.62144 
 H                     1.1022   -0.05583  -5.31211 
 H                     3.17352  -0.52759  -4.0608 
 H                     1.77677  -1.43624  -3.4522 
 
 NAtoms=     77 NQM=     77 NQMF=      0 NMic=      0 NMicF=      0 NTot=     77.
                    Isotopes and Nuclear Properties:
 (Nuclear quadrupole moments (NQMom) in fm**2, nuclear magnetic moments (NMagM)
  in nuclear magnetons)

  Atom         1           2           3           4           5           6           7           8           9          10
 IAtWgt=          12          12          12          12          12          12          31          12          32          12
 AtmWgt=  12.0000000  12.0000000  12.0000000  12.0000000  12.0000000  12.0000000  30.9737634  12.0000000  31.9720718  12.0000000
 NucSpn=           0           0           0           0           0           0           1           0           0           0
 AtZEff=   0.0000000   0.0000000   0.0000000   0.0000000   0.0000000   0.0000000   0.0000000   0.0000000   0.0000000   0.0000000
 NQMom=    0.0000000   0.0000000   0.0000000   0.0000000   0.0000000   0.0000000   0.0000000   0.0000000   0.0000000   0.0000000
 NMagM=    0.0000000   0.0000000   0.0000000   0.0000000   0.0000000   0.0000000   1.1316000   0.0000000   0.0000000   0.0000000

  Atom        11          12          13          14          15          16          17          18          19          20
 IAtWgt=          12          12          31          12          12          12          12          12          12          12
 AtmWgt=  12.0000000  12.0000000  30.9737634  12.0000000  12.0000000  12.0000000  12.0000000  12.0000000  12.0000000  12.0000000
 NucSpn=           0           0           1           0           0           0           0           0           0           0
 AtZEff=   0.0000000   0.0000000   0.0000000   0.0000000   0.0000000   0.0000000   0.0000000   0.0000000   0.0000000   0.0000000
 NQMom=    0.0000000   0.0000000   0.0000000   0.0000000   0.0000000   0.0000000   0.0000000   0.0000000   0.0000000   0.0000000
 NMagM=    0.0000000   0.0000000   1.1316000   0.0000000   0.0000000   0.0000000   0.0000000   0.0000000   0.0000000   0.0000000

  Atom        21          22          23          24          25          26          27          28          29          30
 IAtWgt=          12          12          12          12          12          12          12          12          12          12
 AtmWgt=  12.0000000  12.0000000  12.0000000  12.0000000  12.0000000  12.0000000  12.0000000  12.0000000  12.0000000  12.0000000
 NucSpn=           0           0           0           0           0           0           0           0           0           0
 AtZEff=   0.0000000   0.0000000   0.0000000   0.0000000   0.0000000   0.0000000   0.0000000   0.0000000   0.0000000   0.0000000
 NQMom=    0.0000000   0.0000000   0.0000000   0.0000000   0.0000000   0.0000000   0.0000000   0.0000000   0.0000000   0.0000000
 NMagM=    0.0000000   0.0000000   0.0000000   0.0000000   0.0000000   0.0000000   0.0000000   0.0000000   0.0000000   0.0000000

  Atom        31          32          33          34          35          36          37          38          39          40
 IAtWgt=          12           1           1           1           1           1           1           1           1           1
 AtmWgt=  12.0000000   1.0078250   1.0078250   1.0078250   1.0078250   1.0078250   1.0078250   1.0078250   1.0078250   1.0078250
 NucSpn=           0           1           1           1           1           1           1           1           1           1
 AtZEff=   0.0000000   0.0000000   0.0000000   0.0000000   0.0000000   0.0000000   0.0000000   0.0000000   0.0000000   0.0000000
 NQMom=    0.0000000   0.0000000   0.0000000   0.0000000   0.0000000   0.0000000   0.0000000   0.0000000   0.0000000   0.0000000
 NMagM=    0.0000000   2.7928460   2.7928460   2.7928460   2.7928460   2.7928460   2.7928460   2.7928460   2.7928460   2.7928460

  Atom        41          42          43          44          45          46          47          48          49          50
 IAtWgt=           1           1           1           1           1           1           1           1           1           1
 AtmWgt=   1.0078250   1.0078250   1.0078250   1.0078250   1.0078250   1.0078250   1.0078250   1.0078250   1.0078250   1.0078250
 NucSpn=           1           1           1           1           1           1           1           1           1           1
 AtZEff=   0.0000000   0.0000000   0.0000000   0.0000000   0.0000000   0.0000000   0.0000000   0.0000000   0.0000000   0.0000000
 NQMom=    0.0000000   0.0000000   0.0000000   0.0000000   0.0000000   0.0000000   0.0000000   0.0000000   0.0000000   0.0000000
 NMagM=    2.7928460   2.7928460   2.7928460   2.7928460   2.7928460   2.7928460   2.7928460   2.7928460   2.7928460   2.7928460

  Atom        51          52          53          54          55          56          57          58          59          60
 IAtWgt=           1           1           1           1           1           1           1           1           1           1
 AtmWgt=   1.0078250   1.0078250   1.0078250   1.0078250   1.0078250   1.0078250   1.0078250   1.0078250   1.0078250   1.0078250
 NucSpn=           1           1           1           1           1           1           1           1           1           1
 AtZEff=   0.0000000   0.0000000   0.0000000   0.0000000   0.0000000   0.0000000   0.0000000   0.0000000   0.0000000   0.0000000
 NQMom=    0.0000000   0.0000000   0.0000000   0.0000000   0.0000000   0.0000000   0.0000000   0.0000000   0.0000000   0.0000000
 NMagM=    2.7928460   2.7928460   2.7928460   2.7928460   2.7928460   2.7928460   2.7928460   2.7928460   2.7928460   2.7928460

  Atom        61          62          63          64          65          66          67          68          69          70
 IAtWgt=           1           1           1           1           1           1           1           1           1           1
 AtmWgt=   1.0078250   1.0078250   1.0078250   1.0078250   1.0078250   1.0078250   1.0078250   1.0078250   1.0078250   1.0078250
 NucSpn=           1           1           1           1           1           1           1           1           1           1
 AtZEff=   0.0000000   0.0000000   0.0000000   0.0000000   0.0000000   0.0000000   0.0000000   0.0000000   0.0000000   0.0000000
 NQMom=    0.0000000   0.0000000   0.0000000   0.0000000   0.0000000   0.0000000   0.0000000   0.0000000   0.0000000   0.0000000
 NMagM=    2.7928460   2.7928460   2.7928460   2.7928460   2.7928460   2.7928460   2.7928460   2.7928460   2.7928460   2.7928460

  Atom        71          72          73          74          75          76          77
 IAtWgt=           1           1           1           1           1           1           1
 AtmWgt=   1.0078250   1.0078250   1.0078250   1.0078250   1.0078250   1.0078250   1.0078250
 NucSpn=           1           1           1           1           1           1           1
 AtZEff=   0.0000000   0.0000000   0.0000000   0.0000000   0.0000000   0.0000000   0.0000000
 NQMom=    0.0000000   0.0000000   0.0000000   0.0000000   0.0000000   0.0000000   0.0000000
 NMagM=    2.7928460   2.7928460   2.7928460   2.7928460   2.7928460   2.7928460   2.7928460
 Leave Link  101 at Fri Oct  1 23:22:29 2021, MaxMem= 3221225472 cpu:       0.2
 (Enter /sw/target/amd/app/gaussian/Gaussian09RevA.02_gcc-4.9.2/g09/l103.exe)

 GradGradGradGradGradGradGradGradGradGradGradGradGradGradGradGradGradGrad
 Berny optimization.
 Initialization pass.
                           ----------------------------
                           !    Initial Parameters    !
                           ! (Angstroms and Degrees)  !
 --------------------------                            --------------------------
 ! Name  Definition              Value          Derivative Info.                !
 --------------------------------------------------------------------------------
 ! R1    R(1,2)                  1.5214         estimate D2E/DX2                !
 ! R2    R(1,6)                  1.5201         estimate D2E/DX2                !
 ! R3    R(1,32)                 1.0952         estimate D2E/DX2                !
 ! R4    R(1,33)                 1.0969         estimate D2E/DX2                !
 ! R5    R(2,3)                  1.5311         estimate D2E/DX2                !
 ! R6    R(2,34)                 1.0964         estimate D2E/DX2                !
 ! R7    R(2,35)                 1.0969         estimate D2E/DX2                !
 ! R8    R(3,4)                  1.547          estimate D2E/DX2                !
 ! R9    R(3,36)                 1.0979         estimate D2E/DX2                !
 ! R10   R(3,37)                 1.0879         estimate D2E/DX2                !
 ! R11   R(4,5)                  1.5497         estimate D2E/DX2                !
 ! R12   R(4,7)                  1.8988         estimate D2E/DX2                !
 ! R13   R(4,38)                 1.0969         estimate D2E/DX2                !
 ! R14   R(5,6)                  1.5299         estimate D2E/DX2                !
 ! R15   R(5,39)                 1.0966         estimate D2E/DX2                !
 ! R16   R(5,40)                 1.0951         estimate D2E/DX2                !
 ! R17   R(6,41)                 1.0967         estimate D2E/DX2                !
 ! R18   R(6,42)                 1.0972         estimate D2E/DX2                !
 ! R19   R(7,8)                  1.8448         estimate D2E/DX2                !
 ! R20   R(7,26)                 1.9005         estimate D2E/DX2                !
 ! R21   R(8,9)                  1.7212         estimate D2E/DX2                !
 ! R22   R(8,12)                 1.3901         estimate D2E/DX2                !
 ! R23   R(9,10)                 1.7004         estimate D2E/DX2                !
 ! R24   R(10,11)                1.376          estimate D2E/DX2                !
 ! R25   R(10,43)                1.081          estimate D2E/DX2                !
 ! R26   R(11,12)                1.4314         estimate D2E/DX2                !
 ! R27   R(11,44)                1.0816         estimate D2E/DX2                !
 ! R28   R(12,13)                1.8316         estimate D2E/DX2                !
 ! R29   R(13,14)                1.9021         estimate D2E/DX2                !
 ! R30   R(13,20)                1.9181         estimate D2E/DX2                !
 ! R31   R(14,15)                1.5438         estimate D2E/DX2                !
 ! R32   R(14,19)                1.5389         estimate D2E/DX2                !
 ! R33   R(14,45)                1.0967         estimate D2E/DX2                !
 ! R34   R(15,16)                1.5243         estimate D2E/DX2                !
 ! R35   R(15,46)                1.0913         estimate D2E/DX2                !
 ! R36   R(15,47)                1.098          estimate D2E/DX2                !
 ! R37   R(16,17)                1.5179         estimate D2E/DX2                !
 ! R38   R(16,48)                1.0957         estimate D2E/DX2                !
 ! R39   R(16,49)                1.0967         estimate D2E/DX2                !
 ! R40   R(17,18)                1.5162         estimate D2E/DX2                !
 ! R41   R(17,50)                1.0952         estimate D2E/DX2                !
 ! R42   R(17,51)                1.0973         estimate D2E/DX2                !
 ! R43   R(18,19)                1.5277         estimate D2E/DX2                !
 ! R44   R(18,52)                1.0971         estimate D2E/DX2                !
 ! R45   R(18,53)                1.0954         estimate D2E/DX2                !
 ! R46   R(19,54)                1.0869         estimate D2E/DX2                !
 ! R47   R(19,55)                1.0975         estimate D2E/DX2                !
 ! R48   R(20,21)                1.5461         estimate D2E/DX2                !
 ! R49   R(20,25)                1.5519         estimate D2E/DX2                !
 ! R50   R(20,56)                1.0963         estimate D2E/DX2                !
 ! R51   R(21,22)                1.5282         estimate D2E/DX2                !
 ! R52   R(21,57)                1.0846         estimate D2E/DX2                !
 ! R53   R(21,58)                1.0974         estimate D2E/DX2                !
 ! R54   R(22,23)                1.5151         estimate D2E/DX2                !
 ! R55   R(22,59)                1.0982         estimate D2E/DX2                !
 ! R56   R(22,60)                1.0951         estimate D2E/DX2                !
 ! R57   R(23,24)                1.5186         estimate D2E/DX2                !
 ! R58   R(23,61)                1.0958         estimate D2E/DX2                !
 ! R59   R(23,62)                1.097          estimate D2E/DX2                !
 ! R60   R(24,25)                1.5299         estimate D2E/DX2                !
 ! R61   R(24,63)                1.0973         estimate D2E/DX2                !
 ! R62   R(24,64)                1.0958         estimate D2E/DX2                !
 ! R63   R(25,65)                1.0937         estimate D2E/DX2                !
 ! R64   R(25,66)                1.0973         estimate D2E/DX2                !
 ! R65   R(26,27)                1.549          estimate D2E/DX2                !
 ! R66   R(26,31)                1.5354         estimate D2E/DX2                !
 ! R67   R(26,67)                1.0958         estimate D2E/DX2                !
 ! R68   R(27,28)                1.5267         estimate D2E/DX2                !
 ! R69   R(27,68)                1.0982         estimate D2E/DX2                !
 ! R70   R(27,69)                1.094          estimate D2E/DX2                !
 ! R71   R(28,29)                1.5213         estimate D2E/DX2                !
 ! R72   R(28,70)                1.0965         estimate D2E/DX2                !
 ! R73   R(28,71)                1.0962         estimate D2E/DX2                !
 ! R74   R(29,30)                1.5194         estimate D2E/DX2                !
 ! R75   R(29,72)                1.0957         estimate D2E/DX2                !
 ! R76   R(29,73)                1.0972         estimate D2E/DX2                !
 ! R77   R(30,31)                1.5269         estimate D2E/DX2                !
 ! R78   R(30,74)                1.0974         estimate D2E/DX2                !
 ! R79   R(30,75)                1.0963         estimate D2E/DX2                !
 ! R80   R(31,76)                1.0947         estimate D2E/DX2                !
 ! R81   R(31,77)                1.0977         estimate D2E/DX2                !
 ! A1    A(2,1,6)              110.8777         estimate D2E/DX2                !
 ! A2    A(2,1,32)             110.0216         estimate D2E/DX2                !
 ! A3    A(2,1,33)             109.376          estimate D2E/DX2                !
 ! A4    A(6,1,32)             110.0227         estimate D2E/DX2                !
 ! A5    A(6,1,33)             109.5066         estimate D2E/DX2                !
 ! A6    A(32,1,33)            106.9507         estimate D2E/DX2                !
 ! A7    A(1,2,3)              111.3158         estimate D2E/DX2                !
 ! A8    A(1,2,34)             109.5509         estimate D2E/DX2                !
 ! A9    A(1,2,35)             109.6659         estimate D2E/DX2                !
 ! A10   A(3,2,34)             109.6903         estimate D2E/DX2                !
 ! A11   A(3,2,35)             109.645          estimate D2E/DX2                !
 ! A12   A(34,2,35)            106.8691         estimate D2E/DX2                !
 ! A13   A(2,3,4)              111.7815         estimate D2E/DX2                !
 ! A14   A(2,3,36)             109.1593         estimate D2E/DX2                !
 ! A15   A(2,3,37)             107.0016         estimate D2E/DX2                !
 ! A16   A(4,3,36)             110.1416         estimate D2E/DX2                !
 ! A17   A(4,3,37)             112.8356         estimate D2E/DX2                !
 ! A18   A(36,3,37)            105.6643         estimate D2E/DX2                !
 ! A19   A(3,4,5)              106.6161         estimate D2E/DX2                !
 ! A20   A(3,4,7)              111.9116         estimate D2E/DX2                !
 ! A21   A(3,4,38)             109.207          estimate D2E/DX2                !
 ! A22   A(5,4,7)              110.9011         estimate D2E/DX2                !
 ! A23   A(5,4,38)             109.5335         estimate D2E/DX2                !
 ! A24   A(7,4,38)             108.634          estimate D2E/DX2                !
 ! A25   A(4,5,6)              112.7134         estimate D2E/DX2                !
 ! A26   A(4,5,39)             109.6501         estimate D2E/DX2                !
 ! A27   A(4,5,40)             111.8343         estimate D2E/DX2                !
 ! A28   A(6,5,39)             108.047          estimate D2E/DX2                !
 ! A29   A(6,5,40)             107.8635         estimate D2E/DX2                !
 ! A30   A(39,5,40)            106.4708         estimate D2E/DX2                !
 ! A31   A(1,6,5)              111.8248         estimate D2E/DX2                !
 ! A32   A(1,6,41)             109.5096         estimate D2E/DX2                !
 ! A33   A(1,6,42)             109.7111         estimate D2E/DX2                !
 ! A34   A(5,6,41)             109.4919         estimate D2E/DX2                !
 ! A35   A(5,6,42)             109.3098         estimate D2E/DX2                !
 ! A36   A(41,6,42)            106.8662         estimate D2E/DX2                !
 ! A37   A(4,7,8)              102.9317         estimate D2E/DX2                !
 ! A38   A(4,7,26)             103.3568         estimate D2E/DX2                !
 ! A39   A(8,7,26)              99.4498         estimate D2E/DX2                !
 ! A40   A(7,8,9)              120.1335         estimate D2E/DX2                !
 ! A41   A(7,8,12)             128.5158         estimate D2E/DX2                !
 ! A42   A(9,8,12)             111.3508         estimate D2E/DX2                !
 ! A43   A(8,9,10)              92.387          estimate D2E/DX2                !
 ! A44   A(9,10,11)            111.8721         estimate D2E/DX2                !
 ! A45   A(9,10,43)            120.3822         estimate D2E/DX2                !
 ! A46   A(11,10,43)           127.7426         estimate D2E/DX2                !
 ! A47   A(10,11,12)           112.7608         estimate D2E/DX2                !
 ! A48   A(10,11,44)           121.2524         estimate D2E/DX2                !
 ! A49   A(12,11,44)           125.973          estimate D2E/DX2                !
 ! A50   A(8,12,11)            111.2111         estimate D2E/DX2                !
 ! A51   A(8,12,13)            127.1431         estimate D2E/DX2                !
 ! A52   A(11,12,13)           121.624          estimate D2E/DX2                !
 ! A53   A(12,13,14)           100.4264         estimate D2E/DX2                !
 ! A54   A(12,13,20)           104.2287         estimate D2E/DX2                !
 ! A55   A(14,13,20)           104.0185         estimate D2E/DX2                !
 ! A56   A(13,14,15)           108.725          estimate D2E/DX2                !
 ! A57   A(13,14,19)           112.511          estimate D2E/DX2                !
 ! A58   A(13,14,45)           108.152          estimate D2E/DX2                !
 ! A59   A(15,14,19)           109.1834         estimate D2E/DX2                !
 ! A60   A(15,14,45)           109.0778         estimate D2E/DX2                !
 ! A61   A(19,14,45)           109.135          estimate D2E/DX2                !
 ! A62   A(14,15,16)           114.3613         estimate D2E/DX2                !
 ! A63   A(14,15,46)           109.5045         estimate D2E/DX2                !
 ! A64   A(14,15,47)           110.0183         estimate D2E/DX2                !
 ! A65   A(16,15,46)           107.0652         estimate D2E/DX2                !
 ! A66   A(16,15,47)           108.0292         estimate D2E/DX2                !
 ! A67   A(46,15,47)           107.6169         estimate D2E/DX2                !
 ! A68   A(15,16,17)           111.3711         estimate D2E/DX2                !
 ! A69   A(15,16,48)           109.4558         estimate D2E/DX2                !
 ! A70   A(15,16,49)           109.392          estimate D2E/DX2                !
 ! A71   A(17,16,48)           109.8675         estimate D2E/DX2                !
 ! A72   A(17,16,49)           109.5889         estimate D2E/DX2                !
 ! A73   A(48,16,49)           107.0657         estimate D2E/DX2                !
 ! A74   A(16,17,18)           110.0527         estimate D2E/DX2                !
 ! A75   A(16,17,50)           109.8378         estimate D2E/DX2                !
 ! A76   A(16,17,51)           110.0173         estimate D2E/DX2                !
 ! A77   A(18,17,50)           109.925          estimate D2E/DX2                !
 ! A78   A(18,17,51)           109.8445         estimate D2E/DX2                !
 ! A79   A(50,17,51)           107.1173         estimate D2E/DX2                !
 ! A80   A(17,18,19)           111.8679         estimate D2E/DX2                !
 ! A81   A(17,18,52)           109.5529         estimate D2E/DX2                !
 ! A82   A(17,18,53)           109.7563         estimate D2E/DX2                !
 ! A83   A(19,18,52)           109.2536         estimate D2E/DX2                !
 ! A84   A(19,18,53)           109.4649         estimate D2E/DX2                !
 ! A85   A(52,18,53)           106.8125         estimate D2E/DX2                !
 ! A86   A(14,19,18)           114.0359         estimate D2E/DX2                !
 ! A87   A(14,19,54)           110.3084         estimate D2E/DX2                !
 ! A88   A(14,19,55)           110.6618         estimate D2E/DX2                !
 ! A89   A(18,19,54)           104.8875         estimate D2E/DX2                !
 ! A90   A(18,19,55)           109.2645         estimate D2E/DX2                !
 ! A91   A(54,19,55)           107.3366         estimate D2E/DX2                !
 ! A92   A(13,20,21)           111.3655         estimate D2E/DX2                !
 ! A93   A(13,20,25)           109.2662         estimate D2E/DX2                !
 ! A94   A(13,20,56)           108.8847         estimate D2E/DX2                !
 ! A95   A(21,20,25)           109.6267         estimate D2E/DX2                !
 ! A96   A(21,20,56)           108.1659         estimate D2E/DX2                !
 ! A97   A(25,20,56)           109.5034         estimate D2E/DX2                !
 ! A98   A(20,21,22)           115.2172         estimate D2E/DX2                !
 ! A99   A(20,21,57)           110.417          estimate D2E/DX2                !
 ! A100  A(20,21,58)           110.3177         estimate D2E/DX2                !
 ! A101  A(22,21,57)           104.721          estimate D2E/DX2                !
 ! A102  A(22,21,58)           108.6946         estimate D2E/DX2                !
 ! A103  A(57,21,58)           107.0476         estimate D2E/DX2                !
 ! A104  A(21,22,23)           111.9163         estimate D2E/DX2                !
 ! A105  A(21,22,59)           109.4351         estimate D2E/DX2                !
 ! A106  A(21,22,60)           109.4001         estimate D2E/DX2                !
 ! A107  A(23,22,59)           109.591          estimate D2E/DX2                !
 ! A108  A(23,22,60)           109.7648         estimate D2E/DX2                !
 ! A109  A(59,22,60)           106.5886         estimate D2E/DX2                !
 ! A110  A(22,23,24)           109.5529         estimate D2E/DX2                !
 ! A111  A(22,23,61)           109.9026         estimate D2E/DX2                !
 ! A112  A(22,23,62)           109.8835         estimate D2E/DX2                !
 ! A113  A(24,23,61)           110.2702         estimate D2E/DX2                !
 ! A114  A(24,23,62)           110.1136         estimate D2E/DX2                !
 ! A115  A(61,23,62)           107.0877         estimate D2E/DX2                !
 ! A116  A(23,24,25)           111.168          estimate D2E/DX2                !
 ! A117  A(23,24,63)           109.7328         estimate D2E/DX2                !
 ! A118  A(23,24,64)           109.4009         estimate D2E/DX2                !
 ! A119  A(25,24,63)           109.9039         estimate D2E/DX2                !
 ! A120  A(25,24,64)           109.6187         estimate D2E/DX2                !
 ! A121  A(63,24,64)           106.9199         estimate D2E/DX2                !
 ! A122  A(20,25,24)           113.8426         estimate D2E/DX2                !
 ! A123  A(20,25,65)           110.9067         estimate D2E/DX2                !
 ! A124  A(20,25,66)           109.9997         estimate D2E/DX2                !
 ! A125  A(24,25,65)           107.2679         estimate D2E/DX2                !
 ! A126  A(24,25,66)           108.2061         estimate D2E/DX2                !
 ! A127  A(65,25,66)           106.2903         estimate D2E/DX2                !
 ! A128  A(7,26,27)            107.6581         estimate D2E/DX2                !
 ! A129  A(7,26,31)            113.1201         estimate D2E/DX2                !
 ! A130  A(7,26,67)            109.1934         estimate D2E/DX2                !
 ! A131  A(27,26,31)           110.3471         estimate D2E/DX2                !
 ! A132  A(27,26,67)           109.0019         estimate D2E/DX2                !
 ! A133  A(31,26,67)           107.4601         estimate D2E/DX2                !
 ! A134  A(26,27,28)           112.738          estimate D2E/DX2                !
 ! A135  A(26,27,68)           110.1133         estimate D2E/DX2                !
 ! A136  A(26,27,69)           110.1267         estimate D2E/DX2                !
 ! A137  A(28,27,68)           108.3803         estimate D2E/DX2                !
 ! A138  A(28,27,69)           108.5882         estimate D2E/DX2                !
 ! A139  A(68,27,69)           106.691          estimate D2E/DX2                !
 ! A140  A(27,28,29)           111.376          estimate D2E/DX2                !
 ! A141  A(27,28,70)           109.7832         estimate D2E/DX2                !
 ! A142  A(27,28,71)           109.3956         estimate D2E/DX2                !
 ! A143  A(29,28,70)           109.6678         estimate D2E/DX2                !
 ! A144  A(29,28,71)           109.4764         estimate D2E/DX2                !
 ! A145  A(70,28,71)           107.0411         estimate D2E/DX2                !
 ! A146  A(28,29,30)           110.4454         estimate D2E/DX2                !
 ! A147  A(28,29,72)           109.9668         estimate D2E/DX2                !
 ! A148  A(28,29,73)           109.9117         estimate D2E/DX2                !
 ! A149  A(30,29,72)           109.7307         estimate D2E/DX2                !
 ! A150  A(30,29,73)           109.6906         estimate D2E/DX2                !
 ! A151  A(72,29,73)           107.0325         estimate D2E/DX2                !
 ! A152  A(29,30,31)           111.8644         estimate D2E/DX2                !
 ! A153  A(29,30,74)           109.5586         estimate D2E/DX2                !
 ! A154  A(29,30,75)           109.7228         estimate D2E/DX2                !
 ! A155  A(31,30,74)           109.3897         estimate D2E/DX2                !
 ! A156  A(31,30,75)           109.4347         estimate D2E/DX2                !
 ! A157  A(74,30,75)           106.7352         estimate D2E/DX2                !
 ! A158  A(26,31,30)           114.0454         estimate D2E/DX2                !
 ! A159  A(26,31,76)           109.3277         estimate D2E/DX2                !
 ! A160  A(26,31,77)           110.4585         estimate D2E/DX2                !
 ! A161  A(30,31,76)           106.2363         estimate D2E/DX2                !
 ! A162  A(30,31,77)           108.5075         estimate D2E/DX2                !
 ! A163  A(76,31,77)           108.0276         estimate D2E/DX2                !
 ! D1    D(6,1,2,3)            -54.7627         estimate D2E/DX2                !
 ! D2    D(6,1,2,34)          -176.2543         estimate D2E/DX2                !
 ! D3    D(6,1,2,35)            66.7497         estimate D2E/DX2                !
 ! D4    D(32,1,2,3)          -176.7013         estimate D2E/DX2                !
 ! D5    D(32,1,2,34)           61.807          estimate D2E/DX2                !
 ! D6    D(32,1,2,35)          -55.189          estimate D2E/DX2                !
 ! D7    D(33,1,2,3)            66.0995         estimate D2E/DX2                !
 ! D8    D(33,1,2,34)          -55.3922         estimate D2E/DX2                !
 ! D9    D(33,1,2,35)         -172.3882         estimate D2E/DX2                !
 ! D10   D(2,1,6,5)             53.2747         estimate D2E/DX2                !
 ! D11   D(2,1,6,41)           174.8233         estimate D2E/DX2                !
 ! D12   D(2,1,6,42)           -68.1821         estimate D2E/DX2                !
 ! D13   D(32,1,6,5)           175.2128         estimate D2E/DX2                !
 ! D14   D(32,1,6,41)          -63.2387         estimate D2E/DX2                !
 ! D15   D(32,1,6,42)           53.7559         estimate D2E/DX2                !
 ! D16   D(33,1,6,5)           -67.5102         estimate D2E/DX2                !
 ! D17   D(33,1,6,41)           54.0384         estimate D2E/DX2                !
 ! D18   D(33,1,6,42)          171.033          estimate D2E/DX2                !
 ! D19   D(1,2,3,4)             59.0347         estimate D2E/DX2                !
 ! D20   D(1,2,3,36)           -63.0651         estimate D2E/DX2                !
 ! D21   D(1,2,3,37)          -176.9643         estimate D2E/DX2                !
 ! D22   D(34,2,3,4)          -179.5549         estimate D2E/DX2                !
 ! D23   D(34,2,3,36)           58.3453         estimate D2E/DX2                !
 ! D24   D(34,2,3,37)          -55.5539         estimate D2E/DX2                !
 ! D25   D(35,2,3,4)           -62.4898         estimate D2E/DX2                !
 ! D26   D(35,2,3,36)          175.4104         estimate D2E/DX2                !
 ! D27   D(35,2,3,37)           61.5111         estimate D2E/DX2                !
 ! D28   D(2,3,4,5)            -58.1868         estimate D2E/DX2                !
 ! D29   D(2,3,4,7)           -179.608          estimate D2E/DX2                !
 ! D30   D(2,3,4,38)            60.0721         estimate D2E/DX2                !
 ! D31   D(36,3,4,5)            63.3477         estimate D2E/DX2                !
 ! D32   D(36,3,4,7)           -58.0735         estimate D2E/DX2                !
 ! D33   D(36,3,4,38)         -178.3934         estimate D2E/DX2                !
 ! D34   D(37,3,4,5)          -178.8456         estimate D2E/DX2                !
 ! D35   D(37,3,4,7)            59.7332         estimate D2E/DX2                !
 ! D36   D(37,3,4,38)          -60.5868         estimate D2E/DX2                !
 ! D37   D(3,4,5,6)             56.9282         estimate D2E/DX2                !
 ! D38   D(3,4,5,39)           -63.4744         estimate D2E/DX2                !
 ! D39   D(3,4,5,40)           178.6605         estimate D2E/DX2                !
 ! D40   D(7,4,5,6)            178.9897         estimate D2E/DX2                !
 ! D41   D(7,4,5,39)            58.5871         estimate D2E/DX2                !
 ! D42   D(7,4,5,40)           -59.278          estimate D2E/DX2                !
 ! D43   D(38,4,5,6)           -61.1162         estimate D2E/DX2                !
 ! D44   D(38,4,5,39)          178.4812         estimate D2E/DX2                !
 ! D45   D(38,4,5,40)           60.6161         estimate D2E/DX2                !
 ! D46   D(3,4,7,8)            175.1464         estimate D2E/DX2                !
 ! D47   D(3,4,7,26)           -81.6943         estimate D2E/DX2                !
 ! D48   D(5,4,7,8)             56.2296         estimate D2E/DX2                !
 ! D49   D(5,4,7,26)           159.3888         estimate D2E/DX2                !
 ! D50   D(38,4,7,8)           -64.2            estimate D2E/DX2                !
 ! D51   D(38,4,7,26)           38.9592         estimate D2E/DX2                !
 ! D52   D(4,5,6,1)            -56.1767         estimate D2E/DX2                !
 ! D53   D(4,5,6,41)          -177.7355         estimate D2E/DX2                !
 ! D54   D(4,5,6,42)            65.5115         estimate D2E/DX2                !
 ! D55   D(39,5,6,1)            65.1418         estimate D2E/DX2                !
 ! D56   D(39,5,6,41)          -56.4169         estimate D2E/DX2                !
 ! D57   D(39,5,6,42)         -173.17           estimate D2E/DX2                !
 ! D58   D(40,5,6,1)           179.8698         estimate D2E/DX2                !
 ! D59   D(40,5,6,41)           58.3111         estimate D2E/DX2                !
 ! D60   D(40,5,6,42)          -58.4419         estimate D2E/DX2                !
 ! D61   D(4,7,8,9)             41.7435         estimate D2E/DX2                !
 ! D62   D(4,7,8,12)          -138.209          estimate D2E/DX2                !
 ! D63   D(26,7,8,9)           -64.4274         estimate D2E/DX2                !
 ! D64   D(26,7,8,12)          115.62           estimate D2E/DX2                !
 ! D65   D(4,7,26,27)          176.3896         estimate D2E/DX2                !
 ! D66   D(4,7,26,31)           54.203          estimate D2E/DX2                !
 ! D67   D(4,7,26,67)          -65.4056         estimate D2E/DX2                !
 ! D68   D(8,7,26,27)          -77.7858         estimate D2E/DX2                !
 ! D69   D(8,7,26,31)          160.0276         estimate D2E/DX2                !
 ! D70   D(8,7,26,67)           40.4191         estimate D2E/DX2                !
 ! D71   D(7,8,9,10)          -174.2785         estimate D2E/DX2                !
 ! D72   D(12,8,9,10)            5.6816         estimate D2E/DX2                !
 ! D73   D(7,8,12,11)          173.011          estimate D2E/DX2                !
 ! D74   D(7,8,12,13)           -5.2987         estimate D2E/DX2                !
 ! D75   D(9,8,12,11)           -6.945          estimate D2E/DX2                !
 ! D76   D(9,8,12,13)          174.7454         estimate D2E/DX2                !
 ! D77   D(8,9,10,11)           -2.8328         estimate D2E/DX2                !
 ! D78   D(8,9,10,43)          177.7571         estimate D2E/DX2                !
 ! D79   D(9,10,11,12)          -0.6677         estimate D2E/DX2                !
 ! D80   D(9,10,11,44)        -179.3936         estimate D2E/DX2                !
 ! D81   D(43,10,11,12)        178.6887         estimate D2E/DX2                !
 ! D82   D(43,10,11,44)         -0.0372         estimate D2E/DX2                !
 ! D83   D(10,11,12,8)           4.9407         estimate D2E/DX2                !
 ! D84   D(10,11,12,13)       -176.6417         estimate D2E/DX2                !
 ! D85   D(44,11,12,8)        -176.4053         estimate D2E/DX2                !
 ! D86   D(44,11,12,13)          2.0124         estimate D2E/DX2                !
 ! D87   D(8,12,13,14)          95.8192         estimate D2E/DX2                !
 ! D88   D(8,12,13,20)        -156.6777         estimate D2E/DX2                !
 ! D89   D(11,12,13,14)        -82.3301         estimate D2E/DX2                !
 ! D90   D(11,12,13,20)         25.173          estimate D2E/DX2                !
 ! D91   D(12,13,14,15)        -61.1987         estimate D2E/DX2                !
 ! D92   D(12,13,14,19)        177.7333         estimate D2E/DX2                !
 ! D93   D(12,13,14,45)         57.1167         estimate D2E/DX2                !
 ! D94   D(20,13,14,15)       -168.8687         estimate D2E/DX2                !
 ! D95   D(20,13,14,19)         70.0633         estimate D2E/DX2                !
 ! D96   D(20,13,14,45)        -50.5532         estimate D2E/DX2                !
 ! D97   D(12,13,20,21)       -178.656          estimate D2E/DX2                !
 ! D98   D(12,13,20,25)         60.0913         estimate D2E/DX2                !
 ! D99   D(12,13,20,56)        -59.4702         estimate D2E/DX2                !
 ! D100  D(14,13,20,21)        -73.8385         estimate D2E/DX2                !
 ! D101  D(14,13,20,25)        164.9088         estimate D2E/DX2                !
 ! D102  D(14,13,20,56)         45.3473         estimate D2E/DX2                !
 ! D103  D(13,14,15,16)       -172.8862         estimate D2E/DX2                !
 ! D104  D(13,14,15,46)         66.9721         estimate D2E/DX2                !
 ! D105  D(13,14,15,47)        -51.1121         estimate D2E/DX2                !
 ! D106  D(19,14,15,16)        -49.7961         estimate D2E/DX2                !
 ! D107  D(19,14,15,46)       -169.9378         estimate D2E/DX2                !
 ! D108  D(19,14,15,47)         71.9779         estimate D2E/DX2                !
 ! D109  D(45,14,15,16)         69.3843         estimate D2E/DX2                !
 ! D110  D(45,14,15,46)        -50.7575         estimate D2E/DX2                !
 ! D111  D(45,14,15,47)       -168.8417         estimate D2E/DX2                !
 ! D112  D(13,14,19,18)        170.1529         estimate D2E/DX2                !
 ! D113  D(13,14,19,54)        -72.1364         estimate D2E/DX2                !
 ! D114  D(13,14,19,55)         46.4926         estimate D2E/DX2                !
 ! D115  D(15,14,19,18)         49.3476         estimate D2E/DX2                !
 ! D116  D(15,14,19,54)        167.0583         estimate D2E/DX2                !
 ! D117  D(15,14,19,55)        -74.3127         estimate D2E/DX2                !
 ! D118  D(45,14,19,18)        -69.7973         estimate D2E/DX2                !
 ! D119  D(45,14,19,54)         47.9134         estimate D2E/DX2                !
 ! D120  D(45,14,19,55)        166.5424         estimate D2E/DX2                !
 ! D121  D(14,15,16,17)         54.9295         estimate D2E/DX2                !
 ! D122  D(14,15,16,48)        -66.757          estimate D2E/DX2                !
 ! D123  D(14,15,16,49)        176.2229         estimate D2E/DX2                !
 ! D124  D(46,15,16,17)        176.4226         estimate D2E/DX2                !
 ! D125  D(46,15,16,48)         54.736          estimate D2E/DX2                !
 ! D126  D(46,15,16,49)        -62.2841         estimate D2E/DX2                !
 ! D127  D(47,15,16,17)        -67.9287         estimate D2E/DX2                !
 ! D128  D(47,15,16,48)        170.3847         estimate D2E/DX2                !
 ! D129  D(47,15,16,49)         53.3646         estimate D2E/DX2                !
 ! D130  D(15,16,17,18)        -56.6003         estimate D2E/DX2                !
 ! D131  D(15,16,17,50)       -177.7552         estimate D2E/DX2                !
 ! D132  D(15,16,17,51)         64.5703         estimate D2E/DX2                !
 ! D133  D(48,16,17,18)         64.8468         estimate D2E/DX2                !
 ! D134  D(48,16,17,50)        -56.3081         estimate D2E/DX2                !
 ! D135  D(48,16,17,51)       -173.9826         estimate D2E/DX2                !
 ! D136  D(49,16,17,18)       -177.7787         estimate D2E/DX2                !
 ! D137  D(49,16,17,50)         61.0664         estimate D2E/DX2                !
 ! D138  D(49,16,17,51)        -56.6081         estimate D2E/DX2                !
 ! D139  D(16,17,18,19)         56.616          estimate D2E/DX2                !
 ! D140  D(16,17,18,52)        -64.6895         estimate D2E/DX2                !
 ! D141  D(16,17,18,53)        178.3294         estimate D2E/DX2                !
 ! D142  D(50,17,18,19)        177.7187         estimate D2E/DX2                !
 ! D143  D(50,17,18,52)         56.4132         estimate D2E/DX2                !
 ! D144  D(50,17,18,53)        -60.5679         estimate D2E/DX2                !
 ! D145  D(51,17,18,19)        -64.6579         estimate D2E/DX2                !
 ! D146  D(51,17,18,52)        174.0365         estimate D2E/DX2                !
 ! D147  D(51,17,18,53)         57.0554         estimate D2E/DX2                !
 ! D148  D(17,18,19,14)        -54.6027         estimate D2E/DX2                !
 ! D149  D(17,18,19,54)       -175.3856         estimate D2E/DX2                !
 ! D150  D(17,18,19,55)         69.8091         estimate D2E/DX2                !
 ! D151  D(52,18,19,14)         66.8756         estimate D2E/DX2                !
 ! D152  D(52,18,19,54)        -53.9073         estimate D2E/DX2                !
 ! D153  D(52,18,19,55)       -168.7126         estimate D2E/DX2                !
 ! D154  D(53,18,19,14)       -176.4835         estimate D2E/DX2                !
 ! D155  D(53,18,19,54)         62.7336         estimate D2E/DX2                !
 ! D156  D(53,18,19,55)        -52.0717         estimate D2E/DX2                !
 ! D157  D(13,20,21,22)       -167.2088         estimate D2E/DX2                !
 ! D158  D(13,20,21,57)         74.4315         estimate D2E/DX2                !
 ! D159  D(13,20,21,58)        -43.6934         estimate D2E/DX2                !
 ! D160  D(25,20,21,22)        -46.1668         estimate D2E/DX2                !
 ! D161  D(25,20,21,57)       -164.5265         estimate D2E/DX2                !
 ! D162  D(25,20,21,58)         77.3486         estimate D2E/DX2                !
 ! D163  D(56,20,21,22)         73.1779         estimate D2E/DX2                !
 ! D164  D(56,20,21,57)        -45.1818         estimate D2E/DX2                !
 ! D165  D(56,20,21,58)       -163.3068         estimate D2E/DX2                !
 ! D166  D(13,20,25,24)        170.2547         estimate D2E/DX2                !
 ! D167  D(13,20,25,65)        -68.6657         estimate D2E/DX2                !
 ! D168  D(13,20,25,66)         48.6296         estimate D2E/DX2                !
 ! D169  D(21,20,25,24)         47.9527         estimate D2E/DX2                !
 ! D170  D(21,20,25,65)        169.0323         estimate D2E/DX2                !
 ! D171  D(21,20,25,66)        -73.6724         estimate D2E/DX2                !
 ! D172  D(56,20,25,24)        -70.5665         estimate D2E/DX2                !
 ! D173  D(56,20,25,65)         50.5131         estimate D2E/DX2                !
 ! D174  D(56,20,25,66)        167.8084         estimate D2E/DX2                !
 ! D175  D(20,21,22,23)         52.3663         estimate D2E/DX2                !
 ! D176  D(20,21,22,59)        -69.3168         estimate D2E/DX2                !
 ! D177  D(20,21,22,60)        174.2452         estimate D2E/DX2                !
 ! D178  D(57,21,22,23)        173.8607         estimate D2E/DX2                !
 ! D179  D(57,21,22,59)         52.1777         estimate D2E/DX2                !
 ! D180  D(57,21,22,60)        -64.2603         estimate D2E/DX2                !
 ! D181  D(58,21,22,23)        -72.0033         estimate D2E/DX2                !
 ! D182  D(58,21,22,59)        166.3136         estimate D2E/DX2                !
 ! D183  D(58,21,22,60)         49.8756         estimate D2E/DX2                !
 ! D184  D(21,22,23,24)        -57.1399         estimate D2E/DX2                !
 ! D185  D(21,22,23,61)       -178.4445         estimate D2E/DX2                !
 ! D186  D(21,22,23,62)         63.9585         estimate D2E/DX2                !
 ! D187  D(59,22,23,24)         64.4535         estimate D2E/DX2                !
 ! D188  D(59,22,23,61)        -56.851          estimate D2E/DX2                !
 ! D189  D(59,22,23,62)       -174.4481         estimate D2E/DX2                !
 ! D190  D(60,22,23,24)       -178.8094         estimate D2E/DX2                !
 ! D191  D(60,22,23,61)         59.8861         estimate D2E/DX2                !
 ! D192  D(60,22,23,62)        -57.711          estimate D2E/DX2                !
 ! D193  D(22,23,24,25)         59.2708         estimate D2E/DX2                !
 ! D194  D(22,23,24,63)        -62.5154         estimate D2E/DX2                !
 ! D195  D(22,23,24,64)       -179.5242         estimate D2E/DX2                !
 ! D196  D(61,23,24,25)       -179.6467         estimate D2E/DX2                !
 ! D197  D(61,23,24,63)         58.567          estimate D2E/DX2                !
 ! D198  D(61,23,24,64)        -58.4418         estimate D2E/DX2                !
 ! D199  D(62,23,24,25)        -61.6884         estimate D2E/DX2                !
 ! D200  D(62,23,24,63)        176.5254         estimate D2E/DX2                !
 ! D201  D(62,23,24,64)         59.5165         estimate D2E/DX2                !
 ! D202  D(23,24,25,20)        -56.246          estimate D2E/DX2                !
 ! D203  D(23,24,25,65)       -179.3345         estimate D2E/DX2                !
 ! D204  D(23,24,25,66)         66.3687         estimate D2E/DX2                !
 ! D205  D(63,24,25,20)         65.4405         estimate D2E/DX2                !
 ! D206  D(63,24,25,65)        -57.648          estimate D2E/DX2                !
 ! D207  D(63,24,25,66)       -171.9448         estimate D2E/DX2                !
 ! D208  D(64,24,25,20)       -177.3232         estimate D2E/DX2                !
 ! D209  D(64,24,25,65)         59.5883         estimate D2E/DX2                !
 ! D210  D(64,24,25,66)        -54.7086         estimate D2E/DX2                !
 ! D211  D(7,26,27,28)        -174.5021         estimate D2E/DX2                !
 ! D212  D(7,26,27,68)          64.3284         estimate D2E/DX2                !
 ! D213  D(7,26,27,69)         -53.0563         estimate D2E/DX2                !
 ! D214  D(31,26,27,28)        -50.6155         estimate D2E/DX2                !
 ! D215  D(31,26,27,68)       -171.785          estimate D2E/DX2                !
 ! D216  D(31,26,27,69)         70.8303         estimate D2E/DX2                !
 ! D217  D(67,26,27,28)         67.1698         estimate D2E/DX2                !
 ! D218  D(67,26,27,68)        -53.9998         estimate D2E/DX2                !
 ! D219  D(67,26,27,69)       -171.3845         estimate D2E/DX2                !
 ! D220  D(7,26,31,30)         169.9361         estimate D2E/DX2                !
 ! D221  D(7,26,31,76)         -71.3167         estimate D2E/DX2                !
 ! D222  D(7,26,31,77)          47.4263         estimate D2E/DX2                !
 ! D223  D(27,26,31,30)         49.2651         estimate D2E/DX2                !
 ! D224  D(27,26,31,76)        168.0122         estimate D2E/DX2                !
 ! D225  D(27,26,31,77)        -73.2447         estimate D2E/DX2                !
 ! D226  D(67,26,31,30)        -69.465          estimate D2E/DX2                !
 ! D227  D(67,26,31,76)         49.2821         estimate D2E/DX2                !
 ! D228  D(67,26,31,77)        168.0252         estimate D2E/DX2                !
 ! D229  D(26,27,28,29)         55.8562         estimate D2E/DX2                !
 ! D230  D(26,27,28,70)        -65.8044         estimate D2E/DX2                !
 ! D231  D(26,27,28,71)        177.0139         estimate D2E/DX2                !
 ! D232  D(68,27,28,29)        178.007          estimate D2E/DX2                !
 ! D233  D(68,27,28,70)         56.3465         estimate D2E/DX2                !
 ! D234  D(68,27,28,71)        -60.8352         estimate D2E/DX2                !
 ! D235  D(69,27,28,29)        -66.4586         estimate D2E/DX2                !
 ! D236  D(69,27,28,70)        171.8808         estimate D2E/DX2                !
 ! D237  D(69,27,28,71)         54.6991         estimate D2E/DX2                !
 ! D238  D(27,28,29,30)        -57.5495         estimate D2E/DX2                !
 ! D239  D(27,28,29,72)       -178.8001         estimate D2E/DX2                !
 ! D240  D(27,28,29,73)         63.6149         estimate D2E/DX2                !
 ! D241  D(70,28,29,30)         64.1781         estimate D2E/DX2                !
 ! D242  D(70,28,29,72)        -57.0725         estimate D2E/DX2                !
 ! D243  D(70,28,29,73)       -174.6575         estimate D2E/DX2                !
 ! D244  D(71,28,29,30)       -178.66           estimate D2E/DX2                !
 ! D245  D(71,28,29,72)         60.0894         estimate D2E/DX2                !
 ! D246  D(71,28,29,73)        -57.4956         estimate D2E/DX2                !
 ! D247  D(28,29,30,31)         55.7468         estimate D2E/DX2                !
 ! D248  D(28,29,30,74)        -65.7324         estimate D2E/DX2                !
 ! D249  D(28,29,30,75)        177.3962         estimate D2E/DX2                !
 ! D250  D(72,29,30,31)        177.1375         estimate D2E/DX2                !
 ! D251  D(72,29,30,74)         55.6583         estimate D2E/DX2                !
 ! D252  D(72,29,30,75)        -61.2131         estimate D2E/DX2                !
 ! D253  D(73,29,30,31)        -65.5489         estimate D2E/DX2                !
 ! D254  D(73,29,30,74)        172.9719         estimate D2E/DX2                !
 ! D255  D(73,29,30,75)         56.1005         estimate D2E/DX2                !
 ! D256  D(29,30,31,26)        -52.8844         estimate D2E/DX2                !
 ! D257  D(29,30,31,76)       -173.3757         estimate D2E/DX2                !
 ! D258  D(29,30,31,77)         70.6866         estimate D2E/DX2                !
 ! D259  D(74,30,31,26)         68.6921         estimate D2E/DX2                !
 ! D260  D(74,30,31,76)        -51.7992         estimate D2E/DX2                !
 ! D261  D(74,30,31,77)       -167.7369         estimate D2E/DX2                !
 ! D262  D(75,30,31,26)       -174.6995         estimate D2E/DX2                !
 ! D263  D(75,30,31,76)         64.8091         estimate D2E/DX2                !
 ! D264  D(75,30,31,77)        -51.1285         estimate D2E/DX2                !
 --------------------------------------------------------------------------------
 Trust Radius=3.00D-01 FncErr=1.00D-07 GrdErr=1.00D-06
 Number of steps in this run= 462 maximum allowed number of steps= 462.
 GradGradGradGradGradGradGradGradGradGradGradGradGradGradGradGradGradGrad

 Leave Link  103 at Fri Oct  1 23:22:30 2021, MaxMem= 3221225472 cpu:       0.0
 (Enter /sw/target/amd/app/gaussian/Gaussian09RevA.02_gcc-4.9.2/g09/l202.exe)
 Stoichiometry    C28H46P2S
 Framework group  C1[X(C28H46P2S)]
 Deg. of freedom   225
 Full point group                 C1      NOp   1
 Largest Abelian subgroup         C1      NOp   1
 Largest concise Abelian subgroup C1      NOp   1
                         Standard orientation:                         
 ---------------------------------------------------------------------
 Center     Atomic      Atomic             Coordinates (Angstroms)
 Number     Number       Type             X           Y           Z
 ---------------------------------------------------------------------
      1          6           0       -5.090064    2.914829    0.400031
      2          6           0       -5.475408    1.578199   -0.216112
      3          6           0       -4.250093    0.848001   -0.772734
      4          6           0       -3.191995    0.583458    0.324434
      5          6           0       -2.805494    1.965330    0.909733
      6          6           0       -4.010738    2.733958    1.455018
      7         15           0       -1.665510   -0.311422   -0.364344
      8          6           0       -0.527233   -0.362407    1.086483
      9         16           0       -1.139972   -0.726797    2.653108
     10          6           0        0.362476   -0.423267    3.389150
     11          6           0        1.332874   -0.112562    2.464398
     12          6           0        0.844001   -0.136660    1.119277
     13         15           0        1.951985    0.151022   -0.310573
     14          6           0        2.003388    2.052310   -0.329152
     15          6           0        0.572509    2.584549   -0.558332
     16          6           0        0.488286    4.092199   -0.766464
     17          6           0        1.390443    4.545342   -1.899885
     18          6           0        2.819294    4.115721   -1.630535
     19          6           0        2.930478    2.605945   -1.425547
     20          6           0        3.688162   -0.354486    0.329146
     21          6           0        4.771255   -0.141853   -0.753466
     22          6           0        6.122728   -0.791514   -0.458806
     23          6           0        5.982063   -2.262317   -0.123620
     24          6           0        5.045044   -2.426473    1.060087
     25          6           0        3.662553   -1.846627    0.754881
     26          6           0       -2.204596   -2.133442   -0.402173
     27          6           0       -1.053786   -2.950799   -1.040193
     28          6           0       -1.418498   -4.418245   -1.250777
     29          6           0       -2.681845   -4.561256   -2.086191
     30          6           0       -3.839132   -3.829302   -1.427881
     31          6           0       -3.512075   -2.359415   -1.174819
     32          1           0       -5.971092    3.391537    0.842800
     33          1           0       -4.724535    3.586251   -0.386552
     34          1           0       -6.204695    1.740697   -1.018504
     35          1           0       -5.966714    0.951793    0.538519
     36          1           0       -3.812601    1.444831   -1.583830
     37          1           0       -4.609845   -0.065471   -1.241341
     38          1           0       -3.636376   -0.037200    1.112170
     39          1           0       -2.336302    2.577709    0.130428
     40          1           0       -2.071460    1.874713    1.717364
     41          1           0       -3.684743    3.716270    1.817629
     42          1           0       -4.423313    2.196825    2.318234
     43          1           0        0.469951   -0.495043    4.462390
     44          1           0        2.349464    0.098700    2.767212
     45          1           0        2.360421    2.394026    0.649865
     46          1           0       -0.048085    2.345547    0.306922
     47          1           0        0.125121    2.095152   -1.433526
     48          1           0        0.768783    4.604787    0.160384
     49          1           0       -0.548857    4.371881   -0.987747
     50          1           0        1.341081    5.634725   -2.001370
     51          1           0        1.045204    4.116578   -2.849103
     52          1           0        3.195472    4.630709   -0.737788
     53          1           0        3.460711    4.418996   -2.465138
     54          1           0        3.970924    2.435908   -1.161103
     55          1           0        2.748272    2.096497   -2.380395
     56          1           0        3.942812    0.268712    1.194440
     57          1           0        4.991727    0.914137   -0.865829
     58          1           0        4.413032   -0.501028   -1.726546
     59          1           0        6.605377   -0.267858    0.377163
     60          1           0        6.781145   -0.670529   -1.325439
     61          1           0        6.964945   -2.687716    0.108377
     62          1           0        5.591833   -2.807224   -0.992047
     63          1           0        5.471501   -1.931369    1.941641
     64          1           0        4.951784   -3.490301    1.305704
     65          1           0        3.047156   -1.987147    1.648048
     66          1           0        3.202555   -2.454316   -0.034586
     67          1           0       -2.364407   -2.483235    0.623948
     68          1           0       -0.159688   -2.904014   -0.404280
     69          1           0       -0.775477   -2.518560   -2.005933
     70          1           0       -1.560407   -4.908353   -0.280241
     71          1           0       -0.589183   -4.931232   -1.751508
     72          1           0       -2.933941   -5.620894   -2.204893
     73          1           0       -2.512610   -4.156568   -3.091841
     74          1           0       -4.088160   -4.316167   -0.476442
     75          1           0       -4.730636   -3.900714   -2.061863
     76          1           0       -4.349038   -1.954738   -0.596844
     77          1           0       -3.482273   -1.837876   -2.140224
 ---------------------------------------------------------------------
 Rotational constants (GHZ):      0.1415370      0.0880001      0.0674856
 Leave Link  202 at Fri Oct  1 23:22:30 2021, MaxMem= 3221225472 cpu:       0.2
 (Enter /sw/target/amd/app/gaussian/Gaussian09RevA.02_gcc-4.9.2/g09/l301.exe)
 Standard basis: 6-31G(d) (6D, 7F)
 Ernie: Thresh=  0.10000D-02 Tol=  0.10000D-05 Strict=F.
 There are   569 symmetry adapted basis functions of A   symmetry.
 Integral buffers will be    131072 words long.
 Raffenetti 2 integral format.
 Two-electron integral symmetry is turned on.
   569 basis functions,  1124 primitive gaussians,   569 cartesian basis functions
   130 alpha electrons      130 beta electrons
       nuclear repulsion energy      3945.9272959526 Hartrees.
 IExCor=  402 DFT=T Ex+Corr=B3LYP ExCW=0 ScaHFX=  0.200000
 ScaDFX=  0.800000  0.720000  1.000000  0.810000 ScalE2=  1.000000  1.000000
 IRadAn=      0 IRanWt=     -1 IRanGd=            0 ICorTp=0
 NAtoms=   77 NActive=   77 NUniq=   77 SFac= 7.50D-01 NAtFMM=   80 NAOKFM=F Big=T
 Leave Link  301 at Fri Oct  1 23:22:31 2021, MaxMem= 3221225472 cpu:       0.1
 (Enter /sw/target/amd/app/gaussian/Gaussian09RevA.02_gcc-4.9.2/g09/l302.exe)
 NPDir=0 NMtPBC=     1 NCelOv=     1 NCel=       1 NClECP=     1 NCelD=      1
         NCelK=      1 NCelE2=     1 NClLst=     1 CellRange=     0.0.
 One-electron integrals computed using PRISM.
 NBasis=   569 RedAO= T  NBF=   569
 NBsUse=   569 1.00D-06 NBFU=   569
 Precomputing XC quadrature grid using
 IXCGrd= 2 IRadAn=           0 IRanWt=          -1 IRanGd=           0 AccXCQ= 1.00D-10.
 NRdTot=    4933 NPtTot=      629386 NUsed=      664931 NTot=      664963
 NSgBfM=   550   552   553   553   553 NAtAll=    77    77.
 Leave Link  302 at Fri Oct  1 23:22:52 2021, MaxMem= 3221225472 cpu:      15.7
 (Enter /sw/target/amd/app/gaussian/Gaussian09RevA.02_gcc-4.9.2/g09/l303.exe)
 DipDrv:  MaxL=1.
 Leave Link  303 at Fri Oct  1 23:22:54 2021, MaxMem= 3221225472 cpu:       0.6
 (Enter /sw/target/amd/app/gaussian/Gaussian09RevA.02_gcc-4.9.2/g09/l401.exe)
 Harris functional with IExCor=  402 diagonalized for initial guess.
 ExpMin= 9.98D-02 ExpMax= 2.19D+04 ExpMxC= 3.30D+03 IAcc=2 IRadAn=         0 AccDes= 0.00D+00
 HarFok:  IExCor=  402 AccDes= 0.00D+00 IRadAn=         0 IDoV= 1
 ScaDFX=  1.000000  1.000000  1.000000  1.000000
 FoFCou: FMM=F IPFlag=           0 FMFlag=      100000 FMFlg1=           1
         NFxFlg=           0 DoJE=T BraDBF=F KetDBF=T FulRan=T
         Omega=  0.000000  0.000000  1.000000  0.000000  0.000000 ICntrl=     500 IOpCl=  0
         NMat0=    1 NMatS0=    1 NMatT0=    0 NMatD0=    1 NMtDS0=    0 NMtDT0=    0
         I1Cent=           4 NGrid=           0.
 Petite list used in FoFCou.
 Harris En= -2175.84343318464    
 Initial guess orbital symmetries:
       Occupied  (A) (A) (A) (A) (A) (A) (A) (A) (A) (A) (A) (A)
                 (A) (A) (A) (A) (A) (A) (A) (A) (A) (A) (A) (A)
                 (A) (A) (A) (A) (A) (A) (A) (A) (A) (A) (A) (A)
                 (A) (A) (A) (A) (A) (A) (A) (A) (A) (A) (A) (A)
                 (A) (A) (A) (A) (A) (A) (A) (A) (A) (A) (A) (A)
                 (A) (A) (A) (A) (A) (A) (A) (A) (A) (A) (A) (A)
                 (A) (A) (A) (A) (A) (A) (A) (A) (A) (A) (A) (A)
                 (A) (A) (A) (A) (A) (A) (A) (A) (A) (A) (A) (A)
                 (A) (A) (A) (A) (A) (A) (A) (A) (A) (A) (A) (A)
                 (A) (A) (A) (A) (A) (A) (A) (A) (A) (A) (A) (A)
                 (A) (A) (A) (A) (A) (A) (A) (A) (A) (A)
       Virtual   (A) (A) (A) (A) (A) (A) (A) (A) (A) (A) (A) (A)
                 (A) (A) (A) (A) (A) (A) (A) (A) (A) (A) (A) (A)
                 (A) (A) (A) (A) (A) (A) (A) (A) (A) (A) (A) (A)
                 (A) (A) (A) (A) (A) (A) (A) (A) (A) (A) (A) (A)
                 (A) (A) (A) (A) (A) (A) (A) (A) (A) (A) (A) (A)
                 (A) (A) (A) (A) (A) (A) (A) (A) (A) (A) (A) (A)
                 (A) (A) (A) (A) (A) (A) (A) (A) (A) (A) (A) (A)
                 (A) (A) (A) (A) (A) (A) (A) (A) (A) (A) (A) (A)
                 (A) (A) (A) (A) (A) (A) (A) (A) (A) (A) (A) (A)
                 (A) (A) (A) (A) (A) (A) (A) (A) (A) (A) (A) (A)
                 (A) (A) (A) (A) (A) (A) (A) (A) (A) (A) (A) (A)
                 (A) (A) (A) (A) (A) (A) (A) (A) (A) (A) (A) (A)
                 (A) (A) (A) (A) (A) (A) (A) (A) (A) (A) (A) (A)
                 (A) (A) (A) (A) (A) (A) (A) (A) (A) (A) (A) (A)
                 (A) (A) (A) (A) (A) (A) (A) (A) (A) (A) (A) (A)
                 (A) (A) (A) (A) (A) (A) (A) (A) (A) (A) (A) (A)
                 (A) (A) (A) (A) (A) (A) (A) (A) (A) (A) (A) (A)
                 (A) (A) (A) (A) (A) (A) (A) (A) (A) (A) (A) (A)
                 (A) (A) (A) (A) (A) (A) (A) (A) (A) (A) (A) (A)
                 (A) (A) (A) (A) (A) (A) (A) (A) (A) (A) (A) (A)
                 (A) (A) (A) (A) (A) (A) (A) (A) (A) (A) (A) (A)
                 (A) (A) (A) (A) (A) (A) (A) (A) (A) (A) (A) (A)
                 (A) (A) (A) (A) (A) (A) (A) (A) (A) (A) (A) (A)
                 (A) (A) (A) (A) (A) (A) (A) (A) (A) (A) (A) (A)
                 (A) (A) (A) (A) (A) (A) (A) (A) (A) (A) (A) (A)
                 (A) (A) (A) (A) (A) (A) (A) (A) (A) (A) (A) (A)
                 (A) (A) (A) (A) (A) (A) (A) (A) (A) (A) (A) (A)
                 (A) (A) (A) (A) (A) (A) (A) (A) (A) (A) (A) (A)
                 (A) (A) (A) (A) (A) (A) (A) (A) (A) (A) (A) (A)
                 (A) (A) (A) (A) (A) (A) (A) (A) (A) (A) (A) (A)
                 (A) (A) (A) (A) (A) (A) (A) (A) (A) (A) (A) (A)
                 (A) (A) (A) (A) (A) (A) (A) (A) (A) (A) (A) (A)
                 (A) (A) (A) (A) (A) (A) (A) (A) (A) (A) (A) (A)
                 (A) (A) (A) (A) (A) (A) (A) (A) (A) (A) (A) (A)
                 (A) (A) (A) (A) (A) (A) (A) (A) (A) (A) (A) (A)
                 (A) (A) (A) (A) (A) (A) (A) (A) (A) (A) (A) (A)
                 (A) (A) (A) (A) (A) (A) (A)
 The electronic state of the initial guess is 1-A.
 Leave Link  401 at Fri Oct  1 23:24:30 2021, MaxMem= 3221225472 cpu:     122.1
 (Enter /sw/target/amd/app/gaussian/Gaussian09RevA.02_gcc-4.9.2/g09/l502.exe)
 Closed shell SCF:
 Requested convergence on RMS density matrix=1.00D-08 within  64 cycles.
 Requested convergence on MAX density matrix=1.00D-06.
 Requested convergence on             energy=1.00D-06.
 No special actions if energy rises.
 Using DIIS extrapolation, IDIIS=  1040.
 Integral symmetry usage will be decided dynamically.
       664225 words used for storage of precomputed grid.
 IEnd=     1652230 IEndB=     1652230 NGot=  3221225472 MDV=  3219901797
 LenX=  3219901797 LenY=  3219577467
 Fock matrices will be formed incrementally for  20 cycles.
 Integral accuracy reduced to 1.0D-05 until final iterations.

 Cycle   1  Pass 0  IDiag  1:
 FoFCou: FMM=T IPFlag=           0 FMFlag=      100000 FMFlg1=           1
         NFxFlg=           0 DoJE=F BraDBF=F KetDBF=F FulRan=T
         Omega=  0.000000  0.000000  1.000000  0.000000  0.000000 ICntrl=       0 IOpCl=  0
         NMat0=    1 NMatS0=    1 NMatT0=    0 NMatD0=    1 NMtDS0=    0 NMtDT0=    0
         I1Cent=           0 NGrid=           0.
 Symmetry not used in FoFCou.
 FMM levels:  10  Number of levels for PrismC:   9
 E= -2174.41086925161    
 DIIS: error= 2.63D-02 at cycle   1 NSaved=   1.
 NSaved= 1 IEnMin= 1 EnMin= -2174.41086925161     IErMin= 1 ErrMin= 2.63D-02
 ErrMax= 2.63D-02 EMaxC= 1.00D-01 BMatC= 1.07D+00 BMatP= 1.07D+00
 IDIUse=3 WtCom= 7.37D-01 WtEn= 2.63D-01
 Coeff-Com:  0.100D+01
 Coeff-En:   0.100D+01
 Coeff:      0.100D+01
 Gap=     0.183 Goal=   None    Shift=    0.000
 GapD=    0.183 DampG=1.000 DampE=0.500 DampFc=0.5000 IDamp=-1.
 Damping current iteration by 5.00D-01
 RMSDP=4.90D-03 MaxDP=2.49D-01              OVMax= 2.78D-01

 Cycle   2  Pass 0  IDiag  1:
 RMSU=  1.71D-03    CP:  9.77D-01
 E= -2174.82407607681     Delta-E=       -0.413206825209 Rises=F Damp=T
 DIIS: error= 6.75D-03 at cycle   2 NSaved=   2.
 NSaved= 2 IEnMin= 2 EnMin= -2174.82407607681     IErMin= 2 ErrMin= 6.75D-03
 ErrMax= 6.75D-03 EMaxC= 1.00D-01 BMatC= 9.54D-02 BMatP= 1.07D+00
 IDIUse=3 WtCom= 9.32D-01 WtEn= 6.75D-02
 Coeff-Com:  0.158D+00 0.842D+00
 Coeff-En:   0.273D+00 0.727D+00
 Coeff:      0.166D+00 0.834D+00
 Gap=     0.324 Goal=   None    Shift=    0.000
 RMSDP=1.35D-03 MaxDP=1.01D-01 DE=-4.13D-01 OVMax= 3.15D-01

 Cycle   3  Pass 0  IDiag  1:
 RMSU=  7.98D-04    CP:  9.76D-01  6.97D-01
 E= -2175.53697211212     Delta-E=       -0.712896035302 Rises=F Damp=F
 DIIS: error= 7.47D-03 at cycle   3 NSaved=   3.
 NSaved= 3 IEnMin= 3 EnMin= -2175.53697211212     IErMin= 2 ErrMin= 6.75D-03
 ErrMax= 7.47D-03 EMaxC= 1.00D-01 BMatC= 4.51D-02 BMatP= 9.54D-02
 IDIUse=3 WtCom= 9.25D-01 WtEn= 7.47D-02
 Coeff-Com:  0.407D-01 0.400D+00 0.559D+00
 Coeff-En:   0.000D+00 0.000D+00 0.100D+01
 Coeff:      0.377D-01 0.370D+00 0.592D+00
 Gap=     0.176 Goal=   None    Shift=    0.000
 RMSDP=8.12D-04 MaxDP=7.12D-02 DE=-7.13D-01 OVMax= 1.18D-01

 Cycle   4  Pass 0  IDiag  1:
 RMSU=  3.88D-04    CP:  9.77D-01  7.93D-01  5.10D-01
 E= -2175.55950682274     Delta-E=       -0.022534710628 Rises=F Damp=F
 DIIS: error= 5.64D-03 at cycle   4 NSaved=   4.
 NSaved= 4 IEnMin= 4 EnMin= -2175.55950682274     IErMin= 4 ErrMin= 5.64D-03
 ErrMax= 5.64D-03 EMaxC= 1.00D-01 BMatC= 2.61D-02 BMatP= 4.51D-02
 IDIUse=3 WtCom= 9.44D-01 WtEn= 5.64D-02
 Coeff-Com:  0.303D-02 0.116D+00 0.423D+00 0.458D+00
 Coeff-En:   0.000D+00 0.000D+00 0.386D+00 0.614D+00
 Coeff:      0.286D-02 0.109D+00 0.421D+00 0.467D+00
 Gap=     0.174 Goal=   None    Shift=    0.000
 RMSDP=3.70D-04 MaxDP=4.03D-02 DE=-2.25D-02 OVMax= 6.78D-02

 Cycle   5  Pass 0  IDiag  1:
 RMSU=  1.06D-04    CP:  9.77D-01  7.69D-01  6.68D-01  4.86D-01
 E= -2175.58726218963     Delta-E=       -0.027755366889 Rises=F Damp=F
 DIIS: error= 6.90D-04 at cycle   5 NSaved=   5.
 NSaved= 5 IEnMin= 5 EnMin= -2175.58726218963     IErMin= 5 ErrMin= 6.90D-04
 ErrMax= 6.90D-04 EMaxC= 1.00D-01 BMatC= 7.35D-04 BMatP= 2.61D-02
 IDIUse=3 WtCom= 9.93D-01 WtEn= 6.90D-03
 Coeff-Com: -0.134D-02 0.878D-02 0.127D+00 0.211D+00 0.654D+00
 Coeff-En:   0.000D+00 0.000D+00 0.000D+00 0.000D+00 0.100D+01
 Coeff:     -0.133D-02 0.872D-02 0.127D+00 0.210D+00 0.657D+00
 Gap=     0.173 Goal=   None    Shift=    0.000
 RMSDP=6.92D-05 MaxDP=6.58D-03 DE=-2.78D-02 OVMax= 1.40D-02

 Cycle   6  Pass 0  IDiag  1:
 RMSU=  2.79D-05    CP:  9.77D-01  7.66D-01  6.81D-01  5.39D-01  6.92D-01
 E= -2175.58786088166     Delta-E=       -0.000598692022 Rises=F Damp=F
 DIIS: error= 4.40D-04 at cycle   6 NSaved=   6.
 NSaved= 6 IEnMin= 6 EnMin= -2175.58786088166     IErMin= 6 ErrMin= 4.40D-04
 ErrMax= 4.40D-04 EMaxC= 1.00D-01 BMatC= 1.54D-04 BMatP= 7.35D-04
 IDIUse=3 WtCom= 9.96D-01 WtEn= 4.40D-03
 Coeff-Com: -0.903D-03-0.117D-02 0.560D-01 0.105D+00 0.412D+00 0.429D+00
 Coeff-En:   0.000D+00 0.000D+00 0.000D+00 0.000D+00 0.133D+00 0.867D+00
 Coeff:     -0.899D-03-0.117D-02 0.557D-01 0.105D+00 0.410D+00 0.431D+00
 Gap=     0.172 Goal=   None    Shift=    0.000
 RMSDP=2.69D-05 MaxDP=3.23D-03 DE=-5.99D-04 OVMax= 6.46D-03

 Cycle   7  Pass 0  IDiag  1:
 RMSU=  1.08D-05    CP:  9.77D-01  7.66D-01  6.80D-01  5.39D-01  7.28D-01
                    CP:  4.59D-01
 E= -2175.58801242186     Delta-E=       -0.000151540208 Rises=F Damp=F
 DIIS: error= 1.27D-04 at cycle   7 NSaved=   7.
 NSaved= 7 IEnMin= 7 EnMin= -2175.58801242186     IErMin= 7 ErrMin= 1.27D-04
 ErrMax= 1.27D-04 EMaxC= 1.00D-01 BMatC= 9.19D-06 BMatP= 1.54D-04
 IDIUse=3 WtCom= 9.99D-01 WtEn= 1.27D-03
 Coeff-Com: -0.255D-03-0.154D-02 0.177D-01 0.354D-01 0.159D+00 0.244D+00
 Coeff-Com:  0.546D+00
 Coeff-En:   0.000D+00 0.000D+00 0.000D+00 0.000D+00 0.000D+00 0.000D+00
 Coeff-En:   0.100D+01
 Coeff:     -0.255D-03-0.154D-02 0.177D-01 0.353D-01 0.158D+00 0.243D+00
 Coeff:      0.547D+00
 Gap=     0.173 Goal=   None    Shift=    0.000
 RMSDP=9.91D-06 MaxDP=5.77D-04 DE=-1.52D-04 OVMax= 1.31D-03

 Initial convergence to 1.0D-05 achieved.  Increase integral accuracy.
 Cycle   8  Pass 1  IDiag  1:
 E= -2175.58848300581     Delta-E=       -0.000470583943 Rises=F Damp=F
 DIIS: error= 4.84D-05 at cycle   1 NSaved=   1.
 NSaved= 1 IEnMin= 1 EnMin= -2175.58848300581     IErMin= 1 ErrMin= 4.84D-05
 ErrMax= 4.84D-05 EMaxC= 1.00D-01 BMatC= 2.86D-06 BMatP= 2.86D-06
 IDIUse=1 WtCom= 1.00D+00 WtEn= 0.00D+00
 Coeff-Com:  0.100D+01
 Coeff:      0.100D+01
 Gap=     0.173 Goal=   None    Shift=    0.000
 RMSDP=9.91D-06 MaxDP=5.77D-04 DE=-4.71D-04 OVMax= 9.75D-04

 Cycle   9  Pass 1  IDiag  1:
 RMSU=  1.13D-05    CP:  1.00D+00
 E= -2175.58847981373     Delta-E=        0.000003192074 Rises=F Damp=F
 DIIS: error= 7.73D-05 at cycle   2 NSaved=   2.
 NSaved= 2 IEnMin= 1 EnMin= -2175.58848300581     IErMin= 1 ErrMin= 4.84D-05
 ErrMax= 7.73D-05 EMaxC= 1.00D-01 BMatC= 6.03D-06 BMatP= 2.86D-06
 IDIUse=1 WtCom= 1.00D+00 WtEn= 0.00D+00
 Coeff-Com:  0.607D+00 0.393D+00
 Coeff:      0.607D+00 0.393D+00
 Gap=     0.173 Goal=   None    Shift=    0.000
 RMSDP=7.10D-06 MaxDP=4.84D-04 DE= 3.19D-06 OVMax= 8.49D-04

 Cycle  10  Pass 1  IDiag  1:
 RMSU=  4.18D-06    CP:  1.00D+00  7.53D-01
 E= -2175.58848625983     Delta-E=       -0.000006446093 Rises=F Damp=F
 DIIS: error= 2.28D-05 at cycle   3 NSaved=   3.
 NSaved= 3 IEnMin= 3 EnMin= -2175.58848625983     IErMin= 3 ErrMin= 2.28D-05
 ErrMax= 2.28D-05 EMaxC= 1.00D-01 BMatC= 3.87D-07 BMatP= 2.86D-06
 IDIUse=1 WtCom= 1.00D+00 WtEn= 0.00D+00
 Coeff-Com:  0.932D-01 0.204D+00 0.703D+00
 Coeff:      0.932D-01 0.204D+00 0.703D+00
 Gap=     0.173 Goal=   None    Shift=    0.000
 RMSDP=1.81D-06 MaxDP=1.67D-04 DE=-6.45D-06 OVMax= 3.79D-04

 Cycle  11  Pass 1  IDiag  1:
 RMSU=  9.40D-07    CP:  1.00D+00  8.00D-01  8.36D-01
 E= -2175.58848655537     Delta-E=       -0.000000295542 Rises=F Damp=F
 DIIS: error= 1.18D-05 at cycle   4 NSaved=   4.
 NSaved= 4 IEnMin= 4 EnMin= -2175.58848655537     IErMin= 4 ErrMin= 1.18D-05
 ErrMax= 1.18D-05 EMaxC= 1.00D-01 BMatC= 1.32D-07 BMatP= 3.87D-07
 IDIUse=1 WtCom= 1.00D+00 WtEn= 0.00D+00
 Coeff-Com: -0.102D-01 0.912D-01 0.470D+00 0.449D+00
 Coeff:     -0.102D-01 0.912D-01 0.470D+00 0.449D+00
 Gap=     0.173 Goal=   None    Shift=    0.000
 RMSDP=7.07D-07 MaxDP=7.73D-05 DE=-2.96D-07 OVMax= 1.50D-04

 Cycle  12  Pass 1  IDiag  1:
 RMSU=  1.85D-07    CP:  1.00D+00  8.05D-01  8.54D-01  5.16D-01
 E= -2175.58848669049     Delta-E=       -0.000000135120 Rises=F Damp=F
 DIIS: error= 1.53D-06 at cycle   5 NSaved=   5.
 NSaved= 5 IEnMin= 5 EnMin= -2175.58848669049     IErMin= 5 ErrMin= 1.53D-06
 ErrMax= 1.53D-06 EMaxC= 1.00D-01 BMatC= 2.31D-09 BMatP= 1.32D-07
 IDIUse=1 WtCom= 1.00D+00 WtEn= 0.00D+00
 Coeff-Com: -0.800D-02 0.443D-01 0.235D+00 0.242D+00 0.486D+00
 Coeff:     -0.800D-02 0.443D-01 0.235D+00 0.242D+00 0.486D+00
 Gap=     0.173 Goal=   None    Shift=    0.000
 RMSDP=1.45D-07 MaxDP=1.24D-05 DE=-1.35D-07 OVMax= 2.30D-05

 Cycle  13  Pass 1  IDiag  1:
 RMSU=  7.70D-08    CP:  1.00D+00  8.06D-01  8.53D-01  5.03D-01  6.50D-01
 E= -2175.58848669277     Delta-E=       -0.000000002280 Rises=F Damp=F
 DIIS: error= 5.92D-07 at cycle   6 NSaved=   6.
 NSaved= 6 IEnMin= 6 EnMin= -2175.58848669277     IErMin= 6 ErrMin= 5.92D-07
[...]
   455    C   30  py     Ryd( 3p)     0.00163
   456    C   30  pz     Val( 2p)     1.22974
   457    C   30  pz     Ryd( 3p)     0.00363
   458    C   30  dxy    Ryd( 3d)     0.00063
   459    C   30  dxz    Ryd( 3d)     0.00107
   460    C   30  dyz    Ryd( 3d)     0.00045
   461    C   30  dx2y2  Ryd( 3d)     0.00069
   462    C   30  dz2    Ryd( 3d)     0.00073

   463    C   31  S      Cor( 1S)     1.99929
   464    C   31  S      Val( 2S)     1.02458
   465    C   31  S      Ryd( 3S)     0.00089
   466    C   31  S      Ryd( 4S)     0.00002
   467    C   31  px     Val( 2p)     1.07037
   468    C   31  px     Ryd( 3p)     0.00228
   469    C   31  py     Val( 2p)     1.18520
   470    C   31  py     Ryd( 3p)     0.00358
   471    C   31  pz     Val( 2p)     1.17145
   472    C   31  pz     Ryd( 3p)     0.00200
   473    C   31  dxy    Ryd( 3d)     0.00077
   474    C   31  dxz    Ryd( 3d)     0.00073
   475    C   31  dyz    Ryd( 3d)     0.00023
   476    C   31  dx2y2  Ryd( 3d)     0.00077
   477    C   31  dz2    Ryd( 3d)     0.00108

   478    H   32  S      Val( 1S)     0.76168
   479    H   32  S      Ryd( 2S)     0.00117

   480    H   33  S      Val( 1S)     0.77511
   481    H   33  S      Ryd( 2S)     0.00184

   482    H   34  S      Val( 1S)     0.76106
   483    H   34  S      Ryd( 2S)     0.00129

   484    H   35  S      Val( 1S)     0.77375
   485    H   35  S      Ryd( 2S)     0.00182

   486    H   36  S      Val( 1S)     0.76924
   487    H   36  S      Ryd( 2S)     0.00194

   488    H   37  S      Val( 1S)     0.76334
   489    H   37  S      Ryd( 2S)     0.00123

   490    H   38  S      Val( 1S)     0.74403
   491    H   38  S      Ryd( 2S)     0.00301

   492    H   39  S      Val( 1S)     0.77367
   493    H   39  S      Ryd( 2S)     0.00189

   494    H   40  S      Val( 1S)     0.73367
   495    H   40  S      Ryd( 2S)     0.00209

   496    H   41  S      Val( 1S)     0.75850
   497    H   41  S      Ryd( 2S)     0.00116

   498    H   42  S      Val( 1S)     0.77182
   499    H   42  S      Ryd( 2S)     0.00181

   500    H   43  S      Val( 1S)     0.75848
   501    H   43  S      Ryd( 2S)     0.00058

   502    H   44  S      Val( 1S)     0.77572
   503    H   44  S      Ryd( 2S)     0.00096

   504    H   45  S      Val( 1S)     0.73924
   505    H   45  S      Ryd( 2S)     0.00277

   506    H   46  S      Val( 1S)     0.73373
   507    H   46  S      Ryd( 2S)     0.00135

   508    H   47  S      Val( 1S)     0.77367
   509    H   47  S      Ryd( 2S)     0.00181

   510    H   48  S      Val( 1S)     0.77092
   511    H   48  S      Ryd( 2S)     0.00181

   512    H   49  S      Val( 1S)     0.75657
   513    H   49  S      Ryd( 2S)     0.00113

   514    H   50  S      Val( 1S)     0.75973
   515    H   50  S      Ryd( 2S)     0.00115

   516    H   51  S      Val( 1S)     0.77379
   517    H   51  S      Ryd( 2S)     0.00183

   518    H   52  S      Val( 1S)     0.77256
   519    H   52  S      Ryd( 2S)     0.00179

   520    H   53  S      Val( 1S)     0.75816
   521    H   53  S      Ryd( 2S)     0.00118

   522    H   54  S      Val( 1S)     0.76442
   523    H   54  S      Ryd( 2S)     0.00147

   524    H   55  S      Val( 1S)     0.76905
   525    H   55  S      Ryd( 2S)     0.00186

   526    H   56  S      Val( 1S)     0.74558
   527    H   56  S      Ryd( 2S)     0.00313

   528    H   57  S      Val( 1S)     0.76330
   529    H   57  S      Ryd( 2S)     0.00122

   530    H   58  S      Val( 1S)     0.76662
   531    H   58  S      Ryd( 2S)     0.00187

   532    H   59  S      Val( 1S)     0.77397
   533    H   59  S      Ryd( 2S)     0.00181

   534    H   60  S      Val( 1S)     0.75900
   535    H   60  S      Ryd( 2S)     0.00122

   536    H   61  S      Val( 1S)     0.76064
   537    H   61  S      Ryd( 2S)     0.00116

   538    H   62  S      Val( 1S)     0.77351
   539    H   62  S      Ryd( 2S)     0.00182

   540    H   63  S      Val( 1S)     0.77366
   541    H   63  S      Ryd( 2S)     0.00183

   542    H   64  S      Val( 1S)     0.75559
   543    H   64  S      Ryd( 2S)     0.00112

   544    H   65  S      Val( 1S)     0.73124
   545    H   65  S      Ryd( 2S)     0.00143

   546    H   66  S      Val( 1S)     0.76876
   547    H   66  S      Ryd( 2S)     0.00185

   548    H   67  S      Val( 1S)     0.73360
   549    H   67  S      Ryd( 2S)     0.00341

   550    H   68  S      Val( 1S)     0.73627
   551    H   68  S      Ryd( 2S)     0.00147

   552    H   69  S      Val( 1S)     0.77575
   553    H   69  S      Ryd( 2S)     0.00185

   554    H   70  S      Val( 1S)     0.76832
   555    H   70  S      Ryd( 2S)     0.00181

   556    H   71  S      Val( 1S)     0.75935
   557    H   71  S      Ryd( 2S)     0.00116

   558    H   72  S      Val( 1S)     0.76083
   559    H   72  S      Ryd( 2S)     0.00115

   560    H   73  S      Val( 1S)     0.77519
   561    H   73  S      Ryd( 2S)     0.00185

   562    H   74  S      Val( 1S)     0.77160
   563    H   74  S      Ryd( 2S)     0.00178

   564    H   75  S      Val( 1S)     0.75996
   565    H   75  S      Ryd( 2S)     0.00122

   566    H   76  S      Val( 1S)     0.76421
   567    H   76  S      Ryd( 2S)     0.00149

   568    H   77  S      Val( 1S)     0.77149
   569    H   77  S      Ryd( 2S)     0.00189

 WARNING:  1 low occupancy (<1.9990e) core orbital  found on  P    7
           1 low occupancy (<1.9990e) core orbital  found on  C    8
           1 low occupancy (<1.9990e) core orbital  found on  C   11
           1 low occupancy (<1.9990e) core orbital  found on  C   12
           1 low occupancy (<1.9990e) core orbital  found on  P   13


 Summary of Natural Population Analysis:                  
                                                          
                                       Natural Population 
                Natural  -----------------------------------------------
    Atom  No    Charge         Core      Valence    Rydberg      Total
 -----------------------------------------------------------------------
      C    1   -0.45896      1.99933     4.44820    0.01143     6.45896
      C    2   -0.45590      1.99933     4.44441    0.01217     6.45590
      C    3   -0.46395      1.99930     4.45205    0.01260     6.46395
      C    4   -0.55365      1.99921     4.53678    0.01766     6.55365
      C    5   -0.46448      1.99929     4.45109    0.01410     6.46448
      C    6   -0.45537      1.99932     4.44400    0.01205     6.45537
      P    7    1.11448      9.99780     3.84548    0.04223    13.88552
      C    8   -0.72923      1.99871     4.70741    0.02310     6.72923
      S    9    0.32753      9.99896     5.62205    0.05146    15.67247
      C   10   -0.51865      1.99901     4.50097    0.01866     6.51865
      C   11   -0.30180      1.99891     4.28615    0.01674     6.30180
      C   12   -0.50815      1.99867     4.48360    0.02588     6.50815
      P   13    1.13689      9.99785     3.82769    0.03757    13.86311
      C   14   -0.54552      1.99921     4.52885    0.01746     6.54552
      C   15   -0.46848      1.99929     4.45581    0.01338     6.46848
      C   16   -0.45620      1.99933     4.44471    0.01217     6.45620
      C   17   -0.45985      1.99933     4.44902    0.01151     6.45985
      C   18   -0.45569      1.99933     4.44417    0.01219     6.45569
      C   19   -0.46444      1.99929     4.45274    0.01241     6.46444
      C   20   -0.54470      1.99921     4.52829    0.01721     6.54470
      C   21   -0.46414      1.99930     4.45210    0.01274     6.46414
      C   22   -0.45654      1.99933     4.44503    0.01218     6.45654
      C   23   -0.45954      1.99933     4.44872    0.01149     6.45954
      C   24   -0.45581      1.99932     4.44443    0.01206     6.45581
      C   25   -0.46614      1.99929     4.45307    0.01378     6.46614
      C   26   -0.55286      1.99921     4.53550    0.01816     6.55286
      C   27   -0.46784      1.99930     4.45455    0.01400     6.46784
      C   28   -0.45610      1.99932     4.44462    0.01216     6.45610
      C   29   -0.45941      1.99933     4.44863    0.01145     6.45941
      C   30   -0.45543      1.99933     4.44390    0.01221     6.45543
      C   31   -0.46325      1.99929     4.45160    0.01235     6.46325
      H   32    0.23716      0.00000     0.76168    0.00117     0.76284
      H   33    0.22305      0.00000     0.77511    0.00184     0.77695
      H   34    0.23765      0.00000     0.76106    0.00129     0.76235
      H   35    0.22443      0.00000     0.77375    0.00182     0.77557
      H   36    0.22882      0.00000     0.76924    0.00194     0.77118
      H   37    0.23543      0.00000     0.76334    0.00123     0.76457
      H   38    0.25296      0.00000     0.74403    0.00301     0.74704
      H   39    0.22445      0.00000     0.77367    0.00189     0.77555
      H   40    0.26423      0.00000     0.73367    0.00209     0.73577
      H   41    0.24033      0.00000     0.75850    0.00116     0.75967
      H   42    0.22636      0.00000     0.77182    0.00181     0.77364
      H   43    0.24094      0.00000     0.75848    0.00058     0.75906
      H   44    0.22332      0.00000     0.77572    0.00096     0.77668
      H   45    0.25799      0.00000     0.73924    0.00277     0.74201
      H   46    0.26493      0.00000     0.73373    0.00135     0.73507
      H   47    0.22452      0.00000     0.77367    0.00181     0.77548
      H   48    0.22728      0.00000     0.77092    0.00181     0.77272
      H   49    0.24230      0.00000     0.75657    0.00113     0.75770
      H   50    0.23912      0.00000     0.75973    0.00115     0.76088
      H   51    0.22438      0.00000     0.77379    0.00183     0.77562
      H   52    0.22565      0.00000     0.77256    0.00179     0.77435
      H   53    0.24065      0.00000     0.75816    0.00118     0.75935
      H   54    0.23411      0.00000     0.76442    0.00147     0.76589
      H   55    0.22909      0.00000     0.76905    0.00186     0.77091
      H   56    0.25129      0.00000     0.74558    0.00313     0.74871
      H   57    0.23548      0.00000     0.76330    0.00122     0.76452
      H   58    0.23151      0.00000     0.76662    0.00187     0.76849
      H   59    0.22422      0.00000     0.77397    0.00181     0.77578
      H   60    0.23978      0.00000     0.75900    0.00122     0.76022
      H   61    0.23819      0.00000     0.76064    0.00116     0.76181
      H   62    0.22467      0.00000     0.77351    0.00182     0.77533
      H   63    0.22451      0.00000     0.77366    0.00183     0.77549
      H   64    0.24329      0.00000     0.75559    0.00112     0.75671
      H   65    0.26734      0.00000     0.73124    0.00143     0.73266
      H   66    0.22939      0.00000     0.76876    0.00185     0.77061
      H   67    0.26299      0.00000     0.73360    0.00341     0.73701
      H   68    0.26226      0.00000     0.73627    0.00147     0.73774
      H   69    0.22239      0.00000     0.77575    0.00185     0.77761
      H   70    0.22987      0.00000     0.76832    0.00181     0.77013
      H   71    0.23949      0.00000     0.75935    0.00116     0.76051
      H   72    0.23801      0.00000     0.76083    0.00115     0.76199
      H   73    0.22296      0.00000     0.77519    0.00185     0.77704
      H   74    0.22662      0.00000     0.77160    0.00178     0.77338
      H   75    0.23882      0.00000     0.75996    0.00122     0.76118
      H   76    0.23429      0.00000     0.76421    0.00149     0.76571
      H   77    0.22662      0.00000     0.77149    0.00189     0.77338
 =======================================================================
   * Total *    0.00000     85.97303   173.41597    0.61100   260.00000

                                 Natural Population      
 --------------------------------------------------------
   Core                      85.97303 ( 99.9686% of  86)
   Valence                  173.41597 ( 99.6644% of 174)
   Natural Minimal Basis    259.38900 ( 99.7650% of 260)
   Natural Rydberg Basis      0.61100 (  0.2350% of 260)
 --------------------------------------------------------

    Atom  No          Natural Electron Configuration
 ----------------------------------------------------------------------------
      C    1      [core]2S( 1.03)2p( 3.42)3p( 0.01)
      C    2      [core]2S( 1.03)2p( 3.41)3p( 0.01)
      C    3      [core]2S( 1.03)2p( 3.43)3p( 0.01)
      C    4      [core]2S( 1.07)2p( 3.47)3p( 0.01)
      C    5      [core]2S( 1.03)2p( 3.42)3p( 0.01)
      C    6      [core]2S( 1.03)2p( 3.41)3p( 0.01)
      P    7      [core]3S( 1.34)3p( 2.51)3d( 0.03)4p( 0.01)
      C    8      [core]2S( 1.03)2p( 3.67)3p( 0.02)
      S    9      [core]3S( 1.61)3p( 4.01)4S( 0.01)3d( 0.02)4p( 0.02)
      C   10      [core]2S( 1.02)2p( 3.48)3p( 0.01)
      C   11      [core]2S( 0.94)2p( 3.34)3p( 0.01)
      C   12      [core]2S( 0.96)2p( 3.53)3p( 0.02)
      P   13      [core]3S( 1.35)3p( 2.48)3d( 0.03)4p( 0.01)
      C   14      [core]2S( 1.06)2p( 3.46)3p( 0.01)
      C   15      [core]2S( 1.03)2p( 3.43)3p( 0.01)
      C   16      [core]2S( 1.03)2p( 3.41)3p( 0.01)
      C   17      [core]2S( 1.03)2p( 3.42)3p( 0.01)
      C   18      [core]2S( 1.03)2p( 3.41)3p( 0.01)
      C   19      [core]2S( 1.03)2p( 3.43)3p( 0.01)
      C   20      [core]2S( 1.07)2p( 3.46)3p( 0.01)
      C   21      [core]2S( 1.03)2p( 3.43)3p( 0.01)
      C   22      [core]2S( 1.03)2p( 3.41)3p( 0.01)
      C   23      [core]2S( 1.03)2p( 3.42)3p( 0.01)
      C   24      [core]2S( 1.03)2p( 3.41)3p( 0.01)
      C   25      [core]2S( 1.03)2p( 3.43)3p( 0.01)
      C   26      [core]2S( 1.06)2p( 3.47)3p( 0.01)
      C   27      [core]2S( 1.03)2p( 3.43)3p( 0.01)
      C   28      [core]2S( 1.03)2p( 3.41)3p( 0.01)
      C   29      [core]2S( 1.03)2p( 3.42)3p( 0.01)
      C   30      [core]2S( 1.03)2p( 3.41)3p( 0.01)
      C   31      [core]2S( 1.02)2p( 3.43)3p( 0.01)
      H   32            1S( 0.76)
      H   33            1S( 0.78)
      H   34            1S( 0.76)
      H   35            1S( 0.77)
      H   36            1S( 0.77)
      H   37            1S( 0.76)
      H   38            1S( 0.74)
      H   39            1S( 0.77)
      H   40            1S( 0.73)
      H   41            1S( 0.76)
      H   42            1S( 0.77)
      H   43            1S( 0.76)
      H   44            1S( 0.78)
      H   45            1S( 0.74)
      H   46            1S( 0.73)
      H   47            1S( 0.77)
      H   48            1S( 0.77)
      H   49            1S( 0.76)
      H   50            1S( 0.76)
      H   51            1S( 0.77)
      H   52            1S( 0.77)
      H   53            1S( 0.76)
      H   54            1S( 0.76)
      H   55            1S( 0.77)
      H   56            1S( 0.75)
      H   57            1S( 0.76)
      H   58            1S( 0.77)
      H   59            1S( 0.77)
      H   60            1S( 0.76)
      H   61            1S( 0.76)
      H   62            1S( 0.77)
      H   63            1S( 0.77)
      H   64            1S( 0.76)
      H   65            1S( 0.73)
      H   66            1S( 0.77)
      H   67            1S( 0.73)
      H   68            1S( 0.74)
      H   69            1S( 0.78)
      H   70            1S( 0.77)
      H   71            1S( 0.76)
      H   72            1S( 0.76)
      H   73            1S( 0.78)
      H   74            1S( 0.77)
      H   75            1S( 0.76)
      H   76            1S( 0.76)
      H   77            1S( 0.77)


 NBO analysis skipped by request.
 Leave Link  607 at Mon Oct  4 09:04:55 2021, MaxMem= 3221225472 cpu:      99.1
 (Enter /sw/target/amd/app/gaussian/Gaussian09RevA.02_gcc-4.9.2/g09/l9999.exe)
 1\1\GINC-HERMITE\SP\RTD-B3LYP-FC\6-31G(d)\C28H46P2S1\JSCHLEINITZ\04-Oc
 t-2021\0\\#p TD(NStates=10, Root=1) b3lyp/6-31G* volume pop=NPA densit
 y=current Geom=AllCheck Guess=Read\\C1CCC(CC1)P(c1sccc1P(C1CCCCC1)C1CC
 CCC1)C1CCCCC1_conf_0\\0,1\C,0,5.671766114,-4.2783473846,-2.9740917288\
 C,0,4.5585375171,-3.6399407032,-3.8151953855\C,0,3.5724969778,-2.85260
 69893,-2.9363709669\C,0,4.2851858515,-1.769697349,-2.0921782669\C,0,5.
 3882880924,-2.4315451764,-1.241248507\C,0,6.3792839313,-3.2261827656,-
 2.1093923153\P,0,2.9855488779,-0.8588208868,-1.035974235\C,0,4.0154904
 301,-0.0452187694,0.2633312722\S,0,5.2121841693,1.1960014856,-0.105650
 1063\C,0,5.6335847732,1.383879444,1.5618520867\C,0,4.9049219401,0.5469
 259806,2.3553812268\C,0,3.9770846848,-0.2803472213,1.6296025841\P,0,2.
 8491683965,-1.5376215058,2.4059525999\C,0,4.0753102288,-2.321364578,3.
 6263037106\C,0,5.1722829958,-3.0777708166,2.8467666739\C,0,6.167947635
 3,-3.7817293089,3.783342625\C,0,5.4532860595,-4.7280957728,4.757265778
 3\C,0,4.3660237452,-3.98490493,5.5445759826\C,0,3.368284652,-3.2742693
 248,4.6126472255\C,0,1.7880466509,-0.448381542,3.5587813763\C,0,0.4956
 286483,-1.2146105253,3.9262049613\C,0,-0.4166540959,-0.397713747,4.856
 1696002\C,0,-0.7701663117,0.962268531,4.2397199712\C,0,0.4973194586,1.
 7344551677,3.8491939803\C,0,1.4154541896,0.9104423145,2.9296881099\C,0
 ,2.5820768265,0.6608279529,-2.1018767917\C,0,1.6160584861,1.5819215111
 ,-1.3262327477\C,0,1.2192984226,2.8224385973,-2.1428884152\C,0,0.61199
 6841,2.4325305919,-3.4971778276\C,0,1.5620179386,1.5164107537,-4.27982
 97604\C,0,1.9691875652,0.2760656755,-3.4637820997\H,0,6.3950860834,-4.
 7918904103,-3.6206182351\H,0,5.2332823096,-5.0473547374,-2.3209794904\
 H,0,4.0178488931,-4.4094767373,-4.3815400812\H,0,5.0057437208,-2.96257
 65261,-4.5581401421\H,0,3.0620654383,-3.5464016537,-2.2530147958\H,0,2
 .7888532684,-2.412355333,-3.5625497575\H,0,4.7622329191,-1.0451461029,
 -2.7707407705\H,0,4.9223133324,-3.1079701676,-0.5096126684\H,0,5.93123
 28894,-1.6767910236,-0.663861479\H,0,7.1320572372,-3.7026731216,-1.467
 7274066\H,0,6.9241902917,-2.5278633891,-2.7621940453\H,0,6.3845066964,
 2.1043162346,1.8610567033\H,0,5.0119724827,0.5212110632,3.4344553799\H
 ,0,4.5582781106,-1.5274735158,4.2164339948\H,0,5.708019821,-2.38884580
 43,2.1839376195\H,0,4.6956654859,-3.8282411653,2.1984945694\H,0,6.7250
 318883,-3.0247522407,4.3553978581\H,0,6.9102437923,-4.3317547044,3.190
 3663179\H,0,6.1749448586,-5.1883477975,5.4444202831\H,0,4.9917663991,-
 5.5499966631,4.1900205006\H,0,4.8405007983,-3.2392393848,6.1999140382\
 H,0,3.8267993832,-4.6787225231,6.2026036049\H,0,2.6403029182,-2.724914
 9947,5.2202350996\H,0,2.8009737501,-4.0276664542,4.0462664877\H,0,2.35
 64793937,-0.2529858354,4.4821338327\H,0,0.729544155,-2.1793834144,4.39
 00360776\H,0,-0.0463723964,-1.447405442,2.9984628519\H,0,0.0915112792,
 -0.2399521179,5.819382785\H,0,-1.3293420219,-0.9670700433,5.0756108592
 \H,0,-1.3790752536,1.553343464,4.9360176076\H,0,-1.3861921043,0.801475
 3801,3.3426574\H,0,1.0511517681,2.0046407197,4.7609374557\H,0,0.232485
 7589,2.6790073681,3.3560117443\H,0,2.3174744482,1.4869319737,2.7007326
 026\H,0,0.9063396317,0.7367280941,1.9700394112\H,0,3.51013522,1.218707
 9491,-2.2996276141\H,0,2.0667024121,1.8893570885,-0.3757393059\H,0,0.7
 098228083,1.0117621298,-1.0731934716\H,0,2.1093347323,3.4473194696,-2.
 3088870502\H,0,0.5119568181,3.4343812684,-1.5681641649\H,0,0.376379524
 6,3.3288724307,-4.0852020059\H,0,-0.3403080405,1.9080685857,-3.3287822
 86\H,0,2.4669694769,2.0805968111,-4.5501872495\H,0,1.0992461002,1.2004
 053665,-5.2238287459\H,0,2.6787690596,-0.3183365436,-4.0501053009\H,0,
 1.0847290219,-0.3575977791,-3.2997415274\\Version=AM64L-G09RevA.02\Sta
 te=1-A\HF=-2175.6093135\RMSD=9.004e-09\Dipole=-0.9542428,-0.9878075,0.
 395456\Quadrupole=-4.676431,-4.2576853,8.9341163,-4.9351707,0.3049563,
 -1.7449653\PG=C01 [X(C28H46P2S1)]\\@


 I DON'T EXACTLY UNDERSTAND WHAT YOU ARE SAYING,
 BUT YOU ARE ABSOLUTELY RIGHT.
     M.S.GORDON, IN A NDSU FACULTY MEETING
 Job cpu time:  1 days  8 hours 15 minutes 25.7 seconds.
 File lengths (MBytes):  RWF=   1017 Int=      0 D2E=      0 Chk=    144 Scr=      1
 Normal termination of Gaussian 09 at Mon Oct  4 09:05:51 2021.
