 Entering Gaussian System, Link 0=g09
 Input=C2H3BrMg_40e8_conf_0.com
 Output=C2H3BrMg_40e8_conf_0.log
 Initial command:
 /sw/target/amd/app/gaussian/Gaussian09RevA.02_gcc-4.9.2/g09/l1.exe /home/jschleinitz/gaussian/Gau-3098962.inp -scrdir=/home/jschleinitz/gaussian/
 Entering Link 1 = /sw/target/amd/app/gaussian/Gaussian09RevA.02_gcc-4.9.2/g09/l1.exe PID=   3098977.
  
 Copyright (c) 1988,1990,1992,1993,1995,1998,2003,2009, Gaussian, Inc.
                  All Rights Reserved.
  
 This is part of the Gaussian(R) 09 program.  It is based on
 the Gaussian(R) 03 system (copyright 2003, Gaussian, Inc.),
 the Gaussian(R) 98 system (copyright 1998, Gaussian, Inc.),
 the Gaussian(R) 94 system (copyright 1995, Gaussian, Inc.),
 the Gaussian 92(TM) system (copyright 1992, Gaussian, Inc.),
 the Gaussian 90(TM) system (copyright 1990, Gaussian, Inc.),
 the Gaussian 88(TM) system (copyright 1988, Gaussian, Inc.),
 the Gaussian 86(TM) system (copyright 1986, Carnegie Mellon
 University), and the Gaussian 82(TM) system (copyright 1983,
 Carnegie Mellon University). Gaussian is a federally registered
 trademark of Gaussian, Inc.
  
 This software contains proprietary and confidential information,
 including trade secrets, belonging to Gaussian, Inc.
  
 This software is provided under written license and may be
 used, copied, transmitted, or stored only in accord with that
 written license.
  
 The following legend is applicable only to US Government
 contracts under FAR:
  
                    RESTRICTED RIGHTS LEGEND
  
 Use, reproduction and disclosure by the US Government is
 subject to restrictions as set forth in subparagraphs (a)
 and (c) of the Commercial Computer Software - Restricted
 Rights clause in FAR 52.227-19.
  
 Gaussian, Inc.
 340 Quinnipiac St., Bldg. 40, Wallingford CT 06492
  
  
 ---------------------------------------------------------------
 Warning -- This program may not be used in any manner that
 competes with the business of Gaussian, Inc. or will provide
 assistance to any competitor of Gaussian, Inc.  The licensee
 of this program is prohibited from giving any competitor of
 Gaussian, Inc. access to this program.  By using this program,
 the user acknowledges that Gaussian, Inc. is engaged in the
 business of creating and licensing software in the field of
 computational chemistry and represents and warrants to the
 licensee that it is not a competitor of Gaussian, Inc. and that
 it will not use this program in any manner prohibited above.
 ---------------------------------------------------------------
  

 Cite this work as:
 Gaussian 09, Revision A.02,
 M. J. Frisch, G. W. Trucks, H. B. Schlegel, G. E. Scuseria, 
 M. A. Robb, J. R. Cheeseman, G. Scalmani, V. Barone, B. Mennucci, 
 G. A. Petersson, H. Nakatsuji, M. Caricato, X. Li, H. P. Hratchian, 
 A. F. Izmaylov, J. Bloino, G. Zheng, J. L. Sonnenberg, M. Hada, 
 M. Ehara, K. Toyota, R. Fukuda, J. Hasegawa, M. Ishida, T. Nakajima, 
 Y. Honda, O. Kitao, H. Nakai, T. Vreven, J. A. Montgomery, Jr., 
 J. E. Peralta, F. Ogliaro, M. Bearpark, J. J. Heyd, E. Brothers, 
 K. N. Kudin, V. N. Staroverov, R. Kobayashi, J. Normand, 
 K. Raghavachari, A. Rendell, J. C. Burant, S. S. Iyengar, J. Tomasi, 
 M. Cossi, N. Rega, J. M. Millam, M. Klene, J. E. Knox, J. B. Cross, 
 V. Bakken, C. Adamo, J. Jaramillo, R. Gomperts, R. E. Stratmann, 
 O. Yazyev, A. J. Austin, R. Cammi, C. Pomelli, J. W. Ochterski, 
 R. L. Martin, K. Morokuma, V. G. Zakrzewski, G. A. Voth, 
 P. Salvador, J. J. Dannenberg, S. Dapprich, A. D. Daniels, 
 O. Farkas, J. B. Foresman, J. V. Ortiz, J. Cioslowski, 
 and D. J. Fox, Gaussian, Inc., Wallingford CT, 2009.
 
 ******************************************
 Gaussian 09:  AM64L-G09RevA.02 11-Jun-2009
                 4-Oct-2021 
 ******************************************
 %nproc=1
 Will use up to    1 processors via shared memory.
 %mem=2gb
 %chk=C2H3BrMg_40e8_conf_0.chk
 -----------------------------------
 #p opt b3lyp/6-31G* scf=(xqc,tight)
 -----------------------------------
 1/14=-1,18=20,19=15,26=3,38=1/1,3;
 2/9=110,12=2,17=6,18=5,40=1/2;
 3/5=1,6=6,7=1,11=2,16=1,25=1,30=1,71=1,74=-5/1,2,3;
 4//1;
 5/5=2,8=3,13=1,32=2,38=5/2,8;
 6/7=2,8=2,9=2,10=2,28=1/1;
 7//1,2,3,16;
 1/14=-1,18=20,19=15/3(2);
 2/9=110/2;
 99//99;
 2/9=110/2;
 3/5=1,6=6,7=1,11=2,16=1,25=1,30=1,71=1,74=-5/1,2,3;
 4/5=5,16=3/1;
 5/5=2,8=3,13=1,32=2,38=5/2,8;
 7//1,2,3,16;
 1/14=-1,18=20,19=15/3(-5);
 2/9=110/2;
 6/7=2,8=2,9=2,10=2,19=2,28=1/1;
 99/9=1/99;
 Leave Link    1 at Mon Oct  4 21:19:31 2021, MaxMem=  268435456 cpu:       0.1
 (Enter /sw/target/amd/app/gaussian/Gaussian09RevA.02_gcc-4.9.2/g09/l101.exe)
 ----------------
 Br[Mg]C=C_conf_0
 ----------------
 Symbolic Z-matrix:
 Charge =  0 Multiplicity = 1
 Br                    1.04873   0.05415  -0.06851 
 Mg                    3.65873   0.05415  -0.06851 
 C                     5.82873   0.05415  -0.06851 
 C                     6.48804  -0.93153   0.53334 
 H                     6.36882   0.85741  -0.55898 
 H                     5.93851  -1.72927   1.0207 
 H                     7.57311  -0.94218   0.54 
 
 NAtoms=      7 NQM=      7 NQMF=      0 NMic=      0 NMicF=      0 NTot=      7.
                    Isotopes and Nuclear Properties:
 (Nuclear quadrupole moments (NQMom) in fm**2, nuclear magnetic moments (NMagM)
  in nuclear magnetons)

  Atom         1           2           3           4           5           6           7
 IAtWgt=          79          24          12          12           1           1           1
 AtmWgt=  78.9183361  23.9850450  12.0000000  12.0000000   1.0078250   1.0078250   1.0078250
 NucSpn=           3           0           0           0           1           1           1
 AtZEff=   0.0000000   0.0000000   0.0000000   0.0000000   0.0000000   0.0000000   0.0000000
 NQMom=   31.3000000   0.0000000   0.0000000   0.0000000   0.0000000   0.0000000   0.0000000
 NMagM=    2.1063990   0.0000000   0.0000000   0.0000000   2.7928460   2.7928460   2.7928460
 Leave Link  101 at Mon Oct  4 21:19:32 2021, MaxMem=  268435456 cpu:       0.2
 (Enter /sw/target/amd/app/gaussian/Gaussian09RevA.02_gcc-4.9.2/g09/l103.exe)

 GradGradGradGradGradGradGradGradGradGradGradGradGradGradGradGradGradGrad
 Berny optimization.
 Initialization pass.
                           ----------------------------
                           !    Initial Parameters    !
                           ! (Angstroms and Degrees)  !
 --------------------------                            --------------------------
 ! Name  Definition              Value          Derivative Info.                !
 --------------------------------------------------------------------------------
 ! R1    R(1,2)                  2.61           estimate D2E/DX2                !
 ! R2    R(2,3)                  2.17           estimate D2E/DX2                !
 ! R3    R(3,4)                  1.3298         estimate D2E/DX2                !
 ! R4    R(3,5)                  1.0851         estimate D2E/DX2                !
 ! R5    R(4,6)                  1.0844         estimate D2E/DX2                !
 ! R6    R(4,7)                  1.0851         estimate D2E/DX2                !
 ! A1    A(2,3,4)              119.7215         estimate D2E/DX2                !
 ! A2    A(2,3,5)              119.8498         estimate D2E/DX2                !
 ! A3    A(4,3,5)              120.4287         estimate D2E/DX2                !
 ! A4    A(3,4,6)              119.8301         estimate D2E/DX2                !
 ! A5    A(3,4,7)              120.3849         estimate D2E/DX2                !
 ! A6    A(6,4,7)              119.7849         estimate D2E/DX2                !
 ! A7    L(1,2,3,4,-1)         180.0            estimate D2E/DX2                !
 ! A8    L(1,2,3,4,-2)         180.0            estimate D2E/DX2                !
 ! D1    D(2,3,4,6)             -0.0144         estimate D2E/DX2                !
 ! D2    D(2,3,4,7)           -179.992          estimate D2E/DX2                !
 ! D3    D(5,3,4,6)            179.9867         estimate D2E/DX2                !
 ! D4    D(5,3,4,7)              0.0091         estimate D2E/DX2                !
 --------------------------------------------------------------------------------
 Trust Radius=3.00D-01 FncErr=1.00D-07 GrdErr=1.00D-06
 Number of steps in this run=  28 maximum allowed number of steps= 100.
 GradGradGradGradGradGradGradGradGradGradGradGradGradGradGradGradGradGrad

 Leave Link  103 at Mon Oct  4 21:19:32 2021, MaxMem=  268435456 cpu:       0.0
 (Enter /sw/target/amd/app/gaussian/Gaussian09RevA.02_gcc-4.9.2/g09/l202.exe)
                          Input orientation:                          
 ---------------------------------------------------------------------
 Center     Atomic      Atomic             Coordinates (Angstroms)
 Number     Number       Type             X           Y           Z
 ---------------------------------------------------------------------
      1         35           0        1.048726    0.054155   -0.068506
      2         12           0        3.658726    0.054155   -0.068506
      3          6           0        5.828726    0.054155   -0.068506
      4          6           0        6.488040   -0.931526    0.533336
      5          1           0        6.368824    0.857415   -0.558984
      6          1           0        5.938512   -1.729272    1.020704
      7          1           0        7.573110   -0.942182    0.539996
 ---------------------------------------------------------------------
                    Distance matrix (angstroms):
                    1          2          3          4          5
     1  Br   0.000000
     2  Mg   2.610000   0.000000
     3  C    4.780000   2.170000   0.000000
     4  C    5.560569   3.055945   1.329841   0.000000
     5  H    5.402707   2.868872   1.085127   2.099449   0.000000
     6  H    5.317612   3.092639   2.092616   1.084392   3.061296
     7  H    6.628013   4.084772   2.099009   1.085143   2.428294
                    6          7
     6  H    0.000000
     7  H    1.876833   0.000000
 Stoichiometry    C2H3BrMg
 Framework group  C1[X(C2H3BrMg)]
 Deg. of freedom    15
 Full point group                 C1      NOp   1
 Largest Abelian subgroup         C1      NOp   1
 Largest concise Abelian subgroup C1      NOp   1
                         Standard orientation:                         
 ---------------------------------------------------------------------
 Center     Atomic      Atomic             Coordinates (Angstroms)
 Number     Number       Type             X           Y           Z
 ---------------------------------------------------------------------
      1         35           0        1.769334    0.059275   -0.000000
      2         12           0       -0.822571   -0.247528    0.000003
      3          6           0       -2.977527   -0.502609    0.000006
      4          6           0       -3.768027    0.566777   -0.000051
      5          1           0       -3.403248   -1.500739    0.000036
      6          1           0       -3.332198    1.559732    0.000138
      7          1           0       -4.847051    0.451706    0.000082
 ---------------------------------------------------------------------
 Rotational constants (GHZ):     37.3182214      0.8700234      0.8502021
 Leave Link  202 at Mon Oct  4 21:19:32 2021, MaxMem=  268435456 cpu:       0.0
 (Enter /sw/target/amd/app/gaussian/Gaussian09RevA.02_gcc-4.9.2/g09/l301.exe)
 Standard basis: 6-31G(d) (6D, 7F)
 Ernie: Thresh=  0.10000D-02 Tol=  0.10000D-05 Strict=F.
 There are    85 symmetry adapted basis functions of A   symmetry.
 Integral buffers will be    131072 words long.
 Raffenetti 2 integral format.
 Two-electron integral symmetry is turned on.
    85 basis functions,   203 primitive gaussians,    85 cartesian basis functions
    31 alpha electrons       31 beta electrons
       nuclear repulsion energy       202.2609261745 Hartrees.
 IExCor=  402 DFT=T Ex+Corr=B3LYP ExCW=0 ScaHFX=  0.200000
 ScaDFX=  0.800000  0.720000  1.000000  0.810000 ScalE2=  1.000000  1.000000
 IRadAn=      0 IRanWt=     -1 IRanGd=            0 ICorTp=0
 NAtoms=    7 NActive=    7 NUniq=    7 SFac= 7.50D-01 NAtFMM=   80 NAOKFM=F Big=F
 Leave Link  301 at Mon Oct  4 21:19:32 2021, MaxMem=  268435456 cpu:       0.1
 (Enter /sw/target/amd/app/gaussian/Gaussian09RevA.02_gcc-4.9.2/g09/l302.exe)
 NPDir=0 NMtPBC=     1 NCelOv=     1 NCel=       1 NClECP=     1 NCelD=      1
         NCelK=      1 NCelE2=     1 NClLst=     1 CellRange=     0.0.
 One-electron integrals computed using PRISM.
 NBasis=    85 RedAO= T  NBF=    85
 NBsUse=    85 1.00D-06 NBFU=    85
 Precomputing XC quadrature grid using
 IXCGrd= 2 IRadAn=           0 IRanWt=          -1 IRanGd=           0 AccXCQ= 1.00D-10.
 NRdTot=     439 NPtTot=       59010 NUsed=       62187 NTot=       62219
 NSgBfM=    84    84    84    84    84 NAtAll=     7     7.
 Leave Link  302 at Mon Oct  4 21:19:33 2021, MaxMem=  268435456 cpu:       0.3
 (Enter /sw/target/amd/app/gaussian/Gaussian09RevA.02_gcc-4.9.2/g09/l303.exe)
 DipDrv:  MaxL=1.
 Leave Link  303 at Mon Oct  4 21:19:33 2021, MaxMem=  268435456 cpu:       0.1
 (Enter /sw/target/amd/app/gaussian/Gaussian09RevA.02_gcc-4.9.2/g09/l401.exe)
 Harris functional with IExCor=  402 diagonalized for initial guess.
 ExpMin= 4.21D-02 ExpMax= 5.74D+05 ExpMxC= 5.74D+03 IAcc=2 IRadAn=         0 AccDes= 0.00D+00
 HarFok:  IExCor=  402 AccDes= 0.00D+00 IRadAn=         0 IDoV= 1
 ScaDFX=  1.000000  1.000000  1.000000  1.000000
 FoFCou: FMM=F IPFlag=           0 FMFlag=      100000 FMFlg1=           0
         NFxFlg=           0 DoJE=T BraDBF=F KetDBF=T FulRan=T
         Omega=  0.000000  0.000000  1.000000  0.000000  0.000000 ICntrl=     500 IOpCl=  0
         NMat0=    1 NMatS0=    1 NMatT0=    0 NMatD0=    1 NMtDS0=    0 NMtDT0=    0
         I1Cent=           4 NGrid=           0.
 Petite list used in FoFCou.
 Harris En= -2850.07280801672    
 Initial guess orbital symmetries:
       Occupied  (A) (A) (A) (A) (A) (A) (A) (A) (A) (A) (A) (A)
                 (A) (A) (A) (A) (A) (A) (A) (A) (A) (A) (A) (A)
                 (A) (A) (A) (A) (A) (A) (A)
       Virtual   (A) (A) (A) (A) (A) (A) (A) (A) (A) (A) (A) (A)
                 (A) (A) (A) (A) (A) (A) (A) (A) (A) (A) (A) (A)
                 (A) (A) (A) (A) (A) (A) (A) (A) (A) (A) (A) (A)
                 (A) (A) (A) (A) (A) (A) (A) (A) (A) (A) (A) (A)
                 (A) (A) (A) (A) (A) (A)
 The electronic state of the initial guess is 1-A.
 Leave Link  401 at Mon Oct  4 21:19:40 2021, MaxMem=  268435456 cpu:       1.9
 (Enter /sw/target/amd/app/gaussian/Gaussian09RevA.02_gcc-4.9.2/g09/l502.exe)
 Closed shell SCF:
 Requested convergence on RMS density matrix=1.00D-08 within  64 cycles.
 Requested convergence on MAX density matrix=1.00D-06.
 Requested convergence on             energy=1.00D-06.
 No special actions if energy rises.
 Using DIIS extrapolation, IDIIS=  1040.
 Integral symmetry usage will be decided dynamically.
        62111 words used for storage of precomputed grid.
 Keep R1 ints in memory in canonical form, NReq=7676908.
 IEnd=       90474 IEndB=       90474 NGot=   268435456 MDV=   261675149
 LenX=   261675149 LenY=   261667483
 Symmetry not used in FoFDir.
 MinBra= 0 MaxBra= 2 Meth= 1.
 IRaf=       0 NMat=   1 IRICut=       1 DoRegI=T DoRafI=F ISym2E= 0 JSym2E=0.

 Cycle   1  Pass 1  IDiag  1:
 E= -2849.63716874475    
 DIIS: error= 1.56D-01 at cycle   1 NSaved=   1.
 NSaved= 1 IEnMin= 1 EnMin= -2849.63716874475     IErMin= 1 ErrMin= 1.56D-01
 ErrMax= 1.56D-01 EMaxC= 1.00D-01 BMatC= 5.69D-01 BMatP= 5.69D-01
 IDIUse=3 WtCom= 0.00D+00 WtEn= 1.00D+00
 Coeff-Com:  0.100D+01
 Coeff-En:   0.100D+01
 Coeff:      0.100D+01
 Gap=     0.472 Goal=   None    Shift=    0.000
 GapD=    0.472 DampG=2.000 DampE=0.250 DampFc=0.5000 IDamp=-1.
 Damping current iteration by 5.00D-01
 RMSDP=1.49D-02 MaxDP=4.90D-01              OVMax= 5.85D-01

 Cycle   2  Pass 1  IDiag  1:
 E= -2849.65497156377     Delta-E=       -0.017802819018 Rises=F Damp=T
 DIIS: error= 7.43D-02 at cycle   2 NSaved=   2.
 NSaved= 2 IEnMin= 2 EnMin= -2849.65497156377     IErMin= 2 ErrMin= 7.43D-02
 ErrMax= 7.43D-02 EMaxC= 1.00D-01 BMatC= 1.13D-01 BMatP= 5.69D-01
 IDIUse=3 WtCom= 2.57D-01 WtEn= 7.43D-01
 Coeff-Com: -0.131D+00 0.113D+01
 Coeff-En:   0.460D+00 0.540D+00
 Coeff:      0.309D+00 0.691D+00
 Gap=     0.197 Goal=   None    Shift=    0.000
 RMSDP=4.63D-03 MaxDP=1.14D-01 DE=-1.78D-02 OVMax= 3.26D-01

 Cycle   3  Pass 1  IDiag  1:
 E= -2849.84027309276     Delta-E=       -0.185301528993 Rises=F Damp=F
 DIIS: error= 3.95D-03 at cycle   3 NSaved=   3.
 NSaved= 3 IEnMin= 3 EnMin= -2849.84027309276     IErMin= 3 ErrMin= 3.95D-03
 ErrMax= 3.95D-03 EMaxC= 1.00D-01 BMatC= 1.95D-03 BMatP= 1.13D-01
 IDIUse=3 WtCom= 9.61D-01 WtEn= 3.95D-02
 Coeff-Com: -0.638D-02 0.852D-01 0.921D+00
 Coeff-En:   0.000D+00 0.000D+00 0.100D+01
 Coeff:     -0.613D-02 0.818D-01 0.924D+00
 Gap=     0.206 Goal=   None    Shift=    0.000
 RMSDP=1.28D-03 MaxDP=1.93D-02 DE=-1.85D-01 OVMax= 5.03D-02

 Cycle   4  Pass 1  IDiag  1:
 E= -2849.83984920106     Delta-E=        0.000423891698 Rises=F Damp=F
 DIIS: error= 6.32D-03 at cycle   4 NSaved=   4.
 NSaved= 4 IEnMin= 3 EnMin= -2849.84027309276     IErMin= 3 ErrMin= 3.95D-03
 ErrMax= 6.32D-03 EMaxC= 1.00D-01 BMatC= 2.52D-03 BMatP= 1.95D-03
 IDIUse=3 WtCom= 1.12D-01 WtEn= 8.88D-01
 Coeff-Com:  0.164D-02 0.346D-01 0.566D+00 0.398D+00
 Coeff-En:   0.000D+00 0.000D+00 0.539D+00 0.461D+00
 Coeff:      0.184D-03 0.387D-02 0.542D+00 0.454D+00
 Gap=     0.196 Goal=   None    Shift=    0.000
 RMSDP=6.37D-04 MaxDP=1.70D-02 DE= 4.24D-04 OVMax= 3.27D-02

 Cycle   5  Pass 1  IDiag  1:
 E= -2849.84242151592     Delta-E=       -0.002572314853 Rises=F Damp=F
 DIIS: error= 1.68D-03 at cycle   5 NSaved=   5.
 NSaved= 5 IEnMin= 5 EnMin= -2849.84242151592     IErMin= 5 ErrMin= 1.68D-03
 ErrMax= 1.68D-03 EMaxC= 1.00D-01 BMatC= 2.37D-04 BMatP= 1.95D-03
 IDIUse=3 WtCom= 9.83D-01 WtEn= 1.68D-02
 Coeff-Com:  0.983D-02-0.171D-01 0.107D+00 0.228D+00 0.673D+00
 Coeff-En:   0.000D+00 0.000D+00 0.000D+00 0.384D-01 0.962D+00
 Coeff:      0.967D-02-0.168D-01 0.105D+00 0.225D+00 0.678D+00
 Gap=     0.198 Goal=   None    Shift=    0.000
 RMSDP=1.84D-04 MaxDP=4.70D-03 DE=-2.57D-03 OVMax= 8.83D-03

 Cycle   6  Pass 1  IDiag  1:
 E= -2849.84268641105     Delta-E=       -0.000264895128 Rises=F Damp=F
 DIIS: error= 2.63D-04 at cycle   6 NSaved=   6.
 NSaved= 6 IEnMin= 6 EnMin= -2849.84268641105     IErMin= 6 ErrMin= 2.63D-04
 ErrMax= 2.63D-04 EMaxC= 1.00D-01 BMatC= 1.05D-05 BMatP= 2.37D-04
 IDIUse=3 WtCom= 9.97D-01 WtEn= 2.63D-03
 Coeff-Com:  0.591D-02-0.110D-01 0.586D-01 0.106D+00 0.332D+00 0.509D+00
 Coeff-En:   0.000D+00 0.000D+00 0.000D+00 0.000D+00 0.000D+00 0.100D+01
 Coeff:      0.589D-02-0.109D-01 0.585D-01 0.106D+00 0.331D+00 0.510D+00
 Gap=     0.197 Goal=   None    Shift=    0.000
 RMSDP=5.58D-05 MaxDP=1.53D-03 DE=-2.65D-04 OVMax= 1.73D-03

 Cycle   7  Pass 1  IDiag  1:
 E= -2849.84269845549     Delta-E=       -0.000012044449 Rises=F Damp=F
 DIIS: error= 1.09D-04 at cycle   7 NSaved=   7.
 NSaved= 7 IEnMin= 7 EnMin= -2849.84269845549     IErMin= 7 ErrMin= 1.09D-04
 ErrMax= 1.09D-04 EMaxC= 1.00D-01 BMatC= 1.31D-06 BMatP= 1.05D-05
 IDIUse=3 WtCom= 9.99D-01 WtEn= 1.09D-03
 Coeff-Com:  0.201D-02-0.368D-02 0.102D-01 0.537D-02 0.260D-01 0.158D+00
 Coeff-Com:  0.802D+00
 Coeff-En:   0.000D+00 0.000D+00 0.000D+00 0.000D+00 0.000D+00 0.000D+00
 Coeff-En:   0.100D+01
 Coeff:      0.200D-02-0.368D-02 0.102D-01 0.537D-02 0.260D-01 0.158D+00
 Coeff:      0.802D+00
 Gap=     0.197 Goal=   None    Shift=    0.000
 RMSDP=1.78D-05 MaxDP=3.46D-04 DE=-1.20D-05 OVMax= 7.38D-04

 Cycle   8  Pass 1  IDiag  1:
 E= -2849.84270040186     Delta-E=       -0.000001946369 Rises=F Damp=F
 DIIS: error= 2.27D-05 at cycle   8 NSaved=   8.
 NSaved= 8 IEnMin= 8 EnMin= -2849.84270040186     IErMin= 8 ErrMin= 2.27D-05
 ErrMax= 2.27D-05 EMaxC= 1.00D-01 BMatC= 5.92D-08 BMatP= 1.31D-06
 IDIUse=1 WtCom= 1.00D+00 WtEn= 0.00D+00
 Coeff-Com:  0.495D-03-0.887D-03 0.248D-02 0.234D-03 0.108D-02 0.145D-01
 Coeff-Com:  0.813D-01 0.901D+00
 Coeff:      0.495D-03-0.887D-03 0.248D-02 0.234D-03 0.108D-02 0.145D-01
 Coeff:      0.813D-01 0.901D+00
 Gap=     0.197 Goal=   None    Shift=    0.000
 RMSDP=3.69D-06 MaxDP=1.15D-04 DE=-1.95D-06 OVMax= 1.60D-04

 Cycle   9  Pass 1  IDiag  1:
 E= -2849.84270048808     Delta-E=       -0.000000086221 Rises=F Damp=F
 DIIS: error= 6.51D-06 at cycle   9 NSaved=   9.
 NSaved= 9 IEnMin= 9 EnMin= -2849.84270048808     IErMin= 9 ErrMin= 6.51D-06
 ErrMax= 6.51D-06 EMaxC= 1.00D-01 BMatC= 3.71D-09 BMatP= 5.92D-08
 IDIUse=1 WtCom= 1.00D+00 WtEn= 0.00D+00
 Coeff-Com:  0.649D-04-0.116D-03 0.515D-03 0.417D-03 0.104D-03-0.602D-02
 Coeff-Com: -0.508D-01 0.261D+00 0.795D+00
 Coeff:      0.649D-04-0.116D-03 0.515D-03 0.417D-03 0.104D-03-0.602D-02
 Coeff:     -0.508D-01 0.261D+00 0.795D+00
 Gap=     0.197 Goal=   None    Shift=    0.000
 RMSDP=9.66D-07 MaxDP=1.93D-05 DE=-8.62D-08 OVMax= 4.22D-05

 Cycle  10  Pass 1  IDiag  1:
 E= -2849.84270049351     Delta-E=       -0.000000005422 Rises=F Damp=F
 DIIS: error= 8.55D-07 at cycle  10 NSaved=  10.
 NSaved=10 IEnMin=10 EnMin= -2849.84270049351     IErMin=10 ErrMin= 8.55D-07
 ErrMax= 8.55D-07 EMaxC= 1.00D-01 BMatC= 8.82D-11 BMatP= 3.71D-09
 IDIUse=1 WtCom= 1.00D+00 WtEn= 0.00D+00
 Coeff-Com:  0.191D-05-0.328D-05 0.454D-04 0.163D-03 0.571D-04-0.193D-02
 Coeff-Com: -0.153D-01 0.124D-01 0.170D+00 0.834D+00
 Coeff:      0.191D-05-0.328D-05 0.454D-04 0.163D-03 0.571D-04-0.193D-02
 Coeff:     -0.153D-01 0.124D-01 0.170D+00 0.834D+00
 Gap=     0.197 Goal=   None    Shift=    0.000
 RMSDP=2.09D-07 MaxDP=7.64D-06 DE=-5.42D-09 OVMax= 8.59D-06

 Cycle  11  Pass 1  IDiag  1:
 E= -2849.84270049364     Delta-E=       -0.000000000131 Rises=F Damp=F
 DIIS: error= 1.15D-07 at cycle  11 NSaved=  11.
 NSaved=11 IEnMin=11 EnMin= -2849.84270049364     IErMin=11 ErrMin= 1.15D-07
 ErrMax= 1.15D-07 EMaxC= 1.00D-01 BMatC= 9.08D-13 BMatP= 8.82D-11
 IDIUse=1 WtCom= 1.00D+00 WtEn= 0.00D+00
 Coeff-Com: -0.133D-05 0.265D-05-0.986D-06 0.308D-04 0.383D-04-0.647D-04
 Coeff-Com: -0.378D-03-0.102D-01-0.245D-02 0.181D+00 0.832D+00
 Coeff:     -0.133D-05 0.265D-05-0.986D-06 0.308D-04 0.383D-04-0.647D-04
 Coeff:     -0.378D-03-0.102D-01-0.245D-02 0.181D+00 0.832D+00
 Gap=     0.197 Goal=   None    Shift=    0.000
 RMSDP=2.36D-08 MaxDP=6.46D-07 DE=-1.31D-10 OVMax= 6.64D-07

 Cycle  12  Pass 1  IDiag  1:
 E= -2849.84270049366     Delta-E=       -0.000000000021 Rises=F Damp=F
 DIIS: error= 2.25D-08 at cycle  12 NSaved=  12.
 NSaved=12 IEnMin=12 EnMin= -2849.84270049366     IErMin=12 ErrMin= 2.25D-08
 ErrMax= 2.25D-08 EMaxC= 1.00D-01 BMatC= 6.01D-14 BMatP= 9.08D-13
 IDIUse=1 WtCom= 1.00D+00 WtEn= 0.00D+00
 Coeff-Com: -0.134D-06 0.295D-06-0.323D-06 0.178D-05 0.692D-05 0.660D-04
 Coeff-Com:  0.456D-03-0.195D-02-0.515D-02 0.143D-01 0.184D+00 0.808D+00
 Coeff:     -0.134D-06 0.295D-06-0.323D-06 0.178D-05 0.692D-05 0.660D-04
 Coeff:      0.456D-03-0.195D-02-0.515D-02 0.143D-01 0.184D+00 0.808D+00
 Gap=     0.197 Goal=   None    Shift=    0.000
 RMSDP=5.27D-09 MaxDP=2.03D-07 DE=-2.14D-11 OVMax= 1.50D-07

 SCF Done:  E(RB3LYP) =  -2849.84270049     A.U. after   12 cycles
             Convg  =    0.5267D-08             -V/T =  2.0062
 KE= 2.832248525733D+03 PE=-7.198524485988D+03 EE= 1.314172333587D+03
 Leave Link  502 at Mon Oct  4 21:22:12 2021, MaxMem=  268435456 cpu:      13.1
 (Enter /sw/target/amd/app/gaussian/Gaussian09RevA.02_gcc-4.9.2/g09/l508.exe)
 QCSCF skips out because SCF is already converged.
 Leave Link  508 at Mon Oct  4 21:22:13 2021, MaxMem=  268435456 cpu:       0.0
 (Enter /sw/target/amd/app/gaussian/Gaussian09RevA.02_gcc-4.9.2/g09/l601.exe)
 Copying SCF densities to generalized density rwf, IOpCl= 0 IROHF=0.

 **********************************************************************

            Population analysis using the SCF density.

 **********************************************************************

 Orbital symmetries:
       Occupied  (A) (A) (A) (A) (A) (A) (A) (A) (A) (A) (A) (A)
                 (A) (A) (A) (A) (A) (A) (A) (A) (A) (A) (A) (A)
                 (A) (A) (A) (A) (A) (A) (A)
       Virtual   (A) (A) (A) (A) (A) (A) (A) (A) (A) (A) (A) (A)
                 (A) (A) (A) (A) (A) (A) (A) (A) (A) (A) (A) (A)
                 (A) (A) (A) (A) (A) (A) (A) (A) (A) (A) (A) (A)
                 (A) (A) (A) (A) (A) (A) (A) (A) (A) (A) (A) (A)
                 (A) (A) (A) (A) (A) (A)
 The electronic state is 1-A.
 Alpha  occ. eigenvalues -- -482.86608 -61.82803 -56.34598 -56.34443 -56.34440
 Alpha  occ. eigenvalues --  -46.87139 -10.19299 -10.18121  -8.53698  -6.48524
 Alpha  occ. eigenvalues --   -6.48030  -6.48023  -3.15334  -2.60173  -2.60036
 Alpha  occ. eigenvalues --   -2.60031  -2.59636  -2.59636  -1.90003  -1.89955
 Alpha  occ. eigenvalues --   -1.89238  -0.75289  -0.70451  -0.55863  -0.45720
 Alpha  occ. eigenvalues --   -0.40202  -0.31020  -0.27496  -0.26393  -0.26218
 Alpha  occ. eigenvalues --   -0.26169
 Alpha virt. eigenvalues --   -0.06490  -0.03368  -0.02667   0.02821   0.06257
 Alpha virt. eigenvalues --    0.10548   0.11819   0.14211   0.15126   0.18247
 Alpha virt. eigenvalues --    0.21693   0.25436   0.25725   0.26654   0.28745
 Alpha virt. eigenvalues --    0.28931   0.35312   0.39481   0.45209   0.51264
 Alpha virt. eigenvalues --    0.51265   0.52017   0.52401   0.54386   0.58316
 Alpha virt. eigenvalues --    0.60550   0.63082   0.64186   0.68506   0.70465
 Alpha virt. eigenvalues --    0.78546   0.81184   0.86335   0.90366   0.92063
 Alpha virt. eigenvalues --    0.93558   1.04684   1.12838   1.30350   1.46970
 Alpha virt. eigenvalues --    1.58190   1.67995   1.86987   1.91730   1.95273
 Alpha virt. eigenvalues --    2.12561   2.27360   2.39076   2.61482   2.73010
 Alpha virt. eigenvalues --    4.12525   4.27290   8.74165  74.70146
          Condensed to atoms (all electrons):
              1          2          3          4          5          6
     1  Br  35.030940   0.340669  -0.001632   0.000018   0.000024   0.000013
     2  Mg   0.340669  10.794793   0.388642  -0.010225  -0.047623  -0.020626
     3  C   -0.001632   0.388642   4.983461   0.649711   0.343221  -0.051312
     4  C    0.000018  -0.010225   0.649711   4.967756  -0.040227   0.375317
     5  H    0.000024  -0.047623   0.343221  -0.040227   0.619147   0.007333
     6  H    0.000013  -0.020626  -0.051312   0.375317   0.007333   0.601999
     7  H   -0.000001   0.010669  -0.037204   0.366890  -0.013740  -0.048568
              7
     1  Br  -0.000001
     2  Mg   0.010669
     3  C   -0.037204
     4  C    0.366890
     5  H   -0.013740
     6  H   -0.048568
     7  H    0.579207
 Mulliken atomic charges:
              1
     1  Br  -0.370032
     2  Mg   0.543701
     3  C   -0.274886
     4  C   -0.309239
     5  H    0.131865
     6  H    0.135844
     7  H    0.142747
 Sum of Mulliken atomic charges =  -0.00000
 Mulliken charges with hydrogens summed into heavy atoms:
              1
     1  Br  -0.370032
     2  Mg   0.543701
     3  C   -0.143022
     4  C   -0.030648
 Sum of Mulliken charges with hydrogens summed into heavy atoms =  -0.00000
 Electronic spatial extent (au):  <R**2>=           1207.3757
 Charge=             -0.0000 electrons
 Dipole moment (field-independent basis, Debye):
    X=             -3.1504    Y=             -0.3368    Z=              0.0002  Tot=              3.1683
 Quadrupole moment (field-independent basis, Debye-Ang):
   XX=            -47.8808   YY=            -38.6080   ZZ=            -41.5603
   XY=             -0.4993   XZ=             -0.0009   YZ=              0.0002
 Traceless Quadrupole moment (field-independent basis, Debye-Ang):
   XX=             -5.1978   YY=              4.0750   ZZ=              1.1227
   XY=             -0.4993   XZ=             -0.0009   YZ=              0.0002
 Octapole moment (field-independent basis, Debye-Ang**2):
  XXX=             51.4964  YYY=              0.1597  ZZZ=              0.0004  XYY=             13.2209
  XXY=              2.0446  XXZ=              0.0037  XZZ=             21.9739  YZZ=              0.0472
  YYZ=              0.0005  XYZ=             -0.0007
 Hexadecapole moment (field-independent basis, Debye-Ang**3):
 XXXX=          -1321.8660 YYYY=            -89.7184 ZZZZ=            -54.1650 XXXY=              4.1787
 XXXZ=             -0.0163 YYYX=              4.8311 YYYZ=              0.0006 ZZZX=             -0.0016
 ZZZY=              0.0002 XXYY=           -237.8747 XXZZ=           -259.7981 YYZZ=            -25.0593
 XXYZ=              0.0026 YYXZ=             -0.0019 ZZXY=              1.6222
 N-N= 2.022609261745D+02 E-N=-7.198524485614D+03  KE= 2.832248525733D+03
 No NMR shielding tensors so no spin-rotation constants.
 Leave Link  601 at Mon Oct  4 21:25:08 2021, MaxMem=  268435456 cpu:       0.3
 (Enter /sw/target/amd/app/gaussian/Gaussian09RevA.02_gcc-4.9.2/g09/l701.exe)
 Compute integral first derivatives.
 ... and contract with generalized density number  0.
 Leave Link  701 at Mon Oct  4 21:25:18 2021, MaxMem=  268435456 cpu:       0.3
 (Enter /sw/target/amd/app/gaussian/Gaussian09RevA.02_gcc-4.9.2/g09/l702.exe)
 L702 exits ... SP integral derivatives will be done elsewhere.
 Leave Link  702 at Mon Oct  4 21:25:19 2021, MaxMem=  268435456 cpu:       0.0
 (Enter /sw/target/amd/app/gaussian/Gaussian09RevA.02_gcc-4.9.2/g09/l703.exe)
 Compute integral first derivatives, UseDBF=F ICtDFT=           0.
 Integral derivatives from FoFDir, PRISM(SPDF).
 Calling FoFJK, ICntrl=      2127 FMM=F ISym2X=0 I1Cent= 0 IOpClX= 0 NMat=1 NMatS=1 NMatT=0.
 FoFCou: FMM=F IPFlag=           0 FMFlag=      100000 FMFlg1=         800
         NFxFlg=           0 DoJE=F BraDBF=F KetDBF=F FulRan=T
         Omega=  0.000000  0.000000  1.000000  0.000000  0.000000 ICntrl=    2127 IOpCl=  0
         NMat0=    1 NMatS0=    1 NMatT0=    0 NMatD0=    1 NMtDS0=    0 NMtDT0=    0
         I1Cent=           0 NGrid=           0.
 Symmetry not used in FoFCou.
 Leave Link  703 at Mon Oct  4 21:26:39 2021, MaxMem=  268435456 cpu:       4.6
 (Enter /sw/target/amd/app/gaussian/Gaussian09RevA.02_gcc-4.9.2/g09/l716.exe)
 Dipole        =-1.23945920D+00-1.32497241D-01 9.10540424D-05
 ***** Axes restored to original set *****
 -------------------------------------------------------------------
 Center     Atomic                   Forces (Hartrees/Bohr)
 Number     Number              X              Y              Z
 -------------------------------------------------------------------
      1       35           0.035004144   -0.000124903    0.000076295
      2       12          -0.017659462    0.001183583   -0.000722949
      3        6          -0.034392794    0.007970401   -0.004871260
      4        6          -0.000127864    0.002026995   -0.001209785
      5        1           0.005775500    0.001640155   -0.001005486
      6        1           0.006673707   -0.006132492    0.003732853
      7        1           0.004726769   -0.006563739    0.004000331
 -------------------------------------------------------------------
 Cartesian Forces:  Max     0.035004144 RMS     0.012010642
 Leave Link  716 at Mon Oct  4 21:27:01 2021, MaxMem=  268435456 cpu:       0.1
 (Enter /sw/target/amd/app/gaussian/Gaussian09RevA.02_gcc-4.9.2/g09/l103.exe)

 GradGradGradGradGradGradGradGradGradGradGradGradGradGradGradGradGradGrad
 Berny optimization.
 Internal  Forces:  Max     0.035003721 RMS     0.010905302
 Search for a local minimum.
 Step number   1 out of a maximum of   28
 All quantities printed in internal units (Hartrees-Bohrs-Radians)
 RMS Force = .10905D-01 SwitMx=.10000D-02 MixMth= 1
 Mixed Optimization -- RFO/linear search
 Second derivative matrix not updated -- first step.
 The second derivative matrix:
                          R1        R2        R3        R4        R5
           R1           0.05774
           R2           0.00000   0.10112
           R3           0.00000   0.00000   0.59543
           R4           0.00000   0.00000   0.00000   0.35382
           R5           0.00000   0.00000   0.00000   0.00000   0.35469
           R6           0.00000   0.00000   0.00000   0.00000   0.00000
           A1           0.00000   0.00000   0.00000   0.00000   0.00000
           A2           0.00000   0.00000   0.00000   0.00000   0.00000
           A3           0.00000   0.00000   0.00000   0.00000   0.00000
           A4           0.00000   0.00000   0.00000   0.00000   0.00000
           A5           0.00000   0.00000   0.00000   0.00000   0.00000
           A6           0.00000   0.00000   0.00000   0.00000   0.00000
           A7           0.00000   0.00000   0.00000   0.00000   0.00000
           A8           0.00000   0.00000   0.00000   0.00000   0.00000
           D1           0.00000   0.00000   0.00000   0.00000   0.00000
           D2           0.00000   0.00000   0.00000   0.00000   0.00000
           D3           0.00000   0.00000   0.00000   0.00000   0.00000
           D4           0.00000   0.00000   0.00000   0.00000   0.00000
                          R6        A1        A2        A3        A4
           R6           0.35380
           A1           0.00000   0.25000
           A2           0.00000   0.00000   0.16000
           A3           0.00000   0.00000   0.00000   0.16000
           A4           0.00000   0.00000   0.00000   0.00000   0.16000
           A5           0.00000   0.00000   0.00000   0.00000   0.00000
           A6           0.00000   0.00000   0.00000   0.00000   0.00000
           A7           0.00000   0.00000   0.00000   0.00000   0.00000
           A8           0.00000   0.00000   0.00000   0.00000   0.00000
           D1           0.00000   0.00000   0.00000   0.00000   0.00000
           D2           0.00000   0.00000   0.00000   0.00000   0.00000
           D3           0.00000   0.00000   0.00000   0.00000   0.00000
           D4           0.00000   0.00000   0.00000   0.00000   0.00000
                          A5        A6        A7        A8        D1
           A5           0.16000
           A6           0.00000   0.16000
           A7           0.00000   0.00000   0.00240
           A8           0.00000   0.00000   0.00000   0.00240
           D1           0.00000   0.00000   0.00000   0.00000   0.03017
           D2           0.00000   0.00000   0.00000   0.00000   0.00000
           D3           0.00000   0.00000   0.00000   0.00000   0.00000
           D4           0.00000   0.00000   0.00000   0.00000   0.00000
                          D2        D3        D4
           D2           0.03017
           D3           0.00000   0.03017
           D4           0.00000   0.00000   0.03017
     Eigenvalues ---    0.00240   0.00240   0.03017   0.03017   0.03017
     Eigenvalues ---    0.05774   0.10112   0.16000   0.16000   0.16000
     Eigenvalues ---    0.22000   0.35380   0.35382   0.35469   0.59543
     Eigenvalues --- 1000.000001000.000001000.00000
 RFO step:  Lambda=-2.03263309D-02 EMin= 2.39615807D-03
 Linear search not attempted -- first point.
 Maximum step size (   0.300) exceeded in Quadratic search.
    -- Step size scaled by   0.623
 Iteration  1 RMS(Cart)=  0.05846870 RMS(Int)=  0.01881547
 Iteration  2 RMS(Cart)=  0.01729398 RMS(Int)=  0.00000087
 Iteration  3 RMS(Cart)=  0.00000193 RMS(Int)=  0.00000000
 Iteration  4 RMS(Cart)=  0.00000000 RMS(Int)=  0.00000000
 Variable       Old X    -DE/DX   Delta X   Delta X   Delta X     New X
                                 (Linear)    (Quad)   (Total)
    R1        4.93219  -0.03500   0.00000  -0.27933  -0.27933   4.65286
    R2        4.10071  -0.01734   0.00000  -0.08896  -0.08896   4.01175
    R3        2.51304   0.01645   0.00000   0.01664   0.01664   2.52967
    R4        2.05059   0.00454   0.00000   0.00756   0.00756   2.05816
    R5        2.04920   0.00281   0.00000   0.00466   0.00466   2.05387
    R6        2.05062   0.00482   0.00000   0.00802   0.00802   2.05864
    A1        2.08953   0.00565   0.00000   0.01465   0.01465   2.10419
    A2        2.09177   0.00133   0.00000   0.00702   0.00702   2.09879
    A3        2.10188  -0.00698   0.00000  -0.02167  -0.02167   2.08021
    A4        2.09143   0.00762   0.00000   0.02631   0.02631   2.11774
    A5        2.10111   0.00401   0.00000   0.01387   0.01387   2.11498
    A6        2.09064  -0.01163   0.00000  -0.04018  -0.04018   2.05046
    A7        3.14159  -0.00074   0.00000  -0.02028  -0.02028   3.12132
    A8        3.14159   0.00000   0.00000   0.00000   0.00000   3.14159
    D1       -0.00025   0.00001   0.00000   0.00011   0.00011  -0.00014
    D2       -3.14145  -0.00001   0.00000  -0.00011  -0.00011  -3.14157
    D3        3.14136   0.00001   0.00000   0.00015   0.00015   3.14151
    D4        0.00016  -0.00001   0.00000  -0.00007  -0.00007   0.00008
         Item               Value     Threshold  Converged?
 Maximum Force            0.035004     0.000450     NO 
 RMS     Force            0.010905     0.000300     NO 
 Maximum Displacement     0.277953     0.001800     NO 
 RMS     Displacement     0.074610     0.001200     NO 
 Predicted change in Energy=-9.632795D-03
 GradGradGradGradGradGradGradGradGradGradGradGradGradGradGradGradGradGrad

 Leave Link  103 at Mon Oct  4 21:27:17 2021, MaxMem=  268435456 cpu:       0.0
 (Enter /sw/target/amd/app/gaussian/Gaussian09RevA.02_gcc-4.9.2/g09/l202.exe)
                          Input orientation:                          
 ---------------------------------------------------------------------
 Center     Atomic      Atomic             Coordinates (Angstroms)
 Number     Number       Type             X           Y           Z
 ---------------------------------------------------------------------
      1         35           0        1.195812    0.039631   -0.059651
      2         12           0        3.657739    0.070205   -0.078296
      3          6           0        5.780629    0.059828   -0.071937
      4          6           0        6.454653   -0.927270    0.530808
      5          1           0        6.334721    0.860058   -0.560629
      6          1           0        5.937219   -1.742936    1.029019
      7          1           0        7.543890   -0.942617    0.540220
 ---------------------------------------------------------------------
                    Distance matrix (angstroms):
                    1          2          3          4          5
     1  Br   0.000000
     2  Mg   2.462187   0.000000
     3  C    4.584878   2.122925   0.000000
     4  C    5.379493   3.031285   1.338646   0.000000
     5  H    5.228045   2.832445   1.089130   2.097656   0.000000
     6  H    5.181089   3.116031   2.118155   1.086859   3.075803
     7  H    6.451569   4.063316   2.118660   1.089386   2.433844
                    6          7
     6  H    0.000000
     7  H    1.860330   0.000000
 Stoichiometry    C2H3BrMg
 Framework group  C1[X(C2H3BrMg)]
 Deg. of freedom    15
 Full point group                 C1      NOp   1
 Largest Abelian subgroup         C1      NOp   1
 Largest concise Abelian subgroup C1      NOp   1
                         Standard orientation:                         
 ---------------------------------------------------------------------
 Center     Atomic      Atomic             Coordinates (Angstroms)
 Number     Number       Type             X           Y           Z
 ---------------------------------------------------------------------
      1         35           0        1.695198    0.064301   -0.000001
      2         12           0       -0.745113   -0.263190    0.000005
      3          6           0       -2.854468   -0.502836    0.000011
      4          6           0       -3.660882    0.565653   -0.000025
      5          1           0       -3.293465   -1.499574   -0.000011
      6          1           0       -3.260435    1.576051    0.000076
      7          1           0       -4.744569    0.454368    0.000003
 ---------------------------------------------------------------------
 Rotational constants (GHZ):     36.5728935      0.9398594      0.9163118
 Leave Link  202 at Mon Oct  4 21:27:21 2021, MaxMem=  268435456 cpu:       0.0
 (Enter /sw/target/amd/app/gaussian/Gaussian09RevA.02_gcc-4.9.2/g09/l301.exe)
 Standard basis: 6-31G(d) (6D, 7F)
 Ernie: Thresh=  0.10000D-02 Tol=  0.10000D-05 Strict=F.
 There are    85 symmetry adapted basis functions of A   symmetry.
 Integral buffers will be    131072 words long.
 Raffenetti 2 integral format.
 Two-electron integral symmetry is turned on.
    85 basis functions,   203 primitive gaussians,    85 cartesian basis functions
    31 alpha electrons       31 beta electrons
       nuclear repulsion energy       209.6770326602 Hartrees.
 IExCor=  402 DFT=T Ex+Corr=B3LYP ExCW=0 ScaHFX=  0.200000
 ScaDFX=  0.800000  0.720000  1.000000  0.810000 ScalE2=  1.000000  1.000000
 IRadAn=      0 IRanWt=     -1 IRanGd=            0 ICorTp=0
 NAtoms=    7 NActive=    7 NUniq=    7 SFac= 7.50D-01 NAtFMM=   80 NAOKFM=F Big=F
 Leave Link  301 at Mon Oct  4 21:27:24 2021, MaxMem=  268435456 cpu:       0.1
 (Enter /sw/target/amd/app/gaussian/Gaussian09RevA.02_gcc-4.9.2/g09/l302.exe)
 NPDir=0 NMtPBC=     1 NCelOv=     1 NCel=       1 NClECP=     1 NCelD=      1
         NCelK=      1 NCelE2=     1 NClLst=     1 CellRange=     0.0.
 One-electron integrals computed using PRISM.
 NBasis=    85 RedAO= T  NBF=    85
 NBsUse=    85 1.00D-06 NBFU=    85
 Precomputing XC quadrature grid using
 IXCGrd= 2 IRadAn=           0 IRanWt=          -1 IRanGd=           0 AccXCQ= 1.00D-10.
 NRdTot=     439 NPtTot=       59010 NUsed=       62187 NTot=       62219
 NSgBfM=    84    84    84    84    84 NAtAll=     7     7.
 Leave Link  302 at Mon Oct  4 21:27:44 2021, MaxMem=  268435456 cpu:       0.4
 (Enter /sw/target/amd/app/gaussian/Gaussian09RevA.02_gcc-4.9.2/g09/l303.exe)
 DipDrv:  MaxL=1.
 Leave Link  303 at Mon Oct  4 21:28:06 2021, MaxMem=  268435456 cpu:       0.1
 (Enter /sw/target/amd/app/gaussian/Gaussian09RevA.02_gcc-4.9.2/g09/l401.exe)
 Initial guess read from the read-write file.
 B after Tr=     0.000000    0.000000    0.000000
         Rot=    1.000000    0.000000    0.000000    0.000000 Ang=   0.00 deg.
 Guess basis will be translated and rotated to current coordinates.
 Initial guess orbital symmetries:
       Occupied  (A) (A) (A) (A) (A) (A) (A) (A) (A) (A) (A) (A)
                 (A) (A) (A) (A) (A) (A) (A) (A) (A) (A) (A) (A)
                 (A) (A) (A) (A) (A) (A) (A)
       Virtual   (A) (A) (A) (A) (A) (A) (A) (A) (A) (A) (A) (A)
                 (A) (A) (A) (A) (A) (A) (A) (A) (A) (A) (A) (A)
                 (A) (A) (A) (A) (A) (A) (A) (A) (A) (A) (A) (A)
                 (A) (A) (A) (A) (A) (A) (A) (A) (A) (A) (A) (A)
                 (A) (A) (A) (A) (A) (A)
 The electronic state of the initial guess is 1-A.
 Generating alternative initial guess.
 Harris functional with IExCor=  402 diagonalized for initial guess.
 ExpMin= 4.21D-02 ExpMax= 5.74D+05 ExpMxC= 5.74D+03 IAcc=2 IRadAn=         0 AccDes= 0.00D+00
 HarFok:  IExCor=  402 AccDes= 0.00D+00 IRadAn=         0 IDoV= 1
 ScaDFX=  1.000000  1.000000  1.000000  1.000000
 FoFCou: FMM=F IPFlag=           0 FMFlag=      100000 FMFlg1=           0
         NFxFlg=           0 DoJE=T BraDBF=F KetDBF=T FulRan=T
         Omega=  0.000000  0.000000  1.000000  0.000000  0.000000 ICntrl=     500 IOpCl=  0
         NMat0=    1 NMatS0=    1 NMatT0=    0 NMatD0=    1 NMtDS0=    0 NMtDT0=    0
         I1Cent=           4 NGrid=           0.
 Petite list used in FoFCou.
 Harris En= -2850.07361603950    
 Leave Link  401 at Mon Oct  4 21:28:16 2021, MaxMem=  268435456 cpu:       2.1
 (Enter /sw/target/amd/app/gaussian/Gaussian09RevA.02_gcc-4.9.2/g09/l502.exe)
 Closed shell SCF:
 Requested convergence on RMS density matrix=1.00D-08 within  64 cycles.
 Requested convergence on MAX density matrix=1.00D-06.
 Requested convergence on             energy=1.00D-06.
 No special actions if energy rises.
 Using DIIS extrapolation, IDIIS=  1040.
 Integral symmetry usage will be decided dynamically.
        62111 words used for storage of precomputed grid.
 Keep R1 ints in memory in canonical form, NReq=7676908.
 IEnd=       90474 IEndB=       90474 NGot=   268435456 MDV=   261675149
 LenX=   261675149 LenY=   261667483
 Symmetry not used in FoFDir.
 MinBra= 0 MaxBra= 2 Meth= 1.
 IRaf=       0 NMat=   1 IRICut=       1 DoRegI=T DoRafI=F ISym2E= 0 JSym2E=0.

 Cycle   1  Pass 1  IDiag  1:
 E= -2849.85188063546    
 DIIS: error= 1.33D-02 at cycle   1 NSaved=   1.
 NSaved= 1 IEnMin= 1 EnMin= -2849.85188063546     IErMin= 1 ErrMin= 1.33D-02
 ErrMax= 1.33D-02 EMaxC= 1.00D-01 BMatC= 1.23D-02 BMatP= 1.23D-02
 IDIUse=3 WtCom= 8.67D-01 WtEn= 1.33D-01
 Coeff-Com:  0.100D+01
 Coeff-En:   0.100D+01
 Coeff:      0.100D+01
 Recover alternate guess density for next cycle.
 RMSDP=7.38D-03 MaxDP=1.61D-01              OVMax= 0.00D+00

 Cycle   2  Pass 1  IDiag  1:
 E= -2849.65631968255     Delta-E=        0.195560952918 Rises=F Damp=F
 Switch densities from cycles 1 and 2 for lowest energy.
 DIIS: error= 1.56D-01 at cycle   2 NSaved=   2.
 NSaved= 2 IEnMin= 1 EnMin= -2849.85188063546     IErMin= 1 ErrMin= 1.33D-02
 ErrMax= 1.56D-01 EMaxC= 1.00D+00 BMatC= 5.67D-01 BMatP= 1.23D-02
 IDIUse=1 WtCom= 1.00D+00 WtEn= 0.00D+00
 Coeff-Com:  0.978D+00 0.223D-01
 Coeff:      0.978D+00 0.223D-01
 Gap=     0.289 Goal=   None    Shift=    0.000
 RMSDP=1.18D-03 MaxDP=2.73D-02 DE= 1.96D-01 OVMax= 1.89D-01

 Cycle   3  Pass 1  IDiag  1:
 E= -2849.85279541259     Delta-E=       -0.196475730048 Rises=F Damp=F
 DIIS: error= 1.23D-03 at cycle   3 NSaved=   3.
 NSaved= 3 IEnMin= 3 EnMin= -2849.85279541259     IErMin= 3 ErrMin= 1.23D-03
 ErrMax= 1.23D-03 EMaxC= 1.00D+00 BMatC= 1.97D-04 BMatP= 1.23D-02
 IDIUse=1 WtCom= 1.00D+00 WtEn= 0.00D+00
 Coeff-Com:  0.170D-01 0.932D-02 0.974D+00
 Coeff:      0.170D-01 0.932D-02 0.974D+00
 Gap=     0.212 Goal=   None    Shift=    0.000
 RMSDP=3.55D-04 MaxDP=6.42D-03 DE=-1.96D-01 OVMax= 1.02D-02

 Cycle   4  Pass 1  IDiag  1:
 E= -2849.85285361895     Delta-E=       -0.000058206356 Rises=F Damp=F
 DIIS: error= 1.20D-03 at cycle   4 NSaved=   4.
 NSaved= 4 IEnMin= 4 EnMin= -2849.85285361895     IErMin= 4 ErrMin= 1.20D-03
 ErrMax= 1.20D-03 EMaxC= 1.00D+00 BMatC= 1.41D-04 BMatP= 1.97D-04
 IDIUse=1 WtCom= 1.00D+00 WtEn= 0.00D+00
 Coeff-Com: -0.160D-03 0.565D-03 0.465D+00 0.535D+00
 Coeff:     -0.160D-03 0.565D-03 0.465D+00 0.535D+00
 Gap=     0.211 Goal=   None    Shift=    0.000
 RMSDP=1.68D-04 MaxDP=3.18D-03 DE=-5.82D-05 OVMax= 5.14D-03

 Cycle   5  Pass 1  IDiag  1:
 E= -2849.85301369910     Delta-E=       -0.000160080152 Rises=F Damp=F
 DIIS: error= 3.14D-04 at cycle   5 NSaved=   5.
 NSaved= 5 IEnMin= 5 EnMin= -2849.85301369910     IErMin= 5 ErrMin= 3.14D-04
 ErrMax= 3.14D-04 EMaxC= 1.00D+00 BMatC= 6.59D-06 BMatP= 1.41D-04
 IDIUse=1 WtCom= 1.00D+00 WtEn= 0.00D+00
 Coeff-Com: -0.351D-03 0.352D-04 0.263D+00 0.333D+00 0.404D+00
 Coeff:     -0.351D-03 0.352D-04 0.263D+00 0.333D+00 0.404D+00
 Gap=     0.211 Goal=   None    Shift=    0.000
 RMSDP=2.77D-05 MaxDP=7.27D-04 DE=-1.60D-04 OVMax= 1.35D-03

 Cycle   6  Pass 1  IDiag  1:
 E= -2849.85302057613     Delta-E=       -0.000006877031 Rises=F Damp=F
 DIIS: error= 4.65D-05 at cycle   6 NSaved=   6.
 NSaved= 6 IEnMin= 6 EnMin= -2849.85302057613     IErMin= 6 ErrMin= 4.65D-05
 ErrMax= 4.65D-05 EMaxC= 1.00D+00 BMatC= 2.46D-07 BMatP= 6.59D-06
 IDIUse=1 WtCom= 1.00D+00 WtEn= 0.00D+00
 Coeff-Com: -0.183D-03 0.612D-04 0.620D-01 0.920D-01 0.182D+00 0.665D+00
 Coeff:     -0.183D-03 0.612D-04 0.620D-01 0.920D-01 0.182D+00 0.665D+00
 Gap=     0.211 Goal=   None    Shift=    0.000
 RMSDP=8.09D-06 MaxDP=1.77D-04 DE=-6.88D-06 OVMax= 3.48D-04

 Cycle   7  Pass 1  IDiag  1:
 E= -2849.85302085923     Delta-E=       -0.000000283100 Rises=F Damp=F
 DIIS: error= 1.18D-05 at cycle   7 NSaved=   7.
 NSaved= 7 IEnMin= 7 EnMin= -2849.85302085923     IErMin= 7 ErrMin= 1.18D-05
 ErrMax= 1.18D-05 EMaxC= 1.00D+00 BMatC= 2.19D-08 BMatP= 2.46D-07
 IDIUse=1 WtCom= 1.00D+00 WtEn= 0.00D+00
 Coeff-Com: -0.159D-04-0.972D-05-0.258D-02 0.310D-02 0.273D-01 0.292D+00
 Coeff-Com:  0.681D+00
 Coeff:     -0.159D-04-0.972D-05-0.258D-02 0.310D-02 0.273D-01 0.292D+00
 Coeff:      0.681D+00
 Gap=     0.211 Goal=   None    Shift=    0.000
 RMSDP=2.09D-06 MaxDP=2.95D-05 DE=-2.83D-07 OVMax= 5.50D-05

 Cycle   8  Pass 1  IDiag  1:
 E= -2849.85302088655     Delta-E=       -0.000000027312 Rises=F Damp=F
 DIIS: error= 1.56D-06 at cycle   8 NSaved=   8.
 NSaved= 8 IEnMin= 8 EnMin= -2849.85302088655     IErMin= 8 ErrMin= 1.56D-06
 ErrMax= 1.56D-06 EMaxC= 1.00D+00 BMatC= 3.38D-10 BMatP= 2.19D-08
 IDIUse=1 WtCom= 1.00D+00 WtEn= 0.00D+00
 Coeff-Com:  0.230D-05-0.323D-05-0.395D-02-0.385D-02-0.366D-03 0.681D-01
 Coeff-Com:  0.186D+00 0.754D+00
 Coeff:      0.230D-05-0.323D-05-0.395D-02-0.385D-02-0.366D-03 0.681D-01
 Coeff:      0.186D+00 0.754D+00
 Gap=     0.211 Goal=   None    Shift=    0.000
 RMSDP=4.14D-07 MaxDP=1.13D-05 DE=-2.73D-08 OVMax= 1.12D-05

 Cycle   9  Pass 1  IDiag  1:
 E= -2849.85302088694     Delta-E=       -0.000000000390 Rises=F Damp=F
 DIIS: error= 8.04D-07 at cycle   9 NSaved=   9.
 NSaved= 9 IEnMin= 9 EnMin= -2849.85302088694     IErMin= 9 ErrMin= 8.04D-07
 ErrMax= 8.04D-07 EMaxC= 1.00D+00 BMatC= 6.05D-11 BMatP= 3.38D-10
 IDIUse=1 WtCom= 1.00D+00 WtEn= 0.00D+00
 Coeff-Com:  0.149D-05-0.128D-05-0.188D-02-0.216D-02-0.190D-02 0.197D-01
 Coeff-Com:  0.567D-01 0.379D+00 0.550D+00
 Coeff:      0.149D-05-0.128D-05-0.188D-02-0.216D-02-0.190D-02 0.197D-01
 Coeff:      0.567D-01 0.379D+00 0.550D+00
 Gap=     0.211 Goal=   None    Shift=    0.000
 RMSDP=1.55D-07 MaxDP=3.36D-06 DE=-3.90D-10 OVMax= 4.60D-06

 Cycle  10  Pass 1  IDiag  1:
 E= -2849.85302088705     Delta-E=       -0.000000000112 Rises=F Damp=F
 DIIS: error= 1.39D-07 at cycle  10 NSaved=  10.
 NSaved=10 IEnMin=10 EnMin= -2849.85302088705     IErMin=10 ErrMin= 1.39D-07
 ErrMax= 1.39D-07 EMaxC= 1.00D+00 BMatC= 9.07D-13 BMatP= 6.05D-11
 IDIUse=1 WtCom= 1.00D+00 WtEn= 0.00D+00
 Coeff-Com:  0.150D-06 0.495D-07-0.122D-03-0.187D-03-0.416D-03 0.318D-03
 Coeff-Com: -0.128D-02 0.250D-01 0.101D+00 0.875D+00
 Coeff:      0.150D-06 0.495D-07-0.122D-03-0.187D-03-0.416D-03 0.318D-03
 Coeff:     -0.128D-02 0.250D-01 0.101D+00 0.875D+00
 Gap=     0.211 Goal=   None    Shift=    0.000
 RMSDP=1.46D-08 MaxDP=2.87D-07 DE=-1.12D-10 OVMax= 4.78D-07

 Cycle  11  Pass 1  IDiag  1:
 E= -2849.85302088703     Delta-E=        0.000000000018 Rises=F Damp=F
 DIIS: error= 8.38D-09 at cycle  11 NSaved=  11.
 NSaved=11 IEnMin=10 EnMin= -2849.85302088705     IErMin=11 ErrMin= 8.38D-09
 ErrMax= 8.38D-09 EMaxC= 1.00D+00 BMatC= 6.21D-15 BMatP= 9.07D-13
 IDIUse=1 WtCom= 1.00D+00 WtEn= 0.00D+00
 Coeff-Com: -0.469D-08 0.354D-08 0.271D-04 0.302D-04 0.124D-04-0.363D-03
 Coeff-Com: -0.113D-02-0.701D-02 0.776D-04 0.574D-01 0.951D+00
 Coeff:     -0.469D-08 0.354D-08 0.271D-04 0.302D-04 0.124D-04-0.363D-03
 Coeff:     -0.113D-02-0.701D-02 0.776D-04 0.574D-01 0.951D+00
 Gap=     0.211 Goal=   None    Shift=    0.000
 RMSDP=2.05D-09 MaxDP=2.48D-08 DE= 1.82D-11 OVMax= 5.82D-08

 SCF Done:  E(RB3LYP) =  -2849.85302089     A.U. after   11 cycles
             Convg  =    0.2052D-08             -V/T =  2.0062
 KE= 2.832309076263D+03 PE=-7.213336760483D+03 EE= 1.321497630673D+03
 Leave Link  502 at Mon Oct  4 21:28:36 2021, MaxMem=  268435456 cpu:      10.6
 (Enter /sw/target/amd/app/gaussian/Gaussian09RevA.02_gcc-4.9.2/g09/l508.exe)
 QCSCF skips out because SCF is already converged.
 Leave Link  508 at Mon Oct  4 21:28:36 2021, MaxMem=  268435456 cpu:       0.0
 (Enter /sw/target/amd/app/gaussian/Gaussian09RevA.02_gcc-4.9.2/g09/l701.exe)
 Compute integral first derivatives.
 ... and contract with generalized density number  0.
 Leave Link  701 at Mon Oct  4 21:28:44 2021, MaxMem=  268435456 cpu:       0.3
 (Enter /sw/target/amd/app/gaussian/Gaussian09RevA.02_gcc-4.9.2/g09/l702.exe)
 L702 exits ... SP integral derivatives will be done elsewhere.
 Leave Link  702 at Mon Oct  4 21:29:00 2021, MaxMem=  268435456 cpu:       0.1
 (Enter /sw/target/amd/app/gaussian/Gaussian09RevA.02_gcc-4.9.2/g09/l703.exe)
 Compute integral first derivatives, UseDBF=F ICtDFT=           0.
 Integral derivatives from FoFDir, PRISM(SPDF).
 Calling FoFJK, ICntrl=      2127 FMM=F ISym2X=0 I1Cent= 0 IOpClX= 0 NMat=1 NMatS=1 NMatT=0.
 FoFCou: FMM=F IPFlag=           0 FMFlag=      100000 FMFlg1=         800
         NFxFlg=           0 DoJE=F BraDBF=F KetDBF=F FulRan=T
         Omega=  0.000000  0.000000  1.000000  0.000000  0.000000 ICntrl=    2127 IOpCl=  0
         NMat0=    1 NMatS0=    1 NMatT0=    0 NMatD0=    1 NMtDS0=    0 NMtDT0=    0
         I1Cent=           0 NGrid=           0.
 Symmetry not used in FoFCou.
 Leave Link  703 at Mon Oct  4 21:29:11 2021, MaxMem=  268435456 cpu:       6.6
 (Enter /sw/target/amd/app/gaussian/Gaussian09RevA.02_gcc-4.9.2/g09/l716.exe)
 Dipole        =-9.80047919D-01-1.49598564D-01 2.31199471D-05
 ***** Axes restored to original set *****
 -------------------------------------------------------------------
 Center     Atomic                   Forces (Hartrees/Bohr)
 Number     Number              X              Y              Z
 -------------------------------------------------------------------
      1       35           0.020848887    0.000327638   -0.000199913
      2       12          -0.010526733   -0.000018109    0.000011451
      3        6          -0.021500620    0.002191777   -0.001342111
      4        6           0.000374220    0.005258986   -0.003198751
      5        1           0.004857960   -0.000118539    0.000071471
      6        1           0.003739726   -0.003407249    0.002075559
      7        1           0.002206561   -0.004234504    0.002582295
 -------------------------------------------------------------------
 Cartesian Forces:  Max     0.021500620 RMS     0.007353447
 Leave Link  716 at Mon Oct  4 21:29:12 2021, MaxMem=  268435456 cpu:       0.1
 (Enter /sw/target/amd/app/gaussian/Gaussian09RevA.02_gcc-4.9.2/g09/l103.exe)

 GradGradGradGradGradGradGradGradGradGradGradGradGradGradGradGradGradGrad
 Berny optimization.
 Using GEDIIS/GDIIS optimizer.
 Internal  Forces:  Max     0.020851915 RMS     0.006343653
 Search for a local minimum.
 Step number   2 out of a maximum of   28
 All quantities printed in internal units (Hartrees-Bohrs-Radians)
 RMS Force = .63437D-02 SwitMx=.10000D-02 MixMth= 1
 Mixed Optimization -- RFO/linear search
 Update second derivatives using D2CorX and points    1    2
 DE= -1.03D-02 DEPred=-9.63D-03 R= 1.07D+00
 SS=  1.41D+00  RLast= 3.00D-01 DXNew= 5.0454D-01 9.0000D-01
 Trust test= 1.07D+00 RLast= 3.00D-01 DXMaxT set to 5.05D-01
 The second derivative matrix:
                          R1        R2        R3        R4        R5
           R1           0.05370
           R2          -0.00464   0.09735
           R3          -0.00345  -0.00009   0.60210
           R4           0.00110   0.00099   0.00024   0.35357
           R5           0.00144   0.00098  -0.00043  -0.00027   0.35446
           R6           0.00061   0.00076   0.00069  -0.00018  -0.00024
           A1           0.00597   0.00356  -0.00309  -0.00103  -0.00071
           A2           0.00549   0.00291  -0.00376  -0.00088  -0.00050
           A3          -0.00795  -0.00451   0.00469   0.00133   0.00085
           A4           0.00052   0.00095   0.00131  -0.00021  -0.00033
           A5           0.00367   0.00219  -0.00192  -0.00063  -0.00044
           A6          -0.00419  -0.00313   0.00060   0.00084   0.00077
           A7           0.00290   0.00143  -0.00224  -0.00045  -0.00022
           A8          -0.00000  -0.00000   0.00000   0.00000   0.00000
           D1          -0.00000  -0.00000   0.00000   0.00000   0.00000
           D2           0.00001   0.00000  -0.00001  -0.00000  -0.00000
           D3          -0.00001  -0.00000   0.00001   0.00000   0.00000
           D4           0.00000   0.00000  -0.00000  -0.00000  -0.00000
                          R6        A1        A2        A3        A4
           R6           0.35371
           A1          -0.00104   0.24815
           A2          -0.00097  -0.00092   0.15995
           A3           0.00140   0.00197   0.00073   0.15806
           A4          -0.00006  -0.00151  -0.00147   0.00206   0.16001
           A5          -0.00064  -0.00112  -0.00056   0.00120  -0.00093
           A6           0.00070   0.00263   0.00202  -0.00325   0.00092
           A7          -0.00052  -0.00027   0.00020   0.00007  -0.00080
           A8           0.00000   0.00000  -0.00000  -0.00000   0.00000
           D1           0.00000  -0.00000  -0.00000   0.00000   0.00000
           D2          -0.00000   0.00000   0.00000  -0.00000  -0.00000
           D3           0.00000  -0.00000  -0.00000   0.00000   0.00000
           D4          -0.00000   0.00000   0.00000  -0.00000  -0.00000
                          A5        A6        A7        A8        D1
           A5           0.15932
           A6           0.00161   0.15747
           A7          -0.00016   0.00095   0.00263
           A8           0.00000  -0.00000  -0.00000   0.00240
           D1          -0.00000  -0.00000  -0.00000   0.00000   0.03017
           D2           0.00000   0.00000   0.00000  -0.00000  -0.00000
           D3          -0.00000  -0.00000  -0.00000   0.00000   0.00000
           D4           0.00000   0.00000   0.00000  -0.00000  -0.00000
                          D2        D3        D4
           D2           0.03017
           D3          -0.00000   0.03017
           D4           0.00000  -0.00000   0.03017
 Use linear search instead of GDIIS.
     Eigenvalues ---    0.00240   0.00241   0.03017   0.03017   0.03017
     Eigenvalues ---    0.05178   0.09726   0.15387   0.16000   0.16275
     Eigenvalues ---    0.21843   0.35341   0.35383   0.35459   0.60225
     Eigenvalues --- 1000.000001000.000001000.00000
 RFO step:  Lambda=-1.41400337D-03 EMin= 2.39615807D-03
 Quartic linear search produced a step of  0.91853.
 Maximum step size (   0.505) exceeded in Quadratic search.
    -- Step size scaled by   0.958
 Iteration  1 RMS(Cart)=  0.14910630 RMS(Int)=  0.07208397
 Iteration  2 RMS(Cart)=  0.00068641 RMS(Int)=  0.07179305
 Iteration  3 RMS(Cart)=  0.00067753 RMS(Int)=  0.07150617
 Iteration  4 RMS(Cart)=  0.00066958 RMS(Int)=  0.07122295
 Iteration  5 RMS(Cart)=  0.00066198 RMS(Int)=  0.07094320
 Iteration  6 RMS(Cart)=  0.00065459 RMS(Int)=  0.07066685
 Iteration  7 RMS(Cart)=  0.00064734 RMS(Int)=  0.07039381
 Iteration  8 RMS(Cart)=  0.00064023 RMS(Int)=  0.07012402
 Iteration  9 RMS(Cart)=  0.00063323 RMS(Int)=  0.06985743
 Iteration 10 RMS(Cart)=  0.00062634 RMS(Int)=  0.06959397
 Iteration 11 RMS(Cart)=  0.00061955 RMS(Int)=  0.06933360
 Iteration 12 RMS(Cart)=  0.00061285 RMS(Int)=  0.06907627
 Iteration 13 RMS(Cart)=  0.00060626 RMS(Int)=  0.06882192
 Iteration 14 RMS(Cart)=  0.00059975 RMS(Int)=  0.06857051
 Iteration 15 RMS(Cart)=  0.00059334 RMS(Int)=  0.06832200
 Iteration 16 RMS(Cart)=  0.00058701 RMS(Int)=  0.06807634
 Iteration 17 RMS(Cart)=  0.00058076 RMS(Int)=  0.06783349
 Iteration 18 RMS(Cart)=  0.00057460 RMS(Int)=  0.06759341
 Iteration 19 RMS(Cart)=  0.00056852 RMS(Int)=  0.06735605
 Iteration 20 RMS(Cart)=  0.00056252 RMS(Int)=  0.06712138
 Iteration 21 RMS(Cart)=  0.00055659 RMS(Int)=  0.06688935
 Iteration 22 RMS(Cart)=  0.00055075 RMS(Int)=  0.06665994
 Iteration 23 RMS(Cart)=  0.00054498 RMS(Int)=  0.06643309
 Iteration 24 RMS(Cart)=  0.00053928 RMS(Int)=  0.06620878
 Iteration 25 RMS(Cart)=  0.00053365 RMS(Int)=  0.06598697
 Iteration 26 RMS(Cart)=  0.00052810 RMS(Int)=  0.06576762
 Iteration 27 RMS(Cart)=  0.00052261 RMS(Int)=  0.06555071
 Iteration 28 RMS(Cart)=  0.00051719 RMS(Int)=  0.06533618
 Iteration 29 RMS(Cart)=  0.00051184 RMS(Int)=  0.06512402
 Iteration 30 RMS(Cart)=  0.00050656 RMS(Int)=  0.06491419
 Iteration 31 RMS(Cart)=  0.00050134 RMS(Int)=  0.06470666
 Iteration 32 RMS(Cart)=  0.00049619 RMS(Int)=  0.06450139
 Iteration 33 RMS(Cart)=  0.00049109 RMS(Int)=  0.06429836
 Iteration 34 RMS(Cart)=  0.00048606 RMS(Int)=  0.06409754
 Iteration 35 RMS(Cart)=  0.00048110 RMS(Int)=  0.06389889
 Iteration 36 RMS(Cart)=  0.00047619 RMS(Int)=  0.06370240
 Iteration 37 RMS(Cart)=  0.00047133 RMS(Int)=  0.06350801
 Iteration 38 RMS(Cart)=  0.00046654 RMS(Int)=  0.06331573
 Iteration 39 RMS(Cart)=  0.00046181 RMS(Int)=  0.06312550
 Iteration 40 RMS(Cart)=  0.00045713 RMS(Int)=  0.06293731
 Iteration 41 RMS(Cart)=  0.00045250 RMS(Int)=  0.06275114
 Iteration 42 RMS(Cart)=  0.00044793 RMS(Int)=  0.06256694
 Iteration 43 RMS(Cart)=  0.00044341 RMS(Int)=  0.06238471
 Iteration 44 RMS(Cart)=  0.00043895 RMS(Int)=  0.06220441
 Iteration 45 RMS(Cart)=  0.00043454 RMS(Int)=  0.06202602
 Iteration 46 RMS(Cart)=  0.00043017 RMS(Int)=  0.06184951
 Iteration 47 RMS(Cart)=  0.00042586 RMS(Int)=  0.06167487
 Iteration 48 RMS(Cart)=  0.00042160 RMS(Int)=  0.06150206
 Iteration 49 RMS(Cart)=  0.00041739 RMS(Int)=  0.06133107
 Iteration 50 RMS(Cart)=  0.00041323 RMS(Int)=  0.06116187
 Iteration 51 RMS(Cart)=  0.00040911 RMS(Int)=  0.06099444
 Iteration 52 RMS(Cart)=  0.00040504 RMS(Int)=  0.06082876
 Iteration 53 RMS(Cart)=  0.00040101 RMS(Int)=  0.06066480
 Iteration 54 RMS(Cart)=  0.00039704 RMS(Int)=  0.06050255
 Iteration 55 RMS(Cart)=  0.00039310 RMS(Int)=  0.06034198
 Iteration 56 RMS(Cart)=  0.00038921 RMS(Int)=  0.06018308
 Iteration 57 RMS(Cart)=  0.00038537 RMS(Int)=  0.06002582
 Iteration 58 RMS(Cart)=  0.00038156 RMS(Int)=  0.05987018
 Iteration 59 RMS(Cart)=  0.00037780 RMS(Int)=  0.05971615
 Iteration 60 RMS(Cart)=  0.00037408 RMS(Int)=  0.05956370
 Iteration 61 RMS(Cart)=  0.00037040 RMS(Int)=  0.05941282
 Iteration 62 RMS(Cart)=  0.00036677 RMS(Int)=  0.05926349
 Iteration 63 RMS(Cart)=  0.00036317 RMS(Int)=  0.05911568
 Iteration 64 RMS(Cart)=  0.00035961 RMS(Int)=  0.05896939
 Iteration 65 RMS(Cart)=  0.00035609 RMS(Int)=  0.05882458
 Iteration 66 RMS(Cart)=  0.00035261 RMS(Int)=  0.05868126
 Iteration 67 RMS(Cart)=  0.00034917 RMS(Int)=  0.05853939
 Iteration 68 RMS(Cart)=  0.00034576 RMS(Int)=  0.05839896
 Iteration 69 RMS(Cart)=  0.00034239 RMS(Int)=  0.05825995
 Iteration 70 RMS(Cart)=  0.00033906 RMS(Int)=  0.05812236
 Iteration 71 RMS(Cart)=  0.00033576 RMS(Int)=  0.05798615
 Iteration 72 RMS(Cart)=  0.00033250 RMS(Int)=  0.05785132
 Iteration 73 RMS(Cart)=  0.00032928 RMS(Int)=  0.05771785
 Iteration 74 RMS(Cart)=  0.00032608 RMS(Int)=  0.05758572
 Iteration 75 RMS(Cart)=  0.00032293 RMS(Int)=  0.05745492
 Iteration 76 RMS(Cart)=  0.00031980 RMS(Int)=  0.05732543
 Iteration 77 RMS(Cart)=  0.00031671 RMS(Int)=  0.05719725
 Iteration 78 RMS(Cart)=  0.00031366 RMS(Int)=  0.05707034
 Iteration 79 RMS(Cart)=  0.00031063 RMS(Int)=  0.05694470
 Iteration 80 RMS(Cart)=  0.00030764 RMS(Int)=  0.05682032
 Iteration 81 RMS(Cart)=  0.00030468 RMS(Int)=  0.05669718
 Iteration 82 RMS(Cart)=  0.00030175 RMS(Int)=  0.05657526
 Iteration 83 RMS(Cart)=  0.00029885 RMS(Int)=  0.05645456
 Iteration 84 RMS(Cart)=  0.00029598 RMS(Int)=  0.05633506
 Iteration 85 RMS(Cart)=  0.00029314 RMS(Int)=  0.05621674
 Iteration 86 RMS(Cart)=  0.00029033 RMS(Int)=  0.05609960
 Iteration 87 RMS(Cart)=  0.00028755 RMS(Int)=  0.05598361
 Iteration 88 RMS(Cart)=  0.00028480 RMS(Int)=  0.05586877
 Iteration 89 RMS(Cart)=  0.00028207 RMS(Int)=  0.05575507
 Iteration 90 RMS(Cart)=  0.00027938 RMS(Int)=  0.05564249
 Iteration 91 RMS(Cart)=  0.00027671 RMS(Int)=  0.05553101
 Iteration 92 RMS(Cart)=  0.00027407 RMS(Int)=  0.05542064
 Iteration 93 RMS(Cart)=  0.00027146 RMS(Int)=  0.05531135
 Iteration 94 RMS(Cart)=  0.00026888 RMS(Int)=  0.05520313
 Iteration 95 RMS(Cart)=  0.00026632 RMS(Int)=  0.05509597
 Iteration 96 RMS(Cart)=  0.00026378 RMS(Int)=  0.05498987
 Iteration 97 RMS(Cart)=  0.00026128 RMS(Int)=  0.05488480
 Iteration 98 RMS(Cart)=  0.00025880 RMS(Int)=  0.05478076
 Iteration 99 RMS(Cart)=  0.00025634 RMS(Int)=  0.05467774
 Iteration100 RMS(Cart)=  0.00025391 RMS(Int)=  0.05457572
 New curvilinear step not converged.
 Iteration  1 RMS(Cart)=  0.14874024 RMS(Int)=  0.06133023
 Iteration  2 RMS(Cart)=  0.00068174 RMS(Int)=  0.06104048
 Iteration  3 RMS(Cart)=  0.00067195 RMS(Int)=  0.06075520
 Iteration  4 RMS(Cart)=  0.00066403 RMS(Int)=  0.06047359
 Iteration  5 RMS(Cart)=  0.00065655 RMS(Int)=  0.06019546
 Iteration  6 RMS(Cart)=  0.00064929 RMS(Int)=  0.05992068
 Iteration  7 RMS(Cart)=  0.00064219 RMS(Int)=  0.05964920
 Iteration  8 RMS(Cart)=  0.00063521 RMS(Int)=  0.05938094
 Iteration  9 RMS(Cart)=  0.00062835 RMS(Int)=  0.05911584
 Iteration 10 RMS(Cart)=  0.00062159 RMS(Int)=  0.05885385
 Iteration 11 RMS(Cart)=  0.00061493 RMS(Int)=  0.05859493
 Iteration 12 RMS(Cart)=  0.00060837 RMS(Int)=  0.05833902
 Iteration 13 RMS(Cart)=  0.00060189 RMS(Int)=  0.05808607
 Iteration 14 RMS(Cart)=  0.00059551 RMS(Int)=  0.05783605
 Iteration 15 RMS(Cart)=  0.00058921 RMS(Int)=  0.05758889
 Iteration 16 RMS(Cart)=  0.00058299 RMS(Int)=  0.05734457
 Iteration 17 RMS(Cart)=  0.00057685 RMS(Int)=  0.05710304
 Iteration 18 RMS(Cart)=  0.00057080 RMS(Int)=  0.05686426
 Iteration 19 RMS(Cart)=  0.00056482 RMS(Int)=  0.05662818
 Iteration 20 RMS(Cart)=  0.00055893 RMS(Int)=  0.05639477
 Iteration 21 RMS(Cart)=  0.00055310 RMS(Int)=  0.05616399
 Iteration 22 RMS(Cart)=  0.00054735 RMS(Int)=  0.05593581
 Iteration 23 RMS(Cart)=  0.00054168 RMS(Int)=  0.05571018
 Iteration 24 RMS(Cart)=  0.00053607 RMS(Int)=  0.05548707
 Iteration 25 RMS(Cart)=  0.00053053 RMS(Int)=  0.05526644
 Iteration 26 RMS(Cart)=  0.00052507 RMS(Int)=  0.05504826
 Iteration 27 RMS(Cart)=  0.00051967 RMS(Int)=  0.05483250
 Iteration 28 RMS(Cart)=  0.00051433 RMS(Int)=  0.05461912
 Iteration 29 RMS(Cart)=  0.00050907 RMS(Int)=  0.05440809
 Iteration 30 RMS(Cart)=  0.00050386 RMS(Int)=  0.05419937
 Iteration 31 RMS(Cart)=  0.00049866 RMS(Int)=  0.05399295
 Iteration 32 RMS(Cart)=  0.00049282 RMS(Int)=  0.05378895
 Iteration 33 RMS(Cart)=  0.00048709 RMS(Int)=  0.05358732
 Iteration 34 RMS(Cart)=  0.00048146 RMS(Int)=  0.05338802
 Iteration 35 RMS(Cart)=  0.00047594 RMS(Int)=  0.05319099
 Iteration 36 RMS(Cart)=  0.00047052 RMS(Int)=  0.05299621
 Iteration 37 RMS(Cart)=  0.00046521 RMS(Int)=  0.05280363
 Iteration 38 RMS(Cart)=  0.00045999 RMS(Int)=  0.05261320
 Iteration 39 RMS(Cart)=  0.00045487 RMS(Int)=  0.05242489
 Iteration 40 RMS(Cart)=  0.00044984 RMS(Int)=  0.05223866
 Iteration 41 RMS(Cart)=  0.00044490 RMS(Int)=  0.05205447
 Iteration 42 RMS(Cart)=  0.00044004 RMS(Int)=  0.05187229
 Iteration 43 RMS(Cart)=  0.00043528 RMS(Int)=  0.05169209
 Iteration 44 RMS(Cart)=  0.00043060 RMS(Int)=  0.05151381
 Iteration 45 RMS(Cart)=  0.00042600 RMS(Int)=  0.05133744
 Iteration 46 RMS(Cart)=  0.00042148 RMS(Int)=  0.05116294
 Iteration 47 RMS(Cart)=  0.00041704 RMS(Int)=  0.05099028
 Iteration 48 RMS(Cart)=  0.00041267 RMS(Int)=  0.05081942
 Iteration 49 RMS(Cart)=  0.00040838 RMS(Int)=  0.05065034
 Iteration 50 RMS(Cart)=  0.00040416 RMS(Int)=  0.05048300
 Iteration 51 RMS(Cart)=  0.00040001 RMS(Int)=  0.05031738
 Iteration 52 RMS(Cart)=  0.00039594 RMS(Int)=  0.05015344
 Iteration 53 RMS(Cart)=  0.00039193 RMS(Int)=  0.04999117
 Iteration 54 RMS(Cart)=  0.00038798 RMS(Int)=  0.04983052
 Iteration 55 RMS(Cart)=  0.00038410 RMS(Int)=  0.04967148
 Iteration 56 RMS(Cart)=  0.00038029 RMS(Int)=  0.04951402
 Iteration 57 RMS(Cart)=  0.00037653 RMS(Int)=  0.04935811
 Iteration 58 RMS(Cart)=  0.00037284 RMS(Int)=  0.04920373
 Iteration 59 RMS(Cart)=  0.00036920 RMS(Int)=  0.04905086
 Iteration 60 RMS(Cart)=  0.00036562 RMS(Int)=  0.04889946
 Iteration 61 RMS(Cart)=  0.00036210 RMS(Int)=  0.04874953
 Iteration 62 RMS(Cart)=  0.00035864 RMS(Int)=  0.04860102
 Iteration 63 RMS(Cart)=  0.00035523 RMS(Int)=  0.04845393
 Iteration 64 RMS(Cart)=  0.00035187 RMS(Int)=  0.04830823
 Iteration 65 RMS(Cart)=  0.00034856 RMS(Int)=  0.04816389
 Iteration 66 RMS(Cart)=  0.00034531 RMS(Int)=  0.04802091
 Iteration 67 RMS(Cart)=  0.00034210 RMS(Int)=  0.04787925
 Iteration 68 RMS(Cart)=  0.00033894 RMS(Int)=  0.04773890
 Iteration 69 RMS(Cart)=  0.00033583 RMS(Int)=  0.04759983
 Iteration 70 RMS(Cart)=  0.00033277 RMS(Int)=  0.04746203
 Iteration 71 RMS(Cart)=  0.00032975 RMS(Int)=  0.04732549
 Iteration 72 RMS(Cart)=  0.00032678 RMS(Int)=  0.04719017
 Iteration 73 RMS(Cart)=  0.00032385 RMS(Int)=  0.04705606
 Iteration 74 RMS(Cart)=  0.00032096 RMS(Int)=  0.04692315
 Iteration 75 RMS(Cart)=  0.00031811 RMS(Int)=  0.04679142
 Iteration 76 RMS(Cart)=  0.00031531 RMS(Int)=  0.04666085
 Iteration 77 RMS(Cart)=  0.00031255 RMS(Int)=  0.04653142
 Iteration 78 RMS(Cart)=  0.00030982 RMS(Int)=  0.04640312
 Iteration 79 RMS(Cart)=  0.00030714 RMS(Int)=  0.04627593
 Iteration 80 RMS(Cart)=  0.00030449 RMS(Int)=  0.04614984
 Iteration 81 RMS(Cart)=  0.00030188 RMS(Int)=  0.04602483
 Iteration 82 RMS(Cart)=  0.00029931 RMS(Int)=  0.04590088
 Iteration 83 RMS(Cart)=  0.00029677 RMS(Int)=  0.04577799
 Iteration 84 RMS(Cart)=  0.00029427 RMS(Int)=  0.04565613
 Iteration 85 RMS(Cart)=  0.00029180 RMS(Int)=  0.04553529
 Iteration 86 RMS(Cart)=  0.00028936 RMS(Int)=  0.04541546
 Iteration 87 RMS(Cart)=  0.00028696 RMS(Int)=  0.04529662
 Iteration 88 RMS(Cart)=  0.00028459 RMS(Int)=  0.04517876
 Iteration 89 RMS(Cart)=  0.00028226 RMS(Int)=  0.04506188
 Iteration 90 RMS(Cart)=  0.00027995 RMS(Int)=  0.04494594
 Iteration 91 RMS(Cart)=  0.00027768 RMS(Int)=  0.04483095
 Iteration 92 RMS(Cart)=  0.00027543 RMS(Int)=  0.04471689
 Iteration 93 RMS(Cart)=  0.00027322 RMS(Int)=  0.04460374
 Iteration 94 RMS(Cart)=  0.00027103 RMS(Int)=  0.04449150
 Iteration 95 RMS(Cart)=  0.00026887 RMS(Int)=  0.04438015
 Iteration 96 RMS(Cart)=  0.00026675 RMS(Int)=  0.04426969
 Iteration 97 RMS(Cart)=  0.00026464 RMS(Int)=  0.04416009
 Iteration 98 RMS(Cart)=  0.00026257 RMS(Int)=  0.04405135
 Iteration 99 RMS(Cart)=  0.00026052 RMS(Int)=  0.04394347
 Iteration100 RMS(Cart)=  0.00025850 RMS(Int)=  0.04383641
 New curvilinear step not converged.
 Iteration  1 RMS(Cart)=  0.14838153 RMS(Int)=  0.05105254
 Iteration  2 RMS(Cart)=  0.11658243 RMS(Int)=  0.00880158
 Iteration  3 RMS(Cart)=  0.00956515 RMS(Int)=  0.00000687
 Iteration  4 RMS(Cart)=  0.00001172 RMS(Int)=  0.00000000
 Iteration  5 RMS(Cart)=  0.00000000 RMS(Int)=  0.00000000
 Variable       Old X    -DE/DX   Delta X   Delta X   Delta X     New X
                                 (Linear)    (Quad)   (Total)
    R1        4.65286  -0.02085  -0.25657  -0.02522  -0.27674   4.37612
    R2        4.01175  -0.01032  -0.08171  -0.02262  -0.09981   3.91193
    R3        2.52967   0.00560   0.01528  -0.00553   0.01086   2.54053
    R4        2.05816   0.00235   0.00695   0.00133   0.00802   2.06617
    R5        2.05387   0.00173   0.00428   0.00224   0.00607   2.05994
    R6        2.05864   0.00229   0.00737   0.00035   0.00765   2.06629
    A1        2.10419   0.00428   0.01346   0.01309   0.02393   2.12812
    A2        2.09879   0.00224   0.00645   0.01997   0.02242   2.12121
    A3        2.08021  -0.00651  -0.01991  -0.03306  -0.04635   2.03385
    A4        2.11774   0.00373   0.02417  -0.00027   0.02395   2.14169
    A5        2.11498   0.00320   0.01274   0.01393   0.02388   2.13886
    A6        2.05046  -0.00693  -0.03690  -0.01366  -0.04783   2.00263
    A7        3.12132   0.00036  -0.01863   0.50133   0.38244   3.50375
    A8        3.14159  -0.00000   0.00000  -0.00007  -0.00005   3.14154
    D1       -0.00014   0.00000   0.00010  -0.00009   0.00003  -0.00012
    D2       -3.14157  -0.00000  -0.00010   0.00017   0.00003  -3.14153
    D3        3.14151   0.00000   0.00013  -0.00021  -0.00003   3.14147
    D4        0.00008  -0.00000  -0.00007   0.00005  -0.00003   0.00006
         Item               Value     Threshold  Converged?
 Maximum Force            0.020852     0.000450     NO 
 RMS     Force            0.006344     0.000300     NO 
 Maximum Displacement     0.525038     0.001800     NO 
 RMS     Displacement     0.263031     0.001200     NO 
 Predicted change in Energy=-5.527119D-03
 GradGradGradGradGradGradGradGradGradGradGradGradGradGradGradGradGradGrad

 Leave Link  103 at Mon Oct  4 21:29:13 2021, MaxMem=  268435456 cpu:       0.0
 (Enter /sw/target/amd/app/gaussian/Gaussian09RevA.02_gcc-4.9.2/g09/l202.exe)
                          Input orientation:                          
 ---------------------------------------------------------------------
 Center     Atomic      Atomic             Coordinates (Angstroms)
 Number     Number       Type             X           Y           Z
 ---------------------------------------------------------------------
      1         35           0        1.358215    0.317469   -0.229303
      2         12           0        3.596463   -0.189530    0.080303
      3          6           0        5.655656   -0.008350   -0.030331
      4          6           0        6.479978   -0.914736    0.523153
      5          1           0        6.128958    0.832836   -0.543999
      6          1           0        6.116603   -1.791798    1.058856
      7          1           0        7.568789   -0.828990    0.470856
 ---------------------------------------------------------------------
                    Distance matrix (angstroms):
                    1          2          3          4          5
     1  Br   0.000000
     2  Mg   2.315742   0.000000
     3  C    4.314365   2.070107   0.000000
     4  C    5.321370   3.006110   1.344391   0.000000
     5  H    4.808807   2.801520   1.093372   2.077507   0.000000
     6  H    5.361961   3.142600   2.139974   1.090072   3.075386
     7  H    6.354197   4.042377   2.141195   1.093433   2.421716
                    6          7
     6  H    0.000000
     7  H    1.838909   0.000000
 Stoichiometry    C2H3BrMg
 Framework group  C1[X(C2H3BrMg)]
 Deg. of freedom    15
 Full point group                 C1      NOp   1
 Largest Abelian subgroup         C1      NOp   1
 Largest concise Abelian subgroup C1      NOp   1
                         Standard orientation:                         
 ---------------------------------------------------------------------
 Center     Atomic      Atomic             Coordinates (Angstroms)
 Number     Number       Type             X           Y           Z
 ---------------------------------------------------------------------
      1         35           0       -1.635085   -0.002090    0.000001
      2         12           0        0.678150   -0.109813   -0.000005
      3          6           0        2.645998    0.532771    0.000003
      4          6           0        3.676104   -0.331098   -0.000020
      5          1           0        2.900362    1.596143    0.000024
      6          1           0        3.538082   -1.412396    0.000067
      7          1           0        4.719112   -0.002874    0.000038
 ---------------------------------------------------------------------
 Rotational constants (GHZ):     52.7054510      0.9974538      0.9789275
 Leave Link  202 at Mon Oct  4 21:29:13 2021, MaxMem=  268435456 cpu:       0.0
 (Enter /sw/target/amd/app/gaussian/Gaussian09RevA.02_gcc-4.9.2/g09/l301.exe)
 Standard basis: 6-31G(d) (6D, 7F)
 Ernie: Thresh=  0.10000D-02 Tol=  0.10000D-05 Strict=F.
 There are    85 symmetry adapted basis functions of A   symmetry.
 Integral buffers will be    131072 words long.
 Raffenetti 2 integral format.
 Two-electron integral symmetry is turned on.
    85 basis functions,   203 primitive gaussians,    85 cartesian basis functions
    31 alpha electrons       31 beta electrons
       nuclear repulsion energy       217.8383813148 Hartrees.
 IExCor=  402 DFT=T Ex+Corr=B3LYP ExCW=0 ScaHFX=  0.200000
 ScaDFX=  0.800000  0.720000  1.000000  0.810000 ScalE2=  1.000000  1.000000
 IRadAn=      0 IRanWt=     -1 IRanGd=            0 ICorTp=0
 NAtoms=    7 NActive=    7 NUniq=    7 SFac= 7.50D-01 NAtFMM=   80 NAOKFM=F Big=F
 Leave Link  301 at Mon Oct  4 21:29:14 2021, MaxMem=  268435456 cpu:       0.1
 (Enter /sw/target/amd/app/gaussian/Gaussian09RevA.02_gcc-4.9.2/g09/l302.exe)
 NPDir=0 NMtPBC=     1 NCelOv=     1 NCel=       1 NClECP=     1 NCelD=      1
         NCelK=      1 NCelE2=     1 NClLst=     1 CellRange=     0.0.
 One-electron integrals computed using PRISM.
 NBasis=    85 RedAO= T  NBF=    85
 NBsUse=    85 1.00D-06 NBFU=    85
 Precomputing XC quadrature grid using
 IXCGrd= 2 IRadAn=           0 IRanWt=          -1 IRanGd=           0 AccXCQ= 1.00D-10.
 NRdTot=     439 NPtTot=       59010 NUsed=       62187 NTot=       62219
 NSgBfM=    84    84    84    84    84 NAtAll=     7     7.
 Leave Link  302 at Mon Oct  4 21:29:26 2021, MaxMem=  268435456 cpu:       0.5
 (Enter /sw/target/amd/app/gaussian/Gaussian09RevA.02_gcc-4.9.2/g09/l303.exe)
 DipDrv:  MaxL=1.
 Leave Link  303 at Mon Oct  4 21:29:33 2021, MaxMem=  268435456 cpu:       0.1
 (Enter /sw/target/amd/app/gaussian/Gaussian09RevA.02_gcc-4.9.2/g09/l401.exe)
 Initial guess read from the read-write file.
 B after Tr=     0.000000    0.000000    0.000000
         Rot=    1.000000    0.000000    0.000000    0.000000 Ang=   0.00 deg.
 Guess basis will be translated and rotated to current coordinates.
 Initial guess orbital symmetries:
       Occupied  (A) (A) (A) (A) (A) (A) (A) (A) (A) (A) (A) (A)
                 (A) (A) (A) (A) (A) (A) (A) (A) (A) (A) (A) (A)
                 (A) (A) (A) (A) (A) (A) (A)
       Virtual   (A) (A) (A) (A) (A) (A) (A) (A) (A) (A) (A) (A)
                 (A) (A) (A) (A) (A) (A) (A) (A) (A) (A) (A) (A)
                 (A) (A) (A) (A) (A) (A) (A) (A) (A) (A) (A) (A)
                 (A) (A) (A) (A) (A) (A) (A) (A) (A) (A) (A) (A)
                 (A) (A) (A) (A) (A) (A)
 The electronic state of the initial guess is 1-A.
 Generating alternative initial guess.
 Harris functional with IExCor=  402 diagonalized for initial guess.
 ExpMin= 4.21D-02 ExpMax= 5.74D+05 ExpMxC= 5.74D+03 IAcc=2 IRadAn=         0 AccDes= 0.00D+00
 HarFok:  IExCor=  402 AccDes= 0.00D+00 IRadAn=         0 IDoV= 1
 ScaDFX=  1.000000  1.000000  1.000000  1.000000
 FoFCou: FMM=F IPFlag=           0 FMFlag=      100000 FMFlg1=           0
         NFxFlg=           0 DoJE=T BraDBF=F KetDBF=T FulRan=T
         Omega=  0.000000  0.000000  1.000000  0.000000  0.000000 ICntrl=     500 IOpCl=  0
         NMat0=    1 NMatS0=    1 NMatT0=    0 NMatD0=    1 NMtDS0=    0 NMtDT0=    0
         I1Cent=           4 NGrid=           0.
 Petite list used in FoFCou.
 Harris En= -2850.06858246701    
 Leave Link  401 at Mon Oct  4 21:29:45 2021, MaxMem=  268435456 cpu:       2.0
 (Enter /sw/target/amd/app/gaussian/Gaussian09RevA.02_gcc-4.9.2/g09/l502.exe)
 Closed shell SCF:
 Requested convergence on RMS density matrix=1.00D-08 within  64 cycles.
 Requested convergence on MAX density matrix=1.00D-06.
 Requested convergence on             energy=1.00D-06.
 No special actions if energy rises.
 Using DIIS extrapolation, IDIIS=  1040.
 Integral symmetry usage will be decided dynamically.
        62111 words used for storage of precomputed grid.
 Keep R1 ints in memory in canonical form, NReq=7676908.
 IEnd=       90474 IEndB=       90474 NGot=   268435456 MDV=   261675149
 LenX=   261675149 LenY=   261667483
 Symmetry not used in FoFDir.
 MinBra= 0 MaxBra= 2 Meth= 1.
 IRaf=       0 NMat=   1 IRICut=       1 DoRegI=T DoRafI=F ISym2E= 0 JSym2E=0.

 Cycle   1  Pass 1  IDiag  1:
 E= -2846.13830949730    
 DIIS: error= 2.94D-01 at cycle   1 NSaved=   1.
 NSaved= 1 IEnMin= 1 EnMin= -2846.13830949730     IErMin= 1 ErrMin= 2.94D-01
 ErrMax= 2.94D-01 EMaxC= 1.00D-01 BMatC= 5.47D+00 BMatP= 5.47D+00
 IDIUse=3 WtCom= 0.00D+00 WtEn= 1.00D+00
 Coeff-Com:  0.100D+01
 Coeff-En:   0.100D+01
 Coeff:      0.100D+01
 Recover alternate guess density for next cycle.
 RMSDP=3.91D-02 MaxDP=5.57D-01              OVMax= 0.00D+00

 Cycle   2  Pass 1  IDiag  1:
 E= -2849.66370301887     Delta-E=       -3.525393521566 Rises=F Damp=F
 DIIS: error= 1.32D-01 at cycle   2 NSaved=   2.
 NSaved= 2 IEnMin= 2 EnMin= -2849.66370301887     IErMin= 2 ErrMin= 1.32D-01
[...]
         6         0.0274     -0.1581     -0.0092     -0.0466     -0.0001
         7         0.0145      0.1018     -0.0417      0.0249      0.0001
         8         0.0017     -0.0058      0.0069      0.0009      0.0000
         9        -0.0019      0.0439      0.1596      0.0672      0.0001
        10        -0.0512      0.0012     -0.2092     -0.0864     -0.0002
  1/2[<0|del|b>*<b|r|0> + (<0|r|b>*<b|del|0>)*] (Au)
       state          X           Y           Z        Dip. S.   Osc.(frdel)
         1        -0.0000     -0.0000     -0.0225      0.0225      0.0150
         2        -0.0000     -0.0000     -0.0128      0.0128      0.0085
         3        -0.0008     -0.0627     -0.0000      0.0635      0.0423
         4        -0.3176     -0.0001     -0.0000      0.3178      0.2118
         5        -0.0001     -0.0000     -0.1251      0.1252      0.0834
         6         0.0002     -0.0123      0.0000      0.0122      0.0081
         7        -0.0000     -0.0000     -0.0010      0.0010      0.0007
         8        -0.0000     -0.0000     -0.0000      0.0000      0.0000
         9        -0.0672     -0.0062     -0.0000      0.0733      0.0489
        10        -0.2743     -0.0424     -0.0000      0.3167      0.2111
 Ground to excited state transition densities written to RWF  633

 Excitation energies and oscillator strengths:
 
 Excited State   1:      Singlet-A      5.0462 eV  245.70 nm  f=0.0132  <S**2>=0.000
      31 -> 32         0.69587
 This state for optimization and/or second-order correction.
 Total Energy, E(TD-HF/TD-KS) =  -2849.67160181    
 Copying the excited state density for this state as the 1-particle RhoCI density.
 
 Excited State   2:      Singlet-A      5.4480 eV  227.58 nm  f=0.0088  <S**2>=0.000
      28 -> 32         0.53234
      30 -> 33         0.44983
 
 Excited State   3:      Singlet-A      5.4730 eV  226.54 nm  f=0.0399  <S**2>=0.000
      29 -> 32         0.69812
 
 Excited State   4:      Singlet-A      5.5203 eV  224.60 nm  f=0.1955  <S**2>=0.000
      30 -> 32         0.66138
      30 -> 34         0.13511
      31 -> 33         0.10341
      31 -> 35         0.13018
 
 Excited State   5:      Singlet-A      5.5517 eV  223.32 nm  f=0.0766  <S**2>=0.000
      28 -> 32        -0.46151
      30 -> 33         0.52673
 
 Excited State   6:      Singlet-A      5.8653 eV  211.39 nm  f=0.0093  <S**2>=0.000
      30 -> 34         0.63228
      31 -> 33        -0.29174
 
 Excited State   7:      Singlet-A      5.8925 eV  210.41 nm  f=0.0002  <S**2>=0.000
      31 -> 34         0.70357
 
 Excited State   8:      Singlet-A      6.0501 eV  204.93 nm  f=0.0000  <S**2>=0.000
      29 -> 33         0.70230
 
 Excited State   9:      Singlet-A      6.1134 eV  202.81 nm  f=0.0537  <S**2>=0.000
      28 -> 33         0.55002
      29 -> 34        -0.34617
      30 -> 34        -0.12801
      31 -> 33        -0.21787
 
 Excited State  10:      Singlet-A      6.2154 eV  199.48 nm  f=0.2318  <S**2>=0.000
      28 -> 33         0.29070
      30 -> 32        -0.12682
      30 -> 34         0.23341
      31 -> 33         0.55560
      31 -> 35         0.15161
 SavETr:  write IOETrn=   770 NScale= 10 NData=  16 NLR=1 LETran=     190.
 The selected state is a singlet
 Cannot handle 2e integral symmetry, ISym2E=1.
 CISAX:  IP=  1 NPass=   1 NMax=     1.
 CISAX will form     1 AO SS matrices at one time.
 NMat=     1 NSing=     1.
 Cannot handle 2e integral symmetry, ISym2E=1.
 CISAX:  IP=  1 NPass=   1 NMax=     1.
 CISAX will form     1 AO SS matrices at one time.
 NMat=     1 NSing=     1.
 Leave Link  914 at Mon Oct  4 21:44:52 2021, MaxMem=  268435456 cpu:     173.2
 (Enter /sw/target/amd/app/gaussian/Gaussian09RevA.02_gcc-4.9.2/g09/l1002.exe)
 Minotr:  Closed shell wavefunction.
          Computing CIS/TD-HF/TD-KS derivatives.
          Using Z-Vector for PSCF gradient.
          Skipping F1 and S1 gradient terms here.
          Frozen-core window.
          Direct CPHF calculation.
          Differentiating once with respect to electric field.
                with respect to dipole field.
          Electric field/nuclear overlap derivatives assumed to be zero.
          Requested convergence is 1.0D-10 RMS, and 1.0D-09 maximum.
          NewPWx=F KeepS1=T KeepF1=T KeepIn=T MapXYZ=F SortEE=F KeepMc=T.
          MDV=     268435396 using IRadAn=       0.
 Generate precomputed XC quadrature information.
          Keep R1 ints in memory in canonical form, NReq=7505152.
 Symmetry not used in FoFDir.
 MinBra= 0 MaxBra= 2 Meth= 1.
 IRaf=       0 NMat=   1 IRICut=       1 DoRegI=T DoRafI=F ISym2E= 0 JSym2E=0.
          Solving linear equations separately, MaxMat=       0.
          There are     1 degrees of freedom in the 1st order CPHF.  IDoFFX=0.
 LinEq1:  Iter=  0 NonCon=     1 RMS=3.30D-02 Max=7.45D-01
 AX will form     1 AO Fock derivatives at one time.
 LinEq1:  Iter=  1 NonCon=     1 RMS=8.81D-03 Max=1.43D-01
 LinEq1:  Iter=  2 NonCon=     1 RMS=5.50D-03 Max=1.25D-01
 LinEq1:  Iter=  3 NonCon=     1 RMS=2.83D-03 Max=2.78D-02
 LinEq1:  Iter=  4 NonCon=     1 RMS=7.34D-04 Max=7.39D-03
 LinEq1:  Iter=  5 NonCon=     1 RMS=2.28D-04 Max=2.65D-03
 LinEq1:  Iter=  6 NonCon=     1 RMS=9.68D-05 Max=1.54D-03
 LinEq1:  Iter=  7 NonCon=     1 RMS=3.22D-05 Max=4.70D-04
 LinEq1:  Iter=  8 NonCon=     1 RMS=8.65D-06 Max=1.11D-04
 LinEq1:  Iter=  9 NonCon=     1 RMS=1.60D-06 Max=1.69D-05
 LinEq1:  Iter= 10 NonCon=     1 RMS=2.34D-07 Max=2.34D-06
 LinEq1:  Iter= 11 NonCon=     1 RMS=7.57D-08 Max=9.02D-07
 LinEq1:  Iter= 12 NonCon=     1 RMS=1.45D-08 Max=1.15D-07
 LinEq1:  Iter= 13 NonCon=     1 RMS=2.21D-09 Max=3.93D-08
 LinEq1:  Iter= 14 NonCon=     1 RMS=2.75D-10 Max=3.94D-09
 LinEq1:  Iter= 15 NonCon=     0 RMS=4.70D-11 Max=6.07D-10
 Linear equations converged to 1.000D-10 1.000D-09 after    15 iterations.
 End of Minotr Frequency-dependent properties file   721 does not exist.
 End of Minotr Frequency-dependent properties file   722 does not exist.
 Leave Link 1002 at Mon Oct  4 21:46:00 2021, MaxMem=  268435456 cpu:      31.4
 (Enter /sw/target/amd/app/gaussian/Gaussian09RevA.02_gcc-4.9.2/g09/l601.exe)
 Copying SCF densities to generalized density rwf, IOpCl= 0 IROHF=0.

 **********************************************************************

            Population analysis using the CI density.

 **********************************************************************

 Orbital symmetries:
       Occupied  (A) (A) (A) (A) (A) (A) (A) (A) (A) (A) (A) (A)
                 (A) (A) (A) (A) (A) (A) (A) (A) (A) (A) (A) (A)
                 (A) (A) (A) (A) (A) (A) (A)
       Virtual   (A) (A) (A) (A) (A) (A) (A) (A) (A) (A) (A) (A)
                 (A) (A) (A) (A) (A) (A) (A) (A) (A) (A) (A) (A)
                 (A) (A) (A) (A) (A) (A) (A) (A) (A) (A) (A) (A)
                 (A) (A) (A) (A) (A) (A) (A) (A) (A) (A) (A) (A)
                 (A) (A) (A) (A) (A) (A)
 The electronic state is 1-A.
 Alpha  occ. eigenvalues -- -482.87848 -61.84094 -56.35821 -56.35690 -56.35687
 Alpha  occ. eigenvalues --  -46.84417 -10.18981 -10.16959  -8.55023  -6.49772
 Alpha  occ. eigenvalues --   -6.49372  -6.49364  -3.13264  -2.61450  -2.61325
 Alpha  occ. eigenvalues --   -2.61319  -2.61000  -2.61000  -1.87889  -1.87840
 Alpha  occ. eigenvalues --   -1.87238  -0.74198  -0.72521  -0.55409  -0.44366
 Alpha  occ. eigenvalues --   -0.38918  -0.32870  -0.28062  -0.28051  -0.26648
 Alpha  occ. eigenvalues --   -0.26595
 Alpha virt. eigenvalues --   -0.04310  -0.02639  -0.01492   0.03603   0.06506
 Alpha virt. eigenvalues --    0.11496   0.12533   0.14915   0.15257   0.18614
 Alpha virt. eigenvalues --    0.22778   0.26076   0.26917   0.28524   0.29741
 Alpha virt. eigenvalues --    0.30690   0.36503   0.41345   0.45261   0.50487
 Alpha virt. eigenvalues --    0.50608   0.52041   0.52048   0.55968   0.59238
 Alpha virt. eigenvalues --    0.62857   0.66565   0.69013   0.70396   0.72239
 Alpha virt. eigenvalues --    0.81508   0.83765   0.88504   0.90728   0.94026
 Alpha virt. eigenvalues --    0.95590   1.11643   1.13712   1.32393   1.47662
 Alpha virt. eigenvalues --    1.60414   1.68983   1.88319   1.91409   1.98763
 Alpha virt. eigenvalues --    2.13283   2.28028   2.38239   2.62438   2.72791
 Alpha virt. eigenvalues --    4.12879   4.28230   8.76091  75.34730
          Condensed to atoms (all electrons):
              1          2          3          4          5          6
     1  Br  35.049118   0.167306   0.001550   0.000058  -0.000128  -0.000136
     2  Mg   0.167306  11.746619   0.111564  -0.050924  -0.002734   0.019037
     3  C    0.001550   0.111564   5.393197   0.471589   0.315885  -0.054946
     4  C    0.000058  -0.050924   0.471589   5.101313  -0.044121   0.353679
     5  H   -0.000128  -0.002734   0.315885  -0.044121   0.554515   0.006633
     6  H   -0.000136   0.019037  -0.054946   0.353679   0.006633   0.499283
     7  H    0.000000   0.003225  -0.038403   0.364519  -0.013706  -0.046329
              7
     1  Br   0.000000
     2  Mg   0.003225
     3  C   -0.038403
     4  C    0.364519
     5  H   -0.013706
     6  H   -0.046329
     7  H    0.528719
 Mulliken atomic charges:
              1
     1  Br  -0.217770
     2  Mg   0.005908
     3  C   -0.200436
     4  C   -0.196112
     5  H    0.183655
     6  H    0.222780
     7  H    0.201975
 Sum of Mulliken atomic charges =  -0.00000
 Mulliken charges with hydrogens summed into heavy atoms:
              1
     1  Br  -0.217770
     2  Mg   0.005908
     3  C   -0.016781
     4  C    0.228643
 Sum of Mulliken charges with hydrogens summed into heavy atoms =  -0.00000
 Electronic spatial extent (au):  <R**2>=           1059.1594
 Charge=              0.0000 electrons
 Dipole moment (field-independent basis, Debye):
    X=              9.3109    Y=             -0.6424    Z=              0.0054  Tot=              9.3331
 Quadrupole moment (field-independent basis, Debye-Ang):
   XX=            -23.5381   YY=            -42.4630   ZZ=            -44.5500
   XY=              0.8712   XZ=              0.0050   YZ=             -0.0004
 Traceless Quadrupole moment (field-independent basis, Debye-Ang):
   XX=             13.3123   YY=             -5.6126   ZZ=             -7.6997
   XY=              0.8712   XZ=              0.0050   YZ=             -0.0004
 Octapole moment (field-independent basis, Debye-Ang**2):
  XXX=             45.2493  YYY=              0.1678  ZZZ=              0.0340  XYY=             -8.6334
  XXY=              7.6624  XXZ=              0.0106  XZZ=            -15.4826  YZZ=             -0.4053
  YYZ=              0.0110  XYZ=             -0.0005
 Hexadecapole moment (field-independent basis, Debye-Ang**3):
 XXXX=           -834.5277 YYYY=           -114.7285 ZZZZ=            -82.3597 XXXY=             24.2326
 XXXZ=              0.0291 YYYX=             -2.6528 YYYZ=             -0.0039 ZZZX=              0.0179
 ZZZY=             -0.0022 XXYY=           -196.8534 XXZZ=           -212.0906 YYZZ=            -34.0636
 XXYZ=             -0.0021 YYXZ=              0.0053 ZZXY=             -2.2383
 N-N= 2.166880648498D+02 E-N=-7.227885013734D+03  KE= 2.832706123390D+03
 No NMR shielding tensors so no spin-rotation constants.
 Leave Link  601 at Mon Oct  4 21:46:57 2021, MaxMem=  268435456 cpu:       0.9
 (Enter /sw/target/amd/app/gaussian/Gaussian09RevA.02_gcc-4.9.2/g09/l604.exe)
 Evaluate density.
 Using the total density.
 Monte-Carlo method of calculating molar volume:
 based on  0.001 e/bohr**3 density envelope.
 Number of points per bohr**3 =   20 CutOff= 1.00D-04
 Using the CI density.
 There are       494 points.  Will hold       494 in memory.
 LenV=   268384180 MDV=   268435456.
 Box volume =15083.897 fraction occupied=0.055
 Integrated density= 1.7241125711239743D+01 error=-4.4758874288760254D+01
 Molar volume =  824.424 bohr**3/mol ( 73.571 cm**3/mol)
 Recommended a0 for SCRF calculation =  3.89 angstrom (  7.35 bohr)
 Leave Link  604 at Mon Oct  4 21:47:20 2021, MaxMem=  268435456 cpu:       0.1
 (Enter /sw/target/amd/app/gaussian/Gaussian09RevA.02_gcc-4.9.2/g09/l607.exe)
 ******************************Gaussian NBO Version 3.1******************************
             N A T U R A L   A T O M I C   O R B I T A L   A N D
          N A T U R A L   B O N D   O R B I T A L   A N A L Y S I S
 ******************************Gaussian NBO Version 3.1******************************
       /RESON  / : Allow strongly delocalized NBO set

 Analyzing the CI density

 Job title: Br[Mg]C=C_conf_0                                                

 Storage needed:     22279 in NPA ( 268435155 available)


 NATURAL POPULATIONS:  Natural atomic orbital occupancies 
                                                          
   NAO  Atom  No  lang   Type(AO)    Occupancy
 --------------------------------------------
     1   Br    1  S      Cor( 1S)     2.00000
     2   Br    1  S      Cor( 2S)     1.99997
     3   Br    1  S      Cor( 3S)     1.99987
     4   Br    1  S      Val( 4S)     1.94544
     5   Br    1  S      Ryd( 5S)     0.00255
     6   Br    1  S      Ryd( 6S)     0.00004
     7   Br    1  S      Ryd( 7S)     0.00000
     8   Br    1  S      Ryd( 8S)     0.00000
     9   Br    1  px     Cor( 2p)     1.99999
    10   Br    1  px     Cor( 3p)     1.99994
    11   Br    1  px     Val( 4p)     1.84234
    12   Br    1  px     Ryd( 5p)     0.00064
    13   Br    1  py     Cor( 2p)     2.00000
    14   Br    1  py     Cor( 3p)     2.00000
    15   Br    1  py     Val( 4p)     1.92989
    16   Br    1  py     Ryd( 5p)     0.00001
    17   Br    1  pz     Cor( 2p)     2.00000
    18   Br    1  pz     Cor( 3p)     1.99997
    19   Br    1  pz     Val( 4p)     1.87812
    20   Br    1  pz     Ryd( 5p)     0.00000
    21   Br    1  dxy    Cor( 3d)     1.99999
    22   Br    1  dxy    Ryd( 4d)     0.00140
    23   Br    1  dxz    Cor( 3d)     1.99999
    24   Br    1  dxz    Ryd( 4d)     0.00113
    25   Br    1  dyz    Cor( 3d)     2.00000
    26   Br    1  dyz    Ryd( 4d)     0.00004
    27   Br    1  dx2y2  Cor( 3d)     1.99998
    28   Br    1  dx2y2  Ryd( 4d)     0.00360
    29   Br    1  dz2    Cor( 3d)     1.99999
    30   Br    1  dz2    Ryd( 4d)     0.00126

    31   Mg    2  S      Cor( 1S)     2.00000
    32   Mg    2  S      Cor( 2S)     1.99960
    33   Mg    2  S      Val( 3S)     1.08647
    34   Mg    2  S      Ryd( 4S)     0.02172
    35   Mg    2  S      Ryd( 5S)     0.00027
    36   Mg    2  px     Cor( 2p)     1.99949
    37   Mg    2  px     Val( 3p)     0.12831
    38   Mg    2  px     Ryd( 4p)     0.00224
    39   Mg    2  py     Cor( 2p)     1.99982
    40   Mg    2  py     Val( 3p)     0.07515
    41   Mg    2  py     Ryd( 4p)     0.00071
    42   Mg    2  pz     Cor( 2p)     1.99978
    43   Mg    2  pz     Val( 3p)     0.05572
    44   Mg    2  pz     Ryd( 4p)     0.00021
    45   Mg    2  dxy    Ryd( 3d)     0.00195
    46   Mg    2  dxz    Ryd( 3d)     0.00086
    47   Mg    2  dyz    Ryd( 3d)     0.00007
    48   Mg    2  dx2y2  Ryd( 3d)     0.00225
    49   Mg    2  dz2    Ryd( 3d)     0.00065

    50    C    3  S      Cor( 1S)     1.99945
    51    C    3  S      Val( 2S)     1.35529
    52    C    3  S      Ryd( 3S)     0.01241
    53    C    3  S      Ryd( 4S)     0.00003
    54    C    3  px     Val( 2p)     1.53120
    55    C    3  px     Ryd( 3p)     0.01459
    56    C    3  py     Val( 2p)     1.09252
    57    C    3  py     Ryd( 3p)     0.00667
    58    C    3  pz     Val( 2p)     0.44468
    59    C    3  pz     Ryd( 3p)     0.00000
    60    C    3  dxy    Ryd( 3d)     0.00128
    61    C    3  dxz    Ryd( 3d)     0.00063
    62    C    3  dyz    Ryd( 3d)     0.00041
    63    C    3  dx2y2  Ryd( 3d)     0.00018
    64    C    3  dz2    Ryd( 3d)     0.00046

    65    C    4  S      Cor( 1S)     1.99939
    66    C    4  S      Val( 2S)     1.13905
    67    C    4  S      Ryd( 3S)     0.00218
    68    C    4  S      Ryd( 4S)     0.00002
    69    C    4  px     Val( 2p)     1.17044
    70    C    4  px     Ryd( 3p)     0.00197
    71    C    4  py     Val( 2p)     1.17593
    72    C    4  py     Ryd( 3p)     0.00328
    73    C    4  pz     Val( 2p)     0.65974
    74    C    4  pz     Ryd( 3p)     0.00144
    75    C    4  dxy    Ryd( 3d)     0.00075
    76    C    4  dxz    Ryd( 3d)     0.00028
    77    C    4  dyz    Ryd( 3d)     0.00039
    78    C    4  dx2y2  Ryd( 3d)     0.00162
    79    C    4  dz2    Ryd( 3d)     0.00049

    80    H    5  S      Val( 1S)     0.80905
    81    H    5  S      Ryd( 2S)     0.00090

    82    H    6  S      Val( 1S)     0.78822
    83    H    6  S      Ryd( 2S)     0.00280

    84    H    7  S      Val( 1S)     0.79970
    85    H    7  S      Ryd( 2S)     0.00147


 Summary of Natural Population Analysis:                  
                                                          
                                       Natural Population 
                Natural  -----------------------------------------------
    Atom  No    Charge         Core      Valence    Rydberg      Total
 -----------------------------------------------------------------------
     Br    1   -0.60615     27.99968     7.59578    0.01068    35.60615
     Mg    2    0.62474      9.99868     1.34565    0.03093    11.37526
      C    3   -0.45980      1.99945     4.42369    0.03666     6.45980
      C    4   -0.15698      1.99939     4.14517    0.01242     6.15698
      H    5    0.19005      0.00000     0.80905    0.00090     0.80995
      H    6    0.20898      0.00000     0.78822    0.00280     0.79102
      H    7    0.19883      0.00000     0.79970    0.00147     0.80117
 =======================================================================
   * Total *   -0.00032     41.99721    19.90726    0.09586    62.00032

                                 Natural Population      
 --------------------------------------------------------
   Core                      41.99721 ( 99.9933% of  42)
   Valence                   19.90726 ( 99.5363% of  20)
   Natural Minimal Basis     61.90447 ( 99.8459% of  62)
   Natural Rydberg Basis      0.09586 (  0.1546% of  62)
 --------------------------------------------------------

    Atom  No          Natural Electron Configuration
 ----------------------------------------------------------------------------
     Br    1      [core]4S( 1.95)4p( 5.65)4d( 0.01)
     Mg    2      [core]3S( 1.09)3p( 0.26)4S( 0.02)3d( 0.01)
      C    3      [core]2S( 1.36)2p( 3.07)3S( 0.01)3p( 0.02)
      C    4      [core]2S( 1.14)2p( 3.01)3p( 0.01)
      H    5            1S( 0.81)
      H    6            1S( 0.79)
      H    7            1S( 0.80)


 NBO analysis skipped by request.
 Leave Link  607 at Mon Oct  4 21:49:58 2021, MaxMem=  268435456 cpu:       4.7
 (Enter /sw/target/amd/app/gaussian/Gaussian09RevA.02_gcc-4.9.2/g09/l9999.exe)
 1\1\GINC-HERMITE\SP\RTD-B3LYP-FC\6-31G(d)\C2H3Br1Mg1\JSCHLEINITZ\04-Oc
 t-2021\0\\#p TD(NStates=10, Root=1) b3lyp/6-31G* volume pop=NPA densit
 y=current Geom=AllCheck Guess=Read\\Br[Mg]C=C_conf_0\\0,1\Br,0,1.30592
 588,0.071183189,-0.0792223153\Mg,0,3.6416041521,0.0547825765,-0.068409
 7324\C,0,5.7059895063,0.0466905773,-0.0638696659\C,0,6.4382463231,-0.9
 151617095,0.5234397314\H,0,6.2854569883,0.839510662,-0.5481700436\H,0,
 5.9958780408,-1.7666156541,1.0435237074\H,0,7.5315621412,-0.9134898124
 ,0.52224326\\Version=AM64L-G09RevA.02\State=1-A\HF=-2849.8570471\RMSD=
 2.330e-09\Dipole=3.6642263,-0.2035093,0.1221429\Quadrupole=9.4768209,-
 4.2877131,-5.1891078,-2.1195526,1.2912048,-0.8770796\PG=C01 [X(C2H3Br1
 Mg1)]\\@


 LAW OF COMPENSATION:
      NO CALCULATION IS EVER A COMPLETE FAILURE; IT 
      CAN ALWAYS SERVE AS A BAD EXAMPLE.

                                           -- ANON
 Job cpu time:  0 days  0 hours  3 minutes 35.9 seconds.
 File lengths (MBytes):  RWF=     19 Int=      0 D2E=      0 Chk=      4 Scr=      1
 Normal termination of Gaussian 09 at Mon Oct  4 21:50:06 2021.
