 Entering Gaussian System, Link 0=g09
 Input=C2H3ClMg_7e51_conf_0.com
 Output=C2H3ClMg_7e51_conf_0.log
 Initial command:
 /sw/target/amd/app/gaussian/Gaussian09RevA.02_gcc-4.9.2/g09/l1.exe /home/jschleinitz/gaussian/Gau-3095944.inp -scrdir=/home/jschleinitz/gaussian/
 Entering Link 1 = /sw/target/amd/app/gaussian/Gaussian09RevA.02_gcc-4.9.2/g09/l1.exe PID=   3096006.
  
 Copyright (c) 1988,1990,1992,1993,1995,1998,2003,2009, Gaussian, Inc.
                  All Rights Reserved.
  
 This is part of the Gaussian(R) 09 program.  It is based on
 the Gaussian(R) 03 system (copyright 2003, Gaussian, Inc.),
 the Gaussian(R) 98 system (copyright 1998, Gaussian, Inc.),
 the Gaussian(R) 94 system (copyright 1995, Gaussian, Inc.),
 the Gaussian 92(TM) system (copyright 1992, Gaussian, Inc.),
 the Gaussian 90(TM) system (copyright 1990, Gaussian, Inc.),
 the Gaussian 88(TM) system (copyright 1988, Gaussian, Inc.),
 the Gaussian 86(TM) system (copyright 1986, Carnegie Mellon
 University), and the Gaussian 82(TM) system (copyright 1983,
 Carnegie Mellon University). Gaussian is a federally registered
 trademark of Gaussian, Inc.
  
 This software contains proprietary and confidential information,
 including trade secrets, belonging to Gaussian, Inc.
  
 This software is provided under written license and may be
 used, copied, transmitted, or stored only in accord with that
 written license.
  
 The following legend is applicable only to US Government
 contracts under FAR:
  
                    RESTRICTED RIGHTS LEGEND
  
 Use, reproduction and disclosure by the US Government is
 subject to restrictions as set forth in subparagraphs (a)
 and (c) of the Commercial Computer Software - Restricted
 Rights clause in FAR 52.227-19.
  
 Gaussian, Inc.
 340 Quinnipiac St., Bldg. 40, Wallingford CT 06492
  
  
 ---------------------------------------------------------------
 Warning -- This program may not be used in any manner that
 competes with the business of Gaussian, Inc. or will provide
 assistance to any competitor of Gaussian, Inc.  The licensee
 of this program is prohibited from giving any competitor of
 Gaussian, Inc. access to this program.  By using this program,
 the user acknowledges that Gaussian, Inc. is engaged in the
 business of creating and licensing software in the field of
 computational chemistry and represents and warrants to the
 licensee that it is not a competitor of Gaussian, Inc. and that
 it will not use this program in any manner prohibited above.
 ---------------------------------------------------------------
  

 Cite this work as:
 Gaussian 09, Revision A.02,
 M. J. Frisch, G. W. Trucks, H. B. Schlegel, G. E. Scuseria, 
 M. A. Robb, J. R. Cheeseman, G. Scalmani, V. Barone, B. Mennucci, 
 G. A. Petersson, H. Nakatsuji, M. Caricato, X. Li, H. P. Hratchian, 
 A. F. Izmaylov, J. Bloino, G. Zheng, J. L. Sonnenberg, M. Hada, 
 M. Ehara, K. Toyota, R. Fukuda, J. Hasegawa, M. Ishida, T. Nakajima, 
 Y. Honda, O. Kitao, H. Nakai, T. Vreven, J. A. Montgomery, Jr., 
 J. E. Peralta, F. Ogliaro, M. Bearpark, J. J. Heyd, E. Brothers, 
 K. N. Kudin, V. N. Staroverov, R. Kobayashi, J. Normand, 
 K. Raghavachari, A. Rendell, J. C. Burant, S. S. Iyengar, J. Tomasi, 
 M. Cossi, N. Rega, J. M. Millam, M. Klene, J. E. Knox, J. B. Cross, 
 V. Bakken, C. Adamo, J. Jaramillo, R. Gomperts, R. E. Stratmann, 
 O. Yazyev, A. J. Austin, R. Cammi, C. Pomelli, J. W. Ochterski, 
 R. L. Martin, K. Morokuma, V. G. Zakrzewski, G. A. Voth, 
 P. Salvador, J. J. Dannenberg, S. Dapprich, A. D. Daniels, 
 O. Farkas, J. B. Foresman, J. V. Ortiz, J. Cioslowski, 
 and D. J. Fox, Gaussian, Inc., Wallingford CT, 2009.
 
 ******************************************
 Gaussian 09:  AM64L-G09RevA.02 11-Jun-2009
                 4-Oct-2021 
 ******************************************
 %nproc=1
 Will use up to    1 processors via shared memory.
 %mem=2gb
 %chk=C2H3ClMg_7e51_conf_0.chk
 -----------------------------------
 #p opt b3lyp/6-31G* scf=(xqc,tight)
 -----------------------------------
 1/14=-1,18=20,19=15,26=3,38=1/1,3;
 2/9=110,12=2,17=6,18=5,40=1/2;
 3/5=1,6=6,7=1,11=2,16=1,25=1,30=1,71=1,74=-5/1,2,3;
 4//1;
 5/5=2,8=3,13=1,32=2,38=5/2,8;
 6/7=2,8=2,9=2,10=2,28=1/1;
 7//1,2,3,16;
 1/14=-1,18=20,19=15/3(2);
 2/9=110/2;
 99//99;
 2/9=110/2;
 3/5=1,6=6,7=1,11=2,16=1,25=1,30=1,71=1,74=-5/1,2,3;
 4/5=5,16=3/1;
 5/5=2,8=3,13=1,32=2,38=5/2,8;
 7//1,2,3,16;
 1/14=-1,18=20,19=15/3(-5);
 2/9=110/2;
 6/7=2,8=2,9=2,10=2,19=2,28=1/1;
 99/9=1/99;
 Leave Link    1 at Mon Oct  4 21:19:03 2021, MaxMem=  268435456 cpu:       0.1
 (Enter /sw/target/amd/app/gaussian/Gaussian09RevA.02_gcc-4.9.2/g09/l101.exe)
 ----------------
 Cl[Mg]C=C_conf_0
 ----------------
 Symbolic Z-matrix:
 Charge =  0 Multiplicity = 1
 Cl                    1.06644   0.06382   0.0389 
 Mg                    3.49644   0.06382   0.0389 
 C                     5.66644   0.06382   0.0389 
 C                     6.32941   0.11049  -1.11282 
 H                     6.20412   0.02566   0.98071 
 H                     5.78334   0.14843  -2.04892 
 H                     7.41459   0.11084  -1.12141 
 
 NAtoms=      7 NQM=      7 NQMF=      0 NMic=      0 NMicF=      0 NTot=      7.
                    Isotopes and Nuclear Properties:
 (Nuclear quadrupole moments (NQMom) in fm**2, nuclear magnetic moments (NMagM)
  in nuclear magnetons)

  Atom         1           2           3           4           5           6           7
 IAtWgt=          35          24          12          12           1           1           1
 AtmWgt=  34.9688527  23.9850450  12.0000000  12.0000000   1.0078250   1.0078250   1.0078250
 NucSpn=           3           0           0           0           1           1           1
 AtZEff=   0.0000000   0.0000000   0.0000000   0.0000000   0.0000000   0.0000000   0.0000000
 NQMom=   -8.1650000   0.0000000   0.0000000   0.0000000   0.0000000   0.0000000   0.0000000
 NMagM=    0.8218740   0.0000000   0.0000000   0.0000000   2.7928460   2.7928460   2.7928460
 Leave Link  101 at Mon Oct  4 21:19:15 2021, MaxMem=  268435456 cpu:       0.3
 (Enter /sw/target/amd/app/gaussian/Gaussian09RevA.02_gcc-4.9.2/g09/l103.exe)

 GradGradGradGradGradGradGradGradGradGradGradGradGradGradGradGradGradGrad
 Berny optimization.
 Initialization pass.
                           ----------------------------
                           !    Initial Parameters    !
                           ! (Angstroms and Degrees)  !
 --------------------------                            --------------------------
 ! Name  Definition              Value          Derivative Info.                !
 --------------------------------------------------------------------------------
 ! R1    R(1,2)                  2.43           estimate D2E/DX2                !
 ! R2    R(2,3)                  2.17           estimate D2E/DX2                !
 ! R3    R(3,4)                  1.3297         estimate D2E/DX2                !
 ! R4    R(3,5)                  1.0852         estimate D2E/DX2                !
 ! R5    R(4,6)                  1.0844         estimate D2E/DX2                !
 ! R6    R(4,7)                  1.0852         estimate D2E/DX2                !
 ! A1    A(2,3,4)              119.9063         estimate D2E/DX2                !
 ! A2    A(2,3,5)              119.7018         estimate D2E/DX2                !
 ! A3    A(4,3,5)              120.392          estimate D2E/DX2                !
 ! A4    A(3,4,6)              119.8571         estimate D2E/DX2                !
 ! A5    A(3,4,7)              120.3604         estimate D2E/DX2                !
 ! A6    A(6,4,7)              119.7825         estimate D2E/DX2                !
 ! A7    L(1,2,3,4,-1)         180.0            estimate D2E/DX2                !
 ! A8    L(1,2,3,4,-2)         180.0            estimate D2E/DX2                !
 ! D1    D(2,3,4,6)              0.0            estimate D2E/DX2                !
 ! D2    D(2,3,4,7)            180.0            estimate D2E/DX2                !
 ! D3    D(5,3,4,6)            180.0            estimate D2E/DX2                !
 ! D4    D(5,3,4,7)              0.0            estimate D2E/DX2                !
 --------------------------------------------------------------------------------
 Trust Radius=3.00D-01 FncErr=1.00D-07 GrdErr=1.00D-06
 Number of steps in this run=  28 maximum allowed number of steps= 100.
 GradGradGradGradGradGradGradGradGradGradGradGradGradGradGradGradGradGrad

 Leave Link  103 at Mon Oct  4 21:19:15 2021, MaxMem=  268435456 cpu:       0.0
 (Enter /sw/target/amd/app/gaussian/Gaussian09RevA.02_gcc-4.9.2/g09/l202.exe)
                          Input orientation:                          
 ---------------------------------------------------------------------
 Center     Atomic      Atomic             Coordinates (Angstroms)
 Number     Number       Type             X           Y           Z
 ---------------------------------------------------------------------
      1         17           0        1.066436    0.063822    0.038897
      2         12           0        3.496436    0.063822    0.038897
      3          6           0        5.666436    0.063822    0.038897
      4          6           0        6.329413    0.110493   -1.112817
      5          1           0        6.204115    0.025657    0.980710
      6          1           0        5.783339    0.148427   -2.048919
      7          1           0        7.414586    0.110841   -1.121411
 ---------------------------------------------------------------------
                    Distance matrix (angstroms):
                    1          2          3          4          5
     1  Cl   0.000000
     2  Mg   2.430000   0.000000
     3  C    4.600000   2.170000   0.000000
     4  C    5.387722   3.058494   1.329723   0.000000
     5  H    5.223430   2.867054   1.085158   2.098989   0.000000
     6  H    5.159003   3.097751   2.092798   1.084399   3.061173
     7  H    6.453491   4.086616   2.098704   1.085208   2.427222
                    6          7
     6  H    0.000000
     7  H    1.876873   0.000000
 Stoichiometry    C2H3ClMg
 Framework group  CS[SG(C2H3ClMg)]
 Deg. of freedom    11
 Full point group                 CS      NOp   2
 Largest Abelian subgroup         CS      NOp   2
 Largest concise Abelian subgroup C1      NOp   1
                         Standard orientation:                         
 ---------------------------------------------------------------------
 Center     Atomic      Atomic             Coordinates (Angstroms)
 Number     Number       Type             X           Y           Z
 ---------------------------------------------------------------------
      1         17           0       -0.209640   -2.375923    0.000000
      2         12           0       -0.209640    0.054077   -0.000000
      3          6           0       -0.209640    2.224077   -0.000000
      4          6           0        0.943020    2.887054    0.000000
      5          1           0       -1.152226    2.761757   -0.000000
      6          1           0        1.879890    2.340981    0.000000
      7          1           0        0.951620    3.972228    0.000000
 ---------------------------------------------------------------------
 Rotational constants (GHZ):     38.5992844      1.2927189      1.2508277
 Leave Link  202 at Mon Oct  4 21:19:15 2021, MaxMem=  268435456 cpu:       0.0
 (Enter /sw/target/amd/app/gaussian/Gaussian09RevA.02_gcc-4.9.2/g09/l301.exe)
 Standard basis: 6-31G(d) (6D, 7F)
 Ernie: Thresh=  0.10000D-02 Tol=  0.10000D-05 Strict=F.
 There are    56 symmetry adapted basis functions of A'  symmetry.
 There are    18 symmetry adapted basis functions of A"  symmetry.
 Integral buffers will be    131072 words long.
 Raffenetti 2 integral format.
 Two-electron integral symmetry is turned on.
    74 basis functions,   172 primitive gaussians,    74 cartesian basis functions
    22 alpha electrons       22 beta electrons
       nuclear repulsion energy       135.1926649894 Hartrees.
 IExCor=  402 DFT=T Ex+Corr=B3LYP ExCW=0 ScaHFX=  0.200000
 ScaDFX=  0.800000  0.720000  1.000000  0.810000 ScalE2=  1.000000  1.000000
 IRadAn=      0 IRanWt=     -1 IRanGd=            0 ICorTp=0
 NAtoms=    7 NActive=    7 NUniq=    7 SFac= 7.50D-01 NAtFMM=   80 NAOKFM=F Big=F
 Leave Link  301 at Mon Oct  4 21:19:15 2021, MaxMem=  268435456 cpu:       0.1
 (Enter /sw/target/amd/app/gaussian/Gaussian09RevA.02_gcc-4.9.2/g09/l302.exe)
 NPDir=0 NMtPBC=     1 NCelOv=     1 NCel=       1 NClECP=     1 NCelD=      1
         NCelK=      1 NCelE2=     1 NClLst=     1 CellRange=     0.0.
 One-electron integrals computed using PRISM.
 NBasis=    74 RedAO= T  NBF=    56    18
 NBsUse=    74 1.00D-06 NBFU=    56    18
 Precomputing XC quadrature grid using
 IXCGrd= 2 IRadAn=           0 IRanWt=          -1 IRanGd=           0 AccXCQ= 1.00D-10.
 NRdTot=     440 NPtTot=       55616 NUsed=       58800 NTot=       58832
 NSgBfM=    73    73    73    73    73 NAtAll=     7     7.
 Leave Link  302 at Mon Oct  4 21:19:15 2021, MaxMem=  268435456 cpu:       0.3
 (Enter /sw/target/amd/app/gaussian/Gaussian09RevA.02_gcc-4.9.2/g09/l303.exe)
 DipDrv:  MaxL=1.
 Leave Link  303 at Mon Oct  4 21:19:16 2021, MaxMem=  268435456 cpu:       0.1
 (Enter /sw/target/amd/app/gaussian/Gaussian09RevA.02_gcc-4.9.2/g09/l401.exe)
 Harris functional with IExCor=  402 diagonalized for initial guess.
 ExpMin= 4.21D-02 ExpMax= 2.52D+04 ExpMxC= 3.78D+03 IAcc=2 IRadAn=         0 AccDes= 0.00D+00
 HarFok:  IExCor=  402 AccDes= 0.00D+00 IRadAn=         0 IDoV= 1
 ScaDFX=  1.000000  1.000000  1.000000  1.000000
 FoFCou: FMM=F IPFlag=           0 FMFlag=      100000 FMFlg1=           0
         NFxFlg=           0 DoJE=T BraDBF=F KetDBF=T FulRan=T
         Omega=  0.000000  0.000000  1.000000  0.000000  0.000000 ICntrl=     500 IOpCl=  0
         NMat0=    1 NMatS0=    1 NMatT0=    0 NMatD0=    1 NMtDS0=    0 NMtDT0=    0
         I1Cent=           4 NGrid=           0.
 Petite list used in FoFCou.
 Harris En= -738.410642718344    
 Initial guess orbital symmetries:
       Occupied  (A') (A') (A') (A') (A') (A') (A') (A") (A') (A')
                 (A') (A") (A') (A') (A') (A') (A') (A') (A") (A')
                 (A") (A')
       Virtual   (A") (A') (A') (A") (A') (A') (A') (A') (A') (A")
                 (A') (A') (A') (A') (A") (A") (A') (A') (A') (A")
                 (A') (A") (A') (A') (A") (A') (A') (A') (A') (A')
                 (A") (A') (A') (A") (A') (A') (A') (A') (A') (A")
                 (A") (A") (A') (A') (A') (A') (A") (A') (A') (A')
                 (A') (A')
 The electronic state of the initial guess is 1-A'.
 Leave Link  401 at Mon Oct  4 21:19:17 2021, MaxMem=  268435456 cpu:       1.0
 (Enter /sw/target/amd/app/gaussian/Gaussian09RevA.02_gcc-4.9.2/g09/l502.exe)
 Closed shell SCF:
 Requested convergence on RMS density matrix=1.00D-08 within  64 cycles.
 Requested convergence on MAX density matrix=1.00D-06.
 Requested convergence on             energy=1.00D-06.
 No special actions if energy rises.
 Using DIIS extrapolation, IDIIS=  1040.
 Integral symmetry usage will be decided dynamically.
        58724 words used for storage of precomputed grid.
 Keep R1 ints in memory in canonical form, NReq=4826072.
 IEnd=       81714 IEndB=       81714 NGot=   268435456 MDV=   264511789
 LenX=   264511789 LenY=   264505872
 Symmetry not used in FoFDir.
 MinBra= 0 MaxBra= 2 Meth= 1.
 IRaf=       0 NMat=   1 IRICut=       1 DoRegI=T DoRafI=F ISym2E= 0 JSym2E=0.

 Cycle   1  Pass 1  IDiag  1:
 E= -738.129277456097    
 DIIS: error= 5.15D-02 at cycle   1 NSaved=   1.
 NSaved= 1 IEnMin= 1 EnMin= -738.129277456097     IErMin= 1 ErrMin= 5.15D-02
 ErrMax= 5.15D-02 EMaxC= 1.00D-01 BMatC= 1.55D-01 BMatP= 1.55D-01
 IDIUse=3 WtCom= 4.85D-01 WtEn= 5.15D-01
 Coeff-Com:  0.100D+01
 Coeff-En:   0.100D+01
 Coeff:      0.100D+01
 Gap=     0.033 Goal=   None    Shift=    0.000
 GapD=    0.033 DampG=0.250 DampE=0.500 DampFc=0.2500 IDamp=-1.
 Damping current iteration by 2.50D-01
 RMSDP=1.60D-02 MaxDP=5.08D-01              OVMax= 5.29D-01

 Cycle   2  Pass 1  IDiag  1:
 E= -738.196109066635     Delta-E=       -0.066831610538 Rises=F Damp=T
 DIIS: error= 2.14D-02 at cycle   2 NSaved=   2.
 NSaved= 2 IEnMin= 2 EnMin= -738.196109066635     IErMin= 2 ErrMin= 2.14D-02
 ErrMax= 2.14D-02 EMaxC= 1.00D-01 BMatC= 2.69D-02 BMatP= 1.55D-01
 IDIUse=3 WtCom= 7.86D-01 WtEn= 2.14D-01
 Coeff-Com: -0.577D+00 0.158D+01
 Coeff-En:   0.000D+00 0.100D+01
 Coeff:     -0.454D+00 0.145D+01
 Gap=     0.195 Goal=   None    Shift=    0.000
 RMSDP=3.57D-03 MaxDP=5.62D-02 DE=-6.68D-02 OVMax= 3.18D-01

 Cycle   3  Pass 1  IDiag  1:
 E= -738.324646401209     Delta-E=       -0.128537334574 Rises=F Damp=F
 DIIS: error= 4.89D-03 at cycle   3 NSaved=   3.
 NSaved= 3 IEnMin= 3 EnMin= -738.324646401209     IErMin= 3 ErrMin= 4.89D-03
 ErrMax= 4.89D-03 EMaxC= 1.00D-01 BMatC= 2.50D-03 BMatP= 2.69D-02
 IDIUse=3 WtCom= 9.51D-01 WtEn= 4.89D-02
 Coeff-Com: -0.205D+00 0.489D+00 0.717D+00
 Coeff-En:   0.000D+00 0.000D+00 0.100D+01
 Coeff:     -0.195D+00 0.465D+00 0.731D+00
 Gap=     0.228 Goal=   None    Shift=    0.000
 RMSDP=1.57D-03 MaxDP=3.68D-02 DE=-1.29D-01 OVMax= 4.14D-02

 Cycle   4  Pass 1  IDiag  1:
 E= -738.326312269777     Delta-E=       -0.001665868568 Rises=F Damp=F
 DIIS: error= 4.69D-03 at cycle   4 NSaved=   4.
 NSaved= 4 IEnMin= 4 EnMin= -738.326312269777     IErMin= 4 ErrMin= 4.69D-03
 ErrMax= 4.69D-03 EMaxC= 1.00D-01 BMatC= 1.97D-03 BMatP= 2.50D-03
 IDIUse=3 WtCom= 9.53D-01 WtEn= 4.69D-02
 Coeff-Com: -0.705D-01 0.126D+00 0.458D+00 0.486D+00
 Coeff-En:   0.000D+00 0.000D+00 0.371D+00 0.629D+00
 Coeff:     -0.672D-01 0.120D+00 0.454D+00 0.493D+00
 Gap=     0.202 Goal=   None    Shift=    0.000
 RMSDP=7.00D-04 MaxDP=1.50D-02 DE=-1.67D-03 OVMax= 2.25D-02

 Cycle   5  Pass 1  IDiag  1:
 E= -738.328548458546     Delta-E=       -0.002236188769 Rises=F Damp=F
 DIIS: error= 1.29D-03 at cycle   5 NSaved=   5.
 NSaved= 5 IEnMin= 5 EnMin= -738.328548458546     IErMin= 5 ErrMin= 1.29D-03
 ErrMax= 1.29D-03 EMaxC= 1.00D-01 BMatC= 8.15D-05 BMatP= 1.97D-03
 IDIUse=3 WtCom= 9.87D-01 WtEn= 1.29D-02
 Coeff-Com: -0.336D-01 0.611D-01 0.196D+00 0.229D+00 0.548D+00
 Coeff-En:   0.000D+00 0.000D+00 0.000D+00 0.000D+00 0.100D+01
 Coeff:     -0.332D-01 0.604D-01 0.193D+00 0.226D+00 0.554D+00
 Gap=     0.203 Goal=   None    Shift=    0.000
 RMSDP=1.66D-04 MaxDP=3.49D-03 DE=-2.24D-03 OVMax= 7.25D-03

 Cycle   6  Pass 1  IDiag  1:
 E= -738.328621146273     Delta-E=       -0.000072687727 Rises=F Damp=F
 DIIS: error= 6.03D-04 at cycle   6 NSaved=   6.
 NSaved= 6 IEnMin= 6 EnMin= -738.328621146273     IErMin= 6 ErrMin= 6.03D-04
 ErrMax= 6.03D-04 EMaxC= 1.00D-01 BMatC= 1.90D-05 BMatP= 8.15D-05
 IDIUse=3 WtCom= 9.94D-01 WtEn= 6.03D-03
 Coeff-Com: -0.315D-03-0.148D-02 0.598D-02 0.135D-02 0.318D+00 0.677D+00
 Coeff-En:   0.000D+00 0.000D+00 0.000D+00 0.000D+00 0.204D+00 0.796D+00
 Coeff:     -0.313D-03-0.147D-02 0.595D-02 0.134D-02 0.317D+00 0.677D+00
 Gap=     0.203 Goal=   None    Shift=    0.000
 RMSDP=5.90D-05 MaxDP=1.14D-03 DE=-7.27D-05 OVMax= 2.26D-03

 Cycle   7  Pass 1  IDiag  1:
 E= -738.328641774651     Delta-E=       -0.000020628378 Rises=F Damp=F
 DIIS: error= 5.03D-05 at cycle   7 NSaved=   7.
 NSaved= 7 IEnMin= 7 EnMin= -738.328641774651     IErMin= 7 ErrMin= 5.03D-05
 ErrMax= 5.03D-05 EMaxC= 1.00D-01 BMatC= 2.09D-07 BMatP= 1.90D-05
 IDIUse=1 WtCom= 1.00D+00 WtEn= 0.00D+00
 Coeff-Com:  0.994D-03-0.217D-02-0.256D-02-0.803D-02 0.853D-01 0.209D+00
 Coeff-Com:  0.717D+00
 Coeff:      0.994D-03-0.217D-02-0.256D-02-0.803D-02 0.853D-01 0.209D+00
 Coeff:      0.717D+00
 Gap=     0.203 Goal=   None    Shift=    0.000
 RMSDP=9.98D-06 MaxDP=2.08D-04 DE=-2.06D-05 OVMax= 2.09D-04

 Cycle   8  Pass 1  IDiag  1:
 E= -738.328642035296     Delta-E=       -0.000000260645 Rises=F Damp=F
 DIIS: error= 9.66D-06 at cycle   8 NSaved=   8.
 NSaved= 8 IEnMin= 8 EnMin= -738.328642035296     IErMin= 8 ErrMin= 9.66D-06
 ErrMax= 9.66D-06 EMaxC= 1.00D-01 BMatC= 8.48D-09 BMatP= 2.09D-07
 IDIUse=1 WtCom= 1.00D+00 WtEn= 0.00D+00
 Coeff-Com:  0.207D-03-0.249D-03 0.364D-03-0.723D-03-0.360D-02-0.996D-02
 Coeff-Com:  0.138D+00 0.876D+00
 Coeff:      0.207D-03-0.249D-03 0.364D-03-0.723D-03-0.360D-02-0.996D-02
 Coeff:      0.138D+00 0.876D+00
 Gap=     0.203 Goal=   None    Shift=    0.000
 RMSDP=1.98D-06 MaxDP=4.97D-05 DE=-2.61D-07 OVMax= 5.00D-05

 Cycle   9  Pass 1  IDiag  1:
 E= -738.328642046718     Delta-E=       -0.000000011422 Rises=F Damp=F
 DIIS: error= 1.30D-06 at cycle   9 NSaved=   9.
 NSaved= 9 IEnMin= 9 EnMin= -738.328642046718     IErMin= 9 ErrMin= 1.30D-06
 ErrMax= 1.30D-06 EMaxC= 1.00D-01 BMatC= 1.18D-10 BMatP= 8.48D-09
 IDIUse=1 WtCom= 1.00D+00 WtEn= 0.00D+00
 Coeff-Com:  0.328D-04-0.296D-04 0.159D-03 0.283D-05-0.204D-02-0.547D-02
 Coeff-Com:  0.144D-01 0.174D+00 0.819D+00
 Coeff:      0.328D-04-0.296D-04 0.159D-03 0.283D-05-0.204D-02-0.547D-02
 Coeff:      0.144D-01 0.174D+00 0.819D+00
 Gap=     0.203 Goal=   None    Shift=    0.000
 RMSDP=2.47D-07 MaxDP=2.22D-06 DE=-1.14D-08 OVMax= 5.97D-06

 Cycle  10  Pass 1  IDiag  1:
 E= -738.328642046872     Delta-E=       -0.000000000154 Rises=F Damp=F
 DIIS: error= 2.58D-07 at cycle  10 NSaved=  10.
 NSaved=10 IEnMin=10 EnMin= -738.328642046872     IErMin=10 ErrMin= 2.58D-07
 ErrMax= 2.58D-07 EMaxC= 1.00D-01 BMatC= 5.91D-12 BMatP= 1.18D-10
 IDIUse=1 WtCom= 1.00D+00 WtEn= 0.00D+00
 Coeff-Com:  0.315D-05-0.329D-05 0.180D-04 0.177D-04-0.386D-03-0.982D-03
 Coeff-Com: -0.220D-02 0.437D-02 0.189D+00 0.811D+00
 Coeff:      0.315D-05-0.329D-05 0.180D-04 0.177D-04-0.386D-03-0.982D-03
 Coeff:     -0.220D-02 0.437D-02 0.189D+00 0.811D+00
 Gap=     0.203 Goal=   None    Shift=    0.000
 RMSDP=5.22D-08 MaxDP=5.73D-07 DE=-1.54D-10 OVMax= 1.08D-06

 Cycle  11  Pass 1  IDiag  1:
 E= -738.328642046883     Delta-E=       -0.000000000011 Rises=F Damp=F
 DIIS: error= 5.02D-08 at cycle  11 NSaved=  11.
 NSaved=11 IEnMin=11 EnMin= -738.328642046883     IErMin=11 ErrMin= 5.02D-08
 ErrMax= 5.02D-08 EMaxC= 1.00D-01 BMatC= 1.24D-13 BMatP= 5.91D-12
 IDIUse=1 WtCom= 1.00D+00 WtEn= 0.00D+00
 Coeff-Com:  0.294D-07 0.128D-06 0.447D-06 0.313D-05 0.759D-05 0.166D-04
 Coeff-Com: -0.602D-03-0.439D-02 0.727D-02 0.124D+00 0.874D+00
 Coeff:      0.294D-07 0.128D-06 0.447D-06 0.313D-05 0.759D-05 0.166D-04
 Coeff:     -0.602D-03-0.439D-02 0.727D-02 0.124D+00 0.874D+00
 Gap=     0.203 Goal=   None    Shift=    0.000
 RMSDP=8.56D-09 MaxDP=2.34D-07 DE=-1.14D-11 OVMax= 2.05D-07

 SCF Done:  E(RB3LYP) =  -738.328642047     A.U. after   11 cycles
             Convg  =    0.8561D-08             -V/T =  2.0044
 KE= 7.351273049134D+02 PE=-2.023870255043D+03 EE= 4.152216430936D+02
 Leave Link  502 at Mon Oct  4 21:19:43 2021, MaxMem=  268435456 cpu:       6.2
 (Enter /sw/target/amd/app/gaussian/Gaussian09RevA.02_gcc-4.9.2/g09/l508.exe)
 QCSCF skips out because SCF is already converged.
 Leave Link  508 at Mon Oct  4 21:19:43 2021, MaxMem=  268435456 cpu:       0.0
 (Enter /sw/target/amd/app/gaussian/Gaussian09RevA.02_gcc-4.9.2/g09/l601.exe)
 Copying SCF densities to generalized density rwf, IOpCl= 0 IROHF=0.

 **********************************************************************

            Population analysis using the SCF density.

 **********************************************************************

 Orbital symmetries:
       Occupied  (A') (A') (A') (A') (A') (A') (A') (A") (A') (A')
                 (A") (A') (A') (A') (A') (A') (A') (A') (A") (A')
                 (A") (A')
       Virtual   (A') (A") (A') (A") (A') (A') (A') (A') (A") (A')
                 (A') (A') (A") (A') (A') (A") (A') (A') (A") (A')
                 (A') (A') (A") (A') (A") (A') (A') (A') (A') (A')
                 (A') (A") (A') (A') (A") (A') (A') (A') (A') (A")
                 (A") (A") (A') (A') (A') (A') (A") (A') (A') (A')
                 (A') (A')
 The electronic state is 1-A'.
 Alpha  occ. eigenvalues -- -101.49169 -46.87071 -10.19369 -10.18203  -9.40656
 Alpha  occ. eigenvalues --   -7.16640  -7.16304  -7.16299  -3.15296  -1.89974
 Alpha  occ. eigenvalues --   -1.89926  -1.89188  -0.75365  -0.74872  -0.55932
 Alpha  occ. eigenvalues --   -0.45781  -0.40276  -0.32536  -0.28259  -0.28243
 Alpha  occ. eigenvalues --   -0.27499  -0.26681
 Alpha virt. eigenvalues --   -0.06385  -0.03288  -0.02507   0.02860   0.06239
 Alpha virt. eigenvalues --    0.11266   0.11952   0.14340   0.15330   0.18262
 Alpha virt. eigenvalues --    0.21954   0.26431   0.26931   0.27377   0.29688
 Alpha virt. eigenvalues --    0.30833   0.35580   0.42112   0.52160   0.52281
 Alpha virt. eigenvalues --    0.53575   0.57411   0.57911   0.63577   0.67309
 Alpha virt. eigenvalues --    0.70319   0.74388   0.81656   0.88197   0.90952
 Alpha virt. eigenvalues --    0.92015   0.92291   0.92650   0.93571   0.96578
 Alpha virt. eigenvalues --    0.99344   1.12816   1.22729   1.31732   1.46904
 Alpha virt. eigenvalues --    1.58055   1.86855   1.91358   1.94468   2.12410
 Alpha virt. eigenvalues --    2.27032   2.39016   2.61301   2.72946   4.11870
 Alpha virt. eigenvalues --    4.26391   4.31452
          Condensed to atoms (all electrons):
              1          2          3          4          5          6
     1  Cl  17.090869   0.321650  -0.002107   0.000034   0.000022   0.000012
     2  Mg   0.321650  10.776582   0.384906  -0.009918  -0.047991  -0.020396
     3  C   -0.002107   0.384906   4.988578   0.649378   0.343777  -0.050984
     4  C    0.000034  -0.009918   0.649378   4.966902  -0.040249   0.375339
     5  H    0.000022  -0.047991   0.343777  -0.040249   0.619011   0.007339
     6  H    0.000012  -0.020396  -0.050984   0.375339   0.007339   0.601391
     7  H   -0.000001   0.010523  -0.037246   0.366994  -0.013745  -0.048491
              7
     1  Cl  -0.000001
     2  Mg   0.010523
     3  C   -0.037246
     4  C    0.366994
     5  H   -0.013745
     6  H   -0.048491
     7  H    0.578976
 Mulliken atomic charges:
              1
     1  Cl  -0.410478
     2  Mg   0.584644
     3  C   -0.276303
     4  C   -0.308480
     5  H    0.131837
     6  H    0.135790
     7  H    0.142990
 Sum of Mulliken atomic charges =  -0.00000
 Mulliken charges with hydrogens summed into heavy atoms:
              1
     1  Cl  -0.410478
     2  Mg   0.584644
     3  C   -0.144466
     4  C   -0.029699
 Sum of Mulliken charges with hydrogens summed into heavy atoms =  -0.00000
 Electronic spatial extent (au):  <R**2>=            861.9691
 Charge=             -0.0000 electrons
 Dipole moment (field-independent basis, Debye):
    X=              0.0387    Y=              3.3912    Z=              0.0000  Tot=              3.3914
 Quadrupole moment (field-independent basis, Debye-Ang):
   XX=            -32.5694   YY=            -47.9501   ZZ=            -35.5205
   XY=             -0.8671   XZ=              0.0000   YZ=              0.0000
 Traceless Quadrupole moment (field-independent basis, Debye-Ang):
   XX=              6.1106   YY=             -9.2701   ZZ=              3.1595
   XY=             -0.8671   XZ=              0.0000   YZ=              0.0000
 Octapole moment (field-independent basis, Debye-Ang**2):
  XXX=             -1.1637  YYY=             21.3128  ZZZ=             -0.0000  XYY=              2.2248
  XXY=              0.7291  XXZ=              0.0000  XZZ=             -1.2611  YZZ=             -6.0419
  YYZ=             -0.0000  XYZ=              0.0000
 Hexadecapole moment (field-independent basis, Debye-Ang**3):
 XXXX=            -98.4674 YYYY=          -1046.7799 ZZZZ=            -45.5561 XXXY=            -66.3410
 XXXZ=              0.0000 YYYX=            -68.2170 YYYZ=              0.0000 ZZZX=              0.0000
 ZZZY=              0.0000 XXYY=           -190.2591 XXZZ=            -25.3400 YYZZ=           -196.6245
 XXYZ=              0.0000 YYXZ=              0.0000 ZZXY=            -24.0258
 N-N= 1.351926649894D+02 E-N=-2.023870254794D+03  KE= 7.351273049134D+02
 Symmetry A'   KE= 6.722757938398D+02
 Symmetry A"   KE= 6.285151107367D+01
 No NMR shielding tensors so no spin-rotation constants.
 Leave Link  601 at Mon Oct  4 21:19:43 2021, MaxMem=  268435456 cpu:       0.2
 (Enter /sw/target/amd/app/gaussian/Gaussian09RevA.02_gcc-4.9.2/g09/l701.exe)
 Compute integral first derivatives.
 ... and contract with generalized density number  0.
 Leave Link  701 at Mon Oct  4 21:19:44 2021, MaxMem=  268435456 cpu:       0.2
 (Enter /sw/target/amd/app/gaussian/Gaussian09RevA.02_gcc-4.9.2/g09/l702.exe)
 L702 exits ... SP integral derivatives will be done elsewhere.
 Leave Link  702 at Mon Oct  4 21:19:45 2021, MaxMem=  268435456 cpu:       0.1
 (Enter /sw/target/amd/app/gaussian/Gaussian09RevA.02_gcc-4.9.2/g09/l703.exe)
 Compute integral first derivatives, UseDBF=F ICtDFT=           0.
 Integral derivatives from FoFDir, PRISM(SPDF).
 Calling FoFJK, ICntrl=      2127 FMM=F ISym2X=1 I1Cent= 0 IOpClX= 0 NMat=1 NMatS=1 NMatT=0.
 FoFCou: FMM=F IPFlag=           0 FMFlag=      100000 FMFlg1=         800
         NFxFlg=           0 DoJE=F BraDBF=F KetDBF=F FulRan=T
         Omega=  0.000000  0.000000  1.000000  0.000000  0.000000 ICntrl=    2127 IOpCl=  0
         NMat0=    1 NMatS0=    1 NMatT0=    0 NMatD0=    1 NMtDS0=    0 NMtDT0=    0
         I1Cent=           0 NGrid=           0.
 Petite list used in FoFCou.
 Leave Link  703 at Mon Oct  4 21:19:56 2021, MaxMem=  268435456 cpu:       2.9
 (Enter /sw/target/amd/app/gaussian/Gaussian09RevA.02_gcc-4.9.2/g09/l716.exe)
 Dipole        = 1.52082862D-02 1.33420401D+00 1.02282554D-17
 ***** Axes restored to original set *****
 -------------------------------------------------------------------
 Center     Atomic                   Forces (Hartrees/Bohr)
 Number     Number              X              Y              Z
 -------------------------------------------------------------------
      1       17           0.032046811    0.000010640   -0.000262576
      2       12          -0.014695946   -0.000062924    0.001552812
      3        6          -0.034522431   -0.000385299    0.009508189
      4        6           0.000021750   -0.000086744    0.002140617
      5        1           0.005767478   -0.000075064    0.001852393
      6        1           0.006713779    0.000288563   -0.007120984
      7        1           0.004668559    0.000310829   -0.007670452
 -------------------------------------------------------------------
 Cartesian Forces:  Max     0.034522431 RMS     0.011434474
 Leave Link  716 at Mon Oct  4 21:19:56 2021, MaxMem=  268435456 cpu:       0.1
 (Enter /sw/target/amd/app/gaussian/Gaussian09RevA.02_gcc-4.9.2/g09/l103.exe)

 GradGradGradGradGradGradGradGradGradGradGradGradGradGradGradGradGradGrad
 Berny optimization.
 Internal  Forces:  Max     0.032047382 RMS     0.010403665
 Search for a local minimum.
 Step number   1 out of a maximum of   28
 All quantities printed in internal units (Hartrees-Bohrs-Radians)
 RMS Force = .10404D-01 SwitMx=.10000D-02 MixMth= 1
 Mixed Optimization -- RFO/linear search
 Second derivative matrix not updated -- first step.
 The second derivative matrix:
                          R1        R2        R3        R4        R5
           R1           0.10784
           R2           0.00000   0.10112
           R3           0.00000   0.00000   0.59571
           R4           0.00000   0.00000   0.00000   0.35378
           R5           0.00000   0.00000   0.00000   0.00000   0.35468
           R6           0.00000   0.00000   0.00000   0.00000   0.00000
           A1           0.00000   0.00000   0.00000   0.00000   0.00000
           A2           0.00000   0.00000   0.00000   0.00000   0.00000
           A3           0.00000   0.00000   0.00000   0.00000   0.00000
           A4           0.00000   0.00000   0.00000   0.00000   0.00000
           A5           0.00000   0.00000   0.00000   0.00000   0.00000
           A6           0.00000   0.00000   0.00000   0.00000   0.00000
           A7           0.00000   0.00000   0.00000   0.00000   0.00000
           A8           0.00000   0.00000   0.00000   0.00000   0.00000
           D1           0.00000   0.00000   0.00000   0.00000   0.00000
           D2           0.00000   0.00000   0.00000   0.00000   0.00000
           D3           0.00000   0.00000   0.00000   0.00000   0.00000
           D4           0.00000   0.00000   0.00000   0.00000   0.00000
                          R6        A1        A2        A3        A4
           R6           0.35372
           A1           0.00000   0.25000
           A2           0.00000   0.00000   0.16000
           A3           0.00000   0.00000   0.00000   0.16000
           A4           0.00000   0.00000   0.00000   0.00000   0.16000
           A5           0.00000   0.00000   0.00000   0.00000   0.00000
           A6           0.00000   0.00000   0.00000   0.00000   0.00000
           A7           0.00000   0.00000   0.00000   0.00000   0.00000
           A8           0.00000   0.00000   0.00000   0.00000   0.00000
           D1           0.00000   0.00000   0.00000   0.00000   0.00000
           D2           0.00000   0.00000   0.00000   0.00000   0.00000
           D3           0.00000   0.00000   0.00000   0.00000   0.00000
           D4           0.00000   0.00000   0.00000   0.00000   0.00000
                          A5        A6        A7        A8        D1
           A5           0.16000
           A6           0.00000   0.16000
           A7           0.00000   0.00000   0.00240
           A8           0.00000   0.00000   0.00000   0.00240
           D1           0.00000   0.00000   0.00000   0.00000   0.03018
           D2           0.00000   0.00000   0.00000   0.00000   0.00000
           D3           0.00000   0.00000   0.00000   0.00000   0.00000
           D4           0.00000   0.00000   0.00000   0.00000   0.00000
                          D2        D3        D4
           D2           0.03018
           D3           0.00000   0.03018
           D4           0.00000   0.00000   0.03018
     Eigenvalues ---    0.00240   0.00240   0.03018   0.03018   0.03018
     Eigenvalues ---    0.10112   0.10784   0.16000   0.16000   0.16000
     Eigenvalues ---    0.22000   0.35372   0.35378   0.35468   0.59571
     Eigenvalues --- 1000.000001000.000001000.00000
 RFO step:  Lambda=-1.33920104D-02 EMin= 2.39615807D-03
 Linear search not attempted -- first point.
 Maximum step size (   0.300) exceeded in Quadratic search.
    -- Step size scaled by   0.910
 Iteration  1 RMS(Cart)=  0.07812086 RMS(Int)=  0.01090026
 Iteration  2 RMS(Cart)=  0.01010643 RMS(Int)=  0.00000368
 Iteration  3 RMS(Cart)=  0.00000971 RMS(Int)=  0.00000001
 Iteration  4 RMS(Cart)=  0.00000000 RMS(Int)=  0.00000000
 ClnCor:  largest displacement from symmetrization is 7.85D-09 for atom     6.
 Variable       Old X    -DE/DX   Delta X   Delta X   Delta X     New X
                                 (Linear)    (Quad)   (Total)
    R1        4.59203  -0.03205   0.00000  -0.24067  -0.24067   4.35137
    R2        4.10071  -0.01735   0.00000  -0.13795  -0.13795   3.96276
    R3        2.51281   0.01666   0.00000   0.02491   0.02491   2.53772
    R4        2.05065   0.00447   0.00000   0.01108   0.01108   2.06173
    R5        2.04922   0.00278   0.00000   0.00687   0.00687   2.05609
    R6        2.05075   0.00473   0.00000   0.01173   0.01173   2.06247
    A1        2.09276   0.00556   0.00000   0.02167   0.02167   2.11443
    A2        2.08919   0.00142   0.00000   0.01120   0.01120   2.10039
    A3        2.10124  -0.00697   0.00000  -0.03287  -0.03287   2.06836
    A4        2.09190   0.00760   0.00000   0.03991   0.03991   2.13181
    A5        2.10068   0.00404   0.00000   0.02119   0.02119   2.12187
    A6        2.09060  -0.01164   0.00000  -0.06110  -0.06110   2.02950
    A7        3.14159  -0.00119   0.00000  -0.06834  -0.06834   3.07325
    A8        3.14159   0.00000   0.00000  -0.00000   0.00000   3.14159
    D1       -0.00000   0.00000   0.00000   0.00000   0.00000   0.00000
    D2       -3.14159   0.00000   0.00000   0.00000  -0.00000   3.14159
    D3        3.14159   0.00000   0.00000   0.00000  -0.00000   3.14159
    D4        0.00000  -0.00000   0.00000   0.00000  -0.00000   0.00000
         Item               Value     Threshold  Converged?
 Maximum Force            0.032047     0.000450     NO 
 RMS     Force            0.010404     0.000300     NO 
 Maximum Displacement     0.282404     0.001800     NO 
 RMS     Displacement     0.085597     0.001200     NO 
 Predicted change in Energy=-7.244878D-03
 GradGradGradGradGradGradGradGradGradGradGradGradGradGradGradGradGradGrad

 Leave Link  103 at Mon Oct  4 21:19:56 2021, MaxMem=  268435456 cpu:       0.0
 (Enter /sw/target/amd/app/gaussian/Gaussian09RevA.02_gcc-4.9.2/g09/l202.exe)
                          Input orientation:                          
 ---------------------------------------------------------------------
 Center     Atomic      Atomic             Coordinates (Angstroms)
 Number     Number       Type             X           Y           Z
 ---------------------------------------------------------------------
      1         17           0        1.215878    0.065952   -0.013651
      2         12           0        3.515832    0.061447    0.097510
      3          6           0        5.612413    0.063146    0.055593
      4          6           0        6.283898    0.110234   -1.106422
      5          1           0        6.182302    0.025476    0.985179
      6          1           0        5.775538    0.149184   -2.067605
      7          1           0        7.374900    0.111447   -1.136350
 ---------------------------------------------------------------------
                    Distance matrix (angstroms):
                    1          2          3          4          5
     1  Cl   0.000000
     2  Mg   2.302644   0.000000
     3  C    4.397081   2.097000   0.000000
     4  C    5.184684   3.018944   1.342903   0.000000
     5  H    5.066031   2.810572   1.091020   2.095781   0.000000
     6  H    5.001616   3.130765   2.131193   1.088035   3.082248
     7  H    6.260678   4.051829   2.128244   1.091413   2.435275
                    6          7
     6  H    0.000000
     7  H    1.851113   0.000000
 Stoichiometry    C2H3ClMg
 Framework group  CS[SG(C2H3ClMg)]
 Deg. of freedom    11
 Full point group                 CS      NOp   2
 Largest Abelian subgroup         CS      NOp   2
 Largest concise Abelian subgroup C1      NOp   1
                         Standard orientation:                         
 ---------------------------------------------------------------------
 Center     Atomic      Atomic             Coordinates (Angstroms)
 Number     Number       Type             X           Y           Z
 ---------------------------------------------------------------------
      1         17           0       -2.279208   -0.056347    0.000000
      2         12           0       -0.000000    0.271343   -0.000000
      3          6           0        2.091190    0.427330   -0.000000
      4          6           0        2.869375   -0.667118   -0.000000
      5          1           0        2.570788    1.407284   -0.000000
      6          1           0        2.454015   -1.672751    0.000000
      7          1           0        3.958338   -0.594033   -0.000000
 ---------------------------------------------------------------------
 Rotational constants (GHZ):     35.4567671      1.4025266      1.3491593
 Leave Link  202 at Mon Oct  4 21:19:56 2021, MaxMem=  268435456 cpu:       0.0
 (Enter /sw/target/amd/app/gaussian/Gaussian09RevA.02_gcc-4.9.2/g09/l301.exe)
 Standard basis: 6-31G(d) (6D, 7F)
 Ernie: Thresh=  0.10000D-02 Tol=  0.10000D-05 Strict=F.
 There are    56 symmetry adapted basis functions of A'  symmetry.
 There are    18 symmetry adapted basis functions of A"  symmetry.
 Integral buffers will be    131072 words long.
 Raffenetti 2 integral format.
 Two-electron integral symmetry is turned on.
    74 basis functions,   172 primitive gaussians,    74 cartesian basis functions
    22 alpha electrons       22 beta electrons
       nuclear repulsion energy       139.3187952228 Hartrees.
 IExCor=  402 DFT=T Ex+Corr=B3LYP ExCW=0 ScaHFX=  0.200000
 ScaDFX=  0.800000  0.720000  1.000000  0.810000 ScalE2=  1.000000  1.000000
 IRadAn=      0 IRanWt=     -1 IRanGd=            0 ICorTp=0
 NAtoms=    7 NActive=    7 NUniq=    7 SFac= 7.50D-01 NAtFMM=   80 NAOKFM=F Big=F
 Leave Link  301 at Mon Oct  4 21:19:57 2021, MaxMem=  268435456 cpu:       0.1
 (Enter /sw/target/amd/app/gaussian/Gaussian09RevA.02_gcc-4.9.2/g09/l302.exe)
 NPDir=0 NMtPBC=     1 NCelOv=     1 NCel=       1 NClECP=     1 NCelD=      1
         NCelK=      1 NCelE2=     1 NClLst=     1 CellRange=     0.0.
 One-electron integrals computed using PRISM.
 NBasis=    74 RedAO= T  NBF=    56    18
 NBsUse=    74 1.00D-06 NBFU=    56    18
 Precomputing XC quadrature grid using
 IXCGrd= 2 IRadAn=           0 IRanWt=          -1 IRanGd=           0 AccXCQ= 1.00D-10.
 NRdTot=     440 NPtTot=       55616 NUsed=       58800 NTot=       58832
 NSgBfM=    73    73    73    73    73 NAtAll=     7     7.
 Leave Link  302 at Mon Oct  4 21:19:58 2021, MaxMem=  268435456 cpu:       0.4
 (Enter /sw/target/amd/app/gaussian/Gaussian09RevA.02_gcc-4.9.2/g09/l303.exe)
 DipDrv:  MaxL=1.
 Leave Link  303 at Mon Oct  4 21:19:59 2021, MaxMem=  268435456 cpu:       0.1
 (Enter /sw/target/amd/app/gaussian/Gaussian09RevA.02_gcc-4.9.2/g09/l401.exe)
 Initial guess read from the read-write file.
 B after Tr=     0.000000    0.000000    0.000000
         Rot=    1.000000    0.000000    0.000000    0.000000 Ang=   0.00 deg.
 Guess basis will be translated and rotated to current coordinates.
 Initial guess orbital symmetries:
       Occupied  (A') (A') (A') (A') (A') (A') (A') (A") (A') (A')
                 (A") (A') (A') (A') (A') (A') (A') (A') (A") (A')
                 (A") (A')
       Virtual   (A') (A") (A') (A") (A') (A') (A') (A') (A") (A')
                 (A') (A') (A") (A') (A') (A") (A') (A') (A") (A')
                 (A') (A') (A") (A') (A") (A') (A') (A') (A') (A')
                 (A') (A") (A') (A') (A") (A') (A') (A') (A') (A")
                 (A") (A") (A') (A') (A') (A') (A") (A') (A') (A')
                 (A') (A')
 The electronic state of the initial guess is 1-A'.
 Generating alternative initial guess.
 Harris functional with IExCor=  402 diagonalized for initial guess.
 ExpMin= 4.21D-02 ExpMax= 2.52D+04 ExpMxC= 3.78D+03 IAcc=2 IRadAn=         0 AccDes= 0.00D+00
 HarFok:  IExCor=  402 AccDes= 0.00D+00 IRadAn=         0 IDoV= 1
 ScaDFX=  1.000000  1.000000  1.000000  1.000000
 FoFCou: FMM=F IPFlag=           0 FMFlag=      100000 FMFlg1=           0
         NFxFlg=           0 DoJE=T BraDBF=F KetDBF=T FulRan=T
         Omega=  0.000000  0.000000  1.000000  0.000000  0.000000 ICntrl=     500 IOpCl=  0
         NMat0=    1 NMatS0=    1 NMatT0=    0 NMatD0=    1 NMtDS0=    0 NMtDT0=    0
         I1Cent=           4 NGrid=           0.
 Petite list used in FoFCou.
 Harris En= -738.408482130218    
 Leave Link  401 at Mon Oct  4 21:20:04 2021, MaxMem=  268435456 cpu:       1.4
 (Enter /sw/target/amd/app/gaussian/Gaussian09RevA.02_gcc-4.9.2/g09/l502.exe)
 Closed shell SCF:
 Requested convergence on RMS density matrix=1.00D-08 within  64 cycles.
 Requested convergence on MAX density matrix=1.00D-06.
 Requested convergence on             energy=1.00D-06.
 No special actions if energy rises.
 Using DIIS extrapolation, IDIIS=  1040.
 Integral symmetry usage will be decided dynamically.
        58724 words used for storage of precomputed grid.
 Keep R1 ints in memory in canonical form, NReq=4826072.
 IEnd=       81714 IEndB=       81714 NGot=   268435456 MDV=   264511789
 LenX=   264511789 LenY=   264505872
 Symmetry not used in FoFDir.
 MinBra= 0 MaxBra= 2 Meth= 1.
 IRaf=       0 NMat=   1 IRICut=       1 DoRegI=T DoRafI=F ISym2E= 0 JSym2E=0.

 Cycle   1  Pass 1  IDiag  1:
 E= -736.695124162068    
 DIIS: error= 1.38D-01 at cycle   1 NSaved=   1.
 NSaved= 1 IEnMin= 1 EnMin= -736.695124162068     IErMin= 1 ErrMin= 1.38D-01
 ErrMax= 1.38D-01 EMaxC= 1.00D-01 BMatC= 6.35D-01 BMatP= 6.35D-01
 IDIUse=3 WtCom= 0.00D+00 WtEn= 1.00D+00
 Coeff-Com:  0.100D+01
 Coeff-En:   0.100D+01
 Coeff:      0.100D+01
 Recover alternate guess density for next cycle.
 RMSDP=2.58D-02 MaxDP=2.79D-01              OVMax= 0.00D+00

 Cycle   2  Pass 1  IDiag  1:
 E= -738.152323535179     Delta-E=       -1.457199373110 Rises=F Damp=F
 DIIS: error= 4.78D-02 at cycle   2 NSaved=   2.
 NSaved= 2 IEnMin= 2 EnMin= -738.152323535179     IErMin= 2 ErrMin= 4.78D-02
 ErrMax= 4.78D-02 EMaxC= 1.00D-01 BMatC= 1.48D-01 BMatP= 6.35D-01
 IDIUse=3 WtCom= 5.22D-01 WtEn= 4.78D-01
 Coeff-Com:  0.161D+00 0.839D+00
 Coeff-En:   0.000D+00 0.100D+01
 Coeff:      0.843D-01 0.916D+00
 Gap=    -0.187 Goal=   None    Shift=    0.000
 RMSDP=1.42D-02 MaxDP=4.06D-01 DE=-1.46D+00 OVMax= 8.06D-01

 Cycle   3  Pass 1  IDiag  1:
 E= -737.949411701718     Delta-E=        0.202911833460 Rises=F Damp=F
 DIIS: error= 6.10D-02 at cycle   3 NSaved=   3.
 NSaved= 3 IEnMin= 2 EnMin= -738.152323535179     IErMin= 2 ErrMin= 4.78D-02
 ErrMax= 6.10D-02 EMaxC= 1.00D-01 BMatC= 2.86D-01 BMatP= 1.48D-01
 IDIUse=2 WtCom= 0.00D+00 WtEn= 1.00D+00
 Coeff-En:   0.000D+00 0.660D+00 0.340D+00
 Coeff:      0.000D+00 0.660D+00 0.340D+00
 Gap=     0.186 Goal=   None    Shift=    0.000
 RMSDP=7.98D-03 MaxDP=2.48D-01 DE= 2.03D-01 OVMax= 2.71D-01

 Cycle   4  Pass 1  IDiag  1:
 E= -738.331943394903     Delta-E=       -0.382531693185 Rises=F Damp=F
 DIIS: error= 8.30D-03 at cycle   4 NSaved=   4.
 NSaved= 4 IEnMin= 4 EnMin= -738.331943394903     IErMin= 4 ErrMin= 8.30D-03
 ErrMax= 8.30D-03 EMaxC= 1.00D-01 BMatC= 5.01D-03 BMatP= 1.48D-01
 IDIUse=3 WtCom= 9.17D-01 WtEn= 8.30D-02
 Coeff-Com:  0.438D-02 0.105D+00-0.433D-01 0.934D+00
 Coeff-En:   0.000D+00 0.000D+00 0.000D+00 0.100D+01
 Coeff:      0.402D-02 0.966D-01-0.397D-01 0.939D+00
 Gap=     0.213 Goal=   None    Shift=    0.000
 RMSDP=1.26D-03 MaxDP=2.57D-02 DE=-3.83D-01 OVMax= 2.49D-02

 Cycle   5  Pass 1  IDiag  1:
 E= -738.336787799098     Delta-E=       -0.004844404195 Rises=F Damp=F
 DIIS: error= 2.66D-03 at cycle   5 NSaved=   5.
 NSaved= 5 IEnMin= 5 EnMin= -738.336787799098     IErMin= 5 ErrMin= 2.66D-03
 ErrMax= 2.66D-03 EMaxC= 1.00D-01 BMatC= 7.28D-04 BMatP= 5.01D-03
 IDIUse=3 WtCom= 9.73D-01 WtEn= 2.66D-02
 Coeff-Com:  0.108D-04 0.492D-01-0.305D-01 0.503D+00 0.478D+00
 Coeff-En:   0.000D+00 0.000D+00 0.000D+00 0.000D+00 0.100D+01
 Coeff:      0.106D-04 0.479D-01-0.297D-01 0.489D+00 0.492D+00
 Gap=     0.215 Goal=   None    Shift=    0.000
 RMSDP=4.87D-04 MaxDP=1.17D-02 DE=-4.84D-03 OVMax= 1.39D-02

 Cycle   6  Pass 1  IDiag  1:
 E= -738.337570097827     Delta-E=       -0.000782298728 Rises=F Damp=F
 DIIS: error= 1.16D-03 at cycle   6 NSaved=   6.
 NSaved= 6 IEnMin= 6 EnMin= -738.337570097827     IErMin= 6 ErrMin= 1.16D-03
 ErrMax= 1.16D-03 EMaxC= 1.00D-01 BMatC= 6.81D-05 BMatP= 7.28D-04
 IDIUse=3 WtCom= 9.88D-01 WtEn= 1.16D-02
 Coeff-Com: -0.194D-03 0.174D-01-0.116D-01 0.156D+00 0.253D+00 0.585D+00
 Coeff-En:   0.000D+00 0.000D+00 0.000D+00 0.000D+00 0.000D+00 0.100D+01
 Coeff:     -0.192D-03 0.172D-01-0.114D-01 0.154D+00 0.250D+00 0.589D+00
 Gap=     0.216 Goal=   None    Shift=    0.000
 RMSDP=1.40D-04 MaxDP=3.19D-03 DE=-7.82D-04 OVMax= 6.81D-03

 Cycle   7  Pass 1  IDiag  1:
 E= -738.337636261181     Delta-E=       -0.000066163354 Rises=F Damp=F
 DIIS: error= 5.48D-04 at cycle   7 NSaved=   7.
 NSaved= 7 IEnMin= 7 EnMin= -738.337636261181     IErMin= 7 ErrMin= 5.48D-04
 ErrMax= 5.48D-04 EMaxC= 1.00D-01 BMatC= 1.45D-05 BMatP= 6.81D-05
 IDIUse=3 WtCom= 9.95D-01 WtEn= 5.48D-03
 Coeff-Com:  0.922D-04 0.318D-02-0.370D-02 0.191D-01 0.779D-01 0.372D+00
 Coeff-Com:  0.531D+00
 Coeff-En:   0.000D+00 0.000D+00 0.000D+00 0.000D+00 0.000D+00 0.117D+00
 Coeff-En:   0.883D+00
 Coeff:      0.917D-04 0.316D-02-0.368D-02 0.190D-01 0.774D-01 0.371D+00
 Coeff:      0.533D+00
 Gap=     0.216 Goal=   None    Shift=    0.000
 RMSDP=5.22D-05 MaxDP=1.09D-03 DE=-6.62D-05 OVMax= 1.84D-03

 Cycle   8  Pass 1  IDiag  1:
 E= -738.337652226199     Delta-E=       -0.000015965018 Rises=F Damp=F
 DIIS: error= 3.31D-05 at cycle   8 NSaved=   8.
 NSaved= 8 IEnMin= 8 EnMin= -738.337652226199     IErMin= 8 ErrMin= 3.31D-05
 ErrMax= 3.31D-05 EMaxC= 1.00D-01 BMatC= 1.20D-07 BMatP= 1.45D-05
 IDIUse=1 WtCom= 1.00D+00 WtEn= 0.00D+00
 Coeff-Com: -0.849D-05 0.592D-03-0.798D-03 0.516D-03 0.172D-01 0.106D+00
 Coeff-Com:  0.162D+00 0.715D+00
 Coeff:     -0.849D-05 0.592D-03-0.798D-03 0.516D-03 0.172D-01 0.106D+00
 Coeff:      0.162D+00 0.715D+00
 Gap=     0.216 Goal=   None    Shift=    0.000
 RMSDP=9.16D-06 MaxDP=1.60D-04 DE=-1.60D-05 OVMax= 1.66D-04

 Cycle   9  Pass 1  IDiag  1:
 E= -738.337652365183     Delta-E=       -0.000000138984 Rises=F Damp=F
 DIIS: error= 9.34D-06 at cycle   9 NSaved=   9.
 NSaved= 9 IEnMin= 9 EnMin= -738.337652365183     IErMin= 9 ErrMin= 9.34D-06
 ErrMax= 9.34D-06 EMaxC= 1.00D-01 BMatC= 8.84D-09 BMatP= 1.20D-07
 IDIUse=1 WtCom= 1.00D+00 WtEn= 0.00D+00
 Coeff-Com: -0.964D-06 0.156D-04-0.536D-04-0.248D-03 0.179D-02 0.808D-02
 Coeff-Com:  0.535D-02 0.211D+00 0.774D+00
 Coeff:     -0.964D-06 0.156D-04-0.536D-04-0.248D-03 0.179D-02 0.808D-02
 Coeff:      0.535D-02 0.211D+00 0.774D+00
 Gap=     0.216 Goal=   None    Shift=    0.000
 RMSDP=1.92D-06 MaxDP=3.73D-05 DE=-1.39D-07 OVMax= 3.78D-05

 Cycle  10  Pass 1  IDiag  1:
 E= -738.337652376220     Delta-E=       -0.000000011037 Rises=F Damp=F
 DIIS: error= 7.82D-07 at cycle  10 NSaved=  10.
 NSaved=10 IEnMin=10 EnMin= -738.337652376220     IErMin=10 ErrMin= 7.82D-07
 ErrMax= 7.82D-07 EMaxC= 1.00D-01 BMatC= 5.59D-11 BMatP= 8.84D-09
 IDIUse=1 WtCom= 1.00D+00 WtEn= 0.00D+00
 Coeff-Com: -0.779D-06-0.115D-05-0.111D-05-0.533D-04 0.244D-03 0.499D-03
 Coeff-Com: -0.359D-03 0.322D-01 0.138D+00 0.829D+00
 Coeff:     -0.779D-06-0.115D-05-0.111D-05-0.533D-04 0.244D-03 0.499D-03
 Coeff:     -0.359D-03 0.322D-01 0.138D+00 0.829D+00
 Gap=     0.216 Goal=   None    Shift=    0.000
 RMSDP=1.97D-07 MaxDP=3.85D-06 DE=-1.10D-08 OVMax= 3.22D-06

 Cycle  11  Pass 1  IDiag  1:
 E= -738.337652376288     Delta-E=       -0.000000000068 Rises=F Damp=F
 DIIS: error= 2.13D-07 at cycle  11 NSaved=  11.
 NSaved=11 IEnMin=11 EnMin= -738.337652376288     IErMin=11 ErrMin= 2.13D-07
 ErrMax= 2.13D-07 EMaxC= 1.00D-01 BMatC= 3.22D-12 BMatP= 5.59D-11
 IDIUse=1 WtCom= 1.00D+00 WtEn= 0.00D+00
 Coeff-Com:  0.104D-07-0.170D-05 0.149D-05-0.710D-05-0.109D-04-0.124D-03
 Coeff-Com: -0.186D-03-0.111D-02-0.215D-02 0.191D+00 0.813D+00
 Coeff:      0.104D-07-0.170D-05 0.149D-05-0.710D-05-0.109D-04-0.124D-03
 Coeff:     -0.186D-03-0.111D-02-0.215D-02 0.191D+00 0.813D+00
 Gap=     0.216 Goal=   None    Shift=    0.000
 RMSDP=3.82D-08 MaxDP=2.71D-07 DE=-6.82D-11 OVMax= 6.07D-07

 Cycle  12  Pass 1  IDiag  1:
 E= -738.337652376299     Delta-E=       -0.000000000011 Rises=F Damp=F
 DIIS: error= 2.54D-08 at cycle  12 NSaved=  12.
 NSaved=12 IEnMin=12 EnMin= -738.337652376299     IErMin=12 ErrMin= 2.54D-08
 ErrMax= 2.54D-08 EMaxC= 1.00D-01 BMatC= 6.22D-14 BMatP= 3.22D-12
 IDIUse=1 WtCom= 1.00D+00 WtEn= 0.00D+00
 Coeff-Com:  0.368D-09-0.356D-06 0.249D-06-0.711D-06-0.683D-05-0.107D-04
 Coeff-Com: -0.571D-05-0.879D-03-0.332D-02 0.172D-01 0.147D+00 0.840D+00
 Coeff:      0.368D-09-0.356D-06 0.249D-06-0.711D-06-0.683D-05-0.107D-04
 Coeff:     -0.571D-05-0.879D-03-0.332D-02 0.172D-01 0.147D+00 0.840D+00
 Gap=     0.216 Goal=   None    Shift=    0.000
 RMSDP=6.57D-09 MaxDP=9.51D-08 DE=-1.10D-11 OVMax= 1.57D-07

 SCF Done:  E(RB3LYP) =  -738.337652376     A.U. after   12 cycles
             Convg  =    0.6569D-08             -V/T =  2.0042
 KE= 7.352170125001D+02 PE=-2.032274925811D+03 EE= 4.194014657116D+02
 Leave Link  502 at Mon Oct  4 21:27:12 2021, MaxMem=  268435456 cpu:       6.0
 (Enter /sw/target/amd/app/gaussian/Gaussian09RevA.02_gcc-4.9.2/g09/l508.exe)
 QCSCF skips out because SCF is already converged.
 Leave Link  508 at Mon Oct  4 21:27:17 2021, MaxMem=  268435456 cpu:       0.0
 (Enter /sw/target/amd/app/gaussian/Gaussian09RevA.02_gcc-4.9.2/g09/l701.exe)
 Compute integral first derivatives.
 ... and contract with generalized density number  0.
 Leave Link  701 at Mon Oct  4 21:27:27 2021, MaxMem=  268435456 cpu:       0.3
 (Enter /sw/target/amd/app/gaussian/Gaussian09RevA.02_gcc-4.9.2/g09/l702.exe)
 L702 exits ... SP integral derivatives will be done elsewhere.
 Leave Link  702 at Mon Oct  4 21:27:42 2021, MaxMem=  268435456 cpu:       0.1
 (Enter /sw/target/amd/app/gaussian/Gaussian09RevA.02_gcc-4.9.2/g09/l703.exe)
 Compute integral first derivatives, UseDBF=F ICtDFT=           0.
 Integral derivatives from FoFDir, PRISM(SPDF).
 Calling FoFJK, ICntrl=      2127 FMM=F ISym2X=1 I1Cent= 0 IOpClX= 0 NMat=1 NMatS=1 NMatT=0.
 FoFCou: FMM=F IPFlag=           0 FMFlag=      100000 FMFlg1=         800
         NFxFlg=           0 DoJE=F BraDBF=F KetDBF=F FulRan=T
         Omega=  0.000000  0.000000  1.000000  0.000000  0.000000 ICntrl=    2127 IOpCl=  0
         NMat0=    1 NMatS0=    1 NMatT0=    0 NMatD0=    1 NMtDS0=    0 NMtDT0=    0
         I1Cent=           0 NGrid=           0.
 Petite list used in FoFCou.
 Leave Link  703 at Mon Oct  4 21:28:14 2021, MaxMem=  268435456 cpu:       2.7
 (Enter /sw/target/amd/app/gaussian/Gaussian09RevA.02_gcc-4.9.2/g09/l716.exe)
 Dipole        = 1.09981239D+00 2.29245688D-01 8.03017703D-19
 ***** Axes restored to original set *****
 -------------------------------------------------------------------
 Center     Atomic                   Forces (Hartrees/Bohr)
 Number     Number              X              Y              Z
 -------------------------------------------------------------------
      1       17           0.016593274   -0.000044892    0.001107829
      2       12          -0.010848773    0.000061230   -0.001510988
      3        6          -0.013263852    0.000000424   -0.000010474
      4        6           0.000352885   -0.000296961    0.007328236
      5        1           0.004158967    0.000044764   -0.001104654
      6        1           0.002087791    0.000099499   -0.002455387
      7        1           0.000919708    0.000135937   -0.003354562
 -------------------------------------------------------------------
 Cartesian Forces:  Max     0.016593274 RMS     0.005637581
 Leave Link  716 at Mon Oct  4 21:28:30 2021, MaxMem=  268435456 cpu:       0.1
 (Enter /sw/target/amd/app/gaussian/Gaussian09RevA.02_gcc-4.9.2/g09/l103.exe)

 GradGradGradGradGradGradGradGradGradGradGradGradGradGradGradGradGradGrad
 Berny optimization.
 Using GEDIIS/GDIIS optimizer.
 Internal  Forces:  Max     0.016626536 RMS     0.004670820
 Search for a local minimum.
 Step number   2 out of a maximum of   28
 All quantities printed in internal units (Hartrees-Bohrs-Radians)
 RMS Force = .46708D-02 SwitMx=.10000D-02 MixMth= 1
 Mixed Optimization -- RFO/linear search
 Update second derivatives using D2CorX and points    1    2
 DE= -9.01D-03 DEPred=-7.24D-03 R= 1.24D+00
 SS=  1.41D+00  RLast= 3.00D-01 DXNew= 5.0454D-01 9.0000D-01
 Trust test= 1.24D+00 RLast= 3.00D-01 DXMaxT set to 5.05D-01
 The second derivative matrix:
                          R1        R2        R3        R4        R5
           R1           0.07489
           R2          -0.01016   0.10134
           R3           0.00179  -0.00702   0.61272
           R4           0.00290  -0.00002   0.00192   0.35378
           R5           0.00279   0.00072   0.00016  -0.00021   0.35445
           R6           0.00242  -0.00052   0.00273   0.00013  -0.00015
           A1           0.00821   0.00312  -0.00177  -0.00088  -0.00072
           A2           0.00782   0.00487  -0.00599  -0.00137  -0.00076
           A3          -0.01091  -0.00524   0.00484   0.00148   0.00100
           A4           0.00358  -0.00091   0.00435   0.00024  -0.00022
           A5           0.00545   0.00219  -0.00144  -0.00062  -0.00048
           A6          -0.00902  -0.00128  -0.00291   0.00038   0.00070
           A7           0.00524   0.00404  -0.00575  -0.00113  -0.00054
           A8           0.00000   0.00000  -0.00000  -0.00000  -0.00000
           D1           0.00000   0.00000  -0.00000  -0.00000  -0.00000
           D2          -0.00000  -0.00000   0.00000   0.00000   0.00000
           D3           0.00000   0.00000  -0.00000  -0.00000  -0.00000
           D4          -0.00000  -0.00000   0.00000   0.00000   0.00000
                          R6        A1        A2        A3        A4
           R6           0.35402
           A1          -0.00082   0.24806
           A2          -0.00150  -0.00151   0.15995
           A3           0.00151   0.00239   0.00121   0.15744
           A4           0.00050  -0.00124  -0.00233   0.00231   0.16082
           A5          -0.00059  -0.00127  -0.00092   0.00152  -0.00090
           A6           0.00009   0.00251   0.00325  -0.00383   0.00008
           A7          -0.00130  -0.00088   0.00053   0.00038  -0.00202
           A8          -0.00000  -0.00000  -0.00000   0.00000  -0.00000
           D1          -0.00000  -0.00000  -0.00000   0.00000  -0.00000
           D2           0.00000   0.00000   0.00000  -0.00000   0.00000
           D3          -0.00000  -0.00000  -0.00000   0.00000  -0.00000
           D4           0.00000   0.00000   0.00000  -0.00000   0.00000
                          A5        A6        A7        A8        D1
           A5           0.15918
           A6           0.00172   0.15820
           A7          -0.00050   0.00252   0.00331
           A8          -0.00000   0.00000   0.00000   0.00240
           D1          -0.00000   0.00000   0.00000  -0.00000   0.03018
           D2           0.00000  -0.00000  -0.00000   0.00000   0.00000
           D3          -0.00000   0.00000   0.00000  -0.00000  -0.00000
           D4           0.00000  -0.00000  -0.00000   0.00000   0.00000
                          D2        D3        D4
           D2           0.03018
           D3           0.00000   0.03018
           D4          -0.00000   0.00000   0.03018
 Use linear search instead of GDIIS.
     Eigenvalues ---    0.00240   0.00249   0.03018   0.03018   0.03018
     Eigenvalues ---    0.06738   0.10451   0.15509   0.16000   0.16463
     Eigenvalues ---    0.21871   0.35372   0.35406   0.35457   0.61312
     Eigenvalues --- 1000.000001000.000001000.00000
 RFO step:  Lambda=-3.26532611D-03 EMin= 2.39615807D-03
 Quartic linear search produced a step of  0.61122.
 Maximum step size (   0.505) exceeded in Quadratic search.
    -- Step size scaled by   0.746
 Iteration  1 RMS(Cart)=  0.14014548 RMS(Int)=  0.06106110
 Iteration  2 RMS(Cart)=  0.12342260 RMS(Int)=  0.01549554
 Iteration  3 RMS(Cart)=  0.03104077 RMS(Int)=  0.00059564
 Iteration  4 RMS(Cart)=  0.00065010 RMS(Int)=  0.00000008
 Iteration  5 RMS(Cart)=  0.00000011 RMS(Int)=  0.00000001
 ClnCor:  largest displacement from symmetrization is 2.13D-08 for atom     7.
 Variable       Old X    -DE/DX   Delta X   Delta X   Delta X     New X
                                 (Linear)    (Quad)   (Total)
    R1        4.35137  -0.01663  -0.14710  -0.07835  -0.22545   4.12591
    R2        3.96276  -0.00575  -0.08432  -0.00652  -0.09083   3.87192
    R3        2.53772   0.00036   0.01522  -0.00685   0.00837   2.54609
    R4        2.06173   0.00123   0.00677   0.00058   0.00735   2.06908
    R5        2.05609   0.00120   0.00420   0.00181   0.00601   2.06210
    R6        2.06247   0.00101   0.00717  -0.00036   0.00680   2.06928
    A1        2.11443   0.00292   0.01325   0.00819   0.02144   2.13587
    A2        2.10039   0.00279   0.00685   0.01901   0.02585   2.12624
    A3        2.06836  -0.00571  -0.02009  -0.02720  -0.04729   2.02108
    A4        2.13181   0.00182   0.02439  -0.00163   0.02276   2.15458
    A5        2.12187   0.00252   0.01295   0.01065   0.02360   2.14547
    A6        2.02950  -0.00434  -0.03734  -0.00902  -0.04636   1.98314
    A7        3.07325   0.00131  -0.04177   0.49695   0.45518   3.52843
    A8        3.14159  -0.00000   0.00000  -0.00000  -0.00000   3.14159
    D1        0.00000  -0.00000   0.00000  -0.00000  -0.00000   0.00000
    D2        3.14159  -0.00000  -0.00000   0.00000   0.00000   3.14159
    D3       -3.14159   0.00000   0.00000  -0.00000  -0.00000   3.14159
    D4       -0.00000   0.00000  -0.00000   0.00000   0.00000   0.00000
         Item               Value     Threshold  Converged?
 Maximum Force            0.016627     0.000450     NO 
 RMS     Force            0.004671     0.000300     NO 
 Maximum Displacement     0.718931     0.001800     NO 
 RMS     Displacement     0.291011     0.001200     NO 
 Predicted change in Energy=-3.815679D-03
 GradGradGradGradGradGradGradGradGradGradGradGradGradGradGradGradGradGrad

 Leave Link  103 at Mon Oct  4 21:28:45 2021, MaxMem=  268435456 cpu:       0.0
 (Enter /sw/target/amd/app/gaussian/Gaussian09RevA.02_gcc-4.9.2/g09/l202.exe)
                          Input orientation:                          
 ---------------------------------------------------------------------
 Center     Atomic      Atomic             Coordinates (Angstroms)
 Number     Number       Type             X           Y           Z
 ---------------------------------------------------------------------
      1         17           0        1.352616    0.050535    0.366791
      2         12           0        3.448122    0.075357   -0.245750
      3          6           0        5.486358    0.066891   -0.036823
      4          6           0        6.320179    0.109742   -1.094278
      5          1           0        5.965775    0.027034    0.946742
      6          1           0        5.977213    0.151686   -2.129348
      7          1           0        7.410499    0.105641   -0.993080
 ---------------------------------------------------------------------
                    Distance matrix (angstroms):
                    1          2          3          4          5
     1  Cl   0.000000
     2  Mg   2.183338   0.000000
     3  C    4.153432   2.048933   0.000000
     4  C    5.178312   2.994979   1.347333   0.000000
     5  H    4.649530   2.786207   1.094911   2.073211   0.000000
     6  H    5.256219   3.154374   2.150998   1.091218   3.078637
     7  H    6.208884   4.032351   2.149012   1.095014   2.419984
                    6          7
     6  H    0.000000
     7  H    1.829627   0.000000
 Stoichiometry    C2H3ClMg
 Framework group  CS[SG(C2H3ClMg)]
 Deg. of freedom    11
 Full point group                 CS      NOp   2
 Largest Abelian subgroup         CS      NOp   2
 Largest concise Abelian subgroup C1      NOp   1
                         Standard orientation:                         
 ---------------------------------------------------------------------
 Center     Atomic      Atomic             Coordinates (Angstroms)
 Number     Number       Type             X           Y           Z
 ---------------------------------------------------------------------
      1         17           0       -2.130167    0.612483    0.000000
      2         12           0        0.000000    0.133571   -0.000000
      3          6           0        1.681765   -1.036812   -0.000000
      4          6           0        2.923923   -0.514942   -0.000000
      5          1           0        1.624265   -2.130212   -0.000000
      6          1           0        3.125764    0.557446   -0.000000
      7          1           0        3.828677   -1.131769   -0.000000
 ---------------------------------------------------------------------
 Rotational constants (GHZ):     53.1313861      1.4549399      1.4161600
 Leave Link  202 at Mon Oct  4 21:29:01 2021, MaxMem=  268435456 cpu:       0.0
 (Enter /sw/target/amd/app/gaussian/Gaussian09RevA.02_gcc-4.9.2/g09/l301.exe)
 Standard basis: 6-31G(d) (6D, 7F)
 Ernie: Thresh=  0.10000D-02 Tol=  0.10000D-05 Strict=F.
 There are    56 symmetry adapted basis functions of A'  symmetry.
 There are    18 symmetry adapted basis functions of A"  symmetry.
 Integral buffers will be    131072 words long.
 Raffenetti 2 integral format.
 Two-electron integral symmetry is turned on.
    74 basis functions,   172 primitive gaussians,    74 cartesian basis functions
    22 alpha electrons       22 beta electrons
       nuclear repulsion energy       143.1550320092 Hartrees.
 IExCor=  402 DFT=T Ex+Corr=B3LYP ExCW=0 ScaHFX=  0.200000
 ScaDFX=  0.800000  0.720000  1.000000  0.810000 ScalE2=  1.000000  1.000000
 IRadAn=      0 IRanWt=     -1 IRanGd=            0 ICorTp=0
 NAtoms=    7 NActive=    7 NUniq=    7 SFac= 7.50D-01 NAtFMM=   80 NAOKFM=F Big=F
 Leave Link  301 at Mon Oct  4 21:29:11 2021, MaxMem=  268435456 cpu:       0.2
 (Enter /sw/target/amd/app/gaussian/Gaussian09RevA.02_gcc-4.9.2/g09/l302.exe)
 NPDir=0 NMtPBC=     1 NCelOv=     1 NCel=       1 NClECP=     1 NCelD=      1
         NCelK=      1 NCelE2=     1 NClLst=     1 CellRange=     0.0.
 One-electron integrals computed using PRISM.
 NBasis=    74 RedAO= T  NBF=    56    18
 NBsUse=    74 1.00D-06 NBFU=    56    18
 Precomputing XC quadrature grid using
 IXCGrd= 2 IRadAn=           0 IRanWt=          -1 IRanGd=           0 AccXCQ= 1.00D-10.
 NRdTot=     440 NPtTot=       55616 NUsed=       58800 NTot=       58832
 NSgBfM=    73    73    73    73    73 NAtAll=     7     7.
 Leave Link  302 at Mon Oct  4 21:29:27 2021, MaxMem=  268435456 cpu:       0.5
 (Enter /sw/target/amd/app/gaussian/Gaussian09RevA.02_gcc-4.9.2/g09/l303.exe)
 DipDrv:  MaxL=1.
 Leave Link  303 at Mon Oct  4 21:29:33 2021, MaxMem=  268435456 cpu:       0.1
 (Enter /sw/target/amd/app/gaussian/Gaussian09RevA.02_gcc-4.9.2/g09/l401.exe)
 Initial guess read from the read-write file.
 B after Tr=     0.000000    0.000000    0.000000
         Rot=    1.000000    0.000000    0.000000    0.000000 Ang=   0.00 deg.
 Guess basis will be translated and rotated to current coordinates.
 Initial guess orbital symmetries:
       Occupied  (A') (A') (A') (A') (A') (A') (A') (A") (A') (A')
                 (A") (A') (A') (A') (A') (A') (A') (A') (A') (A")
                 (A") (A')
       Virtual   (A') (A") (A') (A") (A') (A') (A') (A') (A") (A')
                 (A') (A') (A") (A') (A') (A") (A') (A') (A") (A')
                 (A') (A') (A") (A') (A") (A') (A') (A') (A') (A')
                 (A') (A") (A') (A') (A") (A') (A') (A') (A') (A")
                 (A") (A") (A') (A') (A') (A') (A") (A') (A') (A')
                 (A') (A')
 The electronic state of the initial guess is 1-A'.
 Generating alternative initial guess.
 Harris functional with IExCor=  402 diagonalized for initial guess.
 ExpMin= 4.21D-02 ExpMax= 2.52D+04 ExpMxC= 3.78D+03 IAcc=2 IRadAn=         0 AccDes= 0.00D+00
 HarFok:  IExCor=  402 AccDes= 0.00D+00 IRadAn=         0 IDoV= 1
 ScaDFX=  1.000000  1.000000  1.000000  1.000000
 FoFCou: FMM=F IPFlag=           0 FMFlag=      100000 FMFlg1=           0
         NFxFlg=           0 DoJE=T BraDBF=F KetDBF=T FulRan=T
         Omega=  0.000000  0.000000  1.000000  0.000000  0.000000 ICntrl=     500 IOpCl=  0
         NMat0=    1 NMatS0=    1 NMatT0=    0 NMatD0=    1 NMtDS0=    0 NMtDT0=    0
         I1Cent=           4 NGrid=           0.
 Petite list used in FoFCou.
 Harris En= -738.402490530475    
 Leave Link  401 at Mon Oct  4 21:29:40 2021, MaxMem=  268435456 cpu:       1.4
 (Enter /sw/target/amd/app/gaussian/Gaussian09RevA.02_gcc-4.9.2/g09/l502.exe)
 Closed shell SCF:
 Requested convergence on RMS density matrix=1.00D-08 within  64 cycles.
 Requested convergence on MAX density matrix=1.00D-06.
 Requested convergence on             energy=1.00D-06.
 No special actions if energy rises.
 Using DIIS extrapolation, IDIIS=  1040.
 Integral symmetry usage will be decided dynamically.
        58724 words used for storage of precomputed grid.
 Keep R1 ints in memory in canonical form, NReq=4826072.
 IEnd=       81714 IEndB=       81714 NGot=   268435456 MDV=   264511789
 LenX=   264511789 LenY=   264505872
 Symmetry not used in FoFDir.
 MinBra= 0 MaxBra= 2 Meth= 1.
 IRaf=       0 NMat=   1 IRICut=       1 DoRegI=T DoRafI=F ISym2E= 0 JSym2E=0.

 Cycle   1  Pass 1  IDiag  1:
 E= -735.053524165552    
 DIIS: error= 7.88D-02 at cycle   1 NSaved=   1.
 NSaved= 1 IEnMin= 1 EnMin= -735.053524165552     IErMin= 1 ErrMin= 7.88D-02
 ErrMax= 7.88D-02 EMaxC= 1.00D-01 BMatC= 4.69D-01 BMatP= 4.69D-01
 IDIUse=3 WtCom= 2.12D-01 WtEn= 7.88D-01
 Coeff-Com:  0.100D+01
 Coeff-En:   0.100D+01
 Coeff:      0.100D+01
 Recover alternate guess density for next cycle.
 RMSDP=3.96D-02 MaxDP=6.53D-01              OVMax= 0.00D+00

 Cycle   2  Pass 1  IDiag  1:
 E= -738.158411120903     Delta-E=       -3.104886955352 Rises=F Damp=F
 DIIS: error= 4.68D-02 at cycle   2 NSaved=   2.
 NSaved= 2 IEnMin= 2 EnMin= -738.158411120903     IErMin= 2 ErrMin= 4.68D-02
 ErrMax= 4.68D-02 EMaxC= 1.00D-01 BMatC= 1.45D-01 BMatP= 4.69D-01
 IDIUse=3 WtCom= 5.32D-01 WtEn= 4.68D-01
 Coeff-Com:  0.221D+00 0.779D+00
 Coeff-En:   0.000D+00 0.100D+01
 Coeff:      0.118D+00 0.882D+00
 Gap=     0.042 Goal=   None    Shift=    0.000
 RMSDP=1.36D-02 MaxDP=3.46D-01 DE=-3.10D+00 OVMax= 7.52D-01

 Cycle   3  Pass 1  IDiag  1:
 E= -737.972813400757     Delta-E=        0.185597720147 Rises=F Damp=F
 DIIS: error= 5.27D-02 at cycle   3 NSaved=   3.
 NSaved= 3 IEnMin= 2 EnMin= -738.158411120903     IErMin= 2 ErrMin= 4.68D-02
 ErrMax= 5.27D-02 EMaxC= 1.00D-01 BMatC= 2.72D-01 BMatP= 1.45D-01
 IDIUse=2 WtCom= 0.00D+00 WtEn= 1.00D+00
 Coeff-En:   0.000D+00 0.656D+00 0.344D+00
 Coeff:      0.000D+00 0.656D+00 0.344D+00
 Gap=     0.180 Goal=   None    Shift=    0.000
 RMSDP=7.69D-03 MaxDP=2.01D-01 DE= 1.86D-01 OVMax= 2.69D-01

 Cycle   4  Pass 1  IDiag  1:
 E= -738.331041095592     Delta-E=       -0.358227694835 Rises=F Damp=F
 DIIS: error= 7.50D-03 at cycle   4 NSaved=   4.
 NSaved= 4 IEnMin= 4 EnMin= -738.331041095592     IErMin= 4 ErrMin= 7.50D-03
 ErrMax= 7.50D-03 EMaxC= 1.00D-01 BMatC= 4.84D-03 BMatP= 1.45D-01
 IDIUse=3 WtCom= 9.25D-01 WtEn= 7.50D-02
 Coeff-Com:  0.291D-02 0.122D+00-0.203D-01 0.895D+00
 Coeff-En:   0.000D+00 0.000D+00 0.000D+00 0.100D+01
 Coeff:      0.269D-02 0.113D+00-0.188D-01 0.903D+00
 Gap=     0.205 Goal=   None    Shift=    0.000
 RMSDP=1.44D-03 MaxDP=3.02D-02 DE=-3.58D-01 OVMax= 2.73D-02

 Cycle   5  Pass 1  IDiag  1:
 E= -738.335214872945     Delta-E=       -0.004173777354 Rises=F Damp=F
 DIIS: error= 3.27D-03 at cycle   5 NSaved=   5.
 NSaved= 5 IEnMin= 5 EnMin= -738.335214872945     IErMin= 5 ErrMin= 3.27D-03
 ErrMax= 3.27D-03 EMaxC= 1.00D-01 BMatC= 1.16D-03 BMatP= 4.84D-03
 IDIUse=3 WtCom= 9.67D-01 WtEn= 3.27D-02
 Coeff-Com:  0.154D-04 0.476D-01-0.287D-01 0.502D+00 0.479D+00
 Coeff-En:   0.000D+00 0.000D+00 0.000D+00 0.775D-01 0.922D+00
 Coeff:      0.149D-04 0.460D-01-0.277D-01 0.489D+00 0.493D+00
 Gap=     0.204 Goal=   None    Shift=    0.000
 RMSDP=6.07D-04 MaxDP=1.45D-02 DE=-4.17D-03 OVMax= 1.74D-02

 Cycle   6  Pass 1  IDiag  1:
 E= -738.336500749207     Delta-E=       -0.001285876261 Rises=F Damp=F
 DIIS: error= 1.24D-03 at cycle   6 NSaved=   6.
 NSaved= 6 IEnMin= 6 EnMin= -738.336500749207     IErMin= 6 ErrMin= 1.24D-03
 ErrMax= 1.24D-03 EMaxC= 1.00D-01 BMatC= 8.31D-05 BMatP= 1.16D-03
 IDIUse=3 WtCom= 9.88D-01 WtEn= 1.24D-02
 Coeff-Com:  0.244D-03 0.198D-01-0.135D-01 0.202D+00 0.262D+00 0.530D+00
 Coeff-En:   0.000D+00 0.000D+00 0.000D+00 0.000D+00 0.000D+00 0.100D+01
 Coeff:      0.241D-03 0.196D-01-0.134D-01 0.199D+00 0.258D+00 0.536D+00
 Gap=     0.207 Goal=   None    Shift=    0.000
 RMSDP=1.39D-04 MaxDP=3.44D-03 DE=-1.29D-03 OVMax= 7.24D-03

 Cycle   7  Pass 1  IDiag  1:
 E= -738.336577935256     Delta-E=       -0.000077186050 Rises=F Damp=F
 DIIS: error= 5.62D-04 at cycle   7 NSaved=   7.
 NSaved= 7 IEnMin= 7 EnMin= -738.336577935256     IErMin= 7 ErrMin= 5.62D-04
 ErrMax= 5.62D-04 EMaxC= 1.00D-01 BMatC= 1.51D-05 BMatP= 8.31D-05
 IDIUse=3 WtCom= 9.94D-01 WtEn= 5.62D-03
 Coeff-Com:  0.582D-04 0.318D-02-0.387D-02 0.224D-01 0.571D-01 0.323D+00
 Coeff-Com:  0.598D+00
 Coeff-En:   0.000D+00 0.000D+00 0.000D+00 0.000D+00 0.000D+00 0.125D+00
 Coeff-En:   0.875D+00
 Coeff:      0.579D-04 0.317D-02-0.385D-02 0.223D-01 0.567D-01 0.322D+00
 Coeff:      0.600D+00
 Gap=     0.207 Goal=   None    Shift=    0.000
 RMSDP=5.57D-05 MaxDP=1.15D-03 DE=-7.72D-05 OVMax= 1.94D-03

 Cycle   8  Pass 1  IDiag  1:
 E= -738.336594739950     Delta-E=       -0.000016804693 Rises=F Damp=F
 DIIS: error= 3.54D-05 at cycle   8 NSaved=   8.
 NSaved= 8 IEnMin= 8 EnMin= -738.336594739950     IErMin= 8 ErrMin= 3.54D-05
 ErrMax= 3.54D-05 EMaxC= 1.00D-01 BMatC= 1.52D-07 BMatP= 1.51D-05
 IDIUse=1 WtCom= 1.00D+00 WtEn= 0.00D+00
 Coeff-Com:  0.265D-05 0.638D-03-0.932D-03 0.119D-02 0.119D-01 0.946D-01
 Coeff-Com:  0.198D+00 0.695D+00
 Coeff:      0.265D-05 0.638D-03-0.932D-03 0.119D-02 0.119D-01 0.946D-01
 Coeff:      0.198D+00 0.695D+00
 Gap=     0.207 Goal=   None    Shift=    0.000
 RMSDP=9.94D-06 MaxDP=1.44D-04 DE=-1.68D-05 OVMax= 1.41D-04

 Cycle   9  Pass 1  IDiag  1:
 E= -738.336594917681     Delta-E=       -0.000000177732 Rises=F Damp=F
 DIIS: error= 7.51D-06 at cycle   9 NSaved=   9.
 NSaved= 9 IEnMin= 9 EnMin= -738.336594917681     IErMin= 9 ErrMin= 7.51D-06
 ErrMax= 7.51D-06 EMaxC= 1.00D-01 BMatC= 6.56D-09 BMatP= 1.52D-07
 IDIUse=1 WtCom= 1.00D+00 WtEn= 0.00D+00
 Coeff-Com: -0.806D-06 0.422D-04-0.658D-04-0.202D-03 0.137D-02 0.745D-02
 Coeff-Com:  0.829D-02 0.168D+00 0.815D+00
 Coeff:     -0.806D-06 0.422D-04-0.658D-04-0.202D-03 0.137D-02 0.745D-02
 Coeff:      0.829D-02 0.168D+00 0.815D+00
 Gap=     0.207 Goal=   None    Shift=    0.000
 RMSDP=1.90D-06 MaxDP=4.88D-05 DE=-1.78D-07 OVMax= 3.31D-05

 Cycle  10  Pass 1  IDiag  1:
 E= -738.336594925570     Delta-E=       -0.000000007889 Rises=F Damp=F
 DIIS: error= 1.13D-06 at cycle  10 NSaved=  10.
 NSaved=10 IEnMin=10 EnMin= -738.336594925570     IErMin=10 ErrMin= 1.13D-06
 ErrMax= 1.13D-06 EMaxC= 1.00D-01 BMatC= 1.17D-10 BMatP= 6.56D-09
 IDIUse=1 WtCom= 1.00D+00 WtEn= 0.00D+00
 Coeff-Com: -0.123D-06 0.519D-06-0.488D-05-0.674D-04 0.219D-03 0.907D-03
 Coeff-Com: -0.108D-02 0.332D-01 0.200D+00 0.767D+00
 Coeff:     -0.123D-06 0.519D-06-0.488D-05-0.674D-04 0.219D-03 0.907D-03
 Coeff:     -0.108D-02 0.332D-01 0.200D+00 0.767D+00
 Gap=     0.207 Goal=   None    Shift=    0.000
 RMSDP=2.62D-07 MaxDP=2.74D-06 DE=-7.89D-09 OVMax= 4.66D-06

 Cycle  11  Pass 1  IDiag  1:
 E= -738.336594925715     Delta-E=       -0.000000000144 Rises=F Damp=F
 DIIS: error= 2.51D-07 at cycle  11 NSaved=  11.
 NSaved=11 IEnMin=11 EnMin= -738.336594925715     IErMin=11 ErrMin= 2.51D-07
 ErrMax= 2.51D-07 EMaxC= 1.00D-01 BMatC= 3.83D-12 BMatP= 1.17D-10
 IDIUse=1 WtCom= 1.00D+00 WtEn= 0.00D+00
 Coeff-Com:  0.311D-07-0.237D-05 0.127D-05-0.107D-04-0.788D-05-0.548D-04
 Coeff-Com: -0.423D-03 0.128D-03 0.525D-02 0.172D+00 0.823D+00
 Coeff:      0.311D-07-0.237D-05 0.127D-05-0.107D-04-0.788D-05-0.548D-04
 Coeff:     -0.423D-03 0.128D-03 0.525D-02 0.172D+00 0.823D+00
 Gap=     0.207 Goal=   None    Shift=    0.000
 RMSDP=4.77D-08 MaxDP=5.25D-07 DE=-1.44D-10 OVMax= 6.55D-07

 Cycle  12  Pass 1  IDiag  1:
 E= -738.336594925719     Delta-E=       -0.000000000004 Rises=F Damp=F
 DIIS: error= 2.50D-08 at cycle  12 NSaved=  12.
 NSaved=12 IEnMin=12 EnMin= -738.336594925719     IErMin=12 ErrMin= 2.50D-08
 ErrMax= 2.50D-08 EMaxC= 1.00D-01 BMatC= 7.29D-14 BMatP= 3.83D-12
 IDIUse=1 WtCom= 1.00D+00 WtEn= 0.00D+00
 Coeff-Com:  0.144D-09-0.447D-06 0.306D-06-0.131D-05-0.606D-05-0.150D-04
 Coeff-Com: -0.680D-06-0.721D-03-0.368D-02 0.173D-01 0.158D+00 0.829D+00
 Coeff:      0.144D-09-0.447D-06 0.306D-06-0.131D-05-0.606D-05-0.150D-04
 Coeff:     -0.680D-06-0.721D-03-0.368D-02 0.173D-01 0.158D+00 0.829D+00
 Gap=     0.207 Goal=   None    Shift=    0.000
 RMSDP=5.71D-09 MaxDP=5.85D-08 DE=-4.09D-12 OVMax= 1.33D-07

 SCF Done:  E(RB3LYP) =  -738.336594926     A.U. after   12 cycles
             Convg  =    0.5710D-08             -V/T =  2.0040
 KE= 7.353656823690D+02 PE=-2.040153390126D+03 EE= 4.232960808222D+02
 Leave Link  502 at Mon Oct  4 21:30:22 2021, MaxMem=  268435456 cpu:       8.6
 (Enter /sw/target/amd/app/gaussian/Gaussian09RevA.02_gcc-4.9.2/g09/l508.exe)
 QCSCF skips out because SCF is already converged.
 Leave Link  508 at Mon Oct  4 21:30:23 2021, MaxMem=  268435456 cpu:       0.0
 (Enter /sw/target/amd/app/gaussian/Gaussian09RevA.02_gcc-4.9.2/g09/l701.exe)
 Compute integral first derivatives.
 ... and contract with generalized density number  0.
 Leave Link  701 at Mon Oct  4 21:30:24 2021, MaxMem=  268435456 cpu:       0.2
 (Enter /sw/target/amd/app/gaussian/Gaussian09RevA.02_gcc-4.9.2/g09/l702.exe)
 L702 exits ... SP integral derivatives will be done elsewhere.
 Leave Link  702 at Mon Oct  4 21:30:24 2021, MaxMem=  268435456 cpu:       0.0
 (Enter /sw/target/amd/app/gaussian/Gaussian09RevA.02_gcc-4.9.2/g09/l703.exe)
 Compute integral first derivatives, UseDBF=F ICtDFT=           0.
 Integral derivatives from FoFDir, PRISM(SPDF).
 Calling FoFJK, ICntrl=      2127 FMM=F ISym2X=1 I1Cent= 0 IOpClX= 0 NMat=1 NMatS=1 NMatT=0.
 FoFCou: FMM=F IPFlag=           0 FMFlag=      100000 FMFlg1=         800
         NFxFlg=           0 DoJE=F BraDBF=F KetDBF=F FulRan=T
         Omega=  0.000000  0.000000  1.000000  0.000000  0.000000 ICntrl=    2127 IOpCl=  0
         NMat0=    1 NMatS0=    1 NMatT0=    0 NMatD0=    1 NMtDS0=    0 NMtDT0=    0
         I1Cent=           0 NGrid=           0.
 Petite list used in FoFCou.
 Leave Link  703 at Mon Oct  4 21:30:26 2021, MaxMem=  268435456 cpu:       1.9
 (Enter /sw/target/amd/app/gaussian/Gaussian09RevA.02_gcc-4.9.2/g09/l716.exe)
 Dipole        = 1.07401236D+00 2.23310659D-01-4.98604844D-17
 ***** Axes restored to original set *****
 -------------------------------------------------------------------
 Center     Atomic                   Forces (Hartrees/Bohr)
 Number     Number              X              Y              Z
 -------------------------------------------------------------------
      1       17          -0.008529793    0.000041014   -0.001012108
      2       12           0.003861150   -0.000242778    0.005991139
      3        6           0.004380829    0.000362387   -0.008942782
      4        6           0.002121782   -0.000172553    0.004258165
      5        1          -0.000359231    0.000015718   -0.000387883
      6        1          -0.000676514   -0.000005136    0.000126742
      7        1          -0.000798224    0.000001348   -0.000033272
 -------------------------------------------------------------------
 Cartesian Forces:  Max     0.008942782 RMS     0.003436474
 Leave Link  716 at Mon Oct  4 21:30:26 2021, MaxMem=  268435456 cpu:       0.0
 (Enter /sw/target/amd/app/gaussian/Gaussian09RevA.02_gcc-4.9.2/g09/l103.exe)

 GradGradGradGradGradGradGradGradGradGradGradGradGradGradGradGradGradGrad
 Berny optimization.
 Using GEDIIS/GDIIS optimizer.
 Internal  Forces:  Max     0.013891408 RMS     0.004192708
 Search for a local minimum.
 Step number   3 out of a maximum of   28
 All quantities printed in internal units (Hartrees-Bohrs-Radians)
 RMS Force = .41927D-02 SwitMx=.10000D-02 MixMth= 1
 Mixed Optimization -- RFO/linear search
 Update second derivatives using D2CorX and points    1    3    2
 DE=  1.06D-03 DEPred=-3.82D-03 R=-2.77D-01
 Trust test=-2.77D-01 RLast= 5.23D-01 DXMaxT set to 2.52D-01
 The second derivative matrix:
                          R1        R2        R3        R4        R5
           R1           0.07756
           R2          -0.00832   0.10237
           R3           0.00446  -0.00610   0.61170
           R4           0.00424   0.00043   0.00141   0.35352
           R5           0.00441   0.00131  -0.00034  -0.00046   0.35422
           R6           0.00331  -0.00024   0.00230  -0.00008  -0.00037
           A1           0.01941   0.00748  -0.00394  -0.00199  -0.00158
           A2           0.00457   0.00345  -0.00599  -0.00136  -0.00088
           A3          -0.01790  -0.00781   0.00680   0.00247   0.00188
           A4           0.00497  -0.00046   0.00369  -0.00010  -0.00055
[...]
      2   0.563242D+00  0.378906D+00 -0.621045D+01
      3   0.228242D-01 -0.312463D+01 -0.378906D+00
 1/2[<0|r|b>*<b|rxdel|0> + (<0|rxdel|b>*<b|r|0>)*]
 Rotatory Strengths (R) in cgs (10**-40 erg-esu-cm/Gauss)
       state          XX          YY          ZZ     R(length)     R(au)
         1         0.0000     -0.0000      0.0000      0.0000      0.0000
         2        -0.0000     -0.0000     -0.0000     -0.0000     -0.0000
         3         0.0000      0.0000      0.0000      0.0000      0.0000
         4        -0.0000     -0.0000     -0.0000     -0.0000     -0.0000
         5         0.0000      0.0000     -0.0000     -0.0000     -0.0000
         6        -0.0000      0.0000      0.0000      0.0000      0.0000
         7         0.0000     -0.0000     -0.0000     -0.0000     -0.0000
         8         0.0000     -0.0000      0.0000     -0.0000     -0.0000
         9        -0.0000     -0.0000     -0.0000     -0.0000     -0.0000
        10        -0.0000     -0.0000      0.0000     -0.0000     -0.0000
  1/2[<0|del|b>*<b|r|0> + (<0|r|b>*<b|del|0>)*] (Au)
       state          X           Y           Z        Dip. S.   Osc.(frdel)
         1        -0.0000      0.0000     -0.0352      0.0352      0.0235
         2        -0.3243     -0.0059     -0.0000      0.3302      0.2201
         3        -0.0000     -0.0000     -0.0257      0.0257      0.0171
         4         0.0000     -0.0324     -0.0000      0.0324      0.0216
         5        -0.0000      0.0000     -0.1061      0.1061      0.0707
         6        -0.0000     -0.0000     -0.0033      0.0033      0.0022
         7        -0.0107     -0.0296     -0.0000      0.0403      0.0269
         8        -0.2751     -0.1255     -0.0000      0.4006      0.2671
         9        -0.0000     -0.0000     -0.0000      0.0000      0.0000
        10        -0.0017     -0.0000      0.0000      0.0017      0.0011
 Ground to excited state transition densities written to RWF  633

 Excitation energies and oscillator strengths:
 
 Excited State   1:      Singlet-A"     5.0359 eV  246.20 nm  f=0.0211  <S**2>=0.000
      22 -> 23         0.69938
 This state for optimization and/or second-order correction.
 Total Energy, E(TD-HF/TD-KS) =  -738.154662749    
 Copying the excited state density for this state as the 1-particle RhoCI density.
 
 Excited State   2:      Singlet-A'     5.5500 eV  223.40 nm  f=0.2051  <S**2>=0.000
      21 -> 23         0.67632
      22 -> 26         0.13343
 
 Excited State   3:      Singlet-A"     5.5613 eV  222.94 nm  f=0.0145  <S**2>=0.000
      20 -> 23         0.14542
      21 -> 24         0.67926
 
 Excited State   4:      Singlet-A'     5.8296 eV  212.68 nm  f=0.0220  <S**2>=0.000
      19 -> 23         0.65454
      21 -> 25         0.25665
 
 Excited State   5:      Singlet-A"     5.8667 eV  211.33 nm  f=0.0704  <S**2>=0.000
      20 -> 23         0.68952
      21 -> 24        -0.14317
 
 Excited State   6:      Singlet-A"     5.9420 eV  208.66 nm  f=0.0011  <S**2>=0.000
      22 -> 25         0.70321
 
 Excited State   7:      Singlet-A'     5.9610 eV  207.99 nm  f=0.0294  <S**2>=0.000
      19 -> 23        -0.25685
      21 -> 25         0.57997
      22 -> 24         0.30511
 
 Excited State   8:      Singlet-A'     6.2649 eV  197.90 nm  f=0.2947  <S**2>=0.000
      21 -> 23        -0.14859
      21 -> 25        -0.29146
      22 -> 24         0.59372
      22 -> 26         0.15942
 
 Excited State   9:      Singlet-A"     6.5060 eV  190.57 nm  f=0.0000  <S**2>=0.000
      19 -> 24         0.70264
 
 Excited State  10:      Singlet-A'     6.5683 eV  188.76 nm  f=0.0017  <S**2>=0.000
      19 -> 25        -0.30093
      20 -> 24         0.63011
 SavETr:  write IOETrn=   770 NScale= 10 NData=  16 NLR=1 LETran=     190.
 The selected state is a singlet
 Cannot handle 2e integral symmetry, ISym2E=1.
 CISAX:  IP=  1 NPass=   1 NMax=     1.
 CISAX will form     1 AO SS matrices at one time.
 NMat=     1 NSing=     1.
 Cannot handle 2e integral symmetry, ISym2E=1.
 CISAX:  IP=  1 NPass=   1 NMax=     1.
 CISAX will form     1 AO SS matrices at one time.
 NMat=     1 NSing=     1.
 Leave Link  914 at Mon Oct  4 21:40:24 2021, MaxMem=  268435456 cpu:     137.2
 (Enter /sw/target/amd/app/gaussian/Gaussian09RevA.02_gcc-4.9.2/g09/l1002.exe)
 Minotr:  Closed shell wavefunction.
          Computing CIS/TD-HF/TD-KS derivatives.
          Using Z-Vector for PSCF gradient.
          Skipping F1 and S1 gradient terms here.
          Frozen-core window.
          Direct CPHF calculation.
          Differentiating once with respect to electric field.
                with respect to dipole field.
          Electric field/nuclear overlap derivatives assumed to be zero.
          Requested convergence is 1.0D-10 RMS, and 1.0D-09 maximum.
          NewPWx=F KeepS1=T KeepF1=T KeepIn=T MapXYZ=F SortEE=F KeepMc=T.
          MDV=     268435396 using IRadAn=       0.
 Generate precomputed XC quadrature information.
          Keep R1 ints in memory in canonical form, NReq=4675573.
 Symmetry not used in FoFDir.
 MinBra= 0 MaxBra= 2 Meth= 1.
 IRaf=       0 NMat=   1 IRICut=       1 DoRegI=T DoRafI=F ISym2E= 0 JSym2E=0.
          Solving linear equations separately, MaxMat=       0.
          There are     1 degrees of freedom in the 1st order CPHF.  IDoFFX=0.
 LinEq1:  Iter=  0 NonCon=     1 RMS=4.23D-02 Max=7.89D-01
 AX will form     1 AO Fock derivatives at one time.
 LinEq1:  Iter=  1 NonCon=     1 RMS=1.11D-02 Max=1.49D-01
 LinEq1:  Iter=  2 NonCon=     1 RMS=6.83D-03 Max=1.29D-01
 LinEq1:  Iter=  3 NonCon=     1 RMS=3.70D-03 Max=3.06D-02
 LinEq1:  Iter=  4 NonCon=     1 RMS=8.69D-04 Max=7.70D-03
 LinEq1:  Iter=  5 NonCon=     1 RMS=2.57D-04 Max=2.83D-03
 LinEq1:  Iter=  6 NonCon=     1 RMS=1.15D-04 Max=1.46D-03
 LinEq1:  Iter=  7 NonCon=     1 RMS=3.80D-05 Max=4.56D-04
 LinEq1:  Iter=  8 NonCon=     1 RMS=1.09D-05 Max=1.01D-04
 LinEq1:  Iter=  9 NonCon=     1 RMS=2.09D-06 Max=1.92D-05
 LinEq1:  Iter= 10 NonCon=     1 RMS=3.00D-07 Max=2.84D-06
 LinEq1:  Iter= 11 NonCon=     1 RMS=7.31D-08 Max=7.89D-07
 LinEq1:  Iter= 12 NonCon=     1 RMS=1.46D-08 Max=9.63D-08
 LinEq1:  Iter= 13 NonCon=     1 RMS=2.17D-09 Max=3.13D-08
 LinEq1:  Iter= 14 NonCon=     1 RMS=2.91D-10 Max=3.09D-09
 LinEq1:  Iter= 15 NonCon=     0 RMS=4.74D-11 Max=4.95D-10
 Linear equations converged to 1.000D-10 1.000D-09 after    15 iterations.
 End of Minotr Frequency-dependent properties file   721 does not exist.
 End of Minotr Frequency-dependent properties file   722 does not exist.
 Leave Link 1002 at Mon Oct  4 21:41:11 2021, MaxMem=  268435456 cpu:      25.5
 (Enter /sw/target/amd/app/gaussian/Gaussian09RevA.02_gcc-4.9.2/g09/l601.exe)
 Copying SCF densities to generalized density rwf, IOpCl= 0 IROHF=0.

 **********************************************************************

            Population analysis using the CI density.

 **********************************************************************

 Orbital symmetries:
       Occupied  (A') (A') (A') (A') (A') (A') (A') (A") (A') (A')
                 (A") (A') (A') (A') (A') (A') (A') (A') (A') (A")
                 (A') (A")
       Virtual   (A') (A") (A') (A") (A') (A') (A') (A') (A") (A')
                 (A') (A') (A") (A') (A') (A") (A') (A') (A") (A')
                 (A') (A') (A") (A') (A") (A') (A') (A') (A') (A')
                 (A") (A') (A') (A') (A") (A') (A') (A') (A') (A")
                 (A") (A") (A') (A') (A') (A') (A") (A') (A') (A')
                 (A') (A')
 The electronic state is 1-A'.
 Alpha  occ. eigenvalues -- -101.49933 -46.84601 -10.19195 -10.17219  -9.41643
 Alpha  occ. eigenvalues --   -7.17566  -7.17294  -7.17289  -3.13420  -1.88062
 Alpha  occ. eigenvalues --   -1.88012  -1.87378  -0.76724  -0.74406  -0.55619
 Alpha  occ. eigenvalues --   -0.44573  -0.39157  -0.34199  -0.29882  -0.29868
 Alpha  occ. eigenvalues --   -0.26993  -0.26835
 Alpha virt. eigenvalues --   -0.04595  -0.02720  -0.01502   0.03495   0.06459
 Alpha virt. eigenvalues --    0.11653   0.13072   0.14993   0.15702   0.18652
 Alpha virt. eigenvalues --    0.22781   0.26783   0.27403   0.29998   0.31031
 Alpha virt. eigenvalues --    0.32768   0.36395   0.43501   0.50654   0.51465
 Alpha virt. eigenvalues --    0.54822   0.56357   0.58705   0.67486   0.68247
 Alpha virt. eigenvalues --    0.72363   0.74707   0.83008   0.88801   0.90933
 Alpha virt. eigenvalues --    0.91094   0.91547   0.93951   0.96658   0.98857
 Alpha virt. eigenvalues --    1.03201   1.12717   1.29078   1.33024   1.47401
 Alpha virt. eigenvalues --    1.60024   1.87835   1.91164   1.96925   2.12624
 Alpha virt. eigenvalues --    2.27055   2.38015   2.61961   2.72520   4.11896
 Alpha virt. eigenvalues --    4.26531   4.31540
          Condensed to atoms (all electrons):
              1          2          3          4          5          6
     1  Cl  17.115003   0.158901   0.001442   0.000064  -0.000141  -0.000159
     2  Mg   0.158901  11.731874   0.093159  -0.050179  -0.002087   0.018230
     3  C    0.001442   0.093159   5.421675   0.460572   0.320564  -0.055390
     4  C    0.000064  -0.050179   0.460572   5.103834  -0.044212   0.355470
     5  H   -0.000141  -0.002087   0.320564  -0.044212   0.544269   0.006434
     6  H   -0.000159   0.018230  -0.055390   0.355470   0.006434   0.494484
     7  H    0.000001   0.002551  -0.038638   0.365175  -0.013452  -0.045785
              7
     1  Cl   0.000001
     2  Mg   0.002551
     3  C   -0.038638
     4  C    0.365175
     5  H   -0.013452
     6  H   -0.045785
     7  H    0.523821
 Mulliken atomic charges:
              1
     1  Cl  -0.275110
     2  Mg   0.047551
     3  C   -0.203384
     4  C   -0.190725
     5  H    0.188624
     6  H    0.226717
     7  H    0.206327
 Sum of Mulliken atomic charges =   0.00000
 Mulliken charges with hydrogens summed into heavy atoms:
              1
     1  Cl  -0.275110
     2  Mg   0.047551
     3  C   -0.014760
     4  C    0.242319
 Sum of Mulliken charges with hydrogens summed into heavy atoms =   0.00000
 Electronic spatial extent (au):  <R**2>=            778.0722
 Charge=              0.0000 electrons
 Dipole moment (field-independent basis, Debye):
    X=             10.2420    Y=             -1.2784    Z=              0.0000  Tot=             10.3215
 Quadrupole moment (field-independent basis, Debye-Ang):
   XX=            -32.5902   YY=            -35.7039   ZZ=            -38.4624
   XY=             -2.5099   XZ=              0.0000   YZ=              0.0000
 Traceless Quadrupole moment (field-independent basis, Debye-Ang):
   XX=              2.9953   YY=             -0.1184   ZZ=             -2.8769
   XY=             -2.5099   XZ=              0.0000   YZ=              0.0000
 Octapole moment (field-independent basis, Debye-Ang**2):
  XXX=             67.7942  YYY=             -4.3802  ZZZ=              0.0000  XYY=             10.5412
  XXY=            -14.1648  XXZ=              0.0000  XZZ=              2.3608  YZZ=              0.1844
  YYZ=              0.0000  XYZ=              0.0000
 Hexadecapole moment (field-independent basis, Debye-Ang**3):
 XXXX=           -806.2855 YYYY=           -130.3035 ZZZZ=            -72.8557 XXXY=             43.8976
 XXXZ=              0.0000 YYYX=             65.4365 YYYZ=              0.0000 ZZZX=              0.0000
 ZZZY=              0.0000 XXYY=           -157.6388 XXZZ=           -166.6120 YYZZ=            -35.8623
 XXYZ=              0.0000 YYXZ=              0.0000 ZZXY=             25.2753
 N-N= 1.419362396731D+02 E-N=-2.037493198657D+03  KE= 7.356014884242D+02
 Symmetry A'   KE= 6.737100054279D+02
 Symmetry A"   KE= 6.189148299624D+01
 No NMR shielding tensors so no spin-rotation constants.
 Leave Link  601 at Mon Oct  4 21:41:12 2021, MaxMem=  268435456 cpu:       0.2
 (Enter /sw/target/amd/app/gaussian/Gaussian09RevA.02_gcc-4.9.2/g09/l604.exe)
 Evaluate density.
 Using the total density.
 Monte-Carlo method of calculating molar volume:
 based on  0.001 e/bohr**3 density envelope.
 Number of points per bohr**3 =   20 CutOff= 1.00D-04
 Using the CI density.
 There are       482 points.  Will hold       482 in memory.
 LenV=   268392310 MDV=   268435456.
 Box volume =14012.375 fraction occupied=0.079
 Integrated density= 3.0723447408295817D+02 error= 2.6323447408295817D+02
 Molar volume = 1104.710 bohr**3/mol ( 98.583 cm**3/mol)
 Recommended a0 for SCRF calculation =  4.24 angstrom (  8.00 bohr)
 Leave Link  604 at Mon Oct  4 21:41:12 2021, MaxMem=  268435456 cpu:       0.1
 (Enter /sw/target/amd/app/gaussian/Gaussian09RevA.02_gcc-4.9.2/g09/l607.exe)
 ******************************Gaussian NBO Version 3.1******************************
             N A T U R A L   A T O M I C   O R B I T A L   A N D
          N A T U R A L   B O N D   O R B I T A L   A N A L Y S I S
 ******************************Gaussian NBO Version 3.1******************************
       /RESON  / : Allow strongly delocalized NBO set

 Analyzing the CI density

 Job title: Cl[Mg]C=C_conf_0                                                

 Storage needed:     16844 in NPA ( 268435155 available)


 NATURAL POPULATIONS:  Natural atomic orbital occupancies 
                                                          
   NAO  Atom  No  lang   Type(AO)    Occupancy
 --------------------------------------------
     1   Cl    1  S      Cor( 1S)     2.00000
     2   Cl    1  S      Cor( 2S)     1.99993
     3   Cl    1  S      Val( 3S)     1.95144
     4   Cl    1  S      Ryd( 4S)     0.00290
     5   Cl    1  S      Ryd( 5S)     0.00000
     6   Cl    1  px     Cor( 2p)     1.99997
     7   Cl    1  px     Val( 3p)     1.86970
     8   Cl    1  px     Ryd( 4p)     0.00048
     9   Cl    1  py     Cor( 2p)     2.00000
    10   Cl    1  py     Val( 3p)     1.94602
    11   Cl    1  py     Ryd( 4p)     0.00002
    12   Cl    1  pz     Cor( 2p)     1.99999
    13   Cl    1  pz     Val( 3p)     1.93243
    14   Cl    1  pz     Ryd( 4p)     0.00000
    15   Cl    1  dxy    Ryd( 3d)     0.00061
    16   Cl    1  dxz    Ryd( 3d)     0.00059
    17   Cl    1  dyz    Ryd( 3d)     0.00000
    18   Cl    1  dx2y2  Ryd( 3d)     0.00195
    19   Cl    1  dz2    Ryd( 3d)     0.00065

    20   Mg    2  S      Cor( 1S)     2.00000
    21   Mg    2  S      Cor( 2S)     1.99963
    22   Mg    2  S      Val( 3S)     1.06691
    23   Mg    2  S      Ryd( 4S)     0.01773
    24   Mg    2  S      Ryd( 5S)     0.00037
    25   Mg    2  px     Cor( 2p)     1.99951
    26   Mg    2  px     Val( 3p)     0.12238
    27   Mg    2  px     Ryd( 4p)     0.00169
    28   Mg    2  py     Cor( 2p)     1.99982
    29   Mg    2  py     Val( 3p)     0.05298
    30   Mg    2  py     Ryd( 4p)     0.00075
    31   Mg    2  pz     Cor( 2p)     1.99976
    32   Mg    2  pz     Val( 3p)     0.03245
    33   Mg    2  pz     Ryd( 4p)     0.00000
    34   Mg    2  dxy    Ryd( 3d)     0.00196
    35   Mg    2  dxz    Ryd( 3d)     0.00118
    36   Mg    2  dyz    Ryd( 3d)     0.00003
    37   Mg    2  dx2y2  Ryd( 3d)     0.00299
    38   Mg    2  dz2    Ryd( 3d)     0.00080

    39    C    3  S      Cor( 1S)     1.99947
    40    C    3  S      Val( 2S)     1.36292
    41    C    3  S      Ryd( 3S)     0.01340
    42    C    3  S      Ryd( 4S)     0.00003
    43    C    3  px     Val( 2p)     1.56132
    44    C    3  px     Ryd( 3p)     0.01532
    45    C    3  py     Val( 2p)     1.07056
    46    C    3  py     Ryd( 3p)     0.00656
    47    C    3  pz     Val( 2p)     0.41463
    48    C    3  pz     Ryd( 3p)     0.00000
    49    C    3  dxy    Ryd( 3d)     0.00136
    50    C    3  dxz    Ryd( 3d)     0.00046
    51    C    3  dyz    Ryd( 3d)     0.00061
    52    C    3  dx2y2  Ryd( 3d)     0.00011
    53    C    3  dz2    Ryd( 3d)     0.00047

    54    C    4  S      Cor( 1S)     1.99941
    55    C    4  S      Val( 2S)     1.14286
    56    C    4  S      Ryd( 3S)     0.00216
    57    C    4  S      Ryd( 4S)     0.00002
    58    C    4  px     Val( 2p)     1.18405
    59    C    4  px     Ryd( 3p)     0.00175
    60    C    4  py     Val( 2p)     1.16149
    61    C    4  py     Ryd( 3p)     0.00327
    62    C    4  pz     Val( 2p)     0.64381
    63    C    4  pz     Ryd( 3p)     0.00130
    64    C    4  dxy    Ryd( 3d)     0.00100
    65    C    4  dxz    Ryd( 3d)     0.00017
    66    C    4  dyz    Ryd( 3d)     0.00050
    67    C    4  dx2y2  Ryd( 3d)     0.00141
    68    C    4  dz2    Ryd( 3d)     0.00049

    69    H    5  S      Val( 1S)     0.80881
    70    H    5  S      Ryd( 2S)     0.00076

    71    H    6  S      Val( 1S)     0.78831
    72    H    6  S      Ryd( 2S)     0.00261

    73    H    7  S      Val( 1S)     0.80022
    74    H    7  S      Ryd( 2S)     0.00152


 Summary of Natural Population Analysis:                  
                                                          
                                       Natural Population 
                Natural  -----------------------------------------------
    Atom  No    Charge         Core      Valence    Rydberg      Total
 -----------------------------------------------------------------------
     Cl    1   -0.70669      9.99990     7.69959    0.00720    17.70669
     Mg    2    0.69905      9.99872     1.27473    0.02750    11.30095
      C    3   -0.44721      1.99947     4.40942    0.03832     6.44721
      C    4   -0.14368      1.99941     4.13221    0.01207     6.14368
      H    5    0.19043      0.00000     0.80881    0.00076     0.80957
      H    6    0.20908      0.00000     0.78831    0.00261     0.79092
      H    7    0.19826      0.00000     0.80022    0.00152     0.80174
 =======================================================================
   * Total *   -0.00077     23.99749    19.91330    0.08997    44.00077

                                 Natural Population      
 --------------------------------------------------------
   Core                      23.99749 ( 99.9896% of  24)
   Valence                   19.91330 ( 99.5665% of  20)
   Natural Minimal Basis     43.91079 ( 99.7973% of  44)
   Natural Rydberg Basis      0.08997 (  0.2045% of  44)
 --------------------------------------------------------

    Atom  No          Natural Electron Configuration
 ----------------------------------------------------------------------------
     Cl    1      [core]3S( 1.95)3p( 5.75)
     Mg    2      [core]3S( 1.07)3p( 0.21)4S( 0.02)3d( 0.01)
      C    3      [core]2S( 1.36)2p( 3.05)3S( 0.01)3p( 0.02)
      C    4      [core]2S( 1.14)2p( 2.99)3p( 0.01)
      H    5            1S( 0.81)
      H    6            1S( 0.79)
      H    7            1S( 0.80)


 NBO analysis skipped by request.
 Leave Link  607 at Mon Oct  4 21:41:18 2021, MaxMem=  268435456 cpu:       3.0
 (Enter /sw/target/amd/app/gaussian/Gaussian09RevA.02_gcc-4.9.2/g09/l9999.exe)
 1\1\GINC-HERMITE\SP\RTD-B3LYP-FC\6-31G(d)\C2H3Cl1Mg1\JSCHLEINITZ\04-Oc
 t-2021\0\\#p TD(NStates=10, Root=1) b3lyp/6-31G* volume pop=NPA densit
 y=current Geom=AllCheck Guess=Read\\Cl[Mg]C=C_conf_0\\0,1\Cl,0,1.28054
 62393,0.0635376094,0.0459207874\Mg,0,3.4950108726,0.062946248,0.060514
 219\C,0,5.5602001969,0.0638507647,0.0381932366\C,0,6.2790813764,0.1098
 299261,-1.0964534509\H,0,6.1478207144,0.0264606103,0.9608855516\H,0,5.
 8258255887,0.1500274946,-2.0884254705\H,0,7.3722765618,0.11023222,-1.1
 06380945\\Version=AM64L-G09RevA.02\State=1-A'\HF=-738.3397293\RMSD=4.5
 94e-09\Dipole=4.0434802,0.0151584,-0.3740692\Quadrupole=2.3433475,-2.1
 357306,-0.2076169,0.0724189,-1.7871111,-0.0782613\PG=CS [SG(C2H3Cl1Mg1
 )]\\@


 "WHERE SHALL I START, PLEASE YOUR MAJESTY?" HE ASKED.
 "BEGIN AT THE BEGINNING," THE KING SAID GRAVELY,
 "AND GO ON TILL YOU COME TO THE END: THEN STOP." 

                                      -- LEWIS CARROLL
 Job cpu time:  0 days  0 hours  2 minutes 50.3 seconds.
 File lengths (MBytes):  RWF=     20 Int=      0 D2E=      0 Chk=      3 Scr=      1
 Normal termination of Gaussian 09 at Mon Oct  4 21:41:18 2021.
