 Entering Gaussian System, Link 0=g09
 Input=C30H48P2_cd78_conf_0.com
 Output=C30H48P2_cd78_conf_0.log
 Initial command:
 /sw/target/amd/app/gaussian/Gaussian09RevA.02_gcc-4.9.2/g09/l1.exe /home/jschleinitz/gaussian/Gau-2056272.inp -scrdir=/home/jschleinitz/gaussian/
 Entering Link 1 = /sw/target/amd/app/gaussian/Gaussian09RevA.02_gcc-4.9.2/g09/l1.exe PID=   2056312.
  
 Copyright (c) 1988,1990,1992,1993,1995,1998,2003,2009, Gaussian, Inc.
                  All Rights Reserved.
  
 This is part of the Gaussian(R) 09 program.  It is based on
 the Gaussian(R) 03 system (copyright 2003, Gaussian, Inc.),
 the Gaussian(R) 98 system (copyright 1998, Gaussian, Inc.),
 the Gaussian(R) 94 system (copyright 1995, Gaussian, Inc.),
 the Gaussian 92(TM) system (copyright 1992, Gaussian, Inc.),
 the Gaussian 90(TM) system (copyright 1990, Gaussian, Inc.),
 the Gaussian 88(TM) system (copyright 1988, Gaussian, Inc.),
 the Gaussian 86(TM) system (copyright 1986, Carnegie Mellon
 University), and the Gaussian 82(TM) system (copyright 1983,
 Carnegie Mellon University). Gaussian is a federally registered
 trademark of Gaussian, Inc.
  
 This software contains proprietary and confidential information,
 including trade secrets, belonging to Gaussian, Inc.
  
 This software is provided under written license and may be
 used, copied, transmitted, or stored only in accord with that
 written license.
  
 The following legend is applicable only to US Government
 contracts under FAR:
  
                    RESTRICTED RIGHTS LEGEND
  
 Use, reproduction and disclosure by the US Government is
 subject to restrictions as set forth in subparagraphs (a)
 and (c) of the Commercial Computer Software - Restricted
 Rights clause in FAR 52.227-19.
  
 Gaussian, Inc.
 340 Quinnipiac St., Bldg. 40, Wallingford CT 06492
  
  
 ---------------------------------------------------------------
 Warning -- This program may not be used in any manner that
 competes with the business of Gaussian, Inc. or will provide
 assistance to any competitor of Gaussian, Inc.  The licensee
 of this program is prohibited from giving any competitor of
 Gaussian, Inc. access to this program.  By using this program,
 the user acknowledges that Gaussian, Inc. is engaged in the
 business of creating and licensing software in the field of
 computational chemistry and represents and warrants to the
 licensee that it is not a competitor of Gaussian, Inc. and that
 it will not use this program in any manner prohibited above.
 ---------------------------------------------------------------
  

 Cite this work as:
 Gaussian 09, Revision A.02,
 M. J. Frisch, G. W. Trucks, H. B. Schlegel, G. E. Scuseria, 
 M. A. Robb, J. R. Cheeseman, G. Scalmani, V. Barone, B. Mennucci, 
 G. A. Petersson, H. Nakatsuji, M. Caricato, X. Li, H. P. Hratchian, 
 A. F. Izmaylov, J. Bloino, G. Zheng, J. L. Sonnenberg, M. Hada, 
 M. Ehara, K. Toyota, R. Fukuda, J. Hasegawa, M. Ishida, T. Nakajima, 
 Y. Honda, O. Kitao, H. Nakai, T. Vreven, J. A. Montgomery, Jr., 
 J. E. Peralta, F. Ogliaro, M. Bearpark, J. J. Heyd, E. Brothers, 
 K. N. Kudin, V. N. Staroverov, R. Kobayashi, J. Normand, 
 K. Raghavachari, A. Rendell, J. C. Burant, S. S. Iyengar, J. Tomasi, 
 M. Cossi, N. Rega, J. M. Millam, M. Klene, J. E. Knox, J. B. Cross, 
 V. Bakken, C. Adamo, J. Jaramillo, R. Gomperts, R. E. Stratmann, 
 O. Yazyev, A. J. Austin, R. Cammi, C. Pomelli, J. W. Ochterski, 
 R. L. Martin, K. Morokuma, V. G. Zakrzewski, G. A. Voth, 
 P. Salvador, J. J. Dannenberg, S. Dapprich, A. D. Daniels, 
 O. Farkas, J. B. Foresman, J. V. Ortiz, J. Cioslowski, 
 and D. J. Fox, Gaussian, Inc., Wallingford CT, 2009.
 
 ******************************************
 Gaussian 09:  AM64L-G09RevA.02 11-Jun-2009
                 1-Oct-2021 
 ******************************************
 %nproc=13
 Will use up to   13 processors via shared memory.
 %mem=26gb
 %chk=C30H48P2_cd78_conf_0.chk
 -----------------------------------
 #p opt b3lyp/6-31G* scf=(xqc,tight)
 -----------------------------------
 1/14=-1,18=20,19=15,26=3,38=1/1,3;
 2/9=110,12=2,17=6,18=5,40=1/2;
 3/5=1,6=6,7=1,11=2,16=1,25=1,30=1,71=1,74=-5/1,2,3;
 4//1;
 5/5=2,8=3,13=1,32=2,38=5/2,8;
 6/7=2,8=2,9=2,10=2,28=1/1;
 7//1,2,3,16;
 1/14=-1,18=20,19=15/3(2);
 2/9=110/2;
 99//99;
 2/9=110/2;
 3/5=1,6=6,7=1,11=2,16=1,25=1,30=1,71=1,74=-5/1,2,3;
 4/5=5,16=3/1;
 5/5=2,8=3,13=1,32=2,38=5/2,8;
 7//1,2,3,16;
 1/14=-1,18=20,19=15/3(-5);
 2/9=110/2;
 6/7=2,8=2,9=2,10=2,19=2,28=1/1;
 99/9=1/99;
 Leave Link    1 at Fri Oct  1 18:35:37 2021, MaxMem= 3489660928 cpu:       0.1
 (Enter /sw/target/amd/app/gaussian/Gaussian09RevA.02_gcc-4.9.2/g09/l101.exe)
 -------------------------------------------------------
 C1CCC(CC1)P(c1ccccc1P(C1CCCCC1)C1CCCCC1)C1CCCCC1_conf_0
 -------------------------------------------------------
 Symbolic Z-matrix:
 Charge =  0 Multiplicity = 1
 C                    -0.38382   0.94633   4.05232 
 C                    -0.20418  -0.55641   3.89024 
 C                     0.3048   -0.90688   2.4896 
 C                     1.66002  -0.22357   2.19776 
 C                     1.42797   1.30255   2.31444 
 C                     0.89222   1.6973    3.69456 
 P                     2.35407  -0.69982   0.50597 
 C                     3.86419   0.38918   0.32513 
 C                     4.61795   0.65639   1.49119 
 C                     5.61925   1.62521   1.5153 
 C                     5.88085   2.35962   0.37486 
 C                     5.19425   2.06858  -0.80442 
 C                     4.23817   1.03546  -0.88719 
 P                     3.59019   0.55824  -2.55262 
 C                     2.96049   2.1668   -3.27078 
 C                     1.70269   2.61701  -2.5006 
 C                     1.09454   3.8886   -3.09141 
 C                     0.76793   3.72021  -4.56953 
 C                     2.00241   3.30319  -5.35359 
 C                     2.63752   2.04324  -4.77205 
 C                     5.14214   0.13241  -3.57008 
 C                     6.08634   1.31287  -3.86154 
 C                     7.11352   1.06465  -4.96028 
 C                     6.4559    0.53606  -6.21679 
 C                     5.78908  -0.79537  -5.91229 
 C                     4.71885  -0.66952  -4.82846 
 C                     3.19902  -2.37055   0.80583 
 C                     3.72831  -2.88677  -0.55154 
 C                     4.25499  -4.31822  -0.49326 
 C                     3.21051  -5.2699    0.07074 
 C                     2.79505  -4.82306   1.46283 
 C                     2.25571  -3.39512   1.45264 
 H                    -0.67545   1.17745   5.08378 
 H                    -1.20247   1.28607   3.40636 
 H                    -1.15783  -1.06295   4.07645 
 H                     0.50401  -0.92628   4.64317 
 H                    -0.44222  -0.6023    1.74515 
 H                     0.35736  -1.99236   2.42899 
 H                     2.37956  -0.5389    2.96271 
 H                     0.71575   1.63374   1.54666 
 H                     2.3459    1.8709    2.14367 
 H                     0.69879   2.77585   3.71988 
 H                     1.65872   1.49421   4.45289 
 H                     4.41023   0.13698   2.42295 
 H                     6.16146   1.82787   2.4345 
 H                     6.62499   3.15184   0.3874 
 H                     5.43025   2.67866  -1.66914 
 H                     3.72048   2.9459   -3.15237 
 H                     1.94307   2.8028   -1.44707 
 H                     0.94377   1.82297  -2.51411 
 H                     1.79616   4.72217  -2.96447 
 H                     0.18333   4.14919  -2.54243 
 H                     0.37385   4.65856  -4.97472 
 H                    -0.0167    2.96298  -4.69102 
 H                     2.737     4.11741  -5.34615 
 H                     1.73393   3.12772  -6.40188 
 H                     3.55006   1.85698  -5.3464 
 H                     1.96448   1.19396  -4.94987 
 H                     5.70471  -0.57493  -2.94382 
 H                     6.65846   1.55394  -2.96091 
 H                     5.53004   2.21354  -4.13314 
 H                     7.87121   0.35487  -4.60603 
 H                     7.64183   2.00278  -5.18183 
 H                     7.20734   0.40763  -7.00417 
 H                     5.71816   1.25683  -6.5918 
 H                     6.54841  -1.52085  -5.59766 
 H                     5.33511  -1.19161  -6.82839 
 H                     4.41412  -1.68036  -4.52571 
 H                     3.8315   -0.24114  -5.30018 
 H                     4.04803  -2.22144   1.483 
 H                     4.53542  -2.23868  -0.91317 
 H                     2.93173  -2.84671  -1.3075 
 H                     5.15864  -4.35309   0.12681 
 H                     4.54232  -4.64365  -1.49928 
 H                     3.61325  -6.2879    0.11088 
 H                     2.33364  -5.29658  -0.58848 
 H                     3.65351  -4.88798   2.14238 
 H                     2.02799  -5.50172   1.8545 
 H                     2.07953  -3.11727   2.4999 
 H                     1.28627  -3.40014   0.94023 
 
 NAtoms=     80 NQM=     80 NQMF=      0 NMic=      0 NMicF=      0 NTot=     80.
                    Isotopes and Nuclear Properties:
 (Nuclear quadrupole moments (NQMom) in fm**2, nuclear magnetic moments (NMagM)
  in nuclear magnetons)

  Atom         1           2           3           4           5           6           7           8           9          10
 IAtWgt=          12          12          12          12          12          12          31          12          12          12
 AtmWgt=  12.0000000  12.0000000  12.0000000  12.0000000  12.0000000  12.0000000  30.9737634  12.0000000  12.0000000  12.0000000
 NucSpn=           0           0           0           0           0           0           1           0           0           0
 AtZEff=   0.0000000   0.0000000   0.0000000   0.0000000   0.0000000   0.0000000   0.0000000   0.0000000   0.0000000   0.0000000
 NQMom=    0.0000000   0.0000000   0.0000000   0.0000000   0.0000000   0.0000000   0.0000000   0.0000000   0.0000000   0.0000000
 NMagM=    0.0000000   0.0000000   0.0000000   0.0000000   0.0000000   0.0000000   1.1316000   0.0000000   0.0000000   0.0000000

  Atom        11          12          13          14          15          16          17          18          19          20
 IAtWgt=          12          12          12          31          12          12          12          12          12          12
 AtmWgt=  12.0000000  12.0000000  12.0000000  30.9737634  12.0000000  12.0000000  12.0000000  12.0000000  12.0000000  12.0000000
 NucSpn=           0           0           0           1           0           0           0           0           0           0
 AtZEff=   0.0000000   0.0000000   0.0000000   0.0000000   0.0000000   0.0000000   0.0000000   0.0000000   0.0000000   0.0000000
 NQMom=    0.0000000   0.0000000   0.0000000   0.0000000   0.0000000   0.0000000   0.0000000   0.0000000   0.0000000   0.0000000
 NMagM=    0.0000000   0.0000000   0.0000000   1.1316000   0.0000000   0.0000000   0.0000000   0.0000000   0.0000000   0.0000000

  Atom        21          22          23          24          25          26          27          28          29          30
 IAtWgt=          12          12          12          12          12          12          12          12          12          12
 AtmWgt=  12.0000000  12.0000000  12.0000000  12.0000000  12.0000000  12.0000000  12.0000000  12.0000000  12.0000000  12.0000000
 NucSpn=           0           0           0           0           0           0           0           0           0           0
 AtZEff=   0.0000000   0.0000000   0.0000000   0.0000000   0.0000000   0.0000000   0.0000000   0.0000000   0.0000000   0.0000000
 NQMom=    0.0000000   0.0000000   0.0000000   0.0000000   0.0000000   0.0000000   0.0000000   0.0000000   0.0000000   0.0000000
 NMagM=    0.0000000   0.0000000   0.0000000   0.0000000   0.0000000   0.0000000   0.0000000   0.0000000   0.0000000   0.0000000

  Atom        31          32          33          34          35          36          37          38          39          40
 IAtWgt=          12          12           1           1           1           1           1           1           1           1
 AtmWgt=  12.0000000  12.0000000   1.0078250   1.0078250   1.0078250   1.0078250   1.0078250   1.0078250   1.0078250   1.0078250
 NucSpn=           0           0           1           1           1           1           1           1           1           1
 AtZEff=   0.0000000   0.0000000   0.0000000   0.0000000   0.0000000   0.0000000   0.0000000   0.0000000   0.0000000   0.0000000
 NQMom=    0.0000000   0.0000000   0.0000000   0.0000000   0.0000000   0.0000000   0.0000000   0.0000000   0.0000000   0.0000000
 NMagM=    0.0000000   0.0000000   2.7928460   2.7928460   2.7928460   2.7928460   2.7928460   2.7928460   2.7928460   2.7928460

  Atom        41          42          43          44          45          46          47          48          49          50
 IAtWgt=           1           1           1           1           1           1           1           1           1           1
 AtmWgt=   1.0078250   1.0078250   1.0078250   1.0078250   1.0078250   1.0078250   1.0078250   1.0078250   1.0078250   1.0078250
 NucSpn=           1           1           1           1           1           1           1           1           1           1
 AtZEff=   0.0000000   0.0000000   0.0000000   0.0000000   0.0000000   0.0000000   0.0000000   0.0000000   0.0000000   0.0000000
 NQMom=    0.0000000   0.0000000   0.0000000   0.0000000   0.0000000   0.0000000   0.0000000   0.0000000   0.0000000   0.0000000
 NMagM=    2.7928460   2.7928460   2.7928460   2.7928460   2.7928460   2.7928460   2.7928460   2.7928460   2.7928460   2.7928460

  Atom        51          52          53          54          55          56          57          58          59          60
 IAtWgt=           1           1           1           1           1           1           1           1           1           1
 AtmWgt=   1.0078250   1.0078250   1.0078250   1.0078250   1.0078250   1.0078250   1.0078250   1.0078250   1.0078250   1.0078250
 NucSpn=           1           1           1           1           1           1           1           1           1           1
 AtZEff=   0.0000000   0.0000000   0.0000000   0.0000000   0.0000000   0.0000000   0.0000000   0.0000000   0.0000000   0.0000000
 NQMom=    0.0000000   0.0000000   0.0000000   0.0000000   0.0000000   0.0000000   0.0000000   0.0000000   0.0000000   0.0000000
 NMagM=    2.7928460   2.7928460   2.7928460   2.7928460   2.7928460   2.7928460   2.7928460   2.7928460   2.7928460   2.7928460

  Atom        61          62          63          64          65          66          67          68          69          70
 IAtWgt=           1           1           1           1           1           1           1           1           1           1
 AtmWgt=   1.0078250   1.0078250   1.0078250   1.0078250   1.0078250   1.0078250   1.0078250   1.0078250   1.0078250   1.0078250
 NucSpn=           1           1           1           1           1           1           1           1           1           1
 AtZEff=   0.0000000   0.0000000   0.0000000   0.0000000   0.0000000   0.0000000   0.0000000   0.0000000   0.0000000   0.0000000
 NQMom=    0.0000000   0.0000000   0.0000000   0.0000000   0.0000000   0.0000000   0.0000000   0.0000000   0.0000000   0.0000000
 NMagM=    2.7928460   2.7928460   2.7928460   2.7928460   2.7928460   2.7928460   2.7928460   2.7928460   2.7928460   2.7928460

  Atom        71          72          73          74          75          76          77          78          79          80
 IAtWgt=           1           1           1           1           1           1           1           1           1           1
 AtmWgt=   1.0078250   1.0078250   1.0078250   1.0078250   1.0078250   1.0078250   1.0078250   1.0078250   1.0078250   1.0078250
 NucSpn=           1           1           1           1           1           1           1           1           1           1
 AtZEff=   0.0000000   0.0000000   0.0000000   0.0000000   0.0000000   0.0000000   0.0000000   0.0000000   0.0000000   0.0000000
 NQMom=    0.0000000   0.0000000   0.0000000   0.0000000   0.0000000   0.0000000   0.0000000   0.0000000   0.0000000   0.0000000
 NMagM=    2.7928460   2.7928460   2.7928460   2.7928460   2.7928460   2.7928460   2.7928460   2.7928460   2.7928460   2.7928460
 Leave Link  101 at Fri Oct  1 18:35:37 2021, MaxMem= 3489660928 cpu:       0.2
 (Enter /sw/target/amd/app/gaussian/Gaussian09RevA.02_gcc-4.9.2/g09/l103.exe)

 GradGradGradGradGradGradGradGradGradGradGradGradGradGradGradGradGradGrad
 Berny optimization.
 Initialization pass.
                           ----------------------------
                           !    Initial Parameters    !
                           ! (Angstroms and Degrees)  !
 --------------------------                            --------------------------
 ! Name  Definition              Value          Derivative Info.                !
 --------------------------------------------------------------------------------
 ! R1    R(1,2)                  1.5221         estimate D2E/DX2                !
 ! R2    R(1,6)                  1.5232         estimate D2E/DX2                !
 ! R3    R(1,33)                 1.0965         estimate D2E/DX2                !
 ! R4    R(1,34)                 1.0968         estimate D2E/DX2                !
 ! R5    R(2,3)                  1.5309         estimate D2E/DX2                !
 ! R6    R(2,35)                 1.0958         estimate D2E/DX2                !
 ! R7    R(2,36)                 1.0978         estimate D2E/DX2                !
 ! R8    R(3,4)                  1.5455         estimate D2E/DX2                !
 ! R9    R(3,37)                 1.0977         estimate D2E/DX2                !
 ! R10   R(3,38)                 1.0884         estimate D2E/DX2                !
 ! R11   R(4,5)                  1.5481         estimate D2E/DX2                !
 ! R12   R(4,7)                  1.8896         estimate D2E/DX2                !
 ! R13   R(4,39)                 1.0965         estimate D2E/DX2                !
 ! R14   R(5,6)                  1.5322         estimate D2E/DX2                !
 ! R15   R(5,40)                 1.0984         estimate D2E/DX2                !
 ! R16   R(5,41)                 1.0931         estimate D2E/DX2                !
 ! R17   R(6,42)                 1.0961         estimate D2E/DX2                !
 ! R18   R(6,43)                 1.0972         estimate D2E/DX2                !
 ! R19   R(7,8)                  1.8706         estimate D2E/DX2                !
 ! R20   R(7,27)                 1.8961         estimate D2E/DX2                !
 ! R21   R(8,9)                  1.4139         estimate D2E/DX2                !
 ! R22   R(8,13)                 1.4238         estimate D2E/DX2                !
 ! R23   R(9,10)                 1.3935         estimate D2E/DX2                !
 ! R24   R(9,44)                 1.0868         estimate D2E/DX2                !
 ! R25   R(10,11)                1.3814         estimate D2E/DX2                !
 ! R26   R(10,45)                1.0863         estimate D2E/DX2                !
 ! R27   R(11,12)                1.3953         estimate D2E/DX2                !
 ! R28   R(11,46)                1.087          estimate D2E/DX2                !
 ! R29   R(12,13)                1.4101         estimate D2E/DX2                !
 ! R30   R(12,47)                1.0843         estimate D2E/DX2                !
 ! R31   R(13,14)                1.8497         estimate D2E/DX2                !
 ! R32   R(14,15)                1.8708         estimate D2E/DX2                !
 ! R33   R(14,21)                1.904          estimate D2E/DX2                !
 ! R34   R(15,16)                1.5421         estimate D2E/DX2                !
 ! R35   R(15,20)                1.5406         estimate D2E/DX2                !
 ! R36   R(15,48)                1.0948         estimate D2E/DX2                !
 ! R37   R(16,17)                1.5283         estimate D2E/DX2                !
 ! R38   R(16,49)                1.0965         estimate D2E/DX2                !
 ! R39   R(16,50)                1.0985         estimate D2E/DX2                !
 ! R40   R(17,18)                1.5231         estimate D2E/DX2                !
 ! R41   R(17,51)                1.0969         estimate D2E/DX2                !
 ! R42   R(17,52)                1.0953         estimate D2E/DX2                !
 ! R43   R(18,19)                1.5207         estimate D2E/DX2                !
 ! R44   R(18,53)                1.0954         estimate D2E/DX2                !
 ! R45   R(18,54)                1.0972         estimate D2E/DX2                !
 ! R46   R(19,20)                1.5261         estimate D2E/DX2                !
 ! R47   R(19,55)                1.0966         estimate D2E/DX2                !
 ! R48   R(19,56)                1.0963         estimate D2E/DX2                !
 ! R49   R(20,57)                1.0942         estimate D2E/DX2                !
 ! R50   R(20,58)                1.0981         estimate D2E/DX2                !
 ! R51   R(21,22)                1.5395         estimate D2E/DX2                !
 ! R52   R(21,26)                1.5511         estimate D2E/DX2                !
 ! R53   R(21,59)                1.0996         estimate D2E/DX2                !
 ! R54   R(22,23)                1.5244         estimate D2E/DX2                !
 ! R55   R(22,60)                1.0939         estimate D2E/DX2                !
 ! R56   R(22,61)                1.0929         estimate D2E/DX2                !
 ! R57   R(23,24)                1.5135         estimate D2E/DX2                !
 ! R58   R(23,62)                1.097          estimate D2E/DX2                !
 ! R59   R(23,63)                1.0992         estimate D2E/DX2                !
 ! R60   R(24,25)                1.5199         estimate D2E/DX2                !
 ! R61   R(24,64)                1.096          estimate D2E/DX2                !
 ! R62   R(24,65)                1.0974         estimate D2E/DX2                !
 ! R63   R(25,26)                1.5284         estimate D2E/DX2                !
 ! R64   R(25,66)                1.0963         estimate D2E/DX2                !
 ! R65   R(25,67)                1.0965         estimate D2E/DX2                !
 ! R66   R(26,68)                1.0983         estimate D2E/DX2                !
 ! R67   R(26,69)                1.0924         estimate D2E/DX2                !
 ! R68   R(27,28)                1.5457         estimate D2E/DX2                !
 ! R69   R(27,32)                1.5356         estimate D2E/DX2                !
 ! R70   R(27,70)                1.0962         estimate D2E/DX2                !
 ! R71   R(28,29)                1.5264         estimate D2E/DX2                !
 ! R72   R(28,71)                1.0965         estimate D2E/DX2                !
 ! R73   R(28,72)                1.0989         estimate D2E/DX2                !
 ! R74   R(29,30)                1.5214         estimate D2E/DX2                !
 ! R75   R(29,73)                1.0965         estimate D2E/DX2                !
 ! R76   R(29,74)                1.0957         estimate D2E/DX2                !
 ! R77   R(30,31)                1.5199         estimate D2E/DX2                !
 ! R78   R(30,75)                1.0955         estimate D2E/DX2                !
 ! R79   R(30,76)                1.0974         estimate D2E/DX2                !
 ! R80   R(31,32)                1.5264         estimate D2E/DX2                !
 ! R81   R(31,77)                1.0968         estimate D2E/DX2                !
 ! R82   R(31,78)                1.0965         estimate D2E/DX2                !
 ! R83   R(32,79)                1.0977         estimate D2E/DX2                !
 ! R84   R(32,80)                1.0965         estimate D2E/DX2                !
 ! A1    A(2,1,6)              111.276          estimate D2E/DX2                !
 ! A2    A(2,1,33)             109.8557         estimate D2E/DX2                !
 ! A3    A(2,1,34)             109.3423         estimate D2E/DX2                !
 ! A4    A(6,1,33)             109.8658         estimate D2E/DX2                !
 ! A5    A(6,1,34)             109.5266         estimate D2E/DX2                !
 ! A6    A(33,1,34)            106.8706         estimate D2E/DX2                !
 ! A7    A(1,2,3)              111.2649         estimate D2E/DX2                !
 ! A8    A(1,2,35)             109.6078         estimate D2E/DX2                !
 ! A9    A(1,2,36)             109.6168         estimate D2E/DX2                !
 ! A10   A(3,2,35)             109.8154         estimate D2E/DX2                !
 ! A11   A(3,2,36)             109.6264         estimate D2E/DX2                !
 ! A12   A(35,2,36)            106.8056         estimate D2E/DX2                !
 ! A13   A(2,3,4)              111.2889         estimate D2E/DX2                !
 ! A14   A(2,3,37)             109.3115         estimate D2E/DX2                !
 ! A15   A(2,3,38)             107.1761         estimate D2E/DX2                !
 ! A16   A(4,3,37)             110.2417         estimate D2E/DX2                !
 ! A17   A(4,3,38)             112.8331         estimate D2E/DX2                !
 ! A18   A(37,3,38)            105.772          estimate D2E/DX2                !
 ! A19   A(3,4,5)              106.8684         estimate D2E/DX2                !
 ! A20   A(3,4,7)              112.3147         estimate D2E/DX2                !
 ! A21   A(3,4,39)             108.4531         estimate D2E/DX2                !
 ! A22   A(5,4,7)              111.7774         estimate D2E/DX2                !
 ! A23   A(5,4,39)             109.2254         estimate D2E/DX2                !
 ! A24   A(7,4,39)             108.1249         estimate D2E/DX2                !
 ! A25   A(4,5,6)              111.9809         estimate D2E/DX2                !
 ! A26   A(4,5,40)             109.9847         estimate D2E/DX2                !
 ! A27   A(4,5,41)             112.0201         estimate D2E/DX2                !
 ! A28   A(6,5,40)             108.9792         estimate D2E/DX2                !
 ! A29   A(6,5,41)             107.4815         estimate D2E/DX2                !
 ! A30   A(40,5,41)            106.1733         estimate D2E/DX2                !
 ! A31   A(1,6,5)              112.1765         estimate D2E/DX2                !
 ! A32   A(1,6,42)             109.382          estimate D2E/DX2                !
 ! A33   A(1,6,43)             109.3683         estimate D2E/DX2                !
 ! A34   A(5,6,42)             109.6367         estimate D2E/DX2                !
 ! A35   A(5,6,43)             109.305          estimate D2E/DX2                !
 ! A36   A(42,6,43)            106.8261         estimate D2E/DX2                !
 ! A37   A(4,7,8)              103.6706         estimate D2E/DX2                !
 ! A38   A(4,7,27)             104.1326         estimate D2E/DX2                !
 ! A39   A(8,7,27)              99.701          estimate D2E/DX2                !
 ! A40   A(7,8,9)              117.4295         estimate D2E/DX2                !
 ! A41   A(7,8,13)             123.9595         estimate D2E/DX2                !
 ! A42   A(9,8,13)             118.4495         estimate D2E/DX2                !
 ! A43   A(8,9,10)             121.9182         estimate D2E/DX2                !
 ! A44   A(8,9,44)             120.9867         estimate D2E/DX2                !
 ! A45   A(10,9,44)            117.0512         estimate D2E/DX2                !
 ! A46   A(9,10,11)            119.4326         estimate D2E/DX2                !
 ! A47   A(9,10,45)            120.1993         estimate D2E/DX2                !
 ! A48   A(11,10,45)           120.3229         estimate D2E/DX2                !
 ! A49   A(10,11,12)           119.582          estimate D2E/DX2                !
 ! A50   A(10,11,46)           120.5025         estimate D2E/DX2                !
 ! A51   A(12,11,46)           119.9109         estimate D2E/DX2                !
 ! A52   A(11,12,13)           122.4177         estimate D2E/DX2                !
 ! A53   A(11,12,47)           116.717          estimate D2E/DX2                !
 ! A54   A(13,12,47)           120.8653         estimate D2E/DX2                !
 ! A55   A(8,13,12)            117.4311         estimate D2E/DX2                !
 ! A56   A(8,13,14)            123.8848         estimate D2E/DX2                !
 ! A57   A(12,13,14)           118.647          estimate D2E/DX2                !
 ! A58   A(13,14,15)           103.9886         estimate D2E/DX2                !
 ! A59   A(13,14,21)           104.6737         estimate D2E/DX2                !
 ! A60   A(15,14,21)           105.161          estimate D2E/DX2                !
 ! A61   A(14,15,16)           109.503          estimate D2E/DX2                !
 ! A62   A(14,15,20)           112.0673         estimate D2E/DX2                !
 ! A63   A(14,15,48)           109.6767         estimate D2E/DX2                !
 ! A64   A(16,15,20)           109.8235         estimate D2E/DX2                !
 ! A65   A(16,15,48)           107.724          estimate D2E/DX2                !
 ! A66   A(20,15,48)           107.9389         estimate D2E/DX2                !
 ! A67   A(15,16,17)           111.9873         estimate D2E/DX2                !
 ! A68   A(15,16,49)           110.5208         estimate D2E/DX2                !
 ! A69   A(15,16,50)           110.2646         estimate D2E/DX2                !
 ! A70   A(17,16,49)           108.523          estimate D2E/DX2                !
 ! A71   A(17,16,50)           108.7689         estimate D2E/DX2                !
 ! A72   A(49,16,50)           106.6043         estimate D2E/DX2                !
 ! A73   A(16,17,18)           111.6226         estimate D2E/DX2                !
 ! A74   A(16,17,51)           109.4516         estimate D2E/DX2                !
 ! A75   A(16,17,52)           109.5874         estimate D2E/DX2                !
 ! A76   A(18,17,51)           109.4797         estimate D2E/DX2                !
 ! A77   A(18,17,52)           109.532          estimate D2E/DX2                !
 ! A78   A(51,17,52)           107.0576         estimate D2E/DX2                !
 ! A79   A(17,18,19)           110.8918         estimate D2E/DX2                !
 ! A80   A(17,18,53)           109.9629         estimate D2E/DX2                !
 ! A81   A(17,18,54)           109.7006         estimate D2E/DX2                !
 ! A82   A(19,18,53)           109.6471         estimate D2E/DX2                !
 ! A83   A(19,18,54)           109.5225         estimate D2E/DX2                !
 ! A84   A(53,18,54)           107.0351         estimate D2E/DX2                !
 ! A85   A(18,19,20)           111.5773         estimate D2E/DX2                !
 ! A86   A(18,19,55)           109.674          estimate D2E/DX2                !
 ! A87   A(18,19,56)           109.7618         estimate D2E/DX2                !
 ! A88   A(20,19,55)           109.3671         estimate D2E/DX2                !
 ! A89   A(20,19,56)           109.5214         estimate D2E/DX2                !
 ! A90   A(55,19,56)           106.8209         estimate D2E/DX2                !
 ! A91   A(15,20,19)           113.1018         estimate D2E/DX2                !
 ! A92   A(15,20,57)           110.5065         estimate D2E/DX2                !
 ! A93   A(15,20,58)           110.3844         estimate D2E/DX2                !
 ! A94   A(19,20,57)           106.7137         estimate D2E/DX2                !
 ! A95   A(19,20,58)           108.7679         estimate D2E/DX2                !
 ! A96   A(57,20,58)           107.1273         estimate D2E/DX2                !
 ! A97   A(14,21,22)           115.4428         estimate D2E/DX2                !
 ! A98   A(14,21,26)           109.0709         estimate D2E/DX2                !
 ! A99   A(14,21,59)           104.8654         estimate D2E/DX2                !
 ! A100  A(22,21,26)           114.219          estimate D2E/DX2                !
 ! A101  A(22,21,59)           106.6973         estimate D2E/DX2                !
 ! A102  A(26,21,59)           105.6116         estimate D2E/DX2                !
 ! A103  A(21,22,23)           115.1423         estimate D2E/DX2                !
 ! A104  A(21,22,60)           109.5049         estimate D2E/DX2                !
 ! A105  A(21,22,61)           111.5172         estimate D2E/DX2                !
 ! A106  A(23,22,60)           106.0744         estimate D2E/DX2                !
 ! A107  A(23,22,61)           107.3404         estimate D2E/DX2                !
 ! A108  A(60,22,61)           106.8112         estimate D2E/DX2                !
 ! A109  A(22,23,24)           111.2516         estimate D2E/DX2                !
 ! A110  A(22,23,62)           109.7552         estimate D2E/DX2                !
 ! A111  A(22,23,63)           109.2777         estimate D2E/DX2                !
 ! A112  A(24,23,62)           110.0131         estimate D2E/DX2                !
 ! A113  A(24,23,63)           109.8507         estimate D2E/DX2                !
 ! A114  A(62,23,63)           106.5782         estimate D2E/DX2                !
 ! A115  A(23,24,25)           109.2836         estimate D2E/DX2                !
 ! A116  A(23,24,64)           109.8444         estimate D2E/DX2                !
 ! A117  A(23,24,65)           110.2671         estimate D2E/DX2                !
 ! A118  A(25,24,64)           110.004          estimate D2E/DX2                !
 ! A119  A(25,24,65)           110.4173         estimate D2E/DX2                !
 ! A120  A(64,24,65)           107.001          estimate D2E/DX2                !
 ! A121  A(24,25,26)           112.1574         estimate D2E/DX2                !
 ! A122  A(24,25,66)           109.4697         estimate D2E/DX2                !
 ! A123  A(24,25,67)           109.3184         estimate D2E/DX2                !
 ! A124  A(26,25,66)           109.6323         estimate D2E/DX2                !
 ! A125  A(26,25,67)           109.4091         estimate D2E/DX2                !
 ! A126  A(66,25,67)           106.7022         estimate D2E/DX2                !
 ! A127  A(21,26,25)           115.265          estimate D2E/DX2                !
 ! A128  A(21,26,68)           109.1427         estimate D2E/DX2                !
 ! A129  A(21,26,69)           111.6698         estimate D2E/DX2                !
 ! A130  A(25,26,68)           108.2984         estimate D2E/DX2                !
 ! A131  A(25,26,69)           107.1491         estimate D2E/DX2                !
 ! A132  A(68,26,69)           104.7477         estimate D2E/DX2                !
 ! A133  A(7,27,28)            107.939          estimate D2E/DX2                !
 ! A134  A(7,27,32)            112.3823         estimate D2E/DX2                !
 ! A135  A(7,27,70)            108.8437         estimate D2E/DX2                !
 ! A136  A(28,27,32)           110.9421         estimate D2E/DX2                !
 ! A137  A(28,27,70)           108.8269         estimate D2E/DX2                !
 ! A138  A(32,27,70)           107.8385         estimate D2E/DX2                !
 ! A139  A(27,28,29)           113.4432         estimate D2E/DX2                !
 ! A140  A(27,28,71)           110.1385         estimate D2E/DX2                !
 ! A141  A(27,28,72)           110.1029         estimate D2E/DX2                !
 ! A142  A(29,28,71)           108.2354         estimate D2E/DX2                !
 ! A143  A(29,28,72)           108.0939         estimate D2E/DX2                !
 ! A144  A(71,28,72)           106.5677         estimate D2E/DX2                !
 ! A145  A(28,29,30)           111.3393         estimate D2E/DX2                !
 ! A146  A(28,29,73)           109.6197         estimate D2E/DX2                !
 ! A147  A(28,29,74)           109.51           estimate D2E/DX2                !
 ! A148  A(30,29,73)           109.6486         estimate D2E/DX2                !
 ! A149  A(30,29,74)           109.5489         estimate D2E/DX2                !
 ! A150  A(73,29,74)           107.0771         estimate D2E/DX2                !
 ! A151  A(29,30,31)           110.0774         estimate D2E/DX2                !
 ! A152  A(29,30,75)           110.0275         estimate D2E/DX2                !
 ! A153  A(29,30,76)           109.9432         estimate D2E/DX2                !
 ! A154  A(31,30,75)           109.8838         estimate D2E/DX2                !
 ! A155  A(31,30,76)           109.8118         estimate D2E/DX2                !
 ! A156  A(75,30,76)           107.0484         estimate D2E/DX2                !
 ! A157  A(30,31,32)           111.4372         estimate D2E/DX2                !
 ! A158  A(30,31,77)           109.6407         estimate D2E/DX2                !
 ! A159  A(30,31,78)           109.6586         estimate D2E/DX2                !
 ! A160  A(32,31,77)           109.6365         estimate D2E/DX2                !
 ! A161  A(32,31,78)           109.5239         estimate D2E/DX2                !
 ! A162  A(77,31,78)           106.8333         estimate D2E/DX2                !
 ! A163  A(27,32,31)           114.2008         estimate D2E/DX2                !
 ! A164  A(27,32,79)           109.3641         estimate D2E/DX2                !
 ! A165  A(27,32,80)           110.4462         estimate D2E/DX2                !
 ! A166  A(31,32,79)           106.6857         estimate D2E/DX2                !
 ! A167  A(31,32,80)           108.1322         estimate D2E/DX2                !
 ! A168  A(79,32,80)           107.7625         estimate D2E/DX2                !
 ! D1    D(6,1,2,3)            -53.8608         estimate D2E/DX2                !
 ! D2    D(6,1,2,35)          -175.5148         estimate D2E/DX2                !
 ! D3    D(6,1,2,36)            67.5616         estimate D2E/DX2                !
 ! D4    D(33,1,2,3)          -175.7543         estimate D2E/DX2                !
 ! D5    D(33,1,2,35)           62.5916         estimate D2E/DX2                !
 ! D6    D(33,1,2,36)          -54.332          estimate D2E/DX2                !
 ! D7    D(34,1,2,3)            67.2595         estimate D2E/DX2                !
 ! D8    D(34,1,2,35)          -54.3945         estimate D2E/DX2                !
 ! D9    D(34,1,2,36)         -171.3181         estimate D2E/DX2                !
 ! D10   D(2,1,6,5)             52.2308         estimate D2E/DX2                !
 ! D11   D(2,1,6,42)           174.1082         estimate D2E/DX2                !
 ! D12   D(2,1,6,43)           -69.2163         estimate D2E/DX2                !
 ! D13   D(33,1,6,5)           174.1186         estimate D2E/DX2                !
 ! D14   D(33,1,6,42)          -64.0041         estimate D2E/DX2                !
 ! D15   D(33,1,6,43)           52.6715         estimate D2E/DX2                !
 ! D16   D(34,1,6,5)           -68.7815         estimate D2E/DX2                !
 ! D17   D(34,1,6,42)           53.0958         estimate D2E/DX2                !
 ! D18   D(34,1,6,43)          169.7714         estimate D2E/DX2                !
 ! D19   D(1,2,3,4)             59.2034         estimate D2E/DX2                !
 ! D20   D(1,2,3,37)           -62.8023         estimate D2E/DX2                !
 ! D21   D(1,2,3,38)          -176.9929         estimate D2E/DX2                !
 ! D22   D(35,2,3,4)          -179.2636         estimate D2E/DX2                !
 ! D23   D(35,2,3,37)           58.7307         estimate D2E/DX2                !
 ! D24   D(35,2,3,38)          -55.4598         estimate D2E/DX2                !
 ! D25   D(36,2,3,4)           -62.2134         estimate D2E/DX2                !
 ! D26   D(36,2,3,37)          175.781          estimate D2E/DX2                !
 ! D27   D(36,2,3,38)           61.5904         estimate D2E/DX2                !
 ! D28   D(2,3,4,5)            -59.7031         estimate D2E/DX2                !
 ! D29   D(2,3,4,7)            177.3736         estimate D2E/DX2                !
 ! D30   D(2,3,4,39)            57.9374         estimate D2E/DX2                !
 ! D31   D(37,3,4,5)            61.7618         estimate D2E/DX2                !
 ! D32   D(37,3,4,7)           -61.1615         estimate D2E/DX2                !
 ! D33   D(37,3,4,39)          179.4023         estimate D2E/DX2                !
 ! D34   D(38,3,4,5)           179.7698         estimate D2E/DX2                !
 ! D35   D(38,3,4,7)            56.8465         estimate D2E/DX2                !
 ! D36   D(38,3,4,39)          -62.5898         estimate D2E/DX2                !
 ! D37   D(3,4,5,6)             57.9134         estimate D2E/DX2                !
 ! D38   D(3,4,5,40)           -63.4177         estimate D2E/DX2                !
 ! D39   D(3,4,5,41)           178.756          estimate D2E/DX2                !
 ! D40   D(7,4,5,6)           -178.8294         estimate D2E/DX2                !
 ! D41   D(7,4,5,40)            59.8395         estimate D2E/DX2                !
 ! D42   D(7,4,5,41)           -57.9868         estimate D2E/DX2                !
 ! D43   D(39,4,5,6)           -59.2184         estimate D2E/DX2                !
 ! D44   D(39,4,5,40)          179.4505         estimate D2E/DX2                !
 ! D45   D(39,4,5,41)           61.6242         estimate D2E/DX2                !
 ! D46   D(3,4,7,8)            173.8853         estimate D2E/DX2                !
 ! D47   D(3,4,7,27)           -82.2238         estimate D2E/DX2                !
 ! D48   D(5,4,7,8)             53.77           estimate D2E/DX2                !
 ! D49   D(5,4,7,27)           157.6609         estimate D2E/DX2                !
 ! D50   D(39,4,7,8)           -66.487          estimate D2E/DX2                !
 ! D51   D(39,4,7,27)           37.4039         estimate D2E/DX2                !
 ! D52   D(4,5,6,1)            -55.6903         estimate D2E/DX2                !
 ! D53   D(4,5,6,42)          -177.422          estimate D2E/DX2                !
 ! D54   D(4,5,6,43)            65.7932         estimate D2E/DX2                !
 ! D55   D(40,5,6,1)            66.2185         estimate D2E/DX2                !
 ! D56   D(40,5,6,42)          -55.5132         estimate D2E/DX2                !
 ! D57   D(40,5,6,43)         -172.298          estimate D2E/DX2                !
 ! D58   D(41,5,6,1)          -179.1276         estimate D2E/DX2                !
 ! D59   D(41,5,6,42)           59.1406         estimate D2E/DX2                !
 ! D60   D(41,5,6,43)          -57.6441         estimate D2E/DX2                !
 ! D61   D(4,7,8,9)             35.8504         estimate D2E/DX2                !
 ! D62   D(4,7,8,13)          -139.4485         estimate D2E/DX2                !
 ! D63   D(27,7,8,9)           -71.3977         estimate D2E/DX2                !
 ! D64   D(27,7,8,13)          113.3033         estimate D2E/DX2                !
 ! D65   D(4,7,27,28)          176.6173         estimate D2E/DX2                !
 ! D66   D(4,7,27,32)           53.9598         estimate D2E/DX2                !
 ! D67   D(4,7,27,70)          -65.42           estimate D2E/DX2                !
 ! D68   D(8,7,27,28)          -76.5071         estimate D2E/DX2                !
 ! D69   D(8,7,27,32)          160.8354         estimate D2E/DX2                !
 ! D70   D(8,7,27,70)           41.4556         estimate D2E/DX2                !
 ! D71   D(7,8,9,10)          -169.0332         estimate D2E/DX2                !
 ! D72   D(7,8,9,44)             8.4857         estimate D2E/DX2                !
 ! D73   D(13,8,9,10)            6.5326         estimate D2E/DX2                !
 ! D74   D(13,8,9,44)         -175.9485         estimate D2E/DX2                !
 ! D75   D(7,8,13,12)          164.9458         estimate D2E/DX2                !
 ! D76   D(7,8,13,14)          -17.3009         estimate D2E/DX2                !
 ! D77   D(9,8,13,12)          -10.3085         estimate D2E/DX2                !
 ! D78   D(9,8,13,14)          167.4448         estimate D2E/DX2                !
 ! D79   D(8,9,10,11)            0.6437         estimate D2E/DX2                !
 ! D80   D(8,9,10,45)          178.2037         estimate D2E/DX2                !
 ! D81   D(44,9,10,11)        -176.9681         estimate D2E/DX2                !
 ! D82   D(44,9,10,45)           0.592          estimate D2E/DX2                !
 ! D83   D(9,10,11,12)          -3.713          estimate D2E/DX2                !
 ! D84   D(9,10,11,46)         177.0674         estimate D2E/DX2                !
 ! D85   D(45,10,11,12)        178.73           estimate D2E/DX2                !
 ! D86   D(45,10,11,46)         -0.4896         estimate D2E/DX2                !
 ! D87   D(10,11,12,13)         -0.5089         estimate D2E/DX2                !
 ! D88   D(10,11,12,47)        179.5412         estimate D2E/DX2                !
 ! D89   D(46,11,12,13)        178.7154         estimate D2E/DX2                !
 ! D90   D(46,11,12,47)         -1.2345         estimate D2E/DX2                !
 ! D91   D(11,12,13,8)           7.5916         estimate D2E/DX2                !
 ! D92   D(11,12,13,14)       -170.2832         estimate D2E/DX2                !
 ! D93   D(47,12,13,8)        -172.4605         estimate D2E/DX2                !
 ! D94   D(47,12,13,14)          9.6647         estimate D2E/DX2                !
 ! D95   D(8,13,14,15)         127.8222         estimate D2E/DX2                !
 ! D96   D(8,13,14,21)        -122.0665         estimate D2E/DX2                !
 ! D97   D(12,13,14,15)        -54.45           estimate D2E/DX2                !
 ! D98   D(12,13,14,21)         55.6613         estimate D2E/DX2                !
 ! D99   D(13,14,15,16)        -69.5226         estimate D2E/DX2                !
 ! D100  D(13,14,15,20)        168.3512         estimate D2E/DX2                !
 ! D101  D(13,14,15,48)         48.4884         estimate D2E/DX2                !
 ! D102  D(21,14,15,16)       -179.276          estimate D2E/DX2                !
 ! D103  D(21,14,15,20)         58.5978         estimate D2E/DX2                !
 ! D104  D(21,14,15,48)        -61.265          estimate D2E/DX2                !
 ! D105  D(13,14,21,22)        -66.3053         estimate D2E/DX2                !
 ! D106  D(13,14,21,26)        163.5186         estimate D2E/DX2                !
 ! D107  D(13,14,21,59)         50.7899         estimate D2E/DX2                !
 ! D108  D(15,14,21,22)         42.9539         estimate D2E/DX2                !
 ! D109  D(15,14,21,26)        -87.2222         estimate D2E/DX2                !
 ! D110  D(15,14,21,59)        160.0491         estimate D2E/DX2                !
 ! D111  D(14,15,16,17)       -176.8381         estimate D2E/DX2                !
 ! D112  D(14,15,16,49)         62.0343         estimate D2E/DX2                !
 ! D113  D(14,15,16,50)        -55.5756         estimate D2E/DX2                !
 ! D114  D(20,15,16,17)        -53.3787         estimate D2E/DX2                !
 ! D115  D(20,15,16,49)       -174.5063         estimate D2E/DX2                !
 ! D116  D(20,15,16,50)         67.8838         estimate D2E/DX2                !
 ! D117  D(48,15,16,17)         63.9394         estimate D2E/DX2                !
 ! D118  D(48,15,16,49)        -57.1882         estimate D2E/DX2                !
 ! D119  D(48,15,16,50)       -174.7981         estimate D2E/DX2                !
 ! D120  D(14,15,20,19)        174.7382         estimate D2E/DX2                !
 ! D121  D(14,15,20,57)        -65.7002         estimate D2E/DX2                !
 ! D122  D(14,15,20,58)         52.6204         estimate D2E/DX2                !
 ! D123  D(16,15,20,19)         52.795          estimate D2E/DX2                !
 ! D124  D(16,15,20,57)        172.3566         estimate D2E/DX2                !
 ! D125  D(16,15,20,58)        -69.3228         estimate D2E/DX2                !
 ! D126  D(48,15,20,19)        -64.3889         estimate D2E/DX2                !
 ! D127  D(48,15,20,57)         55.1728         estimate D2E/DX2                !
 ! D128  D(48,15,20,58)        173.4933         estimate D2E/DX2                !
 ! D129  D(15,16,17,18)         56.1603         estimate D2E/DX2                !
 ! D130  D(15,16,17,51)        -65.2            estimate D2E/DX2                !
 ! D131  D(15,16,17,52)        177.6792         estimate D2E/DX2                !
 ! D132  D(49,16,17,18)        178.4349         estimate D2E/DX2                !
 ! D133  D(49,16,17,51)         57.0745         estimate D2E/DX2                !
 ! D134  D(49,16,17,52)        -60.0462         estimate D2E/DX2                !
 ! D135  D(50,16,17,18)        -65.9609         estimate D2E/DX2                !
 ! D136  D(50,16,17,51)        172.6788         estimate D2E/DX2                !
 ! D137  D(50,16,17,52)         55.558          estimate D2E/DX2                !
 ! D138  D(16,17,18,19)        -56.1906         estimate D2E/DX2                !
 ! D139  D(16,17,18,53)       -177.6262         estimate D2E/DX2                !
 ! D140  D(16,17,18,54)         64.9141         estimate D2E/DX2                !
 ! D141  D(51,17,18,19)         65.1535         estimate D2E/DX2                !
 ! D142  D(51,17,18,53)        -56.2821         estimate D2E/DX2                !
 ! D143  D(51,17,18,54)       -173.7419         estimate D2E/DX2                !
 ! D144  D(52,17,18,19)       -177.7415         estimate D2E/DX2                !
 ! D145  D(52,17,18,53)         60.8229         estimate D2E/DX2                !
 ! D146  D(52,17,18,54)        -56.6368         estimate D2E/DX2                !
 ! D147  D(17,18,19,20)         54.9518         estimate D2E/DX2                !
 ! D148  D(17,18,19,55)        -66.3881         estimate D2E/DX2                !
 ! D149  D(17,18,19,56)        176.5466         estimate D2E/DX2                !
 ! D150  D(53,18,19,20)        176.5728         estimate D2E/DX2                !
 ! D151  D(53,18,19,55)         55.2329         estimate D2E/DX2                !
 ! D152  D(53,18,19,56)        -61.8324         estimate D2E/DX2                !
 ! D153  D(54,18,19,20)        -66.2578         estimate D2E/DX2                !
 ! D154  D(54,18,19,55)        172.4023         estimate D2E/DX2                !
 ! D155  D(54,18,19,56)         55.337          estimate D2E/DX2                !
 ! D156  D(18,19,20,15)        -54.349          estimate D2E/DX2                !
 ! D157  D(18,19,20,57)       -176.0674         estimate D2E/DX2                !
 ! D158  D(18,19,20,58)         68.6688         estimate D2E/DX2                !
 ! D159  D(55,19,20,15)         67.1689         estimate D2E/DX2                !
 ! D160  D(55,19,20,57)        -54.5494         estimate D2E/DX2                !
 ! D161  D(55,19,20,58)       -169.8133         estimate D2E/DX2                !
 ! D162  D(56,19,20,15)       -176.0829         estimate D2E/DX2                !
 ! D163  D(56,19,20,57)         62.1988         estimate D2E/DX2                !
 ! D164  D(56,19,20,58)        -53.065          estimate D2E/DX2                !
 ! D165  D(14,21,22,23)       -164.6439         estimate D2E/DX2                !
 ! D166  D(14,21,22,60)         75.9675         estimate D2E/DX2                !
 ! D167  D(14,21,22,61)        -42.032          estimate D2E/DX2                !
 ! D168  D(26,21,22,23)        -37.0            estimate D2E/DX2                !
 ! D169  D(26,21,22,60)       -156.3886         estimate D2E/DX2                !
 ! D170  D(26,21,22,61)         85.6118         estimate D2E/DX2                !
 ! D171  D(59,21,22,23)         79.2959         estimate D2E/DX2                !
 ! D172  D(59,21,22,60)        -40.0928         estimate D2E/DX2                !
 ! D173  D(59,21,22,61)       -158.0923         estimate D2E/DX2                !
 ! D174  D(14,21,26,25)        165.828          estimate D2E/DX2                !
 ! D175  D(14,21,26,68)        -72.0775         estimate D2E/DX2                !
 ! D176  D(14,21,26,69)         43.2554         estimate D2E/DX2                !
 ! D177  D(22,21,26,25)         34.989          estimate D2E/DX2                !
 ! D178  D(22,21,26,68)        157.0835         estimate D2E/DX2                !
 ! D179  D(22,21,26,69)        -87.5836         estimate D2E/DX2                !
 ! D180  D(59,21,26,25)        -81.9345         estimate D2E/DX2                !
 ! D181  D(59,21,26,68)         40.16           estimate D2E/DX2                !
 ! D182  D(59,21,26,69)        155.4928         estimate D2E/DX2                !
 ! D183  D(21,22,23,24)         50.9863         estimate D2E/DX2                !
 ! D184  D(21,22,23,62)        -71.0084         estimate D2E/DX2                !
 ! D185  D(21,22,23,63)        172.4538         estimate D2E/DX2                !
 ! D186  D(60,22,23,24)        172.2568         estimate D2E/DX2                !
 ! D187  D(60,22,23,62)         50.2621         estimate D2E/DX2                !
 ! D188  D(60,22,23,63)        -66.2757         estimate D2E/DX2                !
 ! D189  D(61,22,23,24)        -73.8339         estimate D2E/DX2                !
 ! D190  D(61,22,23,62)        164.1713         estimate D2E/DX2                !
 ! D191  D(61,22,23,63)         47.6336         estimate D2E/DX2                !
 ! D192  D(22,23,24,25)        -61.6985         estimate D2E/DX2                !
 ! D193  D(22,23,24,64)        177.5332         estimate D2E/DX2                !
 ! D194  D(22,23,24,65)         59.847          estimate D2E/DX2                !
 ! D195  D(62,23,24,25)         60.1465         estimate D2E/DX2                !
 ! D196  D(62,23,24,64)        -60.6218         estimate D2E/DX2                !
 ! D197  D(62,23,24,65)       -178.3079         estimate D2E/DX2                !
 ! D198  D(63,23,24,25)        177.1689         estimate D2E/DX2                !
 ! D199  D(63,23,24,64)         56.4006         estimate D2E/DX2                !
 ! D200  D(63,23,24,65)        -61.2855         estimate D2E/DX2                !
 ! D201  D(23,24,25,26)         59.9475         estimate D2E/DX2                !
 ! D202  D(23,24,25,66)        -61.9728         estimate D2E/DX2                !
 ! D203  D(23,24,25,67)       -178.5207         estimate D2E/DX2                !
 ! D204  D(64,24,25,26)       -179.3815         estimate D2E/DX2                !
 ! D205  D(64,24,25,66)         58.6982         estimate D2E/DX2                !
 ! D206  D(64,24,25,67)        -57.8497         estimate D2E/DX2                !
 ! D207  D(65,24,25,26)        -61.5072         estimate D2E/DX2                !
 ! D208  D(65,24,25,66)        176.5725         estimate D2E/DX2                !
 ! D209  D(65,24,25,67)         60.0246         estimate D2E/DX2                !
 ! D210  D(24,25,26,21)        -47.0132         estimate D2E/DX2                !
 ! D211  D(24,25,26,68)       -169.5599         estimate D2E/DX2                !
 ! D212  D(24,25,26,69)         77.9428         estimate D2E/DX2                !
 ! D213  D(66,25,26,21)         74.8142         estimate D2E/DX2                !
 ! D214  D(66,25,26,68)        -47.7325         estimate D2E/DX2                !
 ! D215  D(66,25,26,69)       -160.2297         estimate D2E/DX2                !
 ! D216  D(67,25,26,21)       -168.4931         estimate D2E/DX2                !
 ! D217  D(67,25,26,68)         68.9602         estimate D2E/DX2                !
 ! D218  D(67,25,26,69)        -43.537          estimate D2E/DX2                !
 ! D219  D(7,27,28,29)        -171.6518         estimate D2E/DX2                !
 ! D220  D(7,27,28,71)          66.8612         estimate D2E/DX2                !
 ! D221  D(7,27,28,72)         -50.3736         estimate D2E/DX2                !
 ! D222  D(32,27,28,29)        -48.1166         estimate D2E/DX2                !
 ! D223  D(32,27,28,71)       -169.6036         estimate D2E/DX2                !
 ! D224  D(32,27,28,72)         73.1616         estimate D2E/DX2                !
 ! D225  D(70,27,28,29)         70.3747         estimate D2E/DX2                !
 ! D226  D(70,27,28,71)        -51.1122         estimate D2E/DX2                !
 ! D227  D(70,27,28,72)       -168.3471         estimate D2E/DX2                !
 ! D228  D(7,27,32,31)         168.5779         estimate D2E/DX2                !
 ! D229  D(7,27,32,79)         -71.9751         estimate D2E/DX2                !
 ! D230  D(7,27,32,80)          46.458          estimate D2E/DX2                !
 ! D231  D(28,27,32,31)         47.63           estimate D2E/DX2                !
 ! D232  D(28,27,32,79)        167.0769         estimate D2E/DX2                !
 ! D233  D(28,27,32,80)        -74.49           estimate D2E/DX2                !
 ! D234  D(70,27,32,31)        -71.4574         estimate D2E/DX2                !
 ! D235  D(70,27,32,79)         47.9895         estimate D2E/DX2                !
 ! D236  D(70,27,32,80)        166.4227         estimate D2E/DX2                !
 ! D237  D(27,28,29,30)         54.4797         estimate D2E/DX2                !
 ! D238  D(27,28,29,73)        -67.0215         estimate D2E/DX2                !
 ! D239  D(27,28,29,74)        175.7815         estimate D2E/DX2                !
 ! D240  D(71,28,29,30)        177.0258         estimate D2E/DX2                !
 ! D241  D(71,28,29,73)         55.5247         estimate D2E/DX2                !
 ! D242  D(71,28,29,74)        -61.6724         estimate D2E/DX2                !
 ! D243  D(72,28,29,30)        -67.9189         estimate D2E/DX2                !
 ! D244  D(72,28,29,73)        170.58           estimate D2E/DX2                !
 ! D245  D(72,28,29,74)         53.383          estimate D2E/DX2                !
 ! D246  D(28,29,30,31)        -58.2794         estimate D2E/DX2                !
 ! D247  D(28,29,30,75)       -179.5217         estimate D2E/DX2                !
 ! D248  D(28,29,30,76)         62.8186         estimate D2E/DX2                !
 ! D249  D(73,29,30,31)         63.2049         estimate D2E/DX2                !
 ! D250  D(73,29,30,75)        -58.0373         estimate D2E/DX2                !
 ! D251  D(73,29,30,76)       -175.6971         estimate D2E/DX2                !
 ! D252  D(74,29,30,31)       -179.5586         estimate D2E/DX2                !
 ! D253  D(74,29,30,75)         59.1992         estimate D2E/DX2                !
 ! D254  D(74,29,30,76)        -58.4605         estimate D2E/DX2                !
 ! D255  D(29,30,31,32)         57.4379         estimate D2E/DX2                !
 ! D256  D(29,30,31,77)        -64.1267         estimate D2E/DX2                !
 ! D257  D(29,30,31,78)        178.8727         estimate D2E/DX2                !
 ! D258  D(75,30,31,32)        178.766          estimate D2E/DX2                !
 ! D259  D(75,30,31,77)         57.2014         estimate D2E/DX2                !
 ! D260  D(75,30,31,78)        -59.7992         estimate D2E/DX2                !
 ! D261  D(76,30,31,32)        -63.7387         estimate D2E/DX2                !
 ! D262  D(76,30,31,77)        174.6967         estimate D2E/DX2                !
 ! D263  D(76,30,31,78)         57.6961         estimate D2E/DX2                !
 ! D264  D(30,31,32,27)        -53.301          estimate D2E/DX2                !
 ! D265  D(30,31,32,79)       -174.2458         estimate D2E/DX2                !
 ! D266  D(30,31,32,80)         70.0782         estimate D2E/DX2                !
 ! D267  D(77,31,32,27)         68.2661         estimate D2E/DX2                !
 ! D268  D(77,31,32,79)        -52.6788         estimate D2E/DX2                !
 ! D269  D(77,31,32,80)       -168.3548         estimate D2E/DX2                !
 ! D270  D(78,31,32,27)       -174.8141         estimate D2E/DX2                !
 ! D271  D(78,31,32,79)         64.2411         estimate D2E/DX2                !
 ! D272  D(78,31,32,80)        -51.4349         estimate D2E/DX2                !
 --------------------------------------------------------------------------------
 Trust Radius=3.00D-01 FncErr=1.00D-07 GrdErr=1.00D-06
 Number of steps in this run= 480 maximum allowed number of steps= 480.
 GradGradGradGradGradGradGradGradGradGradGradGradGradGradGradGradGradGrad

 Leave Link  103 at Fri Oct  1 18:35:37 2021, MaxMem= 3489660928 cpu:       0.0
 (Enter /sw/target/amd/app/gaussian/Gaussian09RevA.02_gcc-4.9.2/g09/l202.exe)
 Stoichiometry    C30H48P2
 Framework group  C1[X(C30H48P2)]
 Deg. of freedom   234
 Full point group                 C1      NOp   1
 Largest Abelian subgroup         C1      NOp   1
 Largest concise Abelian subgroup C1      NOp   1
                         Standard orientation:                         
 ---------------------------------------------------------------------
 Center     Atomic      Atomic             Coordinates (Angstroms)
 Number     Number       Type             X           Y           Z
 ---------------------------------------------------------------------
      1          6           0        5.482480   -3.043080   -0.245023
      2          6           0        5.760758   -1.632763   -0.745360
      3          6           0        4.463934   -0.910535   -1.119943
      4          6           0        3.505787   -0.814518    0.088962
      5          6           0        3.198782   -2.264751    0.535119
      6          6           0        4.472843   -3.035764    0.895511
      7         15           0        1.928270    0.141950   -0.320032
      8          6           0        0.881677   -0.053103    1.218050
      9          6           0        1.550549   -0.065869    2.463719
     10          6           0        0.903405   -0.427070    3.643785
     11          6           0       -0.426839   -0.797368    3.602551
     12          6           0       -1.123514   -0.729937    2.395520
     13          6           0       -0.523191   -0.283928    1.200126
     14         15           0       -1.600097    0.023677   -0.271922
     15          6           0       -2.524708   -1.586519   -0.500200
     16          6           0       -1.546892   -2.678116   -0.980004
     17          6           0       -2.258826   -4.001310   -1.259559
     18          6           0       -3.385210   -3.829978   -2.270389
     19          6           0       -4.377612   -2.776691   -1.803140
     20          6           0       -3.687142   -1.449468   -1.501879
     21          6           0       -2.907304    1.266358    0.338039
     22          6           0       -3.879210    0.733017    1.406164
     23          6           0       -5.128379    1.578864    1.625370
     24          6           0       -5.826547    1.875886    0.315784
     25          6           0       -4.893167    2.672212   -0.581303
     26          6           0       -3.602330    1.913632   -0.888241
     27          6           0        2.429400    1.961434   -0.136872
     28          6           0        1.216743    2.831915   -0.537883
     29          6           0        1.541972    4.320324   -0.631075
     30          6           0        2.714895    4.573214   -1.566493
     31          6           0        3.939910    3.813476   -1.084488
     32          6           0        3.662498    2.316069   -0.980464
     33          1           0        6.416599   -3.511476    0.087244
     34          1           0        5.097348   -3.652392   -1.071635
     35          1           0        6.426472   -1.675662   -1.614672
     36          1           0        6.288725   -1.063739    0.030970
     37          1           0        3.978257   -1.442670   -1.948169
     38          1           0        4.741931    0.064028   -1.517000
     39          1           0        4.022687   -0.288825    0.900613
     40          1           0        2.671682   -2.800332   -0.265972
     41          1           0        2.539392   -2.294591    1.406385
     42          1           0        4.216217   -4.067812    1.160749
     43          1           0        4.931060   -2.584006    1.784210
     44          1           0        2.609265    0.169618    2.532750
     45          1           0        1.451733   -0.455249    4.581091
     46          1           0       -0.935772   -1.127796    4.504404
     47          1           0       -2.162701   -1.038759    2.414565
     48          1           0       -2.942161   -1.911006    0.458469
     49          1           0       -0.767958   -2.853642   -0.228548
     50          1           0       -1.032969   -2.353120   -1.894821
     51          1           0       -2.665602   -4.402222   -0.323064
     52          1           0       -1.537194   -4.734126   -1.636136
     53          1           0       -3.903009   -4.783859   -2.418610
     54          1           0       -2.968741   -3.535959   -3.241942
     55          1           0       -4.894710   -3.130167   -0.902980
     56          1           0       -5.145272   -2.624306   -2.570763
     57          1           0       -4.455459   -0.777359   -1.107844
     58          1           0       -3.330105   -1.014879   -2.445032
     59          1           0       -2.329921    2.073676    0.811200
     60          1           0       -3.370192    0.688219    2.373364
     61          1           0       -4.209983   -0.282817    1.175703
     62          1           0       -4.858228    2.515889    2.127753
     63          1           0       -5.812967    1.046797    2.301047
     64          1           0       -6.743118    2.446532    0.503882
     65          1           0       -6.125538    0.941510   -0.176085
     66          1           0       -4.653302    3.628536   -0.101923
     67          1           0       -5.407746    2.910459   -1.519794
     68          1           0       -2.902567    2.606450   -1.374709
     69          1           0       -3.838742    1.172804   -1.655513
     70          1           0        2.673564    2.157395    0.913650
     71          1           0        0.403613    2.703074    0.186301
     72          1           0        0.823849    2.506814   -1.511309
     73          1           0        1.775904    4.709273    0.367074
     74          1           0        0.662097    4.865332   -0.990698
     75          1           0        2.935025    5.645462   -1.610802
     76          1           0        2.456933    4.255398   -2.584645
     77          1           0        4.251776    4.199376   -0.106337
     78          1           0        4.775010    3.984409   -1.774236
     79          1           0        4.554370    1.860794   -0.530710
     80          1           0        3.559274    1.916738   -1.996482
 ---------------------------------------------------------------------
 Rotational constants (GHZ):      0.1481250      0.0814184      0.0660655
 Leave Link  202 at Fri Oct  1 18:35:38 2021, MaxMem= 3489660928 cpu:       0.2
 (Enter /sw/target/amd/app/gaussian/Gaussian09RevA.02_gcc-4.9.2/g09/l301.exe)
 Standard basis: 6-31G(d) (6D, 7F)
 Ernie: Thresh=  0.10000D-02 Tol=  0.10000D-05 Strict=F.
 There are   584 symmetry adapted basis functions of A   symmetry.
 Integral buffers will be    131072 words long.
 Raffenetti 2 integral format.
 Two-electron integral symmetry is turned on.
   584 basis functions,  1136 primitive gaussians,   584 cartesian basis functions
   129 alpha electrons      129 beta electrons
       nuclear repulsion energy      3865.1337252545 Hartrees.
 IExCor=  402 DFT=T Ex+Corr=B3LYP ExCW=0 ScaHFX=  0.200000
 ScaDFX=  0.800000  0.720000  1.000000  0.810000 ScalE2=  1.000000  1.000000
 IRadAn=      0 IRanWt=     -1 IRanGd=            0 ICorTp=0
 NAtoms=   80 NActive=   80 NUniq=   80 SFac= 7.50D-01 NAtFMM=   80 NAOKFM=T Big=T
 Leave Link  301 at Fri Oct  1 18:35:38 2021, MaxMem= 3489660928 cpu:       0.1
 (Enter /sw/target/amd/app/gaussian/Gaussian09RevA.02_gcc-4.9.2/g09/l302.exe)
 NPDir=0 NMtPBC=     1 NCelOv=     1 NCel=       1 NClECP=     1 NCelD=      1
         NCelK=      1 NCelE2=     1 NClLst=     1 CellRange=     0.0.
 One-electron integrals computed using PRISM.
 NBasis=   584 RedAO= T  NBF=   584
 NBsUse=   584 1.00D-06 NBFU=   584
 Precomputing XC quadrature grid using
 IXCGrd= 2 IRadAn=           0 IRanWt=          -1 IRanGd=           0 AccXCQ= 1.00D-10.
 NRdTot=    5133 NPtTot=      655034 NUsed=      692018 NTot=      692050
 NSgBfM=   564   564   566   566   566 NAtAll=    80    80.
 Leave Link  302 at Fri Oct  1 18:35:51 2021, MaxMem= 3489660928 cpu:      16.9
 (Enter /sw/target/amd/app/gaussian/Gaussian09RevA.02_gcc-4.9.2/g09/l303.exe)
 DipDrv:  MaxL=1.
 Leave Link  303 at Fri Oct  1 18:35:54 2021, MaxMem= 3489660928 cpu:       0.6
 (Enter /sw/target/amd/app/gaussian/Gaussian09RevA.02_gcc-4.9.2/g09/l401.exe)
 Harris functional with IExCor=  402 diagonalized for initial guess.
 ExpMin= 9.98D-02 ExpMax= 1.94D+04 ExpMxC= 2.91D+03 IAcc=2 IRadAn=         0 AccDes= 0.00D+00
 HarFok:  IExCor=  402 AccDes= 0.00D+00 IRadAn=         0 IDoV= 1
 ScaDFX=  1.000000  1.000000  1.000000  1.000000
 FoFCou: FMM=F IPFlag=           0 FMFlag=      100000 FMFlg1=        2001
         NFxFlg=           0 DoJE=T BraDBF=F KetDBF=T FulRan=T
         Omega=  0.000000  0.000000  1.000000  0.000000  0.000000 ICntrl=     500 IOpCl=  0
         NMat0=    1 NMatS0=    1 NMatT0=    0 NMatD0=    1 NMtDS0=    0 NMtDT0=    0
         I1Cent=           4 NGrid=           0.
 Petite list used in FoFCou.
 Harris En= -1855.08174322311    
 Initial guess orbital symmetries:
       Occupied  (A) (A) (A) (A) (A) (A) (A) (A) (A) (A) (A) (A)
                 (A) (A) (A) (A) (A) (A) (A) (A) (A) (A) (A) (A)
                 (A) (A) (A) (A) (A) (A) (A) (A) (A) (A) (A) (A)
                 (A) (A) (A) (A) (A) (A) (A) (A) (A) (A) (A) (A)
                 (A) (A) (A) (A) (A) (A) (A) (A) (A) (A) (A) (A)
                 (A) (A) (A) (A) (A) (A) (A) (A) (A) (A) (A) (A)
                 (A) (A) (A) (A) (A) (A) (A) (A) (A) (A) (A) (A)
                 (A) (A) (A) (A) (A) (A) (A) (A) (A) (A) (A) (A)
                 (A) (A) (A) (A) (A) (A) (A) (A) (A) (A) (A) (A)
                 (A) (A) (A) (A) (A) (A) (A) (A) (A) (A) (A) (A)
                 (A) (A) (A) (A) (A) (A) (A) (A) (A)
       Virtual   (A) (A) (A) (A) (A) (A) (A) (A) (A) (A) (A) (A)
                 (A) (A) (A) (A) (A) (A) (A) (A) (A) (A) (A) (A)
                 (A) (A) (A) (A) (A) (A) (A) (A) (A) (A) (A) (A)
                 (A) (A) (A) (A) (A) (A) (A) (A) (A) (A) (A) (A)
                 (A) (A) (A) (A) (A) (A) (A) (A) (A) (A) (A) (A)
                 (A) (A) (A) (A) (A) (A) (A) (A) (A) (A) (A) (A)
                 (A) (A) (A) (A) (A) (A) (A) (A) (A) (A) (A) (A)
                 (A) (A) (A) (A) (A) (A) (A) (A) (A) (A) (A) (A)
                 (A) (A) (A) (A) (A) (A) (A) (A) (A) (A) (A) (A)
                 (A) (A) (A) (A) (A) (A) (A) (A) (A) (A) (A) (A)
                 (A) (A) (A) (A) (A) (A) (A) (A) (A) (A) (A) (A)
                 (A) (A) (A) (A) (A) (A) (A) (A) (A) (A) (A) (A)
                 (A) (A) (A) (A) (A) (A) (A) (A) (A) (A) (A) (A)
                 (A) (A) (A) (A) (A) (A) (A) (A) (A) (A) (A) (A)
                 (A) (A) (A) (A) (A) (A) (A) (A) (A) (A) (A) (A)
                 (A) (A) (A) (A) (A) (A) (A) (A) (A) (A) (A) (A)
                 (A) (A) (A) (A) (A) (A) (A) (A) (A) (A) (A) (A)
                 (A) (A) (A) (A) (A) (A) (A) (A) (A) (A) (A) (A)
                 (A) (A) (A) (A) (A) (A) (A) (A) (A) (A) (A) (A)
                 (A) (A) (A) (A) (A) (A) (A) (A) (A) (A) (A) (A)
                 (A) (A) (A) (A) (A) (A) (A) (A) (A) (A) (A) (A)
                 (A) (A) (A) (A) (A) (A) (A) (A) (A) (A) (A) (A)
                 (A) (A) (A) (A) (A) (A) (A) (A) (A) (A) (A) (A)
                 (A) (A) (A) (A) (A) (A) (A) (A) (A) (A) (A) (A)
                 (A) (A) (A) (A) (A) (A) (A) (A) (A) (A) (A) (A)
                 (A) (A) (A) (A) (A) (A) (A) (A) (A) (A) (A) (A)
                 (A) (A) (A) (A) (A) (A) (A) (A) (A) (A) (A) (A)
                 (A) (A) (A) (A) (A) (A) (A) (A) (A) (A) (A) (A)
                 (A) (A) (A) (A) (A) (A) (A) (A) (A) (A) (A) (A)
                 (A) (A) (A) (A) (A) (A) (A) (A) (A) (A) (A) (A)
                 (A) (A) (A) (A) (A) (A) (A) (A) (A) (A) (A) (A)
                 (A) (A) (A) (A) (A) (A) (A) (A) (A) (A) (A) (A)
                 (A) (A) (A) (A) (A) (A) (A) (A) (A) (A) (A) (A)
                 (A) (A) (A) (A) (A) (A) (A) (A) (A) (A) (A) (A)
                 (A) (A) (A) (A) (A) (A) (A) (A) (A) (A) (A) (A)
                 (A) (A) (A) (A) (A) (A) (A) (A) (A) (A) (A) (A)
                 (A) (A) (A) (A) (A) (A) (A) (A) (A) (A) (A) (A)
                 (A) (A) (A) (A) (A) (A) (A) (A) (A) (A) (A)
 The electronic state of the initial guess is 1-A.
 Leave Link  401 at Fri Oct  1 18:37:08 2021, MaxMem= 3489660928 cpu:     121.2
 (Enter /sw/target/amd/app/gaussian/Gaussian09RevA.02_gcc-4.9.2/g09/l502.exe)
 Closed shell SCF:
 Requested convergence on RMS density matrix=1.00D-08 within  64 cycles.
 Requested convergence on MAX density matrix=1.00D-06.
 Requested convergence on             energy=1.00D-06.
 No special actions if energy rises.
 Using DIIS extrapolation, IDIIS=  1040.
 Integral symmetry usage will be decided dynamically.
       691285 words used for storage of precomputed grid.
 IEnd=     1732057 IEndB=     1732057 NGot=  3489660928 MDV=  3488274736
 LenX=  3488274736 LenY=  3487933096
 Fock matrices will be formed incrementally for  20 cycles.
 Integral accuracy reduced to 1.0D-05 until final iterations.

 Cycle   1  Pass 0  IDiag  1:
 FoFCou: FMM=T IPFlag=           0 FMFlag=      100000 FMFlg1=        2001
         NFxFlg=           0 DoJE=F BraDBF=F KetDBF=F FulRan=T
         Omega=  0.000000  0.000000  1.000000  0.000000  0.000000 ICntrl=       0 IOpCl=  0
         NMat0=    1 NMatS0=    1 NMatT0=    0 NMatD0=    1 NMtDS0=    0 NMtDT0=    0
         I1Cent=           0 NGrid=           0.
 Symmetry not used in FoFCou.
 FMM levels:  10  Number of levels for PrismC:   9
 E= -1853.68511663810    
 DIIS: error= 2.68D-02 at cycle   1 NSaved=   1.
 NSaved= 1 IEnMin= 1 EnMin= -1853.68511663810     IErMin= 1 ErrMin= 2.68D-02
 ErrMax= 2.68D-02 EMaxC= 1.00D-01 BMatC= 1.03D+00 BMatP= 1.03D+00
 IDIUse=3 WtCom= 7.32D-01 WtEn= 2.68D-01
 Coeff-Com:  0.100D+01
 Coeff-En:   0.100D+01
 Coeff:      0.100D+01
 Gap=     0.285 Goal=   None    Shift=    0.000
 GapD=    0.285 DampG=1.000 DampE=0.500 DampFc=0.5000 IDamp=-1.
 Damping current iteration by 5.00D-01
 RMSDP=4.49D-03 MaxDP=1.67D-01              OVMax= 2.06D-01

 Cycle   2  Pass 0  IDiag  1:
 RMSU=  1.56D-03    CP:  9.73D-01
 E= -1854.10991579222     Delta-E=       -0.424799154127 Rises=F Damp=T
 DIIS: error= 6.88D-03 at cycle   2 NSaved=   2.
 NSaved= 2 IEnMin= 2 EnMin= -1854.10991579222     IErMin= 2 ErrMin= 6.88D-03
 ErrMax= 6.88D-03 EMaxC= 1.00D-01 BMatC= 8.48D-02 BMatP= 1.03D+00
 IDIUse=3 WtCom= 9.31D-01 WtEn= 6.88D-02
 Coeff-Com:  0.140D+00 0.860D+00
 Coeff-En:   0.238D+00 0.762D+00
 Coeff:      0.147D+00 0.853D+00
 Gap=     0.268 Goal=   None    Shift=    0.000
 RMSDP=1.23D-03 MaxDP=1.00D-01 DE=-4.25D-01 OVMax= 1.94D-01

 Cycle   3  Pass 0  IDiag  1:
 RMSU=  7.81D-04    CP:  9.73D-01  7.54D-01
 E= -1854.77074372923     Delta-E=       -0.660827937008 Rises=F Damp=F
 DIIS: error= 7.22D-03 at cycle   3 NSaved=   3.
 NSaved= 3 IEnMin= 3 EnMin= -1854.77074372923     IErMin= 2 ErrMin= 6.88D-03
 ErrMax= 7.22D-03 EMaxC= 1.00D-01 BMatC= 4.33D-02 BMatP= 8.48D-02
 IDIUse=3 WtCom= 9.28D-01 WtEn= 7.22D-02
 Coeff-Com:  0.280D-01 0.406D+00 0.566D+00
 Coeff-En:   0.000D+00 0.000D+00 0.100D+01
 Coeff:      0.259D-01 0.377D+00 0.597D+00
 Gap=     0.169 Goal=   None    Shift=    0.000
 RMSDP=8.39D-04 MaxDP=4.53D-02 DE=-6.61D-01 OVMax= 1.01D-01

 Cycle   4  Pass 0  IDiag  1:
 RMSU=  3.85D-04    CP:  9.73D-01  8.36D-01  4.46D-01
 E= -1854.79369640120     Delta-E=       -0.022952671970 Rises=F Damp=F
 DIIS: error= 6.41D-03 at cycle   4 NSaved=   4.
 NSaved= 4 IEnMin= 4 EnMin= -1854.79369640120     IErMin= 4 ErrMin= 6.41D-03
 ErrMax= 6.41D-03 EMaxC= 1.00D-01 BMatC= 2.36D-02 BMatP= 4.33D-02
 IDIUse=3 WtCom= 9.36D-01 WtEn= 6.41D-02
 Coeff-Com:  0.393D-03 0.132D+00 0.420D+00 0.447D+00
 Coeff-En:   0.000D+00 0.000D+00 0.378D+00 0.622D+00
 Coeff:      0.367D-03 0.123D+00 0.418D+00 0.459D+00
 Gap=     0.170 Goal=   None    Shift=    0.000
 RMSDP=3.74D-04 MaxDP=2.57D-02 DE=-2.30D-02 OVMax= 6.24D-02

 Cycle   5  Pass 0  IDiag  1:
 RMSU=  1.06D-04    CP:  9.73D-01  8.20D-01  6.13D-01  4.74D-01
 E= -1854.81999519781     Delta-E=       -0.026298796607 Rises=F Damp=F
 DIIS: error= 1.05D-03 at cycle   5 NSaved=   5.
 NSaved= 5 IEnMin= 5 EnMin= -1854.81999519781     IErMin= 5 ErrMin= 1.05D-03
 ErrMax= 1.05D-03 EMaxC= 1.00D-01 BMatC= 9.11D-04 BMatP= 2.36D-02
 IDIUse=3 WtCom= 9.89D-01 WtEn= 1.05D-02
 Coeff-Com: -0.196D-02 0.125D-01 0.131D+00 0.225D+00 0.634D+00
 Coeff-En:   0.000D+00 0.000D+00 0.000D+00 0.000D+00 0.100D+01
 Coeff:     -0.194D-02 0.123D-01 0.129D+00 0.223D+00 0.638D+00
 Gap=     0.167 Goal=   None    Shift=    0.000
 RMSDP=7.43D-05 MaxDP=6.21D-03 DE=-2.63D-02 OVMax= 1.06D-02

 Cycle   6  Pass 0  IDiag  1:
 RMSU=  2.70D-05    CP:  9.73D-01  8.18D-01  6.32D-01  5.18D-01  6.36D-01
 E= -1854.82090965943     Delta-E=       -0.000914461619 Rises=F Damp=F
 DIIS: error= 2.06D-04 at cycle   6 NSaved=   6.
 NSaved= 6 IEnMin= 6 EnMin= -1854.82090965943     IErMin= 6 ErrMin= 2.06D-04
 ErrMax= 2.06D-04 EMaxC= 1.00D-01 BMatC= 6.37D-05 BMatP= 9.11D-04
 IDIUse=3 WtCom= 9.98D-01 WtEn= 2.06D-03
 Coeff-Com: -0.905D-03-0.524D-03 0.416D-01 0.855D-01 0.318D+00 0.556D+00
 Coeff-En:   0.000D+00 0.000D+00 0.000D+00 0.000D+00 0.000D+00 0.100D+01
 Coeff:     -0.903D-03-0.523D-03 0.415D-01 0.853D-01 0.317D+00 0.557D+00
 Gap=     0.167 Goal=   None    Shift=    0.000
 RMSDP=2.08D-05 MaxDP=1.25D-03 DE=-9.14D-04 OVMax= 2.18D-03

 Cycle   7  Pass 0  IDiag  1:
 RMSU=  6.57D-06    CP:  9.73D-01  8.18D-01  6.28D-01  5.28D-01  6.91D-01
                    CP:  6.09D-01
 E= -1854.82097713804     Delta-E=       -0.000067478616 Rises=F Damp=F
 DIIS: error= 5.22D-05 at cycle   7 NSaved=   7.
 NSaved= 7 IEnMin= 7 EnMin= -1854.82097713804     IErMin= 7 ErrMin= 5.22D-05
 ErrMax= 5.22D-05 EMaxC= 1.00D-01 BMatC= 3.20D-06 BMatP= 6.37D-05
 IDIUse=1 WtCom= 1.00D+00 WtEn= 0.00D+00
 Coeff-Com: -0.205D-03-0.106D-02 0.965D-02 0.221D-01 0.987D-01 0.251D+00
 Coeff-Com:  0.620D+00
 Coeff:     -0.205D-03-0.106D-02 0.965D-02 0.221D-01 0.987D-01 0.251D+00
 Coeff:      0.620D+00
 Gap=     0.167 Goal=   None    Shift=    0.000
 RMSDP=5.00D-06 MaxDP=2.44D-04 DE=-6.75D-05 OVMax= 5.32D-04

 Initial convergence to 1.0D-05 achieved.  Increase integral accuracy.
 Cycle   8  Pass 1  IDiag  1:
 E= -1854.82054175977     Delta-E=        0.000435378272 Rises=F Damp=F
 DIIS: error= 5.46D-05 at cycle   1 NSaved=   1.
 NSaved= 1 IEnMin= 1 EnMin= -1854.82054175977     IErMin= 1 ErrMin= 5.46D-05
 ErrMax= 5.46D-05 EMaxC= 1.00D-01 BMatC= 2.43D-06 BMatP= 2.43D-06
 IDIUse=1 WtCom= 1.00D+00 WtEn= 0.00D+00
 Coeff-Com:  0.100D+01
 Coeff:      0.100D+01
 Gap=     0.167 Goal=   None    Shift=    0.000
 RMSDP=5.00D-06 MaxDP=2.44D-04 DE= 4.35D-04 OVMax= 5.37D-04

 Cycle   9  Pass 1  IDiag  1:
 RMSU=  1.39D-05    CP:  1.00D+00
 E= -1854.82054357567     Delta-E=       -0.000001815895 Rises=F Damp=F
 DIIS: error= 3.32D-05 at cycle   2 NSaved=   2.
 NSaved= 2 IEnMin= 2 EnMin= -1854.82054357567     IErMin= 2 ErrMin= 3.32D-05
 ErrMax= 3.32D-05 EMaxC= 1.00D-01 BMatC= 1.24D-06 BMatP= 2.43D-06
 IDIUse=1 WtCom= 1.00D+00 WtEn= 0.00D+00
 Coeff-Com:  0.384D+00 0.616D+00
 Coeff:      0.384D+00 0.616D+00
 Gap=     0.167 Goal=   None    Shift=    0.000
 RMSDP=4.06D-06 MaxDP=2.32D-04 DE=-1.82D-06 OVMax= 5.52D-04

 Cycle  10  Pass 1  IDiag  1:
 RMSU=  2.82D-06    CP:  1.00D+00  9.63D-01
 E= -1854.82054436041     Delta-E=       -0.000000784742 Rises=F Damp=F
 DIIS: error= 2.90D-05 at cycle   3 NSaved=   3.
[...]
   482    C   32  pz     Val( 2p)     1.14226
   483    C   32  pz     Ryd( 3p)     0.00161
   484    C   32  dxy    Ryd( 3d)     0.00054
   485    C   32  dxz    Ryd( 3d)     0.00088
   486    C   32  dyz    Ryd( 3d)     0.00064
   487    C   32  dx2y2  Ryd( 3d)     0.00088
   488    C   32  dz2    Ryd( 3d)     0.00064

   489    H   33  S      Val( 1S)     0.76209
   490    H   33  S      Ryd( 2S)     0.00118

   491    H   34  S      Val( 1S)     0.77473
   492    H   34  S      Ryd( 2S)     0.00184

   493    H   35  S      Val( 1S)     0.76171
   494    H   35  S      Ryd( 2S)     0.00133

   495    H   36  S      Val( 1S)     0.77489
   496    H   36  S      Ryd( 2S)     0.00184

   497    H   37  S      Val( 1S)     0.76759
   498    H   37  S      Ryd( 2S)     0.00205

   499    H   38  S      Val( 1S)     0.76470
   500    H   38  S      Ryd( 2S)     0.00121

   501    H   39  S      Val( 1S)     0.75329
   502    H   39  S      Ryd( 2S)     0.00322

   503    H   40  S      Val( 1S)     0.77013
   504    H   40  S      Ryd( 2S)     0.00179

   505    H   41  S      Val( 1S)     0.73626
   506    H   41  S      Ryd( 2S)     0.00141

   507    H   42  S      Val( 1S)     0.75824
   508    H   42  S      Ryd( 2S)     0.00117

   509    H   43  S      Val( 1S)     0.77416
   510    H   43  S      Ryd( 2S)     0.00182

   511    H   44  S      Val( 1S)     0.78580
   512    H   44  S      Ryd( 2S)     0.00138

   513    H   45  S      Val( 1S)     0.77610
   514    H   45  S      Ryd( 2S)     0.00087

   515    H   46  S      Val( 1S)     0.77919
   516    H   46  S      Ryd( 2S)     0.00078

   517    H   47  S      Val( 1S)     0.78533
   518    H   47  S      Ryd( 2S)     0.00139

   519    H   48  S      Val( 1S)     0.73956
   520    H   48  S      Ryd( 2S)     0.00260

   521    H   49  S      Val( 1S)     0.73697
   522    H   49  S      Ryd( 2S)     0.00138

   523    H   50  S      Val( 1S)     0.77059
   524    H   50  S      Ryd( 2S)     0.00181

   525    H   51  S      Val( 1S)     0.77182
   526    H   51  S      Ryd( 2S)     0.00178

   527    H   52  S      Val( 1S)     0.75573
   528    H   52  S      Ryd( 2S)     0.00112

   529    H   53  S      Val( 1S)     0.75960
   530    H   53  S      Ryd( 2S)     0.00115

   531    H   54  S      Val( 1S)     0.77331
   532    H   54  S      Ryd( 2S)     0.00181

   533    H   55  S      Val( 1S)     0.77238
   534    H   55  S      Ryd( 2S)     0.00179

   535    H   56  S      Val( 1S)     0.75770
   536    H   56  S      Ryd( 2S)     0.00117

   537    H   57  S      Val( 1S)     0.76401
   538    H   57  S      Ryd( 2S)     0.00141

   539    H   58  S      Val( 1S)     0.76779
   540    H   58  S      Ryd( 2S)     0.00185

   541    H   59  S      Val( 1S)     0.73580
   542    H   59  S      Ryd( 2S)     0.00309

   543    H   60  S      Val( 1S)     0.74186
   544    H   60  S      Ryd( 2S)     0.00202

   545    H   61  S      Val( 1S)     0.77799
   546    H   61  S      Ryd( 2S)     0.00188

   547    H   62  S      Val( 1S)     0.76930
   548    H   62  S      Ryd( 2S)     0.00178

   549    H   63  S      Val( 1S)     0.75687
   550    H   63  S      Ryd( 2S)     0.00116

   551    H   64  S      Val( 1S)     0.75968
   552    H   64  S      Ryd( 2S)     0.00116

   553    H   65  S      Val( 1S)     0.77518
   554    H   65  S      Ryd( 2S)     0.00187

   555    H   66  S      Val( 1S)     0.77276
   556    H   66  S      Ryd( 2S)     0.00183

   557    H   67  S      Val( 1S)     0.75992
   558    H   67  S      Ryd( 2S)     0.00121

   559    H   68  S      Val( 1S)     0.75522
   560    H   68  S      Ryd( 2S)     0.00131

   561    H   69  S      Val( 1S)     0.77621
   562    H   69  S      Ryd( 2S)     0.00173

   563    H   70  S      Val( 1S)     0.74593
   564    H   70  S      Ryd( 2S)     0.00297

   565    H   71  S      Val( 1S)     0.73621
   566    H   71  S      Ryd( 2S)     0.00125

   567    H   72  S      Val( 1S)     0.77428
   568    H   72  S      Ryd( 2S)     0.00187

   569    H   73  S      Val( 1S)     0.77187
   570    H   73  S      Ryd( 2S)     0.00179

   571    H   74  S      Val( 1S)     0.75790
   572    H   74  S      Ryd( 2S)     0.00115

   573    H   75  S      Val( 1S)     0.76065
   574    H   75  S      Ryd( 2S)     0.00115

   575    H   76  S      Val( 1S)     0.77448
   576    H   76  S      Ryd( 2S)     0.00183

   577    H   77  S      Val( 1S)     0.77306
   578    H   77  S      Ryd( 2S)     0.00180

   579    H   78  S      Val( 1S)     0.75946
   580    H   78  S      Ryd( 2S)     0.00123

   581    H   79  S      Val( 1S)     0.76334
   582    H   79  S      Ryd( 2S)     0.00150

   583    H   80  S      Val( 1S)     0.77020
   584    H   80  S      Ryd( 2S)     0.00190

 WARNING:  1 low occupancy (<1.9990e) core orbital  found on  P    7
           1 low occupancy (<1.9990e) core orbital  found on  C    8
           1 low occupancy (<1.9990e) core orbital  found on  C    9
           1 low occupancy (<1.9990e) core orbital  found on  C   13
           1 low occupancy (<1.9990e) core orbital  found on  P   14


 Summary of Natural Population Analysis:                  
                                                          
                                       Natural Population 
                Natural  -----------------------------------------------
    Atom  No    Charge         Core      Valence    Rydberg      Total
 -----------------------------------------------------------------------
      C    1   -0.45887      1.99933     4.44812    0.01142     6.45887
      C    2   -0.45579      1.99933     4.44435    0.01212     6.45579
      C    3   -0.46298      1.99930     4.45098    0.01270     6.46298
      C    4   -0.55319      1.99920     4.53561    0.01837     6.55319
      C    5   -0.46240      1.99929     4.44926    0.01385     6.46240
      C    6   -0.45491      1.99932     4.44361    0.01198     6.45491
      P    7    1.05657      9.99800     3.90158    0.04385    13.94343
      C    8   -0.51283      1.99884     4.48806    0.02593     6.51283
      C    9   -0.24240      1.99899     4.22611    0.01730     6.24240
      C   10   -0.26105      1.99907     4.24587    0.01611     6.26105
      C   11   -0.34512      1.99907     4.32810    0.01795     6.34512
      C   12   -0.21653      1.99901     4.20160    0.01592     6.21653
      C   13   -0.44229      1.99881     4.41816    0.02532     6.44229
      P   14    1.10689      9.99797     3.85604    0.03910    13.89311
      C   15   -0.55567      1.99921     4.54097    0.01549     6.55567
      C   16   -0.46736      1.99930     4.45455    0.01352     6.46736
      C   17   -0.45661      1.99933     4.44511    0.01217     6.45661
      C   18   -0.45973      1.99933     4.44889    0.01152     6.45973
      C   19   -0.45590      1.99933     4.44444    0.01214     6.45590
      C   20   -0.46084      1.99930     4.44901    0.01252     6.46084
      C   21   -0.55136      1.99920     4.53413    0.01803     6.55136
      C   22   -0.46547      1.99927     4.45244    0.01376     6.46547
      C   23   -0.45331      1.99932     4.44185    0.01213     6.45331
      C   24   -0.46006      1.99933     4.44928    0.01146     6.46006
      C   25   -0.45628      1.99933     4.44471    0.01224     6.45628
      C   26   -0.46034      1.99929     4.44856    0.01249     6.46034
      C   27   -0.55098      1.99921     4.53469    0.01708     6.55098
      C   28   -0.46736      1.99930     4.45420    0.01386     6.46736
      C   29   -0.45609      1.99933     4.44467    0.01209     6.45609
      C   30   -0.45946      1.99933     4.44865    0.01148     6.45946
      C   31   -0.45548      1.99933     4.44400    0.01215     6.45548
      C   32   -0.46226      1.99930     4.45050    0.01246     6.46226
      H   33    0.23674      0.00000     0.76209    0.00118     0.76326
      H   34    0.22342      0.00000     0.77473    0.00184     0.77658
      H   35    0.23696      0.00000     0.76171    0.00133     0.76304
      H   36    0.22327      0.00000     0.77489    0.00184     0.77673
      H   37    0.23036      0.00000     0.76759    0.00205     0.76964
      H   38    0.23409      0.00000     0.76470    0.00121     0.76591
      H   39    0.24348      0.00000     0.75329    0.00322     0.75652
      H   40    0.22808      0.00000     0.77013    0.00179     0.77192
      H   41    0.26232      0.00000     0.73626    0.00141     0.73768
      H   42    0.24059      0.00000     0.75824    0.00117     0.75941
      H   43    0.22402      0.00000     0.77416    0.00182     0.77598
      H   44    0.21282      0.00000     0.78580    0.00138     0.78718
      H   45    0.22303      0.00000     0.77610    0.00087     0.77697
      H   46    0.22003      0.00000     0.77919    0.00078     0.77997
      H   47    0.21328      0.00000     0.78533    0.00139     0.78672
      H   48    0.25784      0.00000     0.73956    0.00260     0.74216
      H   49    0.26164      0.00000     0.73697    0.00138     0.73836
      H   50    0.22760      0.00000     0.77059    0.00181     0.77240
      H   51    0.22639      0.00000     0.77182    0.00178     0.77361
      H   52    0.24314      0.00000     0.75573    0.00112     0.75686
      H   53    0.23925      0.00000     0.75960    0.00115     0.76075
      H   54    0.22488      0.00000     0.77331    0.00181     0.77512
      H   55    0.22583      0.00000     0.77238    0.00179     0.77417
      H   56    0.24113      0.00000     0.75770    0.00117     0.75887
      H   57    0.23458      0.00000     0.76401    0.00141     0.76542
      H   58    0.23036      0.00000     0.76779    0.00185     0.76964
      H   59    0.26111      0.00000     0.73580    0.00309     0.73889
      H   60    0.25612      0.00000     0.74186    0.00202     0.74388
      H   61    0.22013      0.00000     0.77799    0.00188     0.77987
      H   62    0.22892      0.00000     0.76930    0.00178     0.77108
      H   63    0.24198      0.00000     0.75687    0.00116     0.75802
      H   64    0.23917      0.00000     0.75968    0.00116     0.76083
      H   65    0.22295      0.00000     0.77518    0.00187     0.77705
      H   66    0.22540      0.00000     0.77276    0.00183     0.77460
      H   67    0.23886      0.00000     0.75992    0.00121     0.76114
      H   68    0.24347      0.00000     0.75522    0.00131     0.75653
      H   69    0.22205      0.00000     0.77621    0.00173     0.77795
      H   70    0.25110      0.00000     0.74593    0.00297     0.74890
      H   71    0.26253      0.00000     0.73621    0.00125     0.73747
      H   72    0.22385      0.00000     0.77428    0.00187     0.77615
      H   73    0.22634      0.00000     0.77187    0.00179     0.77366
      H   74    0.24095      0.00000     0.75790    0.00115     0.75905
      H   75    0.23819      0.00000     0.76065    0.00115     0.76181
      H   76    0.22369      0.00000     0.77448    0.00183     0.77631
      H   77    0.22514      0.00000     0.77306    0.00180     0.77486
      H   78    0.23931      0.00000     0.75946    0.00123     0.76069
      H   79    0.23516      0.00000     0.76334    0.00150     0.76484
      H   80    0.22790      0.00000     0.77020    0.00190     0.77210
 =======================================================================
   * Total *    0.00000     79.97286   177.42997    0.59717   258.00000

                                 Natural Population      
 --------------------------------------------------------
   Core                      79.97286 ( 99.9661% of  80)
   Valence                  177.42997 ( 99.6798% of 178)
   Natural Minimal Basis    257.40283 ( 99.7685% of 258)
   Natural Rydberg Basis      0.59717 (  0.2315% of 258)
 --------------------------------------------------------

    Atom  No          Natural Electron Configuration
 ----------------------------------------------------------------------------
      C    1      [core]2S( 1.03)2p( 3.42)3p( 0.01)
      C    2      [core]2S( 1.03)2p( 3.41)3p( 0.01)
      C    3      [core]2S( 1.03)2p( 3.42)3p( 0.01)
      C    4      [core]2S( 1.07)2p( 3.47)3p( 0.01)
      C    5      [core]2S( 1.03)2p( 3.42)3p( 0.01)
      C    6      [core]2S( 1.03)2p( 3.41)3p( 0.01)
      P    7      [core]3S( 1.35)3p( 2.56)3d( 0.03)4p( 0.01)
      C    8      [core]2S( 0.94)2p( 3.55)3p( 0.02)
      C    9      [core]2S( 0.94)2p( 3.29)3p( 0.01)
      C   10      [core]2S( 0.95)2p( 3.30)3p( 0.01)
      C   11      [core]2S( 0.94)2p( 3.39)3p( 0.01)
      C   12      [core]2S( 0.94)2p( 3.26)3p( 0.01)
      C   13      [core]2S( 0.95)2p( 3.47)3p( 0.02)
      P   14      [core]3S( 1.35)3p( 2.51)3d( 0.03)4p( 0.01)
      C   15      [core]2S( 1.06)2p( 3.48)3p( 0.01)
      C   16      [core]2S( 1.03)2p( 3.43)3p( 0.01)
      C   17      [core]2S( 1.03)2p( 3.41)3p( 0.01)
      C   18      [core]2S( 1.03)2p( 3.42)3p( 0.01)
      C   19      [core]2S( 1.03)2p( 3.41)3p( 0.01)
      C   20      [core]2S( 1.02)2p( 3.42)3p( 0.01)
      C   21      [core]2S( 1.06)2p( 3.47)3p( 0.01)
      C   22      [core]2S( 1.03)2p( 3.43)3p( 0.01)
      C   23      [core]2S( 1.03)2p( 3.41)3p( 0.01)
      C   24      [core]2S( 1.03)2p( 3.42)3p( 0.01)
      C   25      [core]2S( 1.03)2p( 3.41)3p( 0.01)
      C   26      [core]2S( 1.03)2p( 3.42)3p( 0.01)
      C   27      [core]2S( 1.06)2p( 3.47)3p( 0.01)
      C   28      [core]2S( 1.03)2p( 3.43)3p( 0.01)
      C   29      [core]2S( 1.03)2p( 3.41)3p( 0.01)
      C   30      [core]2S( 1.03)2p( 3.42)3p( 0.01)
      C   31      [core]2S( 1.03)2p( 3.41)3p( 0.01)
      C   32      [core]2S( 1.02)2p( 3.43)3p( 0.01)
      H   33            1S( 0.76)
      H   34            1S( 0.77)
      H   35            1S( 0.76)
      H   36            1S( 0.77)
      H   37            1S( 0.77)
      H   38            1S( 0.76)
      H   39            1S( 0.75)
      H   40            1S( 0.77)
      H   41            1S( 0.74)
      H   42            1S( 0.76)
      H   43            1S( 0.77)
      H   44            1S( 0.79)
      H   45            1S( 0.78)
      H   46            1S( 0.78)
      H   47            1S( 0.79)
      H   48            1S( 0.74)
      H   49            1S( 0.74)
      H   50            1S( 0.77)
      H   51            1S( 0.77)
      H   52            1S( 0.76)
      H   53            1S( 0.76)
      H   54            1S( 0.77)
      H   55            1S( 0.77)
      H   56            1S( 0.76)
      H   57            1S( 0.76)
      H   58            1S( 0.77)
      H   59            1S( 0.74)
      H   60            1S( 0.74)
      H   61            1S( 0.78)
      H   62            1S( 0.77)
      H   63            1S( 0.76)
      H   64            1S( 0.76)
      H   65            1S( 0.78)
      H   66            1S( 0.77)
      H   67            1S( 0.76)
      H   68            1S( 0.76)
      H   69            1S( 0.78)
      H   70            1S( 0.75)
      H   71            1S( 0.74)
      H   72            1S( 0.77)
      H   73            1S( 0.77)
      H   74            1S( 0.76)
      H   75            1S( 0.76)
      H   76            1S( 0.77)
      H   77            1S( 0.77)
      H   78            1S( 0.76)
      H   79            1S( 0.76)
      H   80            1S( 0.77)


 NBO analysis skipped by request.
 Leave Link  607 at Mon Oct  4 08:48:27 2021, MaxMem= 3489660928 cpu:     104.9
 (Enter /sw/target/amd/app/gaussian/Gaussian09RevA.02_gcc-4.9.2/g09/l9999.exe)
 1\1\GINC-HERMITE\SP\RTD-B3LYP-FC\6-31G(d)\C30H48P2\JSCHLEINITZ\04-Oct-
 2021\0\\#p TD(NStates=10, Root=1) b3lyp/6-31G* volume pop=NPA density=
 current Geom=AllCheck Guess=Read\\C1CCC(CC1)P(c1ccccc1P(C1CCCCC1)C1CCC
 CC1)C1CCCCC1_conf_0\\0,1\C,0,-1.0147597057,0.4384192667,2.2731424228\C
 ,0,-0.7870097526,-1.0653715404,2.0684551915\C,0,0.3282498675,-1.329212
 9002,1.0435630879\C,0,1.6532269264,-0.6357002206,1.435849375\C,0,1.410
 770697,0.875810613,1.6228800196\C,0,0.294608247,1.1467797722,2.6471080
 274\P,0,2.9817216601,-1.0610576002,0.1328413103\C,0,4.1602573158,0.390
 9082302,0.239303174\C,0,5.0597388572,0.5473161828,1.3058014097\C,0,5.9
 660477429,1.6065606319,1.3549116707\C,0,5.9877829762,2.5358406864,0.31
 82032851\C,0,5.0971619973,2.4018716225,-0.7473702018\C,0,4.1709216127,
 1.3476070524,-0.8111423576\P,0,2.9140119747,1.1881132963,-2.1922556983
 \C,0,2.9349184221,2.9068374004,-2.9867440658\C,0,2.3173645556,3.936314
 7829,-2.01212681\C,0,2.2200205764,5.3384922251,-2.6359966208\C,0,1.431
 1283035,5.3169965278,-3.9522230393\C,0,2.0237514286,4.2951864267,-4.93
 13631458\C,0,2.1265704424,2.8940915937,-4.3040889454\C,0,3.9052813815,
 0.065139529,-3.3674265026\C,0,5.1142559262,0.6965871622,-4.0805393999\
 C,0,5.8859169507,-0.3472853363,-4.9091400132\C,0,4.9671280058,-1.07303
 65526,-5.9025753841\C,0,3.7657284524,-1.7079474201,-5.187129074\C,0,2.
 9835451422,-0.6721932308,-4.3609677438\C,0,3.9643802108,-2.4143818298,
 1.0248489659\C,0,5.2309567305,-2.7751376637,0.2195304421\C,0,6.0224332
 386,-3.9236387688,0.8663451386\C,0,5.1459848688,-5.1661137123,1.074741
 281\C,0,3.8846508979,-4.8210824605,1.8778710804\C,0,3.0918447059,-3.67
 12655833,1.2328317091\H,0,-1.7762300356,0.6095395349,3.0451553291\H,0,
 -1.4081873064,0.8731248895,1.3423230737\H,0,-1.7153336073,-1.552420162
 5,1.7422176684\H,0,-0.5145921541,-1.5259800318,3.0301929097\H,0,0.0163
 086649,-0.9505327201,0.0599717711\H,0,0.4741109408,-2.4089473206,0.921
 1938595\H,0,1.9939767774,-1.0442883887,2.4007236356\H,0,1.1336088403,1
 .3197876207,0.6562673966\H,0,2.3317675674,1.3743452335,1.9417928137\H,
 0,0.1309576636,2.2287194443,2.7374385909\H,0,0.6231497462,0.7979255183
 ,3.6378999598\H,0,5.0553303948,-0.1673895989,2.1235734001\H,0,6.646936
 5978,1.7018135083,2.1969788865\H,0,6.6927744608,3.3632986537,0.3340115
 507\H,0,5.1329735543,3.1388816974,-1.5426901114\H,0,3.9604125991,3.220
 6342134,-3.2294681868\H,0,2.8944726365,3.9829757059,-1.0821919178\H,0,
 1.3092959736,3.5959732999,-1.733205387\H,0,3.2332562279,5.7231765002,-
 2.8260884121\H,0,1.7539074006,6.0302582408,-1.9222576303\H,0,1.4149079
 097,6.3162550404,-4.4062168423\H,0,0.3845563456,5.0513309355,-3.741667
 1563\H,0,3.026651968,4.6272686437,-5.238834598\H,0,1.4187833839,4.2467
 399115,-5.8461995582\H,0,2.5798782059,2.2084338957,-5.0279351129\H,0,1
 .1155176966,2.5109531737,-4.102543457\H,0,4.2908498867,-0.6963802165,-
 2.6741284643\H,0,5.7853819092,1.1604901074,-3.3474608773\H,0,4.7762431
 518,1.4986733492,-4.7520631211\H,0,6.3370975446,-1.084621882,-4.228754
 0213\H,0,6.7166798788,0.1365961727,-5.4397471452\H,0,5.5307646135,-1.8
 369979691,-6.4536378353\H,0,4.6035533151,-0.3528502883,-6.6512020415\H
 ,0,4.1236985975,-2.5048228775,-4.5182587436\H,0,3.0982590159,-2.188255
 0054,-5.9145883546\H,0,2.1689527572,-1.1604498986,-3.8131176461\H,0,2.
 5124040069,0.0458572695,-5.0461148022\H,0,4.2705857097,-2.0603670508,2
 .0209271284\H,0,5.8739950112,-1.8947142381,0.1097043917\H,0,4.93178929
 32,-3.0724673731,-0.7967870296\H,0,6.4172756563,-3.5910945411,1.838078
 2962\H,0,6.8936074698,-4.1698060979,0.2453610203\H,0,5.715543504,-5.95
 68298733,1.579899506\H,0,4.8515155837,-5.5694162369,0.0944247133\H,0,4
 .1738841661,-4.5313478522,2.89916643\H,0,3.2403645917,-5.704489139,1.9
 765071533\H,0,2.2244379153,-3.4366446907,1.860581447\H,0,2.6959728504,
 -4.0017147298,0.2611549168\\Version=AM64L-G09RevA.02\State=1-A\HF=-185
 4.8444067\RMSD=6.490e-09\Dipole=-0.897346,-0.5567914,-0.9146115\Quadru
 pole=-6.0232456,2.5765956,3.44665,-4.2120577,-2.9924936,-7.7636242\PG=
 C01 [X(C30H48P2)]\\@


 ASKING FOR EFFICIENCY AND ADAPTABILITY IN THE SAME PROGRAM IS LIKE
 ASKING FOR A BEAUTIFUL AND MODEST WIFE ...
 WE'LL PROBABLY HAVE TO SETTLE FOR ONE OR THE OTHER.

             -- THE PSYCHOLOGY OF COMPUTER PROGRAMMING
                GERALD M. WEINBERG
 Job cpu time:  1 days 10 hours 41 minutes 39.3 seconds.
 File lengths (MBytes):  RWF=   1079 Int=      0 D2E=      0 Chk=    152 Scr=      1
 Normal termination of Gaussian 09 at Mon Oct  4 08:49:07 2021.
