 Entering Gaussian System, Link 0=g09
 Input=C32H48P2S_1a87_conf_0.com
 Output=C32H48P2S_1a87_conf_0.log
 Initial command:
 /sw/target/amd/app/gaussian/Gaussian09RevA.02_gcc-4.9.2/g09/l1.exe /home/jschleinitz/gaussian/Gau-224536.inp -scrdir=/home/jschleinitz/gaussian/
 Entering Link 1 = /sw/target/amd/app/gaussian/Gaussian09RevA.02_gcc-4.9.2/g09/l1.exe PID=    224570.
  
 Copyright (c) 1988,1990,1992,1993,1995,1998,2003,2009, Gaussian, Inc.
                  All Rights Reserved.
  
 This is part of the Gaussian(R) 09 program.  It is based on
 the Gaussian(R) 03 system (copyright 2003, Gaussian, Inc.),
 the Gaussian(R) 98 system (copyright 1998, Gaussian, Inc.),
 the Gaussian(R) 94 system (copyright 1995, Gaussian, Inc.),
 the Gaussian 92(TM) system (copyright 1992, Gaussian, Inc.),
 the Gaussian 90(TM) system (copyright 1990, Gaussian, Inc.),
 the Gaussian 88(TM) system (copyright 1988, Gaussian, Inc.),
 the Gaussian 86(TM) system (copyright 1986, Carnegie Mellon
 University), and the Gaussian 82(TM) system (copyright 1983,
 Carnegie Mellon University). Gaussian is a federally registered
 trademark of Gaussian, Inc.
  
 This software contains proprietary and confidential information,
 including trade secrets, belonging to Gaussian, Inc.
  
 This software is provided under written license and may be
 used, copied, transmitted, or stored only in accord with that
 written license.
  
 The following legend is applicable only to US Government
 contracts under FAR:
  
                    RESTRICTED RIGHTS LEGEND
  
 Use, reproduction and disclosure by the US Government is
 subject to restrictions as set forth in subparagraphs (a)
 and (c) of the Commercial Computer Software - Restricted
 Rights clause in FAR 52.227-19.
  
 Gaussian, Inc.
 340 Quinnipiac St., Bldg. 40, Wallingford CT 06492
  
  
 ---------------------------------------------------------------
 Warning -- This program may not be used in any manner that
 competes with the business of Gaussian, Inc. or will provide
 assistance to any competitor of Gaussian, Inc.  The licensee
 of this program is prohibited from giving any competitor of
 Gaussian, Inc. access to this program.  By using this program,
 the user acknowledges that Gaussian, Inc. is engaged in the
 business of creating and licensing software in the field of
 computational chemistry and represents and warrants to the
 licensee that it is not a competitor of Gaussian, Inc. and that
 it will not use this program in any manner prohibited above.
 ---------------------------------------------------------------
  

 Cite this work as:
 Gaussian 09, Revision A.02,
 M. J. Frisch, G. W. Trucks, H. B. Schlegel, G. E. Scuseria, 
 M. A. Robb, J. R. Cheeseman, G. Scalmani, V. Barone, B. Mennucci, 
 G. A. Petersson, H. Nakatsuji, M. Caricato, X. Li, H. P. Hratchian, 
 A. F. Izmaylov, J. Bloino, G. Zheng, J. L. Sonnenberg, M. Hada, 
 M. Ehara, K. Toyota, R. Fukuda, J. Hasegawa, M. Ishida, T. Nakajima, 
 Y. Honda, O. Kitao, H. Nakai, T. Vreven, J. A. Montgomery, Jr., 
 J. E. Peralta, F. Ogliaro, M. Bearpark, J. J. Heyd, E. Brothers, 
 K. N. Kudin, V. N. Staroverov, R. Kobayashi, J. Normand, 
 K. Raghavachari, A. Rendell, J. C. Burant, S. S. Iyengar, J. Tomasi, 
 M. Cossi, N. Rega, J. M. Millam, M. Klene, J. E. Knox, J. B. Cross, 
 V. Bakken, C. Adamo, J. Jaramillo, R. Gomperts, R. E. Stratmann, 
 O. Yazyev, A. J. Austin, R. Cammi, C. Pomelli, J. W. Ochterski, 
 R. L. Martin, K. Morokuma, V. G. Zakrzewski, G. A. Voth, 
 P. Salvador, J. J. Dannenberg, S. Dapprich, A. D. Daniels, 
 O. Farkas, J. B. Foresman, J. V. Ortiz, J. Cioslowski, 
 and D. J. Fox, Gaussian, Inc., Wallingford CT, 2009.
 
 ******************************************
 Gaussian 09:  AM64L-G09RevA.02 11-Jun-2009
                 1-Oct-2021 
 ******************************************
 %nproc=13
 Will use up to   13 processors via shared memory.
 %mem=26gb
 %chk=C32H48P2S_1a87_conf_0.chk
 -----------------------------------
 #p opt b3lyp/6-31G* scf=(xqc,tight)
 -----------------------------------
 1/14=-1,18=20,19=15,26=3,38=1/1,3;
 2/9=110,12=2,17=6,18=5,40=1/2;
 3/5=1,6=6,7=1,11=2,16=1,25=1,30=1,71=1,74=-5/1,2,3;
 4//1;
 5/5=2,8=3,13=1,32=2,38=5/2,8;
 6/7=2,8=2,9=2,10=2,28=1/1;
 7//1,2,3,16;
 1/14=-1,18=20,19=15/3(2);
 2/9=110/2;
 99//99;
 2/9=110/2;
 3/5=1,6=6,7=1,11=2,16=1,25=1,30=1,71=1,74=-5/1,2,3;
 4/5=5,16=3/1;
 5/5=2,8=3,13=1,32=2,38=5/2,8;
 7//1,2,3,16;
 1/14=-1,18=20,19=15/3(-5);
 2/9=110/2;
 6/7=2,8=2,9=2,10=2,19=2,28=1/1;
 99/9=1/99;
 Leave Link    1 at Fri Oct  1 23:19:43 2021, MaxMem= 3489660928 cpu:       0.1
 (Enter /sw/target/amd/app/gaussian/Gaussian09RevA.02_gcc-4.9.2/g09/l101.exe)
 --------------------------------------------------------------
 C1CCC(CC1)P(c1c(sc2c1cccc2)P(C1CCCCC1)C1CCCCC1)C1CCCCC1_conf_0
 --------------------------------------------------------------
 Symbolic Z-matrix:
 Charge =  0 Multiplicity = 1
 C                    -1.21626  -0.44874   2.07621 
 C                    -0.51646  -1.79759   1.94135 
 C                     0.59961  -1.76483   0.89001 
 C                     1.61806  -0.65105   1.21081 
 C                     0.87894   0.69664   1.23271 
 C                    -0.22653   0.69251   2.2908 
 P                     3.06989  -0.63955   0.06154 
 C                     4.22891   0.68302   0.57862 
 C                     4.98471   1.40992  -0.33829 
 S                     6.09859   2.45289   0.42113 
 C                     5.55453   2.04684   1.98364 
 C                     4.50603   1.11828   1.95409 
 C                     3.9696    0.77335   3.22966 
 C                     4.47857   1.29826   4.42712 
 C                     5.53536   2.18397   4.40237 
 C                     6.08011   2.5732    3.18422 
 P                     4.88728   1.41497  -2.19442 
 C                     4.41558   3.2601   -2.43983 
 C                     2.94927   3.4323   -1.97489 
 C                     2.3931    4.82898  -2.24511 
 C                     2.51255   5.19291  -3.71682 
 C                     3.96123   5.12616  -4.1584 
 C                     4.58766   3.75485  -3.88505 
 C                     6.72799   1.37203  -2.68795 
 C                     6.92084   1.37166  -4.22063 
 C                     8.38319   1.1831   -4.63057 
 C                     8.94873  -0.1114   -4.06945 
 C                     8.81565  -0.13101  -2.55487 
 C                     7.36717   0.08022  -2.1154 
 C                     3.94959  -2.23145   0.56486 
 C                     4.40662  -2.30999   2.02835 
 C                     5.11959  -3.61979   2.35666 
 C                     6.29881  -3.84562   1.42161 
 C                     5.84328  -3.83169  -0.03306 
 C                     5.11926  -2.53076  -0.38825 
 H                    -1.92432  -0.48314   2.91338 
 H                    -1.80291  -0.25403   1.17122 
 H                    -1.25071  -2.56867   1.68151 
 H                    -0.091    -2.08325   2.91226 
 H                     0.16095  -1.6152   -0.10482 
 H                     1.07793  -2.75014   0.87855 
 H                     1.96236  -0.87284   2.2164 
 H                     0.4379    0.90532   0.24879 
 H                     1.56158   1.52531   1.44974 
 H                    -0.75974   1.64955   2.27239 
 H                     0.2257    0.6003    3.28666 
 H                     3.15852   0.07551   3.33116 
 H                     4.04042   0.99548   5.37418 
 H                     5.93671   2.58293   5.3296 
 H                     6.90762   3.27707   3.15772 
 H                     5.06025   3.88173  -1.80881 
 H                     2.86183   3.23241  -0.90024 
 H                     2.30503   2.70022  -2.48102 
 H                     2.93105   5.5655   -1.63485 
 H                     1.34063   4.86948  -1.94253 
 H                     2.12124   6.20274  -3.88392 
 H                     1.90656   4.50865  -4.32248 
 H                     4.53951   5.89647  -3.63363 
 H                     4.0361    5.35213  -5.22826 
 H                     5.65158   3.87743  -4.09666 
 H                     4.1816    3.0257   -4.59692 
 H                     7.23654   2.24895  -2.2712 
 H                     6.59815   2.30784  -4.6745 
 H                     6.31454   0.58419  -4.68142 
 H                     8.9815    2.03179  -4.27461 
 H                     8.46287   1.17604  -5.72391 
 H                     10.00131  -0.21697  -4.35532 
 H                     8.41168  -0.96477  -4.50168 
 H                     9.45015   0.6495   -2.11814 
 H                     9.17841  -1.09099  -2.1697 
 H                     7.35052   0.08495  -1.02073 
 H                     6.78296  -0.79358  -2.43346 
 H                     3.21382  -3.03102   0.40883 
 H                     3.55873  -2.2116    2.71226 
 H                     5.10884  -1.50214   2.24998 
 H                     4.41483  -4.45601   2.28043 
 H                     5.47263  -3.59172   3.39449 
 H                     6.77999  -4.80151   1.65589 
 H                     7.04963  -3.06134   1.57984 
 H                     5.17662  -4.68441  -0.21229 
 H                     6.71099  -3.96053  -0.68929 
 H                     4.75961  -2.60073  -1.42259 
 H                     5.84591  -1.71209  -0.3571 
 
 NAtoms=     83 NQM=     83 NQMF=      0 NMic=      0 NMicF=      0 NTot=     83.
                    Isotopes and Nuclear Properties:
 (Nuclear quadrupole moments (NQMom) in fm**2, nuclear magnetic moments (NMagM)
  in nuclear magnetons)

  Atom         1           2           3           4           5           6           7           8           9          10
 IAtWgt=          12          12          12          12          12          12          31          12          12          32
 AtmWgt=  12.0000000  12.0000000  12.0000000  12.0000000  12.0000000  12.0000000  30.9737634  12.0000000  12.0000000  31.9720718
 NucSpn=           0           0           0           0           0           0           1           0           0           0
 AtZEff=   0.0000000   0.0000000   0.0000000   0.0000000   0.0000000   0.0000000   0.0000000   0.0000000   0.0000000   0.0000000
 NQMom=    0.0000000   0.0000000   0.0000000   0.0000000   0.0000000   0.0000000   0.0000000   0.0000000   0.0000000   0.0000000
 NMagM=    0.0000000   0.0000000   0.0000000   0.0000000   0.0000000   0.0000000   1.1316000   0.0000000   0.0000000   0.0000000

  Atom        11          12          13          14          15          16          17          18          19          20
 IAtWgt=          12          12          12          12          12          12          31          12          12          12
 AtmWgt=  12.0000000  12.0000000  12.0000000  12.0000000  12.0000000  12.0000000  30.9737634  12.0000000  12.0000000  12.0000000
 NucSpn=           0           0           0           0           0           0           1           0           0           0
 AtZEff=   0.0000000   0.0000000   0.0000000   0.0000000   0.0000000   0.0000000   0.0000000   0.0000000   0.0000000   0.0000000
 NQMom=    0.0000000   0.0000000   0.0000000   0.0000000   0.0000000   0.0000000   0.0000000   0.0000000   0.0000000   0.0000000
 NMagM=    0.0000000   0.0000000   0.0000000   0.0000000   0.0000000   0.0000000   1.1316000   0.0000000   0.0000000   0.0000000

  Atom        21          22          23          24          25          26          27          28          29          30
 IAtWgt=          12          12          12          12          12          12          12          12          12          12
 AtmWgt=  12.0000000  12.0000000  12.0000000  12.0000000  12.0000000  12.0000000  12.0000000  12.0000000  12.0000000  12.0000000
 NucSpn=           0           0           0           0           0           0           0           0           0           0
 AtZEff=   0.0000000   0.0000000   0.0000000   0.0000000   0.0000000   0.0000000   0.0000000   0.0000000   0.0000000   0.0000000
 NQMom=    0.0000000   0.0000000   0.0000000   0.0000000   0.0000000   0.0000000   0.0000000   0.0000000   0.0000000   0.0000000
 NMagM=    0.0000000   0.0000000   0.0000000   0.0000000   0.0000000   0.0000000   0.0000000   0.0000000   0.0000000   0.0000000

  Atom        31          32          33          34          35          36          37          38          39          40
 IAtWgt=          12          12          12          12          12           1           1           1           1           1
 AtmWgt=  12.0000000  12.0000000  12.0000000  12.0000000  12.0000000   1.0078250   1.0078250   1.0078250   1.0078250   1.0078250
 NucSpn=           0           0           0           0           0           1           1           1           1           1
 AtZEff=   0.0000000   0.0000000   0.0000000   0.0000000   0.0000000   0.0000000   0.0000000   0.0000000   0.0000000   0.0000000
 NQMom=    0.0000000   0.0000000   0.0000000   0.0000000   0.0000000   0.0000000   0.0000000   0.0000000   0.0000000   0.0000000
 NMagM=    0.0000000   0.0000000   0.0000000   0.0000000   0.0000000   2.7928460   2.7928460   2.7928460   2.7928460   2.7928460

  Atom        41          42          43          44          45          46          47          48          49          50
 IAtWgt=           1           1           1           1           1           1           1           1           1           1
 AtmWgt=   1.0078250   1.0078250   1.0078250   1.0078250   1.0078250   1.0078250   1.0078250   1.0078250   1.0078250   1.0078250
 NucSpn=           1           1           1           1           1           1           1           1           1           1
 AtZEff=   0.0000000   0.0000000   0.0000000   0.0000000   0.0000000   0.0000000   0.0000000   0.0000000   0.0000000   0.0000000
 NQMom=    0.0000000   0.0000000   0.0000000   0.0000000   0.0000000   0.0000000   0.0000000   0.0000000   0.0000000   0.0000000
 NMagM=    2.7928460   2.7928460   2.7928460   2.7928460   2.7928460   2.7928460   2.7928460   2.7928460   2.7928460   2.7928460

  Atom        51          52          53          54          55          56          57          58          59          60
 IAtWgt=           1           1           1           1           1           1           1           1           1           1
 AtmWgt=   1.0078250   1.0078250   1.0078250   1.0078250   1.0078250   1.0078250   1.0078250   1.0078250   1.0078250   1.0078250
 NucSpn=           1           1           1           1           1           1           1           1           1           1
 AtZEff=   0.0000000   0.0000000   0.0000000   0.0000000   0.0000000   0.0000000   0.0000000   0.0000000   0.0000000   0.0000000
 NQMom=    0.0000000   0.0000000   0.0000000   0.0000000   0.0000000   0.0000000   0.0000000   0.0000000   0.0000000   0.0000000
 NMagM=    2.7928460   2.7928460   2.7928460   2.7928460   2.7928460   2.7928460   2.7928460   2.7928460   2.7928460   2.7928460

  Atom        61          62          63          64          65          66          67          68          69          70
 IAtWgt=           1           1           1           1           1           1           1           1           1           1
 AtmWgt=   1.0078250   1.0078250   1.0078250   1.0078250   1.0078250   1.0078250   1.0078250   1.0078250   1.0078250   1.0078250
 NucSpn=           1           1           1           1           1           1           1           1           1           1
 AtZEff=   0.0000000   0.0000000   0.0000000   0.0000000   0.0000000   0.0000000   0.0000000   0.0000000   0.0000000   0.0000000
 NQMom=    0.0000000   0.0000000   0.0000000   0.0000000   0.0000000   0.0000000   0.0000000   0.0000000   0.0000000   0.0000000
 NMagM=    2.7928460   2.7928460   2.7928460   2.7928460   2.7928460   2.7928460   2.7928460   2.7928460   2.7928460   2.7928460

  Atom        71          72          73          74          75          76          77          78          79          80
 IAtWgt=           1           1           1           1           1           1           1           1           1           1
 AtmWgt=   1.0078250   1.0078250   1.0078250   1.0078250   1.0078250   1.0078250   1.0078250   1.0078250   1.0078250   1.0078250
 NucSpn=           1           1           1           1           1           1           1           1           1           1
 AtZEff=   0.0000000   0.0000000   0.0000000   0.0000000   0.0000000   0.0000000   0.0000000   0.0000000   0.0000000   0.0000000
 NQMom=    0.0000000   0.0000000   0.0000000   0.0000000   0.0000000   0.0000000   0.0000000   0.0000000   0.0000000   0.0000000
 NMagM=    2.7928460   2.7928460   2.7928460   2.7928460   2.7928460   2.7928460   2.7928460   2.7928460   2.7928460   2.7928460

  Atom        81          82          83
 IAtWgt=           1           1           1
 AtmWgt=   1.0078250   1.0078250   1.0078250
 NucSpn=           1           1           1
 AtZEff=   0.0000000   0.0000000   0.0000000
 NQMom=    0.0000000   0.0000000   0.0000000
 NMagM=    2.7928460   2.7928460   2.7928460
 Leave Link  101 at Fri Oct  1 23:19:45 2021, MaxMem= 3489660928 cpu:       0.2
 (Enter /sw/target/amd/app/gaussian/Gaussian09RevA.02_gcc-4.9.2/g09/l103.exe)

 GradGradGradGradGradGradGradGradGradGradGradGradGradGradGradGradGradGrad
 Berny optimization.
 Initialization pass.
                           ----------------------------
                           !    Initial Parameters    !
                           ! (Angstroms and Degrees)  !
 --------------------------                            --------------------------
 ! Name  Definition              Value          Derivative Info.                !
 --------------------------------------------------------------------------------
 ! R1    R(1,2)                  1.5256         estimate D2E/DX2                !
 ! R2    R(1,6)                  1.5258         estimate D2E/DX2                !
 ! R3    R(1,36)                 1.097          estimate D2E/DX2                !
 ! R4    R(1,37)                 1.0959         estimate D2E/DX2                !
 ! R5    R(2,3)                  1.5336         estimate D2E/DX2                !
 ! R6    R(2,38)                 1.096          estimate D2E/DX2                !
 ! R7    R(2,39)                 1.0979         estimate D2E/DX2                !
 ! R8    R(3,4)                  1.5429         estimate D2E/DX2                !
 ! R9    R(3,40)                 1.0975         estimate D2E/DX2                !
 ! R10   R(3,41)                 1.0953         estimate D2E/DX2                !
 ! R11   R(4,5)                  1.5372         estimate D2E/DX2                !
 ! R12   R(4,7)                  1.8517         estimate D2E/DX2                !
 ! R13   R(4,42)                 1.0858         estimate D2E/DX2                !
 ! R14   R(5,6)                  1.5302         estimate D2E/DX2                !
 ! R15   R(5,43)                 1.0983         estimate D2E/DX2                !
 ! R16   R(5,44)                 1.0953         estimate D2E/DX2                !
 ! R17   R(6,45)                 1.0957         estimate D2E/DX2                !
 ! R18   R(6,46)                 1.0976         estimate D2E/DX2                !
 ! R19   R(7,8)                  1.833          estimate D2E/DX2                !
 ! R20   R(7,30)                 1.8872         estimate D2E/DX2                !
 ! R21   R(8,9)                  1.393          estimate D2E/DX2                !
 ! R22   R(8,12)                 1.4691         estimate D2E/DX2                !
 ! R23   R(9,10)                 1.7045         estimate D2E/DX2                !
 ! R24   R(9,17)                 1.8587         estimate D2E/DX2                !
 ! R25   R(10,11)                1.7036         estimate D2E/DX2                !
 ! R26   R(11,12)                1.4009         estimate D2E/DX2                !
 ! R27   R(11,16)                1.4123         estimate D2E/DX2                !
 ! R28   R(12,13)                1.4261         estimate D2E/DX2                !
 ! R29   R(13,14)                1.403          estimate D2E/DX2                !
 ! R30   R(13,47)                1.0748         estimate D2E/DX2                !
 ! R31   R(14,15)                1.3791         estimate D2E/DX2                !
 ! R32   R(14,48)                1.0865         estimate D2E/DX2                !
 ! R33   R(15,16)                1.39           estimate D2E/DX2                !
 ! R34   R(15,49)                1.0863         estimate D2E/DX2                !
 ! R35   R(16,50)                1.0867         estimate D2E/DX2                !
 ! R36   R(17,18)                1.9202         estimate D2E/DX2                !
 ! R37   R(17,24)                1.9062         estimate D2E/DX2                !
 ! R38   R(18,19)                1.5479         estimate D2E/DX2                !
 ! R39   R(18,23)                1.5372         estimate D2E/DX2                !
 ! R40   R(18,51)                1.0955         estimate D2E/DX2                !
 ! R41   R(19,20)                1.5274         estimate D2E/DX2                !
 ! R42   R(19,52)                1.0966         estimate D2E/DX2                !
 ! R43   R(19,53)                1.0987         estimate D2E/DX2                !
 ! R44   R(20,21)                1.5207         estimate D2E/DX2                !
 ! R45   R(20,54)                1.0974         estimate D2E/DX2                !
 ! R46   R(20,55)                1.0959         estimate D2E/DX2                !
 ! R47   R(21,22)                1.516          estimate D2E/DX2                !
 ! R48   R(21,56)                1.0958         estimate D2E/DX2                !
 ! R49   R(21,57)                1.0965         estimate D2E/DX2                !
 ! R50   R(22,23)                1.5322         estimate D2E/DX2                !
 ! R51   R(22,58)                1.0969         estimate D2E/DX2                !
 ! R52   R(22,59)                1.096          estimate D2E/DX2                !
 ! R53   R(23,60)                1.0917         estimate D2E/DX2                !
 ! R54   R(23,61)                1.097          estimate D2E/DX2                !
 ! R55   R(24,25)                1.5448         estimate D2E/DX2                !
 ! R56   R(24,29)                1.5509         estimate D2E/DX2                !
 ! R57   R(24,62)                1.096          estimate D2E/DX2                !
 ! R58   R(25,26)                1.5304         estimate D2E/DX2                !
 ! R59   R(25,63)                1.0893         estimate D2E/DX2                !
 ! R60   R(25,64)                1.0955         estimate D2E/DX2                !
 ! R61   R(26,27)                1.52           estimate D2E/DX2                !
 ! R62   R(26,65)                1.0977         estimate D2E/DX2                !
 ! R63   R(26,66)                1.0963         estimate D2E/DX2                !
 ! R64   R(27,28)                1.5205         estimate D2E/DX2                !
 ! R65   R(27,67)                1.0958         estimate D2E/DX2                !
 ! R66   R(27,68)                1.097          estimate D2E/DX2                !
 ! R67   R(28,29)                1.5284         estimate D2E/DX2                !
 ! R68   R(28,69)                1.0966         estimate D2E/DX2                !
 ! R69   R(28,70)                1.0961         estimate D2E/DX2                !
 ! R70   R(29,71)                1.0948         estimate D2E/DX2                !
 ! R71   R(29,72)                1.0982         estimate D2E/DX2                !
 ! R72   R(30,31)                1.5352         estimate D2E/DX2                !
 ! R73   R(30,35)                1.5382         estimate D2E/DX2                !
 ! R74   R(30,73)                1.0977         estimate D2E/DX2                !
 ! R75   R(31,32)                1.527          estimate D2E/DX2                !
 ! R76   R(31,74)                1.0938         estimate D2E/DX2                !
 ! R77   R(31,75)                1.0931         estimate D2E/DX2                !
 ! R78   R(32,33)                1.5218         estimate D2E/DX2                !
 ! R79   R(32,76)                1.0962         estimate D2E/DX2                !
 ! R80   R(32,77)                1.0966         estimate D2E/DX2                !
 ! R81   R(33,34)                1.5244         estimate D2E/DX2                !
 ! R82   R(33,78)                1.0955         estimate D2E/DX2                !
 ! R83   R(33,79)                1.0972         estimate D2E/DX2                !
 ! R84   R(34,35)                1.5306         estimate D2E/DX2                !
 ! R85   R(34,80)                1.0971         estimate D2E/DX2                !
 ! R86   R(34,81)                1.0955         estimate D2E/DX2                !
 ! R87   R(35,82)                1.0973         estimate D2E/DX2                !
 ! R88   R(35,83)                1.0951         estimate D2E/DX2                !
 ! A1    A(2,1,6)              112.0988         estimate D2E/DX2                !
 ! A2    A(2,1,36)             109.6227         estimate D2E/DX2                !
 ! A3    A(2,1,37)             109.2466         estimate D2E/DX2                !
 ! A4    A(6,1,36)             109.5613         estimate D2E/DX2                !
 ! A5    A(6,1,37)             109.2976         estimate D2E/DX2                !
 ! A6    A(36,1,37)            106.873          estimate D2E/DX2                !
 ! A7    A(1,2,3)              112.0582         estimate D2E/DX2                !
 ! A8    A(1,2,38)             109.6147         estimate D2E/DX2                !
 ! A9    A(1,2,39)             109.2477         estimate D2E/DX2                !
 ! A10   A(3,2,38)             109.8794         estimate D2E/DX2                !
 ! A11   A(3,2,39)             109.2562         estimate D2E/DX2                !
 ! A12   A(38,2,39)            106.6324         estimate D2E/DX2                !
 ! A13   A(2,3,4)              110.6857         estimate D2E/DX2                !
 ! A14   A(2,3,40)             109.4778         estimate D2E/DX2                !
 ! A15   A(2,3,41)             107.8036         estimate D2E/DX2                !
 ! A16   A(4,3,40)             110.7241         estimate D2E/DX2                !
 ! A17   A(4,3,41)             111.3016         estimate D2E/DX2                !
 ! A18   A(40,3,41)            106.7205         estimate D2E/DX2                !
 ! A19   A(3,4,5)              108.5693         estimate D2E/DX2                !
 ! A20   A(3,4,7)              113.1394         estimate D2E/DX2                !
 ! A21   A(3,4,42)             104.7386         estimate D2E/DX2                !
 ! A22   A(5,4,7)              112.3575         estimate D2E/DX2                !
 ! A23   A(5,4,42)             108.5633         estimate D2E/DX2                !
 ! A24   A(7,4,42)             109.1146         estimate D2E/DX2                !
 ! A25   A(4,5,6)              110.7833         estimate D2E/DX2                !
 ! A26   A(4,5,43)             110.2983         estimate D2E/DX2                !
 ! A27   A(4,5,44)             111.496          estimate D2E/DX2                !
 ! A28   A(6,5,43)             109.261          estimate D2E/DX2                !
 ! A29   A(6,5,44)             108.376          estimate D2E/DX2                !
 ! A30   A(43,5,44)            106.5011         estimate D2E/DX2                !
 ! A31   A(1,6,5)              111.924          estimate D2E/DX2                !
 ! A32   A(1,6,45)             109.5893         estimate D2E/DX2                !
 ! A33   A(1,6,46)             109.3913         estimate D2E/DX2                !
 ! A34   A(5,6,45)             109.7299         estimate D2E/DX2                !
 ! A35   A(5,6,46)             109.2653         estimate D2E/DX2                !
 ! A36   A(45,6,46)            106.8052         estimate D2E/DX2                !
 ! A37   A(4,7,8)              108.9752         estimate D2E/DX2                !
 ! A38   A(4,7,30)             101.2281         estimate D2E/DX2                !
 ! A39   A(8,7,30)             103.8073         estimate D2E/DX2                !
 ! A40   A(7,8,9)              122.2704         estimate D2E/DX2                !
 ! A41   A(7,8,12)             126.6683         estimate D2E/DX2                !
 ! A42   A(9,8,12)             111.0594         estimate D2E/DX2                !
 ! A43   A(8,9,10)             112.3721         estimate D2E/DX2                !
 ! A44   A(8,9,17)             129.0733         estimate D2E/DX2                !
 ! A45   A(10,9,17)            118.5235         estimate D2E/DX2                !
 ! A46   A(9,10,11)             93.1007         estimate D2E/DX2                !
 ! A47   A(10,11,12)           112.189          estimate D2E/DX2                !
 ! A48   A(10,11,16)           124.8884         estimate D2E/DX2                !
 ! A49   A(12,11,16)           122.9224         estimate D2E/DX2                !
 ! A50   A(8,12,11)            110.9366         estimate D2E/DX2                !
 ! A51   A(8,12,13)            134.0133         estimate D2E/DX2                !
 ! A52   A(11,12,13)           115.0231         estimate D2E/DX2                !
 ! A53   A(12,13,14)           122.4414         estimate D2E/DX2                !
 ! A54   A(12,13,47)           121.6931         estimate D2E/DX2                !
 ! A55   A(14,13,47)           115.8544         estimate D2E/DX2                !
 ! A56   A(13,14,15)           120.1955         estimate D2E/DX2                !
 ! A57   A(13,14,48)           119.5628         estimate D2E/DX2                !
 ! A58   A(15,14,48)           120.2395         estimate D2E/DX2                !
 ! A59   A(14,15,16)           119.7275         estimate D2E/DX2                !
 ! A60   A(14,15,49)           120.2441         estimate D2E/DX2                !
 ! A61   A(16,15,49)           120.0266         estimate D2E/DX2                !
 ! A62   A(11,16,15)           119.6539         estimate D2E/DX2                !
 ! A63   A(11,16,50)           120.2684         estimate D2E/DX2                !
 ! A64   A(15,16,50)           120.0776         estimate D2E/DX2                !
 ! A65   A(9,17,18)             98.2281         estimate D2E/DX2                !
 ! A66   A(9,17,24)            101.9978         estimate D2E/DX2                !
 ! A67   A(18,17,24)           103.0476         estimate D2E/DX2                !
 ! A68   A(17,18,19)           107.5304         estimate D2E/DX2                !
 ! A69   A(17,18,23)           113.6982         estimate D2E/DX2                !
 ! A70   A(17,18,51)           109.0907         estimate D2E/DX2                !
 ! A71   A(19,18,23)           110.6486         estimate D2E/DX2                !
 ! A72   A(19,18,51)           108.7421         estimate D2E/DX2                !
 ! A73   A(23,18,51)           107.0393         estimate D2E/DX2                !
 ! A74   A(18,19,20)           113.1736         estimate D2E/DX2                !
 ! A75   A(18,19,52)           110.4647         estimate D2E/DX2                !
 ! A76   A(18,19,53)           110.0578         estimate D2E/DX2                !
 ! A77   A(20,19,52)           108.1209         estimate D2E/DX2                !
 ! A78   A(20,19,53)           108.3163         estimate D2E/DX2                !
 ! A79   A(52,19,53)           106.4538         estimate D2E/DX2                !
 ! A80   A(19,20,21)           111.1885         estimate D2E/DX2                !
 ! A81   A(19,20,54)           109.6836         estimate D2E/DX2                !
 ! A82   A(19,20,55)           109.5511         estimate D2E/DX2                !
 ! A83   A(21,20,54)           109.8189         estimate D2E/DX2                !
 ! A84   A(21,20,55)           109.5004         estimate D2E/DX2                !
 ! A85   A(54,20,55)           107.0045         estimate D2E/DX2                !
 ! A86   A(20,21,22)           110.2689         estimate D2E/DX2                !
 ! A87   A(20,21,56)           109.8803         estimate D2E/DX2                !
 ! A88   A(20,21,57)           109.9864         estimate D2E/DX2                !
 ! A89   A(22,21,56)           109.7197         estimate D2E/DX2                !
 ! A90   A(22,21,57)           109.8628         estimate D2E/DX2                !
 ! A91   A(56,21,57)           107.0673         estimate D2E/DX2                !
 ! A92   A(21,22,23)           112.2188         estimate D2E/DX2                !
 ! A93   A(21,22,58)           109.4826         estimate D2E/DX2                !
 ! A94   A(21,22,59)           109.91           estimate D2E/DX2                !
 ! A95   A(23,22,58)           109.1248         estimate D2E/DX2                !
 ! A96   A(23,22,59)           109.3137         estimate D2E/DX2                !
 ! A97   A(58,22,59)           106.6301         estimate D2E/DX2                !
 ! A98   A(18,23,22)           114.2059         estimate D2E/DX2                !
 ! A99   A(18,23,60)           109.1156         estimate D2E/DX2                !
 ! A100  A(18,23,61)           110.7781         estimate D2E/DX2                !
 ! A101  A(22,23,60)           105.2706         estimate D2E/DX2                !
 ! A102  A(22,23,61)           109.1342         estimate D2E/DX2                !
 ! A103  A(60,23,61)           108.0352         estimate D2E/DX2                !
 ! A104  A(17,24,25)           112.1749         estimate D2E/DX2                !
 ! A105  A(17,24,29)           108.7332         estimate D2E/DX2                !
 ! A106  A(17,24,62)           109.3641         estimate D2E/DX2                !
 ! A107  A(25,24,29)           108.3397         estimate D2E/DX2                !
 ! A108  A(25,24,62)           108.6348         estimate D2E/DX2                !
 ! A109  A(29,24,62)           109.5627         estimate D2E/DX2                !
 ! A110  A(24,25,26)           112.6491         estimate D2E/DX2                !
 ! A111  A(24,25,63)           112.0994         estimate D2E/DX2                !
 ! A112  A(24,25,64)           110.391          estimate D2E/DX2                !
 ! A113  A(26,25,63)           106.102          estimate D2E/DX2                !
 ! A114  A(26,25,64)           109.1241         estimate D2E/DX2                !
 ! A115  A(63,25,64)           106.1762         estimate D2E/DX2                !
 ! A116  A(25,26,27)           111.1966         estimate D2E/DX2                !
 ! A117  A(25,26,65)           109.7975         estimate D2E/DX2                !
 ! A118  A(25,26,66)           109.718          estimate D2E/DX2                !
 ! A119  A(27,26,65)           109.63           estimate D2E/DX2                !
 ! A120  A(27,26,66)           109.6122         estimate D2E/DX2                !
 ! A121  A(65,26,66)           106.7847         estimate D2E/DX2                !
 ! A122  A(26,27,28)           110.2508         estimate D2E/DX2                !
 ! A123  A(26,27,67)           110.0672         estimate D2E/DX2                !
 ! A124  A(26,27,68)           109.5652         estimate D2E/DX2                !
 ! A125  A(28,27,67)           110.0406         estimate D2E/DX2                !
 ! A126  A(28,27,68)           109.8513         estimate D2E/DX2                !
 ! A127  A(67,27,68)           107.0087         estimate D2E/DX2                !
 ! A128  A(27,28,29)           111.5667         estimate D2E/DX2                !
 ! A129  A(27,28,69)           109.6868         estimate D2E/DX2                !
 ! A130  A(27,28,70)           109.411          estimate D2E/DX2                !
 ! A131  A(29,28,69)           109.602          estimate D2E/DX2                !
 ! A132  A(29,28,70)           109.4906         estimate D2E/DX2                !
 ! A133  A(69,28,70)           106.9726         estimate D2E/DX2                !
 ! A134  A(24,29,28)           113.5515         estimate D2E/DX2                !
 ! A135  A(24,29,71)           111.0557         estimate D2E/DX2                !
 ! A136  A(24,29,72)           109.6699         estimate D2E/DX2                !
 ! A137  A(28,29,71)           107.6089         estimate D2E/DX2                !
 ! A138  A(28,29,72)           108.1153         estimate D2E/DX2                !
 ! A139  A(71,29,72)           106.5551         estimate D2E/DX2                !
 ! A140  A(7,30,31)            115.8604         estimate D2E/DX2                !
 ! A141  A(7,30,35)            110.6918         estimate D2E/DX2                !
 ! A142  A(7,30,73)            105.3116         estimate D2E/DX2                !
 ! A143  A(31,30,35)           110.7536         estimate D2E/DX2                !
 ! A144  A(31,30,73)           107.3239         estimate D2E/DX2                !
 ! A145  A(35,30,73)           106.2524         estimate D2E/DX2                !
 ! A146  A(30,31,32)           112.8203         estimate D2E/DX2                !
 ! A147  A(30,31,74)           111.1431         estimate D2E/DX2                !
 ! A148  A(30,31,75)           110.2873         estimate D2E/DX2                !
 ! A149  A(32,31,74)           107.7377         estimate D2E/DX2                !
 ! A150  A(32,31,75)           106.8809         estimate D2E/DX2                !
 ! A151  A(74,31,75)           107.7429         estimate D2E/DX2                !
 ! A152  A(31,32,33)           110.9148         estimate D2E/DX2                !
 ! A153  A(31,32,76)           109.8273         estimate D2E/DX2                !
 ! A154  A(31,32,77)           109.3806         estimate D2E/DX2                !
 ! A155  A(33,32,76)           110.0133         estimate D2E/DX2                !
 ! A156  A(33,32,77)           109.6237         estimate D2E/DX2                !
 ! A157  A(76,32,77)           106.9968         estimate D2E/DX2                !
 ! A158  A(32,33,34)           110.697          estimate D2E/DX2                !
 ! A159  A(32,33,78)           109.7814         estimate D2E/DX2                !
 ! A160  A(32,33,79)           109.6077         estimate D2E/DX2                !
 ! A161  A(34,33,78)           110.078          estimate D2E/DX2                !
 ! A162  A(34,33,79)           109.6074         estimate D2E/DX2                !
 ! A163  A(78,33,79)           106.9948         estimate D2E/DX2                !
 ! A164  A(33,34,35)           111.75           estimate D2E/DX2                !
 ! A165  A(33,34,80)           109.2911         estimate D2E/DX2                !
 ! A166  A(33,34,81)           109.5031         estimate D2E/DX2                !
 ! A167  A(35,34,80)           109.5879         estimate D2E/DX2                !
 ! A168  A(35,34,81)           109.61           estimate D2E/DX2                !
 ! A169  A(80,34,81)           106.9795         estimate D2E/DX2                !
 ! A170  A(30,35,34)           112.4135         estimate D2E/DX2                !
 ! A171  A(30,35,82)           110.3189         estimate D2E/DX2                !
 ! A172  A(30,35,83)           109.967          estimate D2E/DX2                !
 ! A173  A(34,35,82)           108.6373         estimate D2E/DX2                !
 ! A174  A(34,35,83)           108.3558         estimate D2E/DX2                !
 ! A175  A(82,35,83)           106.9757         estimate D2E/DX2                !
 ! D1    D(6,1,2,3)            -51.6415         estimate D2E/DX2                !
 ! D2    D(6,1,2,38)          -173.9112         estimate D2E/DX2                !
 ! D3    D(6,1,2,39)            69.5831         estimate D2E/DX2                !
 ! D4    D(36,1,2,3)          -173.5393         estimate D2E/DX2                !
 ! D5    D(36,1,2,38)           64.1911         estimate D2E/DX2                !
 ! D6    D(36,1,2,39)          -52.3147         estimate D2E/DX2                !
 ! D7    D(37,1,2,3)            69.6612         estimate D2E/DX2                !
 ! D8    D(37,1,2,38)          -52.6085         estimate D2E/DX2                !
 ! D9    D(37,1,2,39)         -169.1142         estimate D2E/DX2                !
 ! D10   D(2,1,6,5)             51.8798         estimate D2E/DX2                !
 ! D11   D(2,1,6,45)           173.8511         estimate D2E/DX2                !
 ! D12   D(2,1,6,46)           -69.3668         estimate D2E/DX2                !
 ! D13   D(36,1,6,5)           173.8126         estimate D2E/DX2                !
 ! D14   D(36,1,6,45)          -64.216          estimate D2E/DX2                !
 ! D15   D(36,1,6,46)           52.5661         estimate D2E/DX2                !
 ! D16   D(37,1,6,5)           -69.3936         estimate D2E/DX2                !
 ! D17   D(37,1,6,45)           52.5778         estimate D2E/DX2                !
 ! D18   D(37,1,6,46)          169.3599         estimate D2E/DX2                !
 ! D19   D(1,2,3,4)             55.8686         estimate D2E/DX2                !
 ! D20   D(1,2,3,40)           -66.459          estimate D2E/DX2                !
 ! D21   D(1,2,3,41)           177.8131         estimate D2E/DX2                !
 ! D22   D(38,2,3,4)           177.9873         estimate D2E/DX2                !
 ! D23   D(38,2,3,40)           55.6597         estimate D2E/DX2                !
 ! D24   D(38,2,3,41)          -60.0682         estimate D2E/DX2                !
 ! D25   D(39,2,3,4)           -65.3511         estimate D2E/DX2                !
 ! D26   D(39,2,3,40)          172.3213         estimate D2E/DX2                !
 ! D27   D(39,2,3,41)           56.5934         estimate D2E/DX2                !
 ! D28   D(2,3,4,5)            -59.2494         estimate D2E/DX2                !
 ! D29   D(2,3,4,7)            175.3039         estimate D2E/DX2                !
 ! D30   D(2,3,4,42)            56.5764         estimate D2E/DX2                !
 ! D31   D(40,3,4,5)            62.3472         estimate D2E/DX2                !
 ! D32   D(40,3,4,7)           -63.0995         estimate D2E/DX2                !
 ! D33   D(40,3,4,42)          178.173          estimate D2E/DX2                !
 ! D34   D(41,3,4,5)          -179.1183         estimate D2E/DX2                !
 ! D35   D(41,3,4,7)            55.435          estimate D2E/DX2                !
 ! D36   D(41,3,4,42)          -63.2924         estimate D2E/DX2                !
 ! D37   D(3,4,5,6)             59.6338         estimate D2E/DX2                !
 ! D38   D(3,4,5,43)           -61.4689         estimate D2E/DX2                !
 ! D39   D(3,4,5,44)          -179.5778         estimate D2E/DX2                !
 ! D40   D(7,4,5,6)           -174.4628         estimate D2E/DX2                !
 ! D41   D(7,4,5,43)            64.4345         estimate D2E/DX2                !
 ! D42   D(7,4,5,44)           -53.6744         estimate D2E/DX2                !
 ! D43   D(42,4,5,6)           -53.6902         estimate D2E/DX2                !
 ! D44   D(42,4,5,43)         -174.7928         estimate D2E/DX2                !
 ! D45   D(42,4,5,44)           67.0983         estimate D2E/DX2                !
 ! D46   D(3,4,7,8)           -178.0629         estimate D2E/DX2                !
 ! D47   D(3,4,7,30)           -69.0638         estimate D2E/DX2                !
 ! D48   D(5,4,7,8)             58.5543         estimate D2E/DX2                !
 ! D49   D(5,4,7,30)           167.5534         estimate D2E/DX2                !
 ! D50   D(42,4,7,8)           -61.9005         estimate D2E/DX2                !
 ! D51   D(42,4,7,30)           47.0986         estimate D2E/DX2                !
 ! D52   D(4,5,6,1)            -56.5279         estimate D2E/DX2                !
 ! D53   D(4,5,6,45)          -178.4186         estimate D2E/DX2                !
 ! D54   D(4,5,6,46)            64.7915         estimate D2E/DX2                !
 ! D55   D(43,5,6,1)            65.1857         estimate D2E/DX2                !
 ! D56   D(43,5,6,45)          -56.705          estimate D2E/DX2                !
 ! D57   D(43,5,6,46)         -173.4949         estimate D2E/DX2                !
 ! D58   D(44,5,6,1)          -179.1486         estimate D2E/DX2                !
 ! D59   D(44,5,6,45)           58.9607         estimate D2E/DX2                !
 ! D60   D(44,5,6,46)          -57.8292         estimate D2E/DX2                !
 ! D61   D(4,7,8,9)           -146.0903         estimate D2E/DX2                !
 ! D62   D(4,7,8,12)            34.4424         estimate D2E/DX2                !
 ! D63   D(30,7,8,9)           106.6602         estimate D2E/DX2                !
 ! D64   D(30,7,8,12)          -72.8072         estimate D2E/DX2                !
 ! D65   D(4,7,30,31)          -59.8362         estimate D2E/DX2                !
 ! D66   D(4,7,30,35)          173.0056         estimate D2E/DX2                !
 ! D67   D(4,7,30,73)           58.5752         estimate D2E/DX2                !
 ! D68   D(8,7,30,31)           53.1279         estimate D2E/DX2                !
 ! D69   D(8,7,30,35)          -74.0303         estimate D2E/DX2                !
 ! D70   D(8,7,30,73)          171.5393         estimate D2E/DX2                !
 ! D71   D(7,8,9,10)          -173.7108         estimate D2E/DX2                !
 ! D72   D(7,8,9,17)             8.3747         estimate D2E/DX2                !
 ! D73   D(12,8,9,10)            5.8313         estimate D2E/DX2                !
 ! D74   D(12,8,9,17)         -172.0831         estimate D2E/DX2                !
 ! D75   D(7,8,12,11)          173.3302         estimate D2E/DX2                !
 ! D76   D(7,8,12,13)           -4.626          estimate D2E/DX2                !
 ! D77   D(9,8,12,11)           -6.1872         estimate D2E/DX2                !
 ! D78   D(9,8,12,13)          175.8566         estimate D2E/DX2                !
 ! D79   D(8,9,10,11)           -3.1661         estimate D2E/DX2                !
 ! D80   D(17,9,10,11)         174.9912         estimate D2E/DX2                !
 ! D81   D(8,9,17,18)          118.1141         estimate D2E/DX2                !
 ! D82   D(8,9,17,24)         -136.5822         estimate D2E/DX2                !
 ! D83   D(10,9,17,18)         -59.6908         estimate D2E/DX2                !
 ! D84   D(10,9,17,24)          45.6128         estimate D2E/DX2                !
 ! D85   D(9,10,11,12)          -0.5433         estimate D2E/DX2                !
 ! D86   D(9,10,11,16)         179.6032         estimate D2E/DX2                !
 ! D87   D(10,11,12,8)           3.8848         estimate D2E/DX2                !
 ! D88   D(10,11,12,13)       -177.7372         estimate D2E/DX2                !
 ! D89   D(16,11,12,8)        -176.2584         estimate D2E/DX2                !
 ! D90   D(16,11,12,13)          2.1196         estimate D2E/DX2                !
 ! D91   D(10,11,16,15)        178.7782         estimate D2E/DX2                !
 ! D92   D(10,11,16,50)         -1.3692         estimate D2E/DX2                !
 ! D93   D(12,11,16,15)         -1.0602         estimate D2E/DX2                !
 ! D94   D(12,11,16,50)        178.7924         estimate D2E/DX2                !
 ! D95   D(8,12,13,14)         176.2609         estimate D2E/DX2                !
 ! D96   D(8,12,13,47)          -2.4779         estimate D2E/DX2                !
 ! D97   D(11,12,13,14)         -1.6324         estimate D2E/DX2                !
 ! D98   D(11,12,13,47)        179.6288         estimate D2E/DX2                !
 ! D99   D(12,13,14,15)          0.0712         estimate D2E/DX2                !
 ! D100  D(12,13,14,48)       -179.3854         estimate D2E/DX2                !
 ! D101  D(47,13,14,15)        178.8788         estimate D2E/DX2                !
 ! D102  D(47,13,14,48)         -0.5779         estimate D2E/DX2                !
 ! D103  D(13,14,15,16)          1.1129         estimate D2E/DX2                !
 ! D104  D(13,14,15,49)       -179.3669         estimate D2E/DX2                !
 ! D105  D(48,14,15,16)       -179.4342         estimate D2E/DX2                !
 ! D106  D(48,14,15,49)          0.0861         estimate D2E/DX2                !
 ! D107  D(14,15,16,11)         -0.6468         estimate D2E/DX2                !
 ! D108  D(14,15,16,50)        179.5003         estimate D2E/DX2                !
 ! D109  D(49,15,16,11)        179.8319         estimate D2E/DX2                !
 ! D110  D(49,15,16,50)         -0.021          estimate D2E/DX2                !
 ! D111  D(9,17,18,19)         -71.9056         estimate D2E/DX2                !
 ! D112  D(9,17,18,23)         165.2393         estimate D2E/DX2                !
 ! D113  D(9,17,18,51)          45.8626         estimate D2E/DX2                !
 ! D114  D(24,17,18,19)       -176.3306         estimate D2E/DX2                !
 ! D115  D(24,17,18,23)         60.8143         estimate D2E/DX2                !
 ! D116  D(24,17,18,51)        -58.5625         estimate D2E/DX2                !
 ! D117  D(9,17,24,25)        -179.9222         estimate D2E/DX2                !
 ! D118  D(9,17,24,29)          60.2753         estimate D2E/DX2                !
 ! D119  D(9,17,24,62)         -59.3255         estimate D2E/DX2                !
 ! D120  D(18,17,24,25)        -78.4181         estimate D2E/DX2                !
 ! D121  D(18,17,24,29)        161.7794         estimate D2E/DX2                !
 ! D122  D(18,17,24,62)         42.1785         estimate D2E/DX2                !
 ! D123  D(17,18,19,20)       -174.2186         estimate D2E/DX2                !
 ! D124  D(17,18,19,52)         64.3919         estimate D2E/DX2                !
 ! D125  D(17,18,19,53)        -52.8725         estimate D2E/DX2                !
 ! D126  D(23,18,19,20)        -49.5055         estimate D2E/DX2                !
 ! D127  D(23,18,19,52)       -170.895          estimate D2E/DX2                !
 ! D128  D(23,18,19,53)         71.8406         estimate D2E/DX2                !
 ! D129  D(51,18,19,20)         67.7875         estimate D2E/DX2                !
 ! D130  D(51,18,19,52)        -53.602          estimate D2E/DX2                !
 ! D131  D(51,18,19,53)       -170.8665         estimate D2E/DX2                !
 ! D132  D(17,18,23,22)        168.5125         estimate D2E/DX2                !
 ! D133  D(17,18,23,60)        -74.0085         estimate D2E/DX2                !
 ! D134  D(17,18,23,61)         44.8054         estimate D2E/DX2                !
 ! D135  D(19,18,23,22)         47.3852         estimate D2E/DX2                !
 ! D136  D(19,18,23,60)        164.8642         estimate D2E/DX2                !
 ! D137  D(19,18,23,61)        -76.3218         estimate D2E/DX2                !
 ! D138  D(51,18,23,22)        -70.9498         estimate D2E/DX2                !
 ! D139  D(51,18,23,60)         46.5292         estimate D2E/DX2                !
 ! D140  D(51,18,23,61)        165.3432         estimate D2E/DX2                !
 ! D141  D(18,19,20,21)         55.8878         estimate D2E/DX2                !
 ! D142  D(18,19,20,54)        -65.7717         estimate D2E/DX2                !
 ! D143  D(18,19,20,55)        177.058          estimate D2E/DX2                !
 ! D144  D(52,19,20,21)        178.5881         estimate D2E/DX2                !
 ! D145  D(52,19,20,54)         56.9286         estimate D2E/DX2                !
 ! D146  D(52,19,20,55)        -60.2416         estimate D2E/DX2                !
 ! D147  D(53,19,20,21)        -66.4345         estimate D2E/DX2                !
 ! D148  D(53,19,20,54)        171.906          estimate D2E/DX2                !
 ! D149  D(53,19,20,55)         54.7358         estimate D2E/DX2                !
 ! D150  D(19,20,21,22)        -58.1231         estimate D2E/DX2                !
 ! D151  D(19,20,21,56)       -179.1891         estimate D2E/DX2                !
 ! D152  D(19,20,21,57)         63.1905         estimate D2E/DX2                !
 ! D153  D(54,20,21,22)         63.4575         estimate D2E/DX2                !
 ! D154  D(54,20,21,56)        -57.6086         estimate D2E/DX2                !
 ! D155  D(54,20,21,57)       -175.2289         estimate D2E/DX2                !
 ! D156  D(55,20,21,22)       -179.3231         estimate D2E/DX2                !
 ! D157  D(55,20,21,56)         59.6109         estimate D2E/DX2                !
 ! D158  D(55,20,21,57)        -58.0095         estimate D2E/DX2                !
 ! D159  D(20,21,22,23)         55.9912         estimate D2E/DX2                !
 ! D160  D(20,21,22,58)        -65.335          estimate D2E/DX2                !
 ! D161  D(20,21,22,59)        177.8567         estimate D2E/DX2                !
 ! D162  D(56,21,22,23)        177.153          estimate D2E/DX2                !
 ! D163  D(56,21,22,58)         55.8268         estimate D2E/DX2                !
 ! D164  D(56,21,22,59)        -60.9815         estimate D2E/DX2                !
 ! D165  D(57,21,22,23)        -65.3959         estimate D2E/DX2                !
 ! D166  D(57,21,22,58)        173.2779         estimate D2E/DX2                !
 ! D167  D(57,21,22,59)         56.4696         estimate D2E/DX2                !
 ! D168  D(21,22,23,18)        -51.8391         estimate D2E/DX2                !
 ! D169  D(21,22,23,60)       -171.5034         estimate D2E/DX2                !
 ! D170  D(21,22,23,61)         72.748          estimate D2E/DX2                !
 ! D171  D(58,22,23,18)         69.6921         estimate D2E/DX2                !
 ! D172  D(58,22,23,60)        -49.9722         estimate D2E/DX2                !
 ! D173  D(58,22,23,61)       -165.7208         estimate D2E/DX2                !
 ! D174  D(59,22,23,18)       -174.0442         estimate D2E/DX2                !
 ! D175  D(59,22,23,60)         66.2915         estimate D2E/DX2                !
 ! D176  D(59,22,23,61)        -49.4571         estimate D2E/DX2                !
 ! D177  D(17,24,25,26)       -173.7219         estimate D2E/DX2                !
 ! D178  D(17,24,25,63)         66.6886         estimate D2E/DX2                !
 ! D179  D(17,24,25,64)        -51.4573         estimate D2E/DX2                !
 ! D180  D(29,24,25,26)        -53.6901         estimate D2E/DX2                !
 ! D181  D(29,24,25,63)       -173.2796         estimate D2E/DX2                !
 ! D182  D(29,24,25,64)         68.5745         estimate D2E/DX2                !
 ! D183  D(62,24,25,26)         65.2604         estimate D2E/DX2                !
 ! D184  D(62,24,25,63)        -54.3292         estimate D2E/DX2                !
 ! D185  D(62,24,25,64)       -172.475          estimate D2E/DX2                !
 ! D186  D(17,24,29,28)        174.6887         estimate D2E/DX2                !
 ! D187  D(17,24,29,71)        -63.8835         estimate D2E/DX2                !
 ! D188  D(17,24,29,72)         53.6237         estimate D2E/DX2                !
 ! D189  D(25,24,29,28)         52.5283         estimate D2E/DX2                !
 ! D190  D(25,24,29,71)        173.9561         estimate D2E/DX2                !
 ! D191  D(25,24,29,72)        -68.5368         estimate D2E/DX2                !
 ! D192  D(62,24,29,28)        -65.8343         estimate D2E/DX2                !
 ! D193  D(62,24,29,71)         55.5936         estimate D2E/DX2                !
 ! D194  D(62,24,29,72)        173.1007         estimate D2E/DX2                !
 ! D195  D(24,25,26,27)         57.7728         estimate D2E/DX2                !
 ! D196  D(24,25,26,65)        -63.7311         estimate D2E/DX2                !
 ! D197  D(24,25,26,66)        179.2007         estimate D2E/DX2                !
 ! D198  D(63,25,26,27)       -179.2196         estimate D2E/DX2                !
 ! D199  D(63,25,26,65)         59.2765         estimate D2E/DX2                !
 ! D200  D(63,25,26,66)        -57.7916         estimate D2E/DX2                !
 ! D201  D(64,25,26,27)        -65.2029         estimate D2E/DX2                !
 ! D202  D(64,25,26,65)        173.2933         estimate D2E/DX2                !
 ! D203  D(64,25,26,66)         56.2251         estimate D2E/DX2                !
 ! D204  D(25,26,27,28)        -57.187          estimate D2E/DX2                !
 ! D205  D(25,26,27,67)       -178.764          estimate D2E/DX2                !
 ! D206  D(25,26,27,68)         63.8275         estimate D2E/DX2                !
 ! D207  D(65,26,27,28)         64.4146         estimate D2E/DX2                !
 ! D208  D(65,26,27,67)        -57.1624         estimate D2E/DX2                !
 ! D209  D(65,26,27,68)       -174.571          estimate D2E/DX2                !
 ! D210  D(66,26,27,28)       -178.6767         estimate D2E/DX2                !
 ! D211  D(66,26,27,67)         59.7463         estimate D2E/DX2                !
 ! D212  D(66,26,27,68)        -57.6623         estimate D2E/DX2                !
 ! D213  D(26,27,28,29)         55.7217         estimate D2E/DX2                !
 ! D214  D(26,27,28,69)        -65.9164         estimate D2E/DX2                !
 ! D215  D(26,27,28,70)        177.0317         estimate D2E/DX2                !
 ! D216  D(67,27,28,29)        177.3145         estimate D2E/DX2                !
 ! D217  D(67,27,28,69)         55.6763         estimate D2E/DX2                !
 ! D218  D(67,27,28,70)        -61.3756         estimate D2E/DX2                !
 ! D219  D(68,27,28,29)        -65.1216         estimate D2E/DX2                !
 ! D220  D(68,27,28,69)        173.2402         estimate D2E/DX2                !
 ! D221  D(68,27,28,70)         56.1883         estimate D2E/DX2                !
 ! D222  D(27,28,29,24)        -54.9755         estimate D2E/DX2                !
 ! D223  D(27,28,29,71)       -178.3105         estimate D2E/DX2                !
 ! D224  D(27,28,29,72)         66.9579         estimate D2E/DX2                !
 ! D225  D(69,28,29,24)         66.7118         estimate D2E/DX2                !
 ! D226  D(69,28,29,71)        -56.6232         estimate D2E/DX2                !
 ! D227  D(69,28,29,72)       -171.3548         estimate D2E/DX2                !
 ! D228  D(70,28,29,24)       -176.2392         estimate D2E/DX2                !
 ! D229  D(70,28,29,71)         60.4258         estimate D2E/DX2                !
 ! D230  D(70,28,29,72)        -54.3058         estimate D2E/DX2                !
 ! D231  D(7,30,31,32)        -179.5055         estimate D2E/DX2                !
 ! D232  D(7,30,31,74)          59.3554         estimate D2E/DX2                !
 ! D233  D(7,30,31,75)         -60.0713         estimate D2E/DX2                !
 ! D234  D(35,30,31,32)        -52.3782         estimate D2E/DX2                !
 ! D235  D(35,30,31,74)       -173.5173         estimate D2E/DX2                !
 ! D236  D(35,30,31,75)         67.056          estimate D2E/DX2                !
 ! D237  D(73,30,31,32)         63.198          estimate D2E/DX2                !
 ! D238  D(73,30,31,74)        -57.9411         estimate D2E/DX2                !
 ! D239  D(73,30,31,75)       -177.3678         estimate D2E/DX2                !
 ! D240  D(7,30,35,34)        -178.7889         estimate D2E/DX2                !
 ! D241  D(7,30,35,82)         -57.366          estimate D2E/DX2                !
 ! D242  D(7,30,35,83)          60.3948         estimate D2E/DX2                !
 ! D243  D(31,30,35,34)         51.2897         estimate D2E/DX2                !
 ! D244  D(31,30,35,82)        172.7126         estimate D2E/DX2                !
 ! D245  D(31,30,35,83)        -69.5266         estimate D2E/DX2                !
 ! D246  D(73,30,35,34)        -64.952          estimate D2E/DX2                !
 ! D247  D(73,30,35,82)         56.4709         estimate D2E/DX2                !
 ! D248  D(73,30,35,83)        174.2317         estimate D2E/DX2                !
 ! D249  D(30,31,32,33)         55.642          estimate D2E/DX2                !
 ! D250  D(30,31,32,76)        -66.1784         estimate D2E/DX2                !
 ! D251  D(30,31,32,77)        176.6769         estimate D2E/DX2                !
 ! D252  D(74,31,32,33)        178.6977         estimate D2E/DX2                !
 ! D253  D(74,31,32,76)         56.8773         estimate D2E/DX2                !
 ! D254  D(74,31,32,77)        -60.2675         estimate D2E/DX2                !
 ! D255  D(75,31,32,33)        -65.744          estimate D2E/DX2                !
 ! D256  D(75,31,32,76)        172.4356         estimate D2E/DX2                !
 ! D257  D(75,31,32,77)         55.2909         estimate D2E/DX2                !
 ! D258  D(31,32,33,34)        -56.7826         estimate D2E/DX2                !
 ! D259  D(31,32,33,78)       -178.5099         estimate D2E/DX2                !
 ! D260  D(31,32,33,79)         64.2412         estimate D2E/DX2                !
 ! D261  D(76,32,33,34)         64.9289         estimate D2E/DX2                !
 ! D262  D(76,32,33,78)        -56.7984         estimate D2E/DX2                !
 ! D263  D(76,32,33,79)       -174.0472         estimate D2E/DX2                !
 ! D264  D(77,32,33,34)       -177.6739         estimate D2E/DX2                !
 ! D265  D(77,32,33,78)         60.5987         estimate D2E/DX2                !
 ! D266  D(77,32,33,79)        -56.6501         estimate D2E/DX2                !
 ! D267  D(32,33,34,35)         56.3821         estimate D2E/DX2                !
 ! D268  D(32,33,34,80)        -65.0887         estimate D2E/DX2                !
 ! D269  D(32,33,34,81)        178.026          estimate D2E/DX2                !
 ! D270  D(78,33,34,35)        177.9349         estimate D2E/DX2                !
 ! D271  D(78,33,34,80)         56.464          estimate D2E/DX2                !
 ! D272  D(78,33,34,81)        -60.4213         estimate D2E/DX2                !
 ! D273  D(79,33,34,35)        -64.6419         estimate D2E/DX2                !
 ! D274  D(79,33,34,80)        173.8873         estimate D2E/DX2                !
 ! D275  D(79,33,34,81)         57.002          estimate D2E/DX2                !
 ! D276  D(33,34,35,30)        -54.0933         estimate D2E/DX2                !
 ! D277  D(33,34,35,82)       -176.4718         estimate D2E/DX2                !
 ! D278  D(33,34,35,83)         67.6446         estimate D2E/DX2                !
 ! D279  D(80,34,35,30)         67.2059         estimate D2E/DX2                !
 ! D280  D(80,34,35,82)        -55.1726         estimate D2E/DX2                !
 ! D281  D(80,34,35,83)       -171.0562         estimate D2E/DX2                !
 ! D282  D(81,34,35,30)       -175.6754         estimate D2E/DX2                !
 ! D283  D(81,34,35,82)         61.9461         estimate D2E/DX2                !
 ! D284  D(81,34,35,83)        -53.9375         estimate D2E/DX2                !
 --------------------------------------------------------------------------------
 Trust Radius=3.00D-01 FncErr=1.00D-07 GrdErr=1.00D-06
 Number of steps in this run= 498 maximum allowed number of steps= 498.
 GradGradGradGradGradGradGradGradGradGradGradGradGradGradGradGradGradGrad

 Leave Link  103 at Fri Oct  1 23:19:45 2021, MaxMem= 3489660928 cpu:       0.0
 (Enter /sw/target/amd/app/gaussian/Gaussian09RevA.02_gcc-4.9.2/g09/l202.exe)
 Stoichiometry    C32H48P2S
 Framework group  C1[X(C32H48P2S)]
 Deg. of freedom   243
 Full point group                 C1      NOp   1
 Largest Abelian subgroup         C1      NOp   1
 Largest concise Abelian subgroup C1      NOp   1
                         Standard orientation:                         
 ---------------------------------------------------------------------
 Center     Atomic      Atomic             Coordinates (Angstroms)
 Number     Number       Type             X           Y           Z
 ---------------------------------------------------------------------
      1          6           0        5.054866   -3.107906   -1.698842
      2          6           0        5.218189   -1.681021   -2.213264
      3          6           0        3.869112   -0.971018   -2.380212
      4          6           0        3.077406   -0.986683   -1.055967
      5          6           0        2.852043   -2.448606   -0.637622
      6          6           0        4.187586   -3.170323   -0.445038
      7         15           0        1.496181   -0.026953   -1.142126
      8          6           0        0.681051   -0.072661    0.499016
      9          6           0       -0.704515   -0.092707    0.640936
     10         16           0       -1.191883    0.038600    2.268966
     11          6           0        0.411101    0.032418    2.845814
     12          6           0        1.346066   -0.082086    1.808920
     13          6           0        2.707639   -0.144234    2.228540
     14          6           0        3.084015   -0.060726    3.577559
     15          6           0        2.124774    0.085728    4.557505
     16          6           0        0.780663    0.127087    4.205640
     17         15           0       -2.013134   -0.290536   -0.664097
     18          6           0       -2.796899   -1.921809   -0.022295
     19          6           0       -1.792175   -3.064739   -0.305382
     20          6           0       -2.346123   -4.448454    0.028576
     21          6           0       -3.648107   -4.712583   -0.711499
     22          6           0       -4.675041   -3.653669   -0.361908
     23          6           0       -4.166053   -2.236731   -0.646220
     24          6           0       -3.287793    1.030514   -0.150552
     25          6           0       -4.504942    1.066934   -1.101090
     26          6           0       -5.460000    2.222008   -0.791647
     27          6           0       -4.745055    3.561308   -0.866266
     28          6           0       -3.562313    3.580485    0.089135
     29          6           0       -2.603088    2.421697   -0.180971
     30          6           0        2.145535    1.740093   -1.273419
     31          6           0        3.018540    2.221169   -0.105834
     32          6           0        3.495643    3.661538   -0.277341
     33          6           0        2.317715    4.603509   -0.479968
     34          6           0        1.479935    4.168767   -1.676996
     35          6           0        0.992871    2.724775   -1.533967
     36          1           0        6.041279   -3.537543   -1.484877
     37          1           0        4.602418   -3.725166   -2.483288
     38          1           0        5.753523   -1.693695   -3.169546
     39          1           0        5.842156   -1.112446   -1.511345
     40          1           0        3.296585   -1.456655   -3.180751
     41          1           0        4.068680    0.053469   -2.712404
     42          1           0        3.738664   -0.518333   -0.333233
     43          1           0        2.261687   -2.976046   -1.398842
     44          1           0        2.285298   -2.515747    0.297297
     45          1           0        4.006979   -4.216769   -0.174996
     46          1           0        4.727725   -2.714551    0.394761
     47          1           0        3.512372   -0.238633    1.522407
     48          1           0        4.136506   -0.103292    3.844089
     49          1           0        2.415970    0.160774    5.601333
     50          1           0        0.019613    0.234157    4.973915
     51          1           0       -2.947321   -1.845433    1.060169
     52          1           0       -0.871469   -2.917550    0.271772
     53          1           0       -1.500243   -3.056095   -1.364561
     54          1           0       -2.510110   -4.529679    1.110604
     55          1           0       -1.609704   -5.213451   -0.242271
     56          1           0       -4.033444   -5.703368   -0.445693
     57          1           0       -3.470132   -4.716138   -1.793433
     58          1           0       -4.937388   -3.734952    0.700051
     59          1           0       -5.597802   -3.827605   -0.927174
     60          1           0       -4.916411   -1.570132   -0.216870
     61          1           0       -4.146566   -2.072512   -1.730640
     62          1           0       -3.642409    0.818127    0.864552
     63          1           0       -5.100879    0.157239   -1.038855
     64          1           0       -4.173806    1.144203   -2.142440
     65          1           0       -5.891648    2.089649    0.208913
     66          1           0       -6.295776    2.211031   -1.500968
     67          1           0       -5.439566    4.372475   -0.620416
     68          1           0       -4.398054    3.735855   -1.892235
     69          1           0       -3.922149    3.526707    1.123615
     70          1           0       -3.026001    4.530861   -0.014097
     71          1           0       -1.797250    2.479718    0.557845
     72          1           0       -2.139426    2.584090   -1.163130
     73          1           0        2.770492    1.752966   -2.175798
     74          1           0        3.903227    1.588883    0.011936
     75          1           0        2.454738    2.182830    0.829853
     76          1           0        4.179905    3.727399   -1.131270
     77          1           0        4.061743    3.965610    0.611246
     78          1           0        2.681875    5.626175   -0.627310
     79          1           0        1.693722    4.612183    0.422492
     80          1           0        2.077192    4.266549   -2.592098
     81          1           0        0.619341    4.838219   -1.783583
     82          1           0        0.451829    2.445146   -2.446755
     83          1           0        0.272594    2.683780   -0.710112
 ---------------------------------------------------------------------
 Rotational constants (GHZ):      0.1120223      0.0782312      0.0636686
 Leave Link  202 at Fri Oct  1 23:19:46 2021, MaxMem= 3489660928 cpu:       0.2
 (Enter /sw/target/amd/app/gaussian/Gaussian09RevA.02_gcc-4.9.2/g09/l301.exe)
 Standard basis: 6-31G(d) (6D, 7F)
 Ernie: Thresh=  0.10000D-02 Tol=  0.10000D-05 Strict=F.
 There are   633 symmetry adapted basis functions of A   symmetry.
 Integral buffers will be    131072 words long.
 Raffenetti 2 integral format.
 Two-electron integral symmetry is turned on.
   633 basis functions,  1244 primitive gaussians,   633 cartesian basis functions
   143 alpha electrons      143 beta electrons
       nuclear repulsion energy      4676.7228931747 Hartrees.
 IExCor=  402 DFT=T Ex+Corr=B3LYP ExCW=0 ScaHFX=  0.200000
 ScaDFX=  0.800000  0.720000  1.000000  0.810000 ScalE2=  1.000000  1.000000
 IRadAn=      0 IRanWt=     -1 IRanGd=            0 ICorTp=0
 NAtoms=   83 NActive=   83 NUniq=   83 SFac= 7.50D-01 NAtFMM=   80 NAOKFM=T Big=T
 Leave Link  301 at Fri Oct  1 23:19:46 2021, MaxMem= 3489660928 cpu:       0.1
 (Enter /sw/target/amd/app/gaussian/Gaussian09RevA.02_gcc-4.9.2/g09/l302.exe)
 NPDir=0 NMtPBC=     1 NCelOv=     1 NCel=       1 NClECP=     1 NCelD=      1
         NCelK=      1 NCelE2=     1 NClLst=     1 CellRange=     0.0.
 One-electron integrals computed using PRISM.
 NBasis=   633 RedAO= T  NBF=   633
 NBsUse=   633 1.00D-06 NBFU=   633
 Precomputing XC quadrature grid using
 IXCGrd= 2 IRadAn=           0 IRanWt=          -1 IRanGd=           0 AccXCQ= 1.00D-10.
 NRdTot=    5317 NPtTot=      678636 NUsed=      716947 NTot=      716979
 NSgBfM=   615   616   616   616   616 NAtAll=    83    83.
 Leave Link  302 at Fri Oct  1 23:20:14 2021, MaxMem= 3489660928 cpu:      19.0
 (Enter /sw/target/amd/app/gaussian/Gaussian09RevA.02_gcc-4.9.2/g09/l303.exe)
 DipDrv:  MaxL=1.
 Leave Link  303 at Fri Oct  1 23:20:16 2021, MaxMem= 3489660928 cpu:       0.7
 (Enter /sw/target/amd/app/gaussian/Gaussian09RevA.02_gcc-4.9.2/g09/l401.exe)
 Harris functional with IExCor=  402 diagonalized for initial guess.
 ExpMin= 9.98D-02 ExpMax= 2.19D+04 ExpMxC= 3.30D+03 IAcc=2 IRadAn=         0 AccDes= 0.00D+00
 HarFok:  IExCor=  402 AccDes= 0.00D+00 IRadAn=         0 IDoV= 1
 ScaDFX=  1.000000  1.000000  1.000000  1.000000
 FoFCou: FMM=F IPFlag=           0 FMFlag=      100000 FMFlg1=        2001
         NFxFlg=           0 DoJE=T BraDBF=F KetDBF=T FulRan=T
         Omega=  0.000000  0.000000  1.000000  0.000000  0.000000 ICntrl=     500 IOpCl=  0
         NMat0=    1 NMatS0=    1 NMatT0=    0 NMatD0=    1 NMtDS0=    0 NMtDT0=    0
         I1Cent=           4 NGrid=           0.
 Petite list used in FoFCou.
 Harris En= -2329.50166288794    
 Initial guess orbital symmetries:
       Occupied  (A) (A) (A) (A) (A) (A) (A) (A) (A) (A) (A) (A)
                 (A) (A) (A) (A) (A) (A) (A) (A) (A) (A) (A) (A)
                 (A) (A) (A) (A) (A) (A) (A) (A) (A) (A) (A) (A)
                 (A) (A) (A) (A) (A) (A) (A) (A) (A) (A) (A) (A)
                 (A) (A) (A) (A) (A) (A) (A) (A) (A) (A) (A) (A)
                 (A) (A) (A) (A) (A) (A) (A) (A) (A) (A) (A) (A)
                 (A) (A) (A) (A) (A) (A) (A) (A) (A) (A) (A) (A)
                 (A) (A) (A) (A) (A) (A) (A) (A) (A) (A) (A) (A)
                 (A) (A) (A) (A) (A) (A) (A) (A) (A) (A) (A) (A)
                 (A) (A) (A) (A) (A) (A) (A) (A) (A) (A) (A) (A)
                 (A) (A) (A) (A) (A) (A) (A) (A) (A) (A) (A) (A)
                 (A) (A) (A) (A) (A) (A) (A) (A) (A) (A) (A)
       Virtual   (A) (A) (A) (A) (A) (A) (A) (A) (A) (A) (A) (A)
                 (A) (A) (A) (A) (A) (A) (A) (A) (A) (A) (A) (A)
                 (A) (A) (A) (A) (A) (A) (A) (A) (A) (A) (A) (A)
                 (A) (A) (A) (A) (A) (A) (A) (A) (A) (A) (A) (A)
                 (A) (A) (A) (A) (A) (A) (A) (A) (A) (A) (A) (A)
                 (A) (A) (A) (A) (A) (A) (A) (A) (A) (A) (A) (A)
                 (A) (A) (A) (A) (A) (A) (A) (A) (A) (A) (A) (A)
                 (A) (A) (A) (A) (A) (A) (A) (A) (A) (A) (A) (A)
                 (A) (A) (A) (A) (A) (A) (A) (A) (A) (A) (A) (A)
                 (A) (A) (A) (A) (A) (A) (A) (A) (A) (A) (A) (A)
                 (A) (A) (A) (A) (A) (A) (A) (A) (A) (A) (A) (A)
                 (A) (A) (A) (A) (A) (A) (A) (A) (A) (A) (A) (A)
                 (A) (A) (A) (A) (A) (A) (A) (A) (A) (A) (A) (A)
                 (A) (A) (A) (A) (A) (A) (A) (A) (A) (A) (A) (A)
                 (A) (A) (A) (A) (A) (A) (A) (A) (A) (A) (A) (A)
                 (A) (A) (A) (A) (A) (A) (A) (A) (A) (A) (A) (A)
                 (A) (A) (A) (A) (A) (A) (A) (A) (A) (A) (A) (A)
                 (A) (A) (A) (A) (A) (A) (A) (A) (A) (A) (A) (A)
                 (A) (A) (A) (A) (A) (A) (A) (A) (A) (A) (A) (A)
                 (A) (A) (A) (A) (A) (A) (A) (A) (A) (A) (A) (A)
                 (A) (A) (A) (A) (A) (A) (A) (A) (A) (A) (A) (A)
                 (A) (A) (A) (A) (A) (A) (A) (A) (A) (A) (A) (A)
                 (A) (A) (A) (A) (A) (A) (A) (A) (A) (A) (A) (A)
                 (A) (A) (A) (A) (A) (A) (A) (A) (A) (A) (A) (A)
                 (A) (A) (A) (A) (A) (A) (A) (A) (A) (A) (A) (A)
                 (A) (A) (A) (A) (A) (A) (A) (A) (A) (A) (A) (A)
                 (A) (A) (A) (A) (A) (A) (A) (A) (A) (A) (A) (A)
                 (A) (A) (A) (A) (A) (A) (A) (A) (A) (A) (A) (A)
                 (A) (A) (A) (A) (A) (A) (A) (A) (A) (A) (A) (A)
                 (A) (A) (A) (A) (A) (A) (A) (A) (A) (A) (A) (A)
                 (A) (A) (A) (A) (A) (A) (A) (A) (A) (A) (A) (A)
                 (A) (A) (A) (A) (A) (A) (A) (A) (A) (A) (A) (A)
                 (A) (A) (A) (A) (A) (A) (A) (A) (A) (A) (A) (A)
                 (A) (A) (A) (A) (A) (A) (A) (A) (A) (A) (A) (A)
                 (A) (A) (A) (A) (A) (A) (A) (A) (A) (A) (A) (A)
                 (A) (A) (A) (A) (A) (A) (A) (A) (A) (A) (A) (A)
                 (A) (A) (A) (A) (A) (A) (A) (A) (A) (A) (A) (A)
                 (A) (A) (A) (A) (A) (A) (A) (A) (A) (A) (A) (A)
                 (A) (A) (A) (A) (A) (A) (A) (A) (A) (A) (A) (A)
                 (A) (A) (A) (A) (A) (A) (A) (A) (A) (A) (A) (A)
                 (A) (A) (A) (A) (A) (A) (A) (A) (A) (A)
 The electronic state of the initial guess is 1-A.
 Leave Link  401 at Fri Oct  1 23:21:51 2021, MaxMem= 3489660928 cpu:     138.8
 (Enter /sw/target/amd/app/gaussian/Gaussian09RevA.02_gcc-4.9.2/g09/l502.exe)
 Closed shell SCF:
 Requested convergence on RMS density matrix=1.00D-08 within  64 cycles.
 Requested convergence on MAX density matrix=1.00D-06.
 Requested convergence on             energy=1.00D-06.
 No special actions if energy rises.
 Using DIIS extrapolation, IDIIS=  1040.
 Integral symmetry usage will be decided dynamically.
       716187 words used for storage of precomputed grid.
 IEnd=     1936857 IEndB=     1936857 NGot=  3489660928 MDV=  3488129618
 LenX=  3488129618 LenY=  3487728296
 Fock matrices will be formed incrementally for  20 cycles.
 Integral accuracy reduced to 1.0D-05 until final iterations.

 Cycle   1  Pass 0  IDiag  1:
 FoFCou: FMM=T IPFlag=           0 FMFlag=      100000 FMFlg1=        2001
         NFxFlg=           0 DoJE=F BraDBF=F KetDBF=F FulRan=T
         Omega=  0.000000  0.000000  1.000000  0.000000  0.000000 ICntrl=       0 IOpCl=  0
         NMat0=    1 NMatS0=    1 NMatT0=    0 NMatD0=    1 NMtDS0=    0 NMtDT0=    0
         I1Cent=           0 NGrid=           0.
 Symmetry not used in FoFCou.
 FMM levels:  10  Number of levels for PrismC:   9
 E= -2327.96981464547    
 DIIS: error= 2.38D-02 at cycle   1 NSaved=   1.
 NSaved= 1 IEnMin= 1 EnMin= -2327.96981464547     IErMin= 1 ErrMin= 2.38D-02
 ErrMax= 2.38D-02 EMaxC= 1.00D-01 BMatC= 1.13D+00 BMatP= 1.13D+00
 IDIUse=3 WtCom= 7.62D-01 WtEn= 2.38D-01
 Coeff-Com:  0.100D+01
 Coeff-En:   0.100D+01
 Coeff:      0.100D+01
 Gap=     0.302 Goal=   None    Shift=    0.000
 GapD=    0.302 DampG=1.000 DampE=0.500 DampFc=0.5000 IDamp=-1.
 Damping current iteration by 5.00D-01
 RMSDP=4.69D-03 MaxDP=2.63D-01              OVMax= 3.28D-01

 Cycle   2  Pass 0  IDiag  1:
 RMSU=  1.64D-03    CP:  9.75D-01
 E= -2328.39071299602     Delta-E=       -0.420898350541 Rises=F Damp=T
 DIIS: error= 6.57D-03 at cycle   2 NSaved=   2.
 NSaved= 2 IEnMin= 2 EnMin= -2328.39071299602     IErMin= 2 ErrMin= 6.57D-03
 ErrMax= 6.57D-03 EMaxC= 1.00D-01 BMatC= 1.14D-01 BMatP= 1.13D+00
 IDIUse=3 WtCom= 9.34D-01 WtEn= 6.57D-02
 Coeff-Com:  0.164D+00 0.836D+00
 Coeff-En:   0.290D+00 0.710D+00
 Coeff:      0.173D+00 0.827D+00
 Gap=     0.322 Goal=   None    Shift=    0.000
 RMSDP=1.49D-03 MaxDP=1.12D-01 DE=-4.21D-01 OVMax= 3.55D-01

 Cycle   3  Pass 0  IDiag  1:
 RMSU=  8.89D-04    CP:  9.73D-01  6.53D-01
 E= -2329.13680469352     Delta-E=       -0.746091697505 Rises=F Damp=F
 DIIS: error= 1.28D-02 at cycle   3 NSaved=   3.
 NSaved= 3 IEnMin= 3 EnMin= -2329.13680469352     IErMin= 2 ErrMin= 6.57D-03
 ErrMax= 1.28D-02 EMaxC= 1.00D-01 BMatC= 8.19D-02 BMatP= 1.14D-01
 IDIUse=3 WtCom= 8.72D-01 WtEn= 1.28D-01
 Coeff-Com:  0.491D-01 0.456D+00 0.495D+00
 Coeff-En:   0.000D+00 0.000D+00 0.100D+01
 Coeff:      0.429D-01 0.397D+00 0.560D+00
 Gap=     0.177 Goal=   None    Shift=    0.000
 RMSDP=1.03D-03 MaxDP=1.07D-01 DE=-7.46D-01 OVMax= 1.52D-01

 Cycle   4  Pass 0  IDiag  1:
 RMSU=  4.72D-04    CP:  9.74D-01  7.94D-01  4.34D-01
 E= -2329.18573465004     Delta-E=       -0.048929956518 Rises=F Damp=F
 DIIS: error= 8.45D-03 at cycle   4 NSaved=   4.
 NSaved= 4 IEnMin= 4 EnMin= -2329.18573465004     IErMin= 2 ErrMin= 6.57D-03
 ErrMax= 8.45D-03 EMaxC= 1.00D-01 BMatC= 4.44D-02 BMatP= 8.19D-02
 IDIUse=3 WtCom= 9.15D-01 WtEn= 8.45D-02
 Coeff-Com:  0.366D-02 0.121D+00 0.411D+00 0.464D+00
 Coeff-En:   0.000D+00 0.000D+00 0.370D+00 0.630D+00
 Coeff:      0.335D-02 0.110D+00 0.408D+00 0.478D+00
 Gap=     0.157 Goal=   None    Shift=    0.000
 RMSDP=4.41D-04 MaxDP=5.61D-02 DE=-4.89D-02 OVMax= 7.62D-02

 Cycle   5  Pass 0  IDiag  1:
 RMSU=  1.18D-04    CP:  9.73D-01  7.53D-01  6.27D-01  5.29D-01
 E= -2329.23416268426     Delta-E=       -0.048428034223 Rises=F Damp=F
 DIIS: error= 5.68D-04 at cycle   5 NSaved=   5.
 NSaved= 5 IEnMin= 5 EnMin= -2329.23416268426     IErMin= 5 ErrMin= 5.68D-04
 ErrMax= 5.68D-04 EMaxC= 1.00D-01 BMatC= 7.86D-04 BMatP= 4.44D-02
 IDIUse=3 WtCom= 9.94D-01 WtEn= 5.68D-03
 Coeff-Com: -0.117D-02 0.177D-02 0.110D+00 0.189D+00 0.701D+00
 Coeff-En:   0.000D+00 0.000D+00 0.000D+00 0.000D+00 0.100D+01
 Coeff:     -0.116D-02 0.176D-02 0.109D+00 0.188D+00 0.703D+00
[...]

   542    H   38  S      Val( 1S)     0.75673
   543    H   38  S      Ryd( 2S)     0.00116

   544    H   39  S      Val( 1S)     0.77130
   545    H   39  S      Ryd( 2S)     0.00175

   546    H   40  S      Val( 1S)     0.76780
   547    H   40  S      Ryd( 2S)     0.00182

   548    H   41  S      Val( 1S)     0.76270
   549    H   41  S      Ryd( 2S)     0.00137

   550    H   42  S      Val( 1S)     0.73541
   551    H   42  S      Ryd( 2S)     0.00248

   552    H   43  S      Val( 1S)     0.77071
   553    H   43  S      Ryd( 2S)     0.00174

   554    H   44  S      Val( 1S)     0.73132
   555    H   44  S      Ryd( 2S)     0.00119

   556    H   45  S      Val( 1S)     0.75402
   557    H   45  S      Ryd( 2S)     0.00108

   558    H   46  S      Val( 1S)     0.76839
   559    H   46  S      Ryd( 2S)     0.00177

   560    H   47  S      Val( 1S)     0.79241
   561    H   47  S      Ryd( 2S)     0.00111

   562    H   48  S      Val( 1S)     0.77509
   563    H   48  S      Ryd( 2S)     0.00085

   564    H   49  S      Val( 1S)     0.77447
   565    H   49  S      Ryd( 2S)     0.00076

   566    H   50  S      Val( 1S)     0.76769
   567    H   50  S      Ryd( 2S)     0.00101

   568    H   51  S      Val( 1S)     0.73766
   569    H   51  S      Ryd( 2S)     0.00330

   570    H   52  S      Val( 1S)     0.74057
   571    H   52  S      Ryd( 2S)     0.00150

   572    H   53  S      Val( 1S)     0.77493
   573    H   53  S      Ryd( 2S)     0.00188

   574    H   54  S      Val( 1S)     0.76868
   575    H   54  S      Ryd( 2S)     0.00176

   576    H   55  S      Val( 1S)     0.75973
   577    H   55  S      Ryd( 2S)     0.00117

   578    H   56  S      Val( 1S)     0.76067
   579    H   56  S      Ryd( 2S)     0.00115

   580    H   57  S      Val( 1S)     0.77525
   581    H   57  S      Ryd( 2S)     0.00185

   582    H   58  S      Val( 1S)     0.77171
   583    H   58  S      Ryd( 2S)     0.00178

   584    H   59  S      Val( 1S)     0.76007
   585    H   59  S      Ryd( 2S)     0.00123

   586    H   60  S      Val( 1S)     0.76495
   587    H   60  S      Ryd( 2S)     0.00148

   588    H   61  S      Val( 1S)     0.77110
   589    H   61  S      Ryd( 2S)     0.00189

   590    H   62  S      Val( 1S)     0.74526
   591    H   62  S      Ryd( 2S)     0.00301

   592    H   63  S      Val( 1S)     0.76308
   593    H   63  S      Ryd( 2S)     0.00125

   594    H   64  S      Val( 1S)     0.76991
   595    H   64  S      Ryd( 2S)     0.00191

   596    H   65  S      Val( 1S)     0.77324
   597    H   65  S      Ryd( 2S)     0.00180

   598    H   66  S      Val( 1S)     0.76065
   599    H   66  S      Ryd( 2S)     0.00125

   600    H   67  S      Val( 1S)     0.76124
   601    H   67  S      Ryd( 2S)     0.00116

   602    H   68  S      Val( 1S)     0.77538
   603    H   68  S      Ryd( 2S)     0.00184

   604    H   69  S      Val( 1S)     0.77102
   605    H   69  S      Ryd( 2S)     0.00181

   606    H   70  S      Val( 1S)     0.75826
   607    H   70  S      Ryd( 2S)     0.00116

   608    H   71  S      Val( 1S)     0.73618
   609    H   71  S      Ryd( 2S)     0.00203

   610    H   72  S      Val( 1S)     0.77585
   611    H   72  S      Ryd( 2S)     0.00195

   612    H   73  S      Val( 1S)     0.75319
   613    H   73  S      Ryd( 2S)     0.00278

   614    H   74  S      Val( 1S)     0.76379
   615    H   74  S      Ryd( 2S)     0.00129

   616    H   75  S      Val( 1S)     0.74245
   617    H   75  S      Ryd( 2S)     0.00193

   618    H   76  S      Val( 1S)     0.77437
   619    H   76  S      Ryd( 2S)     0.00188

   620    H   77  S      Val( 1S)     0.75164
   621    H   77  S      Ryd( 2S)     0.00107

   622    H   78  S      Val( 1S)     0.75844
   623    H   78  S      Ryd( 2S)     0.00112

   624    H   79  S      Val( 1S)     0.76722
   625    H   79  S      Ryd( 2S)     0.00173

   626    H   80  S      Val( 1S)     0.77431
   627    H   80  S      Ryd( 2S)     0.00183

   628    H   81  S      Val( 1S)     0.75610
   629    H   81  S      Ryd( 2S)     0.00115

   630    H   82  S      Val( 1S)     0.75698
   631    H   82  S      Ryd( 2S)     0.00123

   632    H   83  S      Val( 1S)     0.75170
   633    H   83  S      Ryd( 2S)     0.00192

 WARNING:  1 low occupancy (<1.9990e) core orbital  found on  P    7
           1 low occupancy (<1.9990e) core orbital  found on  C    8
           1 low occupancy (<1.9990e) core orbital  found on  C    9
           1 low occupancy (<1.9990e) core orbital  found on  C   11
           1 low occupancy (<1.9990e) core orbital  found on  C   12
           1 low occupancy (<1.9990e) core orbital  found on  C   16
           1 low occupancy (<1.9990e) core orbital  found on  P   17


 Summary of Natural Population Analysis:                  
                                                          
                                       Natural Population 
                Natural  -----------------------------------------------
    Atom  No    Charge         Core      Valence    Rydberg      Total
 -----------------------------------------------------------------------
      C    1   -0.46055      1.99933     4.44969    0.01154     6.46055
      C    2   -0.45603      1.99933     4.44450    0.01220     6.45603
      C    3   -0.46594      1.99931     4.45411    0.01252     6.46594
      C    4   -0.55306      1.99919     4.53863    0.01524     6.55306
      C    5   -0.46828      1.99930     4.45530    0.01367     6.46828
      C    6   -0.45728      1.99933     4.44568    0.01227     6.45728
      P    7    1.22427      9.99779     3.73911    0.03884    13.77573
      C    8   -0.50786      1.99858     4.48391    0.02537     6.50786
      C    9   -0.67695      1.99877     4.65530    0.02288     6.67695
      S   10    0.35666      9.99897     5.60078    0.04359    15.64334
      C   11   -0.20034      1.99883     4.18366    0.01786     6.20034
      C   12   -0.09157      1.99889     4.07463    0.01805     6.09157
      C   13   -0.28741      1.99904     4.27469    0.01368     6.28741
      C   14   -0.22945      1.99910     4.21616    0.01419     6.22945
      C   15   -0.29157      1.99910     4.27749    0.01497     6.29157
      C   16   -0.26290      1.99897     4.24821    0.01573     6.26290
      P   17    1.04207      9.99797     3.91967    0.04029    13.95793
      C   18   -0.54403      1.99921     4.52607    0.01875     6.54403
      C   19   -0.46703      1.99929     4.45417    0.01356     6.46703
      C   20   -0.45563      1.99932     4.44416    0.01215     6.45563
      C   21   -0.45933      1.99933     4.44854    0.01147     6.45933
      C   22   -0.45520      1.99933     4.44368    0.01219     6.45520
      C   23   -0.46357      1.99929     4.45190    0.01238     6.46357
      C   24   -0.55198      1.99922     4.53568    0.01709     6.55198
      C   25   -0.46231      1.99930     4.45033    0.01268     6.46231
      C   26   -0.45575      1.99933     4.44429    0.01213     6.45575
      C   27   -0.45896      1.99933     4.44822    0.01142     6.45896
      C   28   -0.45553      1.99932     4.44411    0.01209     6.45553
      C   29   -0.46383      1.99929     4.45050    0.01404     6.46383
      C   30   -0.55904      1.99918     4.54313    0.01673     6.55904
      C   31   -0.46303      1.99927     4.44988    0.01389     6.46303
      C   32   -0.45299      1.99932     4.44157    0.01209     6.45299
      C   33   -0.46136      1.99933     4.45044    0.01159     6.46136
      C   34   -0.45549      1.99933     4.44402    0.01214     6.45549
      C   35   -0.46655      1.99930     4.45426    0.01299     6.46655
      H   36    0.24073      0.00000     0.75816    0.00112     0.75927
      H   37    0.22492      0.00000     0.77327    0.00181     0.77508
      H   38    0.24210      0.00000     0.75673    0.00116     0.75790
      H   39    0.22695      0.00000     0.77130    0.00175     0.77305
      H   40    0.23038      0.00000     0.76780    0.00182     0.76962
      H   41    0.23593      0.00000     0.76270    0.00137     0.76407
      H   42    0.26211      0.00000     0.73541    0.00248     0.73789
      H   43    0.22755      0.00000     0.77071    0.00174     0.77245
      H   44    0.26748      0.00000     0.73132    0.00119     0.73252
      H   45    0.24490      0.00000     0.75402    0.00108     0.75510
      H   46    0.22984      0.00000     0.76839    0.00177     0.77016
      H   47    0.20648      0.00000     0.79241    0.00111     0.79352
      H   48    0.22406      0.00000     0.77509    0.00085     0.77594
      H   49    0.22477      0.00000     0.77447    0.00076     0.77523
      H   50    0.23129      0.00000     0.76769    0.00101     0.76871
      H   51    0.25904      0.00000     0.73766    0.00330     0.74096
      H   52    0.25792      0.00000     0.74057    0.00150     0.74208
      H   53    0.22319      0.00000     0.77493    0.00188     0.77681
      H   54    0.22955      0.00000     0.76868    0.00176     0.77045
      H   55    0.23909      0.00000     0.75973    0.00117     0.76091
      H   56    0.23818      0.00000     0.76067    0.00115     0.76182
      H   57    0.22291      0.00000     0.77525    0.00185     0.77709
      H   58    0.22650      0.00000     0.77171    0.00178     0.77350
      H   59    0.23870      0.00000     0.76007    0.00123     0.76130
      H   60    0.23357      0.00000     0.76495    0.00148     0.76643
      H   61    0.22702      0.00000     0.77110    0.00189     0.77298
      H   62    0.25173      0.00000     0.74526    0.00301     0.74827
      H   63    0.23568      0.00000     0.76308    0.00125     0.76432
      H   64    0.22818      0.00000     0.76991    0.00191     0.77182
      H   65    0.22496      0.00000     0.77324    0.00180     0.77504
      H   66    0.23810      0.00000     0.76065    0.00125     0.76190
      H   67    0.23759      0.00000     0.76124    0.00116     0.76241
      H   68    0.22278      0.00000     0.77538    0.00184     0.77722
      H   69    0.22717      0.00000     0.77102    0.00181     0.77283
      H   70    0.24058      0.00000     0.75826    0.00116     0.75942
      H   71    0.26178      0.00000     0.73618    0.00203     0.73822
      H   72    0.22220      0.00000     0.77585    0.00195     0.77780
      H   73    0.24402      0.00000     0.75319    0.00278     0.75598
      H   74    0.23492      0.00000     0.76379    0.00129     0.76508
      H   75    0.25562      0.00000     0.74245    0.00193     0.74438
      H   76    0.22375      0.00000     0.77437    0.00188     0.77625
      H   77    0.24729      0.00000     0.75164    0.00107     0.75271
      H   78    0.24044      0.00000     0.75844    0.00112     0.75956
      H   79    0.23105      0.00000     0.76722    0.00173     0.76895
      H   80    0.22386      0.00000     0.77431    0.00183     0.77614
      H   81    0.24275      0.00000     0.75610    0.00115     0.75725
      H   82    0.24179      0.00000     0.75698    0.00123     0.75821
      H   83    0.24639      0.00000     0.75170    0.00192     0.75361
 =======================================================================
   * Total *   -0.00000     93.96906   191.37154    0.65940   286.00000

                                 Natural Population      
 --------------------------------------------------------
   Core                      93.96906 ( 99.9671% of  94)
   Valence                  191.37154 ( 99.6727% of 192)
   Natural Minimal Basis    285.34060 ( 99.7694% of 286)
   Natural Rydberg Basis      0.65940 (  0.2306% of 286)
 --------------------------------------------------------

    Atom  No          Natural Electron Configuration
 ----------------------------------------------------------------------------
      C    1      [core]2S( 1.03)2p( 3.42)3p( 0.01)
      C    2      [core]2S( 1.03)2p( 3.41)3p( 0.01)
      C    3      [core]2S( 1.03)2p( 3.43)3p( 0.01)
      C    4      [core]2S( 1.06)2p( 3.48)3p( 0.01)
      C    5      [core]2S( 1.03)2p( 3.43)3p( 0.01)
      C    6      [core]2S( 1.03)2p( 3.41)3p( 0.01)
      P    7      [core]3S( 1.32)3p( 2.42)3d( 0.03)4p( 0.01)
      C    8      [core]2S( 0.95)2p( 3.53)3p( 0.02)
      C    9      [core]2S( 1.04)2p( 3.62)3p( 0.02)
      S   10      [core]3S( 1.62)3p( 3.99)4S( 0.01)3d( 0.02)4p( 0.02)
      C   11      [core]2S( 0.93)2p( 3.25)3p( 0.01)
      C   12      [core]2S( 0.85)2p( 3.22)3p( 0.01)
      C   13      [core]2S( 0.93)2p( 3.35)3p( 0.01)
      C   14      [core]2S( 0.95)2p( 3.26)3p( 0.01)
      C   15      [core]2S( 0.95)2p( 3.33)3p( 0.01)
      C   16      [core]2S( 0.94)2p( 3.31)3p( 0.01)
      P   17      [core]3S( 1.36)3p( 2.56)3d( 0.03)4p( 0.01)
      C   18      [core]2S( 1.06)2p( 3.46)3p( 0.01)
      C   19      [core]2S( 1.03)2p( 3.43)3p( 0.01)
      C   20      [core]2S( 1.03)2p( 3.41)3p( 0.01)
      C   21      [core]2S( 1.03)2p( 3.42)3p( 0.01)
      C   22      [core]2S( 1.03)2p( 3.41)3p( 0.01)
      C   23      [core]2S( 1.02)2p( 3.43)3p( 0.01)
      C   24      [core]2S( 1.06)2p( 3.47)3p( 0.01)
      C   25      [core]2S( 1.03)2p( 3.42)3p( 0.01)
      C   26      [core]2S( 1.03)2p( 3.41)3p( 0.01)
      C   27      [core]2S( 1.03)2p( 3.42)3p( 0.01)
      C   28      [core]2S( 1.03)2p( 3.41)3p( 0.01)
      C   29      [core]2S( 1.03)2p( 3.42)3p( 0.01)
      C   30      [core]2S( 1.06)2p( 3.48)3p( 0.01)
      C   31      [core]2S( 1.03)2p( 3.42)3p( 0.01)
      C   32      [core]2S( 1.03)2p( 3.41)3p( 0.01)
      C   33      [core]2S( 1.03)2p( 3.42)3p( 0.01)
      C   34      [core]2S( 1.03)2p( 3.41)3p( 0.01)
      C   35      [core]2S( 1.03)2p( 3.43)3p( 0.01)
      H   36            1S( 0.76)
      H   37            1S( 0.77)
      H   38            1S( 0.76)
      H   39            1S( 0.77)
      H   40            1S( 0.77)
      H   41            1S( 0.76)
      H   42            1S( 0.74)
      H   43            1S( 0.77)
      H   44            1S( 0.73)
      H   45            1S( 0.75)
      H   46            1S( 0.77)
      H   47            1S( 0.79)
      H   48            1S( 0.78)
      H   49            1S( 0.77)
      H   50            1S( 0.77)
      H   51            1S( 0.74)
      H   52            1S( 0.74)
      H   53            1S( 0.77)
      H   54            1S( 0.77)
      H   55            1S( 0.76)
      H   56            1S( 0.76)
      H   57            1S( 0.78)
      H   58            1S( 0.77)
      H   59            1S( 0.76)
      H   60            1S( 0.76)
      H   61            1S( 0.77)
      H   62            1S( 0.75)
      H   63            1S( 0.76)
      H   64            1S( 0.77)
      H   65            1S( 0.77)
      H   66            1S( 0.76)
      H   67            1S( 0.76)
      H   68            1S( 0.78)
      H   69            1S( 0.77)
      H   70            1S( 0.76)
      H   71            1S( 0.74)
      H   72            1S( 0.78)
      H   73            1S( 0.75)
      H   74            1S( 0.76)
      H   75            1S( 0.74)
      H   76            1S( 0.77)
      H   77            1S( 0.75)
      H   78            1S( 0.76)
      H   79            1S( 0.77)
      H   80            1S( 0.77)
      H   81            1S( 0.76)
      H   82            1S( 0.76)
      H   83            1S( 0.75)


 NBO analysis skipped by request.
 Leave Link  607 at Mon Oct  4 15:25:49 2021, MaxMem= 3489660928 cpu:     104.6
 (Enter /sw/target/amd/app/gaussian/Gaussian09RevA.02_gcc-4.9.2/g09/l9999.exe)
 1\1\GINC-HERMITE\SP\RTD-B3LYP-FC\6-31G(d)\C32H48P2S1\JSCHLEINITZ\04-Oc
 t-2021\0\\#p TD(NStates=10, Root=1) b3lyp/6-31G* volume pop=NPA densit
 y=current Geom=AllCheck Guess=Read\\C1CCC(CC1)P(c1c(sc2c1cccc2)P(C1CCC
 CC1)C1CCCCC1)C1CCCCC1_conf_0\\0,1\C,0,-1.1848835203,-0.082595361,1.703
 9965948\C,0,-0.5771214804,-1.491283917,1.7439825279\C,0,0.6995668497,-
 1.5828455098,0.89043199\C,0,1.7477075481,-0.5260989986,1.3067678327\C,
 0,1.1259245941,0.8857021747,1.2654998142\C,0,-0.1519855098,0.975235238
 3,2.1167250817\P,0,3.2160223297,-0.6325798927,0.1172300414\C,0,4.39725
 45446,0.6919334615,0.6983674385\C,0,5.0098300025,1.4812362215,-0.25850
 56631\S,0,6.0060317478,2.7574231706,0.4625160542\C,0,5.6074622772,2.23
 5038663,2.0796409831\C,0,4.7384622392,1.1140615477,2.0573542582\C,0,4.
 3338866216,0.5903352994,3.3036246995\C,0,4.7780665842,1.1628889712,4.4
 878410982\C,0,5.6395804506,2.272333999,4.4757508366\C,0,6.0618176119,2
 .8147896408,3.2692398588\P,0,4.8468895309,1.3638560634,-2.1045407351\C
 ,0,4.2786020051,3.1520060138,-2.4374379731\C,0,2.8602594818,3.34310999
 25,-1.8577360251\C,0,2.3100881241,4.7539392363,-2.1242483659\C,0,2.323
 6327378,5.0891419805,-3.6212427564\C,0,3.731089523,4.9143036443,-4.204
 9785701\C,0,4.2954701739,3.5067532748,-3.9381002177\C,0,6.6660366489,1
 .3910469136,-2.677606503\C,0,6.7229907521,0.957706617,-4.1627908508\C,
 0,8.1604602592,0.960099441,-4.7088216156\C,0,9.0805735398,0.0622100965
 ,-3.8715411032\C,0,9.0172312194,0.4430561386,-2.3864219569\C,0,7.57355
 78289,0.4526405791,-1.8538850033\C,0,4.0318692242,-2.2896755147,0.5549
 241745\C,0,4.3395990293,-2.638494553,2.0227623058\C,0,4.8969793739,-4.
 0677945716,2.1569671143\C,0,6.1442293707,-4.2711866362,1.2856667349\C,
 0,5.8598772036,-3.912743597,-0.179878665\C,0,5.2888249864,-2.491205009
 3,-0.317538249\H,0,-2.0678351954,-0.0294007761,2.3539164054\H,0,-1.533
 6146361,0.1314406766,0.6827898486\H,0,-1.3079583469,-2.2336820064,1.39
 77479551\H,0,-0.3363212837,-1.7528611348,2.7851670713\H,0,0.4413410248
 ,-1.4345376476,-0.1681261069\H,0,1.1196450354,-2.5933181363,0.97008720
 25\H,0,2.0371933402,-0.738960162,2.3429421714\H,0,0.8856147656,1.14166
 92561,0.222969373\H,0,1.8529933501,1.6294978781,1.6111031517\H,0,-0.58
 22196181,1.9818484502,2.0348299477\H,0,0.1088568373,0.8336196165,3.176
 134037\H,0,3.6803690561,-0.2700355367,3.3454886936\H,0,4.4551871124,0.
 7439822792,5.4369561596\H,0,5.9781756851,2.7076138868,5.4118815848\H,0
 ,6.7296192767,3.6713278917,3.246651387\H,0,4.9601649601,3.842345641,-1
 .9187101936\H,0,2.862666098,3.1429337039,-0.7803390565\H,0,2.187016866
 5,2.6013302229,-2.3121346976\H,0,2.9208672191,5.4903885152,-1.58134777
 33\H,0,1.2920083064,4.8361043732,-1.721894413\H,0,1.9658096156,6.11313
 53974,-3.7890944087\H,0,1.6256267303,4.4221188973,-4.1487254425\H,0,4.
 4028251532,5.6612443,-3.7564655643\H,0,3.7263700539,5.1091013901,-5.28
 5357119\H,0,5.3164898364,3.4563477559,-4.3311663608\H,0,3.7032845439,2
 .7662238427,-4.496135085\H,0,7.0567319929,2.4170568804,-2.5901507224\H
 ,0,6.0908543917,1.5955660068,-4.7883232291\H,0,6.3064854106,-0.0566838
 892,-4.2447120554\H,0,8.5500122067,1.9891274888,-4.7026218571\H,0,8.15
 8721179,0.6343424449,-5.757197036\H,0,10.1133343764,0.1214184159,-4.23
 86210249\H,0,8.7653313237,-0.985170994,-3.989485392\H,0,9.4573217457,1
 .4418471226,-2.2481462058\H,0,9.6252871771,-0.248807068,-1.7889675337\
 H,0,7.5781012837,0.7437293711,-0.7995061341\H,0,7.1658802125,-0.567693
 7976,-1.897604492\H,0,3.2751764579,-3.0059811246,0.1953519396\H,0,3.43
 89516243,-2.5404274941,2.6420653696\H,0,5.077668178,-1.9293612861,2.41
 87250198\H,0,4.1219899747,-4.7885279414,1.8557788664\H,0,5.1275896833,
 -4.2801263985,3.2092385949\H,0,6.499567969,-5.3068165927,1.3638217471\
 H,0,6.9560659894,-3.6321483426,1.6636191464\H,0,5.1391680553,-4.632411
 5483,-0.5958682974\H,0,6.7744926441,-4.0064037383,-0.7799740642\H,0,5.
 0542100013,-2.2796847615,-1.368056974\H,0,6.0546560512,-1.7634531697,-
 0.0145677015\\Version=AM64L-G09RevA.02\State=1-A\HF=-2329.2536331\RMSD
 =9.498e-09\Dipole=-1.0747833,-1.4061193,-1.2846552\Quadrupole=2.547261
 3,3.7619271,-6.3091884,1.079226,-6.4919241,-8.3261431\PG=C01 [X(C32H48
 P2S1)]\\@


 SIGN SEEN IN A RESTAURANT-
 WE RESERVE THE RIGHT TO SERVE REFUSE TO ANYONE.
 Job cpu time:  1 days 11 hours 36 minutes 38.6 seconds.
 File lengths (MBytes):  RWF=   1254 Int=      0 D2E=      0 Chk=    177 Scr=      1
 Normal termination of Gaussian 09 at Mon Oct  4 15:38:25 2021.
