 Entering Gaussian System, Link 0=g09
 Input=C3H5Li_713d_conf_0.com
 Output=C3H5Li_713d_conf_0.log
 Initial command:
 /sw/target/amd/app/gaussian/Gaussian09RevA.02_gcc-4.9.2/g09/l1.exe /home/jschleinitz/gaussian/Gau-1879654.inp -scrdir=/home/jschleinitz/gaussian/
 Entering Link 1 = /sw/target/amd/app/gaussian/Gaussian09RevA.02_gcc-4.9.2/g09/l1.exe PID=   1879656.
  
 Copyright (c) 1988,1990,1992,1993,1995,1998,2003,2009, Gaussian, Inc.
                  All Rights Reserved.
  
 This is part of the Gaussian(R) 09 program.  It is based on
 the Gaussian(R) 03 system (copyright 2003, Gaussian, Inc.),
 the Gaussian(R) 98 system (copyright 1998, Gaussian, Inc.),
 the Gaussian(R) 94 system (copyright 1995, Gaussian, Inc.),
 the Gaussian 92(TM) system (copyright 1992, Gaussian, Inc.),
 the Gaussian 90(TM) system (copyright 1990, Gaussian, Inc.),
 the Gaussian 88(TM) system (copyright 1988, Gaussian, Inc.),
 the Gaussian 86(TM) system (copyright 1986, Carnegie Mellon
 University), and the Gaussian 82(TM) system (copyright 1983,
 Carnegie Mellon University). Gaussian is a federally registered
 trademark of Gaussian, Inc.
  
 This software contains proprietary and confidential information,
 including trade secrets, belonging to Gaussian, Inc.
  
 This software is provided under written license and may be
 used, copied, transmitted, or stored only in accord with that
 written license.
  
 The following legend is applicable only to US Government
 contracts under FAR:
  
                    RESTRICTED RIGHTS LEGEND
  
 Use, reproduction and disclosure by the US Government is
 subject to restrictions as set forth in subparagraphs (a)
 and (c) of the Commercial Computer Software - Restricted
 Rights clause in FAR 52.227-19.
  
 Gaussian, Inc.
 340 Quinnipiac St., Bldg. 40, Wallingford CT 06492
  
  
 ---------------------------------------------------------------
 Warning -- This program may not be used in any manner that
 competes with the business of Gaussian, Inc. or will provide
 assistance to any competitor of Gaussian, Inc.  The licensee
 of this program is prohibited from giving any competitor of
 Gaussian, Inc. access to this program.  By using this program,
 the user acknowledges that Gaussian, Inc. is engaged in the
 business of creating and licensing software in the field of
 computational chemistry and represents and warrants to the
 licensee that it is not a competitor of Gaussian, Inc. and that
 it will not use this program in any manner prohibited above.
 ---------------------------------------------------------------
  

 Cite this work as:
 Gaussian 09, Revision A.02,
 M. J. Frisch, G. W. Trucks, H. B. Schlegel, G. E. Scuseria, 
 M. A. Robb, J. R. Cheeseman, G. Scalmani, V. Barone, B. Mennucci, 
 G. A. Petersson, H. Nakatsuji, M. Caricato, X. Li, H. P. Hratchian, 
 A. F. Izmaylov, J. Bloino, G. Zheng, J. L. Sonnenberg, M. Hada, 
 M. Ehara, K. Toyota, R. Fukuda, J. Hasegawa, M. Ishida, T. Nakajima, 
 Y. Honda, O. Kitao, H. Nakai, T. Vreven, J. A. Montgomery, Jr., 
 J. E. Peralta, F. Ogliaro, M. Bearpark, J. J. Heyd, E. Brothers, 
 K. N. Kudin, V. N. Staroverov, R. Kobayashi, J. Normand, 
 K. Raghavachari, A. Rendell, J. C. Burant, S. S. Iyengar, J. Tomasi, 
 M. Cossi, N. Rega, J. M. Millam, M. Klene, J. E. Knox, J. B. Cross, 
 V. Bakken, C. Adamo, J. Jaramillo, R. Gomperts, R. E. Stratmann, 
 O. Yazyev, A. J. Austin, R. Cammi, C. Pomelli, J. W. Ochterski, 
 R. L. Martin, K. Morokuma, V. G. Zakrzewski, G. A. Voth, 
 P. Salvador, J. J. Dannenberg, S. Dapprich, A. D. Daniels, 
 O. Farkas, J. B. Foresman, J. V. Ortiz, J. Cioslowski, 
 and D. J. Fox, Gaussian, Inc., Wallingford CT, 2009.
 
 ******************************************
 Gaussian 09:  AM64L-G09RevA.02 11-Jun-2009
                 3-Oct-2021 
 ******************************************
 %nproc=1
 Will use up to    1 processors via shared memory.
 %mem=2gb
 %chk=C3H5Li_713d_conf_0.chk
 -----------------------------------
 #p opt b3lyp/6-31G* scf=(xqc,tight)
 -----------------------------------
 1/14=-1,18=20,19=15,26=3,38=1/1,3;
 2/9=110,12=2,17=6,18=5,40=1/2;
 3/5=1,6=6,7=1,11=2,16=1,25=1,30=1,71=1,74=-5/1,2,3;
 4//1;
 5/5=2,8=3,13=1,32=2,38=5/2,8;
 6/7=2,8=2,9=2,10=2,28=1/1;
 7//1,2,3,16;
 1/14=-1,18=20,19=15/3(2);
 2/9=110/2;
 99//99;
 2/9=110/2;
 3/5=1,6=6,7=1,11=2,16=1,25=1,30=1,71=1,74=-5/1,2,3;
 4/5=5,16=3/1;
 5/5=2,8=3,13=1,32=2,38=5/2,8;
 7//1,2,3,16;
 1/14=-1,18=20,19=15/3(-5);
 2/9=110/2;
 6/7=2,8=2,9=2,10=2,19=2,28=1/1;
 99/9=1/99;
 Leave Link    1 at Sun Oct  3 00:42:18 2021, MaxMem=  268435456 cpu:       0.1
 (Enter /sw/target/amd/app/gaussian/Gaussian09RevA.02_gcc-4.9.2/g09/l101.exe)
 ----------------
 [Li]C1CC1_conf_0
 ----------------
 Symbolic Z-matrix:
 Charge =  0 Multiplicity = 1
 Li                    1.16042  -0.26266  -0.39897 
 C                     3.12992   0.1905   -0.05108 
 C                     4.04317   0.64641  -1.17418 
 C                     3.7904   -0.83327  -0.95268 
 H                     3.61053   0.03749   0.93947 
 H                     4.88591   1.1545   -0.65738 
 H                     3.36956   1.22647  -1.83944 
 H                     4.78769  -1.24838  -0.69271 
 H                     3.25857  -1.16866  -1.86739 
 
 NAtoms=      9 NQM=      9 NQMF=      0 NMic=      0 NMicF=      0 NTot=      9.
                    Isotopes and Nuclear Properties:
 (Nuclear quadrupole moments (NQMom) in fm**2, nuclear magnetic moments (NMagM)
  in nuclear magnetons)

  Atom         1           2           3           4           5           6           7           8           9
 IAtWgt=           7          12          12          12           1           1           1           1           1
 AtmWgt=   7.0160045  12.0000000  12.0000000  12.0000000   1.0078250   1.0078250   1.0078250   1.0078250   1.0078250
 NucSpn=           3           0           0           0           1           1           1           1           1
 AtZEff=   0.0000000   0.0000000   0.0000000   0.0000000   0.0000000   0.0000000   0.0000000   0.0000000   0.0000000
 NQMom=   -4.0100000   0.0000000   0.0000000   0.0000000   0.0000000   0.0000000   0.0000000   0.0000000   0.0000000
 NMagM=    3.2564240   0.0000000   0.0000000   0.0000000   2.7928460   2.7928460   2.7928460   2.7928460   2.7928460
 Leave Link  101 at Sun Oct  3 00:42:20 2021, MaxMem=  268435456 cpu:       0.2
 (Enter /sw/target/amd/app/gaussian/Gaussian09RevA.02_gcc-4.9.2/g09/l103.exe)

 GradGradGradGradGradGradGradGradGradGradGradGradGradGradGradGradGradGrad
 Berny optimization.
 Initialization pass.
                           ----------------------------
                           !    Initial Parameters    !
                           ! (Angstroms and Degrees)  !
 --------------------------                            --------------------------
 ! Name  Definition              Value          Derivative Info.                !
 --------------------------------------------------------------------------------
 ! R1    R(1,2)                  2.0507         estimate D2E/DX2                !
 ! R2    R(2,3)                  1.5176         estimate D2E/DX2                !
 ! R3    R(2,4)                  1.5157         estimate D2E/DX2                !
 ! R4    R(2,5)                  1.1116         estimate D2E/DX2                !
 ! R5    R(3,4)                  1.5174         estimate D2E/DX2                !
 ! R6    R(3,6)                  1.1115         estimate D2E/DX2                !
 ! R7    R(3,7)                  1.1103         estimate D2E/DX2                !
 ! R8    R(4,8)                  1.1111         estimate D2E/DX2                !
 ! R9    R(4,9)                  1.11           estimate D2E/DX2                !
 ! A1    A(1,2,3)              121.2504         estimate D2E/DX2                !
 ! A2    A(1,2,4)               99.6916         estimate D2E/DX2                !
 ! A3    A(1,2,5)              122.4125         estimate D2E/DX2                !
 ! A4    A(3,2,5)              116.1438         estimate D2E/DX2                !
 ! A5    A(4,2,5)              104.4002         estimate D2E/DX2                !
 ! A6    A(2,3,6)              104.4476         estimate D2E/DX2                !
 ! A7    A(2,3,7)              103.6071         estimate D2E/DX2                !
 ! A8    A(4,3,6)              120.2778         estimate D2E/DX2                !
 ! A9    A(4,3,7)              119.7258         estimate D2E/DX2                !
 ! A10   A(6,3,7)              119.9844         estimate D2E/DX2                !
 ! A11   A(2,4,8)              120.2863         estimate D2E/DX2                !
 ! A12   A(2,4,9)              119.0459         estimate D2E/DX2                !
 ! A13   A(3,4,8)              104.4159         estimate D2E/DX2                !
 ! A14   A(3,4,9)              104.7248         estimate D2E/DX2                !
 ! A15   A(8,4,9)              120.6643         estimate D2E/DX2                !
 ! D1    D(1,2,3,6)            160.1404         estimate D2E/DX2                !
 ! D2    D(1,2,3,7)             33.7451         estimate D2E/DX2                !
 ! D3    D(5,2,3,6)            -24.7947         estimate D2E/DX2                !
 ! D4    D(5,2,3,7)           -151.1899         estimate D2E/DX2                !
 ! D5    D(1,2,4,8)           -149.6167         estimate D2E/DX2                !
 ! D6    D(1,2,4,9)             29.7086         estimate D2E/DX2                !
 ! D7    D(5,2,4,8)            -22.3691         estimate D2E/DX2                !
 ! D8    D(5,2,4,9)            156.9563         estimate D2E/DX2                !
 ! D9    D(6,3,4,8)            -27.1737         estimate D2E/DX2                !
 ! D10   D(6,3,4,9)           -154.9098         estimate D2E/DX2                !
 ! D11   D(7,3,4,8)            154.0843         estimate D2E/DX2                !
 ! D12   D(7,3,4,9)             26.3483         estimate D2E/DX2                !
 --------------------------------------------------------------------------------
 Trust Radius=3.00D-01 FncErr=1.00D-07 GrdErr=1.00D-06
 Number of steps in this run=  46 maximum allowed number of steps= 100.
 GradGradGradGradGradGradGradGradGradGradGradGradGradGradGradGradGradGrad

 Leave Link  103 at Sun Oct  3 00:42:20 2021, MaxMem=  268435456 cpu:       0.0
 (Enter /sw/target/amd/app/gaussian/Gaussian09RevA.02_gcc-4.9.2/g09/l202.exe)
                          Input orientation:                          
 ---------------------------------------------------------------------
 Center     Atomic      Atomic             Coordinates (Angstroms)
 Number     Number       Type             X           Y           Z
 ---------------------------------------------------------------------
      1          3           0        1.160423   -0.262656   -0.398969
      2          6           0        3.129915    0.190499   -0.051084
      3          6           0        4.043170    0.646414   -1.174180
      4          6           0        3.790400   -0.833275   -0.952680
      5          1           0        3.610531    0.037488    0.939473
      6          1           0        4.885914    1.154503   -0.657378
      7          1           0        3.369561    1.226468   -1.839440
      8          1           0        4.787688   -1.248379   -0.692712
      9          1           0        3.258567   -1.168662   -1.867386
 ---------------------------------------------------------------------
                    Distance matrix (angstroms):
                    1          2          3          4          5
     1  Li   0.000000
     2  C    2.050677   0.000000
     3  C    3.120512   1.517642   0.000000
     4  C    2.747542   1.515662   1.517377   0.000000
     5  H    2.807943   1.111578   2.241762   2.090651   0.000000
     6  H    3.994296   2.092947   1.111511   2.288802   2.329003
     7  H    3.028654   2.080596   1.110307   2.281663   3.032177
     8  H    3.770277   2.286978   2.091975   1.111071   2.388133
     9  H    2.716488   2.272185   2.095385   1.109963   3.075245
                    6          7          8          9
     6  H    0.000000
     7  H    1.924000   0.000000
     8  H    2.405149   3.074237   0.000000
     9  H    3.083743   2.397863   1.929877   0.000000
 Stoichiometry    C3H5Li
 Framework group  C1[X(C3H5Li)]
 Deg. of freedom    21
 Full point group                 C1      NOp   1
 Largest Abelian subgroup         C1      NOp   1
 Largest concise Abelian subgroup C1      NOp   1
                         Standard orientation:                         
 ---------------------------------------------------------------------
 Center     Atomic      Atomic             Coordinates (Angstroms)
 Number     Number       Type             X           Y           Z
 ---------------------------------------------------------------------
      1          3           0        2.261998   -0.080518   -0.419740
      2          6           0        0.443531   -0.374059    0.481530
      3          6           0       -0.828851   -0.501471   -0.335812
      4          6           0       -0.279899    0.870741    0.007872
      5          1           0        0.317306   -0.363799    1.585871
      6          1           0       -1.547626   -1.004552    0.346631
      7          1           0       -0.493682   -1.012120   -1.263002
      8          1           0       -1.068777    1.334353    0.638121
      9          1           0       -0.001894    1.316401   -0.969941
 ---------------------------------------------------------------------
 Rotational constants (GHZ):     16.5619759      8.1756173      7.1788308
 Leave Link  202 at Sun Oct  3 00:42:20 2021, MaxMem=  268435456 cpu:       0.0
 (Enter /sw/target/amd/app/gaussian/Gaussian09RevA.02_gcc-4.9.2/g09/l301.exe)
 Standard basis: 6-31G(d) (6D, 7F)
 Ernie: Thresh=  0.10000D-02 Tol=  0.10000D-05 Strict=F.
 There are    70 symmetry adapted basis functions of A   symmetry.
 Integral buffers will be    131072 words long.
 Raffenetti 2 integral format.
 Two-electron integral symmetry is turned on.
    70 basis functions,   132 primitive gaussians,    70 cartesian basis functions
    13 alpha electrons       13 beta electrons
       nuclear repulsion energy        82.3283646777 Hartrees.
 IExCor=  402 DFT=T Ex+Corr=B3LYP ExCW=0 ScaHFX=  0.200000
 ScaDFX=  0.800000  0.720000  1.000000  0.810000 ScalE2=  1.000000  1.000000
 IRadAn=      0 IRanWt=     -1 IRanGd=            0 ICorTp=0
 NAtoms=    9 NActive=    9 NUniq=    9 SFac= 7.50D-01 NAtFMM=   80 NAOKFM=F Big=F
 Leave Link  301 at Sun Oct  3 00:42:21 2021, MaxMem=  268435456 cpu:       0.1
 (Enter /sw/target/amd/app/gaussian/Gaussian09RevA.02_gcc-4.9.2/g09/l302.exe)
 NPDir=0 NMtPBC=     1 NCelOv=     1 NCel=       1 NClECP=     1 NCelD=      1
         NCelK=      1 NCelE2=     1 NClLst=     1 CellRange=     0.0.
 One-electron integrals computed using PRISM.
 NBasis=    70 RedAO= T  NBF=    70
 NBsUse=    70 1.00D-06 NBFU=    70
 Precomputing XC quadrature grid using
 IXCGrd= 2 IRadAn=           0 IRanWt=          -1 IRanGd=           0 AccXCQ= 1.00D-10.
 NRdTot=     574 NPtTot=       72440 NUsed=       76588 NTot=       76620
 NSgBfM=    70    70    70    70    70 NAtAll=     9     9.
 Leave Link  302 at Sun Oct  3 00:42:24 2021, MaxMem=  268435456 cpu:       0.3
 (Enter /sw/target/amd/app/gaussian/Gaussian09RevA.02_gcc-4.9.2/g09/l303.exe)
 DipDrv:  MaxL=1.
 Leave Link  303 at Sun Oct  3 00:42:24 2021, MaxMem=  268435456 cpu:       0.1
 (Enter /sw/target/amd/app/gaussian/Gaussian09RevA.02_gcc-4.9.2/g09/l401.exe)
 Harris functional with IExCor=  402 diagonalized for initial guess.
 ExpMin= 3.60D-02 ExpMax= 3.05D+03 ExpMxC= 4.57D+02 IAcc=3 IRadAn=         0 AccDes= 0.00D+00
 HarFok:  IExCor=  402 AccDes= 0.00D+00 IRadAn=         0 IDoV= 1
 ScaDFX=  1.000000  1.000000  1.000000  1.000000
 FoFCou: FMM=F IPFlag=           0 FMFlag=      100000 FMFlg1=           0
         NFxFlg=           0 DoJE=T BraDBF=F KetDBF=T FulRan=T
         Omega=  0.000000  0.000000  1.000000  0.000000  0.000000 ICntrl=     500 IOpCl=  0
         NMat0=    1 NMatS0=    1 NMatT0=    0 NMatD0=    1 NMtDS0=    0 NMtDT0=    0
         I1Cent=           4 NGrid=           0.
 Petite list used in FoFCou.
 Harris En= -124.871483524661    
 Initial guess orbital symmetries:
       Occupied  (A) (A) (A) (A) (A) (A) (A) (A) (A) (A) (A) (A)
                 (A)
       Virtual   (A) (A) (A) (A) (A) (A) (A) (A) (A) (A) (A) (A)
                 (A) (A) (A) (A) (A) (A) (A) (A) (A) (A) (A) (A)
                 (A) (A) (A) (A) (A) (A) (A) (A) (A) (A) (A) (A)
                 (A) (A) (A) (A) (A) (A) (A) (A) (A) (A) (A) (A)
                 (A) (A) (A) (A) (A) (A) (A) (A) (A)
 The electronic state of the initial guess is 1-A.
 Leave Link  401 at Sun Oct  3 00:42:46 2021, MaxMem=  268435456 cpu:       2.6
 (Enter /sw/target/amd/app/gaussian/Gaussian09RevA.02_gcc-4.9.2/g09/l502.exe)
 Closed shell SCF:
 Requested convergence on RMS density matrix=1.00D-08 within  64 cycles.
 Requested convergence on MAX density matrix=1.00D-06.
 Requested convergence on             energy=1.00D-06.
 No special actions if energy rises.
 Using DIIS extrapolation, IDIIS=  1040.
 Integral symmetry usage will be decided dynamically.
        76494 words used for storage of precomputed grid.
 Keep R1 ints in memory in canonical form, NReq=4075175.
 IEnd=       97686 IEndB=       97686 NGot=   268435456 MDV=   265258082
 LenX=   265258082 LenY=   265252741
 Symmetry not used in FoFDir.
 MinBra= 0 MaxBra= 2 Meth= 1.
 IRaf=       0 NMat=   1 IRICut=       1 DoRegI=T DoRafI=F ISym2E= 0 JSym2E=0.

 Cycle   1  Pass 1  IDiag  1:
 E= -124.504090160994    
 DIIS: error= 3.87D-02 at cycle   1 NSaved=   1.
 NSaved= 1 IEnMin= 1 EnMin= -124.504090160994     IErMin= 1 ErrMin= 3.87D-02
 ErrMax= 3.87D-02 EMaxC= 1.00D-01 BMatC= 1.98D-01 BMatP= 1.98D-01
 IDIUse=3 WtCom= 6.13D-01 WtEn= 3.87D-01
 Coeff-Com:  0.100D+01
 Coeff-En:   0.100D+01
 Coeff:      0.100D+01
 Gap=    -0.098 Goal=   None    Shift=    0.000
 GapD=   -0.098 DampG=0.250 DampE=0.500 DampFc=0.2500 IDamp=-1.
 Damping current iteration by 2.50D-01
 RMSDP=2.09D-02 MaxDP=4.65D-01              OVMax= 9.20D-01

 Cycle   2  Pass 1  IDiag  1:
 E= -124.561567994758     Delta-E=       -0.057477833764 Rises=F Damp=T
 DIIS: error= 1.09D-02 at cycle   2 NSaved=   2.
 NSaved= 2 IEnMin= 2 EnMin= -124.561567994758     IErMin= 2 ErrMin= 1.09D-02
 ErrMax= 1.09D-02 EMaxC= 1.00D-01 BMatC= 1.67D-02 BMatP= 1.98D-01
 IDIUse=3 WtCom= 8.91D-01 WtEn= 1.09D-01
 Coeff-Com: -0.292D+00 0.129D+01
 Coeff-En:   0.268D+00 0.732D+00
 Coeff:     -0.231D+00 0.123D+01
 Gap=     0.133 Goal=   None    Shift=    0.000
 RMSDP=4.62D-03 MaxDP=1.15D-01 DE=-5.75D-02 OVMax= 9.32D-01

 Cycle   3  Pass 1  IDiag  1:
 E= -124.719087861113     Delta-E=       -0.157519866355 Rises=F Damp=F
 DIIS: error= 1.21D-02 at cycle   3 NSaved=   3.
 NSaved= 3 IEnMin= 3 EnMin= -124.719087861113     IErMin= 2 ErrMin= 1.09D-02
 ErrMax= 1.21D-02 EMaxC= 1.00D-01 BMatC= 1.92D-02 BMatP= 1.67D-02
 IDIUse=2 WtCom= 0.00D+00 WtEn= 1.00D+00
 Coeff-En:   0.000D+00 0.000D+00 0.100D+01
 Coeff:      0.000D+00 0.000D+00 0.100D+01
 Gap=     0.042 Goal=   None    Shift=    0.000
 RMSDP=7.41D-03 MaxDP=1.10D-01 DE=-1.58D-01 OVMax= 3.33D-01

 Cycle   4  Pass 1  IDiag  1:
 E= -124.657620202516     Delta-E=        0.061467658598 Rises=F Damp=F
 DIIS: error= 2.26D-02 at cycle   4 NSaved=   4.
 NSaved= 4 IEnMin= 3 EnMin= -124.719087861113     IErMin= 2 ErrMin= 1.09D-02
 ErrMax= 2.26D-02 EMaxC= 1.00D-01 BMatC= 7.07D-02 BMatP= 1.67D-02
 IDIUse=2 WtCom= 0.00D+00 WtEn= 1.00D+00
 Coeff-En:   0.000D+00 0.000D+00 0.739D+00 0.261D+00
 Coeff:      0.000D+00 0.000D+00 0.739D+00 0.261D+00
 Gap=     0.088 Goal=   None    Shift=    0.000
 RMSDP=3.82D-03 MaxDP=5.63D-02 DE= 6.15D-02 OVMax= 1.89D-01

 Cycle   5  Pass 1  IDiag  1:
 E= -124.741879948732     Delta-E=       -0.084259746216 Rises=F Damp=F
 DIIS: error= 4.61D-03 at cycle   5 NSaved=   5.
 NSaved= 5 IEnMin= 5 EnMin= -124.741879948732     IErMin= 5 ErrMin= 4.61D-03
 ErrMax= 4.61D-03 EMaxC= 1.00D-01 BMatC= 2.88D-03 BMatP= 1.67D-02
 IDIUse=3 WtCom= 9.54D-01 WtEn= 4.61D-02
 Coeff-Com: -0.102D-01 0.139D-01 0.217D+00-0.668D-01 0.846D+00
 Coeff-En:   0.000D+00 0.000D+00 0.761D-01 0.000D+00 0.924D+00
 Coeff:     -0.973D-02 0.133D-01 0.211D+00-0.637D-01 0.849D+00
 Gap=     0.107 Goal=   None    Shift=    0.000
 RMSDP=8.34D-04 MaxDP=1.23D-02 DE=-8.43D-02 OVMax= 2.89D-02

 Cycle   6  Pass 1  IDiag  1:
 E= -124.745007995738     Delta-E=       -0.003128047006 Rises=F Damp=F
 DIIS: error= 5.41D-04 at cycle   6 NSaved=   6.
 NSaved= 6 IEnMin= 6 EnMin= -124.745007995738     IErMin= 6 ErrMin= 5.41D-04
 ErrMax= 5.41D-04 EMaxC= 1.00D-01 BMatC= 3.61D-05 BMatP= 2.88D-03
 IDIUse=3 WtCom= 9.95D-01 WtEn= 5.41D-03
 Coeff-Com:  0.336D-02 0.968D-03 0.485D-01-0.347D-01 0.324D+00 0.658D+00
 Coeff-En:   0.000D+00 0.000D+00 0.000D+00 0.000D+00 0.000D+00 0.100D+01
 Coeff:      0.334D-02 0.962D-03 0.483D-01-0.345D-01 0.322D+00 0.660D+00
 Gap=     0.108 Goal=   None    Shift=    0.000
 RMSDP=1.06D-04 MaxDP=1.58D-03 DE=-3.13D-03 OVMax= 2.65D-03

 Cycle   7  Pass 1  IDiag  1:
 E= -124.745033956193     Delta-E=       -0.000025960456 Rises=F Damp=F
 DIIS: error= 2.71D-04 at cycle   7 NSaved=   7.
 NSaved= 7 IEnMin= 7 EnMin= -124.745033956193     IErMin= 7 ErrMin= 2.71D-04
 ErrMax= 2.71D-04 EMaxC= 1.00D-01 BMatC= 1.06D-05 BMatP= 3.61D-05
 IDIUse=3 WtCom= 9.97D-01 WtEn= 2.71D-03
 Coeff-Com:  0.588D-02-0.413D-02 0.809D-02-0.578D-02 0.664D-01 0.345D+00
 Coeff-Com:  0.584D+00
 Coeff-En:   0.000D+00 0.000D+00 0.000D+00 0.000D+00 0.000D+00 0.166D+00
 Coeff-En:   0.834D+00
 Coeff:      0.587D-02-0.412D-02 0.807D-02-0.576D-02 0.662D-01 0.345D+00
 Coeff:      0.585D+00
 Gap=     0.109 Goal=   None    Shift=    0.000
 RMSDP=4.47D-05 MaxDP=7.15D-04 DE=-2.60D-05 OVMax= 9.39D-04

 Cycle   8  Pass 1  IDiag  1:
 E= -124.745044258959     Delta-E=       -0.000010302766 Rises=F Damp=F
 DIIS: error= 7.64D-05 at cycle   8 NSaved=   8.
 NSaved= 8 IEnMin= 8 EnMin= -124.745044258959     IErMin= 8 ErrMin= 7.64D-05
 ErrMax= 7.64D-05 EMaxC= 1.00D-01 BMatC= 8.74D-07 BMatP= 1.06D-05
 IDIUse=1 WtCom= 1.00D+00 WtEn= 0.00D+00
 Coeff-Com:  0.150D-02-0.138D-02 0.337D-02-0.867D-03 0.373D-02 0.100D-01
 Coeff-Com:  0.894D-01 0.894D+00
 Coeff:      0.150D-02-0.138D-02 0.337D-02-0.867D-03 0.373D-02 0.100D-01
 Coeff:      0.894D-01 0.894D+00
 Gap=     0.109 Goal=   None    Shift=    0.000
 RMSDP=1.68D-05 MaxDP=3.07D-04 DE=-1.03D-05 OVMax= 3.45D-04

 Cycle   9  Pass 1  IDiag  1:
 E= -124.745045282371     Delta-E=       -0.000001023411 Rises=F Damp=F
 DIIS: error= 1.68D-05 at cycle   9 NSaved=   9.
 NSaved= 9 IEnMin= 9 EnMin= -124.745045282371     IErMin= 9 ErrMin= 1.68D-05
 ErrMax= 1.68D-05 EMaxC= 1.00D-01 BMatC= 5.81D-08 BMatP= 8.74D-07
 IDIUse=1 WtCom= 1.00D+00 WtEn= 0.00D+00
 Coeff-Com:  0.135D-03-0.146D-03 0.135D-02-0.526D-03-0.640D-04-0.179D-01
 Coeff-Com: -0.123D-01 0.229D+00 0.800D+00
 Coeff:      0.135D-03-0.146D-03 0.135D-02-0.526D-03-0.640D-04-0.179D-01
 Coeff:     -0.123D-01 0.229D+00 0.800D+00
 Gap=     0.109 Goal=   None    Shift=    0.000
 RMSDP=4.47D-06 MaxDP=6.40D-05 DE=-1.02D-06 OVMax= 1.14D-04

 Cycle  10  Pass 1  IDiag  1:
 E= -124.745045351546     Delta-E=       -0.000000069175 Rises=F Damp=F
 DIIS: error= 2.53D-06 at cycle  10 NSaved=  10.
 NSaved=10 IEnMin=10 EnMin= -124.745045351546     IErMin=10 ErrMin= 2.53D-06
 ErrMax= 2.53D-06 EMaxC= 1.00D-01 BMatC= 1.25D-09 BMatP= 5.81D-08
 IDIUse=1 WtCom= 1.00D+00 WtEn= 0.00D+00
 Coeff-Com:  0.337D-05-0.357D-04 0.261D-03-0.414D-04-0.523D-04-0.356D-02
 Coeff-Com: -0.594D-02 0.753D-03 0.122D+00 0.887D+00
 Coeff:      0.337D-05-0.357D-04 0.261D-03-0.414D-04-0.523D-04-0.356D-02
 Coeff:     -0.594D-02 0.753D-03 0.122D+00 0.887D+00
 Gap=     0.109 Goal=   None    Shift=    0.000
 RMSDP=7.93D-07 MaxDP=1.13D-05 DE=-6.92D-08 OVMax= 1.62D-05

 Cycle  11  Pass 1  IDiag  1:
 E= -124.745045353222     Delta-E=       -0.000000001676 Rises=F Damp=F
 DIIS: error= 5.35D-07 at cycle  11 NSaved=  11.
 NSaved=11 IEnMin=11 EnMin= -124.745045353222     IErMin=11 ErrMin= 5.35D-07
 ErrMax= 5.35D-07 EMaxC= 1.00D-01 BMatC= 4.23D-11 BMatP= 1.25D-09
 IDIUse=1 WtCom= 1.00D+00 WtEn= 0.00D+00
 Coeff-Com: -0.342D-05 0.363D-05 0.712D-06 0.557D-05 0.308D-04 0.128D-03
 Coeff-Com: -0.666D-03-0.937D-02-0.168D-01 0.108D+00 0.919D+00
 Coeff:     -0.342D-05 0.363D-05 0.712D-06 0.557D-05 0.308D-04 0.128D-03
 Coeff:     -0.666D-03-0.937D-02-0.168D-01 0.108D+00 0.919D+00
 Gap=     0.109 Goal=   None    Shift=    0.000
 RMSDP=1.79D-07 MaxDP=2.49D-06 DE=-1.68D-09 OVMax= 4.33D-06

 Cycle  12  Pass 1  IDiag  1:
 E= -124.745045353282     Delta-E=       -0.000000000059 Rises=F Damp=F
 DIIS: error= 5.58D-08 at cycle  12 NSaved=  12.
 NSaved=12 IEnMin=12 EnMin= -124.745045353282     IErMin=12 ErrMin= 5.58D-08
 ErrMax= 5.58D-08 EMaxC= 1.00D-01 BMatC= 3.12D-13 BMatP= 4.23D-11
 IDIUse=1 WtCom= 1.00D+00 WtEn= 0.00D+00
 Coeff-Com: -0.884D-06 0.174D-05-0.902D-05 0.443D-05 0.322D-06 0.148D-03
 Coeff-Com:  0.867D-04-0.171D-02-0.739D-02-0.572D-02 0.161D+00 0.854D+00
 Coeff:     -0.884D-06 0.174D-05-0.902D-05 0.443D-05 0.322D-06 0.148D-03
 Coeff:      0.867D-04-0.171D-02-0.739D-02-0.572D-02 0.161D+00 0.854D+00
 Gap=     0.109 Goal=   None    Shift=    0.000
 RMSDP=1.86D-08 MaxDP=3.15D-07 DE=-5.93D-11 OVMax= 1.24D-06

 Cycle  13  Pass 1  IDiag  1:
 E= -124.745045353282     Delta-E=       -0.000000000000 Rises=F Damp=F
 DIIS: error= 2.04D-08 at cycle  13 NSaved=  13.
 NSaved=13 IEnMin=13 EnMin= -124.745045353282     IErMin=13 ErrMin= 2.04D-08
 ErrMax= 2.04D-08 EMaxC= 1.00D-01 BMatC= 5.28D-14 BMatP= 3.12D-13
 IDIUse=1 WtCom= 1.00D+00 WtEn= 0.00D+00
 Coeff-Com:  0.516D-07-0.180D-06-0.768D-06 0.923D-06-0.435D-05 0.632D-05
 Coeff-Com:  0.420D-04 0.350D-03 0.296D-03-0.447D-02-0.293D-01 0.587D-01
 Coeff-Com:  0.974D+00
 Coeff:      0.516D-07-0.180D-06-0.768D-06 0.923D-06-0.435D-05 0.632D-05
 Coeff:      0.420D-04 0.350D-03 0.296D-03-0.447D-02-0.293D-01 0.587D-01
 Coeff:      0.974D+00
 Gap=     0.109 Goal=   None    Shift=    0.000
 RMSDP=8.23D-09 MaxDP=1.87D-07 DE=-4.83D-13 OVMax= 5.31D-07

 SCF Done:  E(RB3LYP) =  -124.745045353     A.U. after   13 cycles
             Convg  =    0.8228D-08             -V/T =  2.0105
 KE= 1.234515795155D+02 PE=-4.539301249047D+02 EE= 1.234051353582D+02
 Leave Link  502 at Sun Oct  3 00:45:16 2021, MaxMem=  268435456 cpu:      19.2
 (Enter /sw/target/amd/app/gaussian/Gaussian09RevA.02_gcc-4.9.2/g09/l508.exe)
 QCSCF skips out because SCF is already converged.
 Leave Link  508 at Sun Oct  3 00:45:16 2021, MaxMem=  268435456 cpu:       0.0
 (Enter /sw/target/amd/app/gaussian/Gaussian09RevA.02_gcc-4.9.2/g09/l601.exe)
 Copying SCF densities to generalized density rwf, IOpCl= 0 IROHF=0.

 **********************************************************************

            Population analysis using the SCF density.

 **********************************************************************

 Orbital symmetries:
       Occupied  (A) (A) (A) (A) (A) (A) (A) (A) (A) (A) (A) (A)
                 (A)
       Virtual   (A) (A) (A) (A) (A) (A) (A) (A) (A) (A) (A) (A)
                 (A) (A) (A) (A) (A) (A) (A) (A) (A) (A) (A) (A)
                 (A) (A) (A) (A) (A) (A) (A) (A) (A) (A) (A) (A)
                 (A) (A) (A) (A) (A) (A) (A) (A) (A) (A) (A) (A)
                 (A) (A) (A) (A) (A) (A) (A) (A) (A)
 The electronic state is 1-A.
 Alpha  occ. eigenvalues --  -10.15281 -10.13968 -10.10418  -1.99794  -0.79276
 Alpha  occ. eigenvalues --   -0.54556  -0.50428  -0.44127  -0.37108  -0.32636
 Alpha  occ. eigenvalues --   -0.24994  -0.22186  -0.15839
 Alpha virt. eigenvalues --   -0.04942   0.00286   0.01128   0.06166   0.11074
 Alpha virt. eigenvalues --    0.12108   0.12850   0.14380   0.17801   0.18645
 Alpha virt. eigenvalues --    0.21218   0.24487   0.25036   0.28166   0.29677
 Alpha virt. eigenvalues --    0.32824   0.46190   0.47614   0.49442   0.50742
 Alpha virt. eigenvalues --    0.58156   0.63287   0.66348   0.69710   0.72307
 Alpha virt. eigenvalues --    0.73557   0.78526   0.83342   0.85796   0.89148
 Alpha virt. eigenvalues --    0.94054   0.95856   0.96794   0.98564   1.03552
 Alpha virt. eigenvalues --    1.16821   1.17388   1.41357   1.42744   1.61277
 Alpha virt. eigenvalues --    1.70614   1.80101   1.92595   1.95924   1.98761
 Alpha virt. eigenvalues --    2.16284   2.24485   2.26635   2.30460   2.41196
 Alpha virt. eigenvalues --    2.46038   2.56355   2.61691   2.84565   4.16752
 Alpha virt. eigenvalues --    4.43610   4.47220
          Condensed to atoms (all electrons):
              1          2          3          4          5          6
     1  Li   2.339944   0.396128  -0.041049   0.006134  -0.031593   0.004557
     2  C    0.396128   5.246224   0.247570   0.221974   0.355775  -0.028805
     3  C   -0.041049   0.247570   5.184561   0.247817  -0.035277   0.377588
     4  C    0.006134   0.221974   0.247817   5.181990  -0.025523  -0.020634
     5  H   -0.031593   0.355775  -0.035277  -0.025523   0.657968  -0.011438
     6  H    0.004557  -0.028805   0.377588  -0.020634  -0.011438   0.584233
     7  H   -0.014136  -0.049335   0.384220  -0.025792   0.004261  -0.033466
     8  H    0.009972  -0.023952  -0.021849   0.359689  -0.014902  -0.005483
     9  H   -0.014162  -0.048903  -0.022883   0.359719   0.005468   0.001331
              7          8          9
     1  Li  -0.014136   0.009972  -0.014162
     2  C   -0.049335  -0.023952  -0.048903
     3  C    0.384220  -0.021849  -0.022883
     4  C   -0.025792   0.359689   0.359719
     5  H    0.004261  -0.014902   0.005468
     6  H   -0.033466  -0.005483   0.001331
     7  H    0.609632   0.001283  -0.005980
     8  H    0.001283   0.607508  -0.041897
     9  H   -0.005980  -0.041897   0.655087
 Mulliken atomic charges:
              1
     1  Li   0.344206
     2  C   -0.316677
     3  C   -0.320698
     4  C   -0.305372
     5  H    0.095261
     6  H    0.132117
     7  H    0.129312
     8  H    0.129630
     9  H    0.112221
 Sum of Mulliken atomic charges =  -0.00000
 Mulliken charges with hydrogens summed into heavy atoms:
              1
     1  Li   0.344206
     2  C   -0.221416
     3  C   -0.059269
     4  C   -0.063521
 Sum of Mulliken charges with hydrogens summed into heavy atoms =  -0.00000
 Electronic spatial extent (au):  <R**2>=            205.2929
 Charge=             -0.0000 electrons
 Dipole moment (field-independent basis, Debye):
    X=              4.9115    Y=              1.1029    Z=             -2.1381  Tot=              5.4691
 Quadrupole moment (field-independent basis, Debye-Ang):
   XX=             -8.6883   YY=            -25.7208   ZZ=            -21.8486
   XY=              1.9988   XZ=             -6.9369   YZ=              0.2305
 Traceless Quadrupole moment (field-independent basis, Debye-Ang):
   XX=             10.0643   YY=             -6.9683   ZZ=             -3.0960
   XY=              1.9988   XZ=             -6.9369   YZ=              0.2305
 Octapole moment (field-independent basis, Debye-Ang**2):
  XXX=             44.2069  YYY=              2.4270  ZZZ=             -3.0794  XYY=             -2.5220
  XXY=              4.0567  XXZ=            -10.8365  XZZ=              2.6632  YZZ=              0.7306
  YYZ=             -1.3403  XYZ=              0.3811
 Hexadecapole moment (field-independent basis, Debye-Ang**3):
 XXXX=            -37.3698 YYYY=           -102.5960 ZZZZ=            -65.4110 XXXY=              9.8932
 XXXZ=            -36.8742 YYYX=              6.7275 YYYZ=              0.3952 ZZZX=             -9.1948
 ZZZY=              0.3255 XXYY=            -42.4677 XXZZ=            -30.4820 YYZZ=            -27.1269
 XXYZ=              0.5474 YYXZ=             -3.5980 ZZXY=              1.5954
 N-N= 8.232836467773D+01 E-N=-4.539301211683D+02  KE= 1.234515795155D+02
 No NMR shielding tensors so no spin-rotation constants.
 Leave Link  601 at Sun Oct  3 00:45:18 2021, MaxMem=  268435456 cpu:       0.2
 (Enter /sw/target/amd/app/gaussian/Gaussian09RevA.02_gcc-4.9.2/g09/l701.exe)
 Compute integral first derivatives.
 ... and contract with generalized density number  0.
 Leave Link  701 at Sun Oct  3 00:45:20 2021, MaxMem=  268435456 cpu:       0.2
 (Enter /sw/target/amd/app/gaussian/Gaussian09RevA.02_gcc-4.9.2/g09/l702.exe)
 L702 exits ... SP integral derivatives will be done elsewhere.
 Leave Link  702 at Sun Oct  3 00:45:20 2021, MaxMem=  268435456 cpu:       0.1
 (Enter /sw/target/amd/app/gaussian/Gaussian09RevA.02_gcc-4.9.2/g09/l703.exe)
 Compute integral first derivatives, UseDBF=F ICtDFT=           0.
 Integral derivatives from FoFDir, PRISM(SPDF).
 Calling FoFJK, ICntrl=      2127 FMM=F ISym2X=0 I1Cent= 0 IOpClX= 0 NMat=1 NMatS=1 NMatT=0.
 FoFCou: FMM=F IPFlag=           0 FMFlag=      100000 FMFlg1=         800
         NFxFlg=           0 DoJE=F BraDBF=F KetDBF=F FulRan=T
         Omega=  0.000000  0.000000  1.000000  0.000000  0.000000 ICntrl=    2127 IOpCl=  0
         NMat0=    1 NMatS0=    1 NMatT0=    0 NMatD0=    1 NMtDS0=    0 NMtDT0=    0
         I1Cent=           0 NGrid=           0.
 Symmetry not used in FoFCou.
 Leave Link  703 at Sun Oct  3 00:45:56 2021, MaxMem=  268435456 cpu:       4.5
 (Enter /sw/target/amd/app/gaussian/Gaussian09RevA.02_gcc-4.9.2/g09/l716.exe)
 Dipole        = 1.93232453D+00 4.33907593D-01-8.41211128D-01
 ***** Axes restored to original set *****
 -------------------------------------------------------------------
 Center     Atomic                   Forces (Hartrees/Bohr)
 Number     Number              X              Y              Z
 -------------------------------------------------------------------
      1        3           0.011711811    0.004011889    0.005633832
      2        6          -0.028543478   -0.030067336    0.027305385
      3        6          -0.018584653    0.037328627    0.033193219
      4        6           0.023209901    0.016806425   -0.034673459
      5        1          -0.004044548    0.013612558   -0.007006902
      6        1          -0.000701246   -0.006006547   -0.027187351
      7        1           0.027126231   -0.004386538   -0.005550281
      8        1          -0.019968491   -0.014557945   -0.004011232
      9        1           0.009794473   -0.016741134    0.012296789
 -------------------------------------------------------------------
 Cartesian Forces:  Max     0.037328627 RMS     0.019701384
 Leave Link  716 at Sun Oct  3 00:45:57 2021, MaxMem=  268435456 cpu:       0.1
 (Enter /sw/target/amd/app/gaussian/Gaussian09RevA.02_gcc-4.9.2/g09/l103.exe)

 GradGradGradGradGradGradGradGradGradGradGradGradGradGradGradGradGradGrad
 Berny optimization.
 Internal  Forces:  Max     0.018975198 RMS     0.010896156
 Search for a local minimum.
 Step number   1 out of a maximum of   46
 All quantities printed in internal units (Hartrees-Bohrs-Radians)
 RMS Force = .10896D-01 SwitMx=.10000D-02 MixMth= 1
 Mixed Optimization -- RFO/linear search
 Second derivative matrix not updated -- first step.
     Eigenvalues ---    0.01747   0.03247   0.03301   0.03460   0.03508
     Eigenvalues ---    0.04189   0.07982   0.11261   0.11390   0.12122
     Eigenvalues ---    0.16000   0.16845   0.20458   0.28146   0.28730
     Eigenvalues ---    0.30670   0.32433   0.32441   0.32487   0.32568
     Eigenvalues ---    0.326041000.000001000.000001000.000001000.00000
     Eigenvalues --- 1000.000001000.000001000.000001000.000001000.00000
     Eigenvalues --- 1000.000001000.000001000.000001000.000001000.00000
     Eigenvalues --- 1000.00000
 RFO step:  Lambda=-3.39808763D-02 EMin= 1.74689541D-02
 Linear search not attempted -- first point.
 Maximum step size (   0.300) exceeded in Quadratic search.
    -- Step size scaled by   0.488
 Iteration  1 RMS(Cart)=  0.03560860 RMS(Int)=  0.00231063
 Iteration  2 RMS(Cart)=  0.00147291 RMS(Int)=  0.00179728
 Iteration  3 RMS(Cart)=  0.00000133 RMS(Int)=  0.00179728
 Iteration  4 RMS(Cart)=  0.00000000 RMS(Int)=  0.00179728
 Variable       Old X    -DE/DX   Delta X   Delta X   Delta X     New X
                                 (Linear)    (Quad)   (Total)
    R1        3.87522  -0.01309   0.00000  -0.05612  -0.05612   3.81910
    R2        2.86793   0.01898   0.00000   0.02920   0.02901   2.89694
    R3        2.86419   0.01378   0.00000   0.02330   0.02353   2.88772
    R4        2.10058  -0.00987   0.00000  -0.01343  -0.01343   2.08715
    R5        2.86743   0.01086   0.00000   0.00997   0.00992   2.87734
    R6        2.10045  -0.01592   0.00000  -0.02167  -0.02167   2.07878
    R7        2.09818  -0.01542   0.00000  -0.02092  -0.02092   2.07725
    R8        2.09962  -0.01342   0.00000  -0.01825  -0.01825   2.08137
    R9        2.09753  -0.00977   0.00000  -0.01324  -0.01324   2.08429
    A1        2.11622   0.00566   0.00000   0.01486   0.01466   2.13088
    A2        1.73995   0.00415   0.00000   0.01319   0.01305   1.75300
    A3        2.13650  -0.00185   0.00000   0.00395   0.00303   2.13953
    A4        2.02709  -0.00307   0.00000  -0.01440  -0.01472   2.01237
    A5        1.82213   0.00672   0.00000   0.03846   0.03838   1.86051
    A6        1.82295   0.01266   0.00000   0.07046   0.06888   1.89183
    A7        1.80829   0.01379   0.00000   0.07662   0.07522   1.88350
    A8        2.09924   0.00634   0.00000   0.01008   0.00672   2.10596
    A9        2.08961   0.00346   0.00000   0.00707   0.00361   2.09322
   A10        2.09412  -0.00926   0.00000  -0.01367  -0.02091   2.07322
   A11        2.09939   0.00401   0.00000   0.00998   0.00809   2.10748
   A12        2.07774   0.00889   0.00000   0.02205   0.02005   2.09779
   A13        1.82240   0.00696   0.00000   0.05298   0.05216   1.87456
   A14        1.82779   0.01397   0.00000   0.06030   0.05939   1.88719
   A15        2.10599  -0.01314   0.00000  -0.03341  -0.03692   2.06906
    D1        2.79498  -0.00109   0.00000   0.02146   0.02318   2.81815
    D2        0.58896  -0.00359   0.00000  -0.03568  -0.03722   0.55175
    D3       -0.43275   0.00829   0.00000   0.07781   0.07935  -0.35339
    D4       -2.63876   0.00579   0.00000   0.02068   0.01896  -2.61980
    D5       -2.61130   0.01280   0.00000   0.07649   0.07601  -2.53529
    D6        0.51851  -0.00971   0.00000  -0.05653  -0.05679   0.46172
    D7       -0.39041   0.01538   0.00000   0.10261   0.10280  -0.28761
    D8        2.73940  -0.00713   0.00000  -0.03041  -0.03000   2.70940
    D9       -0.47427   0.01142   0.00000   0.10215   0.10229  -0.37198
   D10       -2.70369   0.01559   0.00000   0.08094   0.07984  -2.62384
   D11        2.68928  -0.01657   0.00000  -0.08000  -0.07883   2.61045
   D12        0.45986  -0.01240   0.00000  -0.10121  -0.10127   0.35860
         Item               Value     Threshold  Converged?
 Maximum Force            0.018975     0.000450     NO 
 RMS     Force            0.010896     0.000300     NO 
 Maximum Displacement     0.092355     0.001800     NO 
 RMS     Displacement     0.035568     0.001200     NO 
 Predicted change in Energy=-1.405710D-02
 GradGradGradGradGradGradGradGradGradGradGradGradGradGradGradGradGradGrad

 Leave Link  103 at Sun Oct  3 00:45:57 2021, MaxMem=  268435456 cpu:       0.0
 (Enter /sw/target/amd/app/gaussian/Gaussian09RevA.02_gcc-4.9.2/g09/l202.exe)
                          Input orientation:                          
 ---------------------------------------------------------------------
 Center     Atomic      Atomic             Coordinates (Angstroms)
 Number     Number       Type             X           Y           Z
 ---------------------------------------------------------------------
      1          3           0        1.169352   -0.289730   -0.370327
      2          6           0        3.107973    0.171808   -0.034036
      3          6           0        4.030387    0.676383   -1.149667
      4          6           0        3.795267   -0.817694   -0.974061
      5          1           0        3.585247    0.051316    0.954673
      6          1           0        4.899889    1.165727   -0.686411
      7          1           0        3.418434    1.247968   -1.861793
      8          1           0        4.760754   -1.273600   -0.703701
      9          1           0        3.268865   -1.189775   -1.869034
 ---------------------------------------------------------------------
                    Distance matrix (angstroms):
                    1          2          3          4          5
     1  Li   0.000000
     2  C    2.020980   0.000000
     3  C    3.118696   1.532996   0.000000
     4  C    2.745663   1.528115   1.522625   0.000000
     5  H    2.776416   1.104470   2.239890   2.125866   0.000000
     6  H    4.016861   2.150449   1.100044   2.288426   2.379780
     7  H    3.106019   2.143643   1.099236   2.279700   3.064684
     8  H    3.738624   2.295504   2.129497   1.101413   2.426402
     9  H    2.732061   2.290636   2.140082   1.102959   3.100601
                    6          7          8          9
     6  H    0.000000
     7  H    1.892881   0.000000
     8  H    2.443353   3.082419   0.000000
     9  H    3.099553   2.442338   1.894931   0.000000
 Stoichiometry    C3H5Li
 Framework group  C1[X(C3H5Li)]
 Deg. of freedom    21
 Full point group                 C1      NOp   1
 Largest Abelian subgroup         C1      NOp   1
 Largest concise Abelian subgroup C1      NOp   1
                         Standard orientation:                         
 ---------------------------------------------------------------------
 Center     Atomic      Atomic             Coordinates (Angstroms)
 Number     Number       Type             X           Y           Z
 ---------------------------------------------------------------------
      1          3           0        2.247719   -0.091620   -0.452512
      2          6           0        0.471379   -0.378885    0.467517
      3          6           0       -0.840264   -0.506245   -0.315713
      4          6           0       -0.281038    0.871208    0.013343
      5          1           0        0.371354   -0.425527    1.566459
      6          1           0       -1.589800   -0.977956    0.336806
      7          1           0       -0.611929   -0.973962   -1.283920
      8          1           0       -1.001868    1.368441    0.681381
      9          1           0       -0.011380    1.367397   -0.934074
 ---------------------------------------------------------------------
 Rotational constants (GHZ):     16.5019843      8.1613631      7.1247794
 Leave Link  202 at Sun Oct  3 00:45:57 2021, MaxMem=  268435456 cpu:       0.0
 (Enter /sw/target/amd/app/gaussian/Gaussian09RevA.02_gcc-4.9.2/g09/l301.exe)
 Standard basis: 6-31G(d) (6D, 7F)
 Ernie: Thresh=  0.10000D-02 Tol=  0.10000D-05 Strict=F.
 There are    70 symmetry adapted basis functions of A   symmetry.
 Integral buffers will be    131072 words long.
 Raffenetti 2 integral format.
 Two-electron integral symmetry is turned on.
    70 basis functions,   132 primitive gaussians,    70 cartesian basis functions
    13 alpha electrons       13 beta electrons
       nuclear repulsion energy        82.0472752603 Hartrees.
 IExCor=  402 DFT=T Ex+Corr=B3LYP ExCW=0 ScaHFX=  0.200000
 ScaDFX=  0.800000  0.720000  1.000000  0.810000 ScalE2=  1.000000  1.000000
 IRadAn=      0 IRanWt=     -1 IRanGd=            0 ICorTp=0
 NAtoms=    9 NActive=    9 NUniq=    9 SFac= 7.50D-01 NAtFMM=   80 NAOKFM=F Big=F
 Leave Link  301 at Sun Oct  3 00:45:58 2021, MaxMem=  268435456 cpu:       0.1
 (Enter /sw/target/amd/app/gaussian/Gaussian09RevA.02_gcc-4.9.2/g09/l302.exe)
 NPDir=0 NMtPBC=     1 NCelOv=     1 NCel=       1 NClECP=     1 NCelD=      1
         NCelK=      1 NCelE2=     1 NClLst=     1 CellRange=     0.0.
 One-electron integrals computed using PRISM.
 NBasis=    70 RedAO= T  NBF=    70
 NBsUse=    70 1.00D-06 NBFU=    70
 Precomputing XC quadrature grid using
 IXCGrd= 2 IRadAn=           0 IRanWt=          -1 IRanGd=           0 AccXCQ= 1.00D-10.
 NRdTot=     574 NPtTot=       72440 NUsed=       76588 NTot=       76620
 NSgBfM=    70    70    70    70    70 NAtAll=     9     9.
 Leave Link  302 at Sun Oct  3 00:46:02 2021, MaxMem=  268435456 cpu:       0.3
 (Enter /sw/target/amd/app/gaussian/Gaussian09RevA.02_gcc-4.9.2/g09/l303.exe)
 DipDrv:  MaxL=1.
 Leave Link  303 at Sun Oct  3 00:46:03 2021, MaxMem=  268435456 cpu:       0.1
 (Enter /sw/target/amd/app/gaussian/Gaussian09RevA.02_gcc-4.9.2/g09/l401.exe)
 Initial guess read from the read-write file.
 B after Tr=     0.000000    0.000000    0.000000
         Rot=    1.000000    0.000000    0.000000    0.000000 Ang=   0.00 deg.
 Guess basis will be translated and rotated to current coordinates.
 Initial guess orbital symmetries:
       Occupied  (A) (A) (A) (A) (A) (A) (A) (A) (A) (A) (A) (A)
                 (A)
       Virtual   (A) (A) (A) (A) (A) (A) (A) (A) (A) (A) (A) (A)
                 (A) (A) (A) (A) (A) (A) (A) (A) (A) (A) (A) (A)
                 (A) (A) (A) (A) (A) (A) (A) (A) (A) (A) (A) (A)
                 (A) (A) (A) (A) (A) (A) (A) (A) (A) (A) (A) (A)
                 (A) (A) (A) (A) (A) (A) (A) (A) (A)
 The electronic state of the initial guess is 1-A.
 Generating alternative initial guess.
 Harris functional with IExCor=  402 diagonalized for initial guess.
 ExpMin= 3.60D-02 ExpMax= 3.05D+03 ExpMxC= 4.57D+02 IAcc=3 IRadAn=         0 AccDes= 0.00D+00
 HarFok:  IExCor=  402 AccDes= 0.00D+00 IRadAn=         0 IDoV= 1
 ScaDFX=  1.000000  1.000000  1.000000  1.000000
 FoFCou: FMM=F IPFlag=           0 FMFlag=      100000 FMFlg1=           0
         NFxFlg=           0 DoJE=T BraDBF=F KetDBF=T FulRan=T
         Omega=  0.000000  0.000000  1.000000  0.000000  0.000000 ICntrl=     500 IOpCl=  0
         NMat0=    1 NMatS0=    1 NMatT0=    0 NMatD0=    1 NMtDS0=    0 NMtDT0=    0
         I1Cent=           4 NGrid=           0.
 Petite list used in FoFCou.
 Harris En= -124.885668563655    
 Leave Link  401 at Sun Oct  3 00:46:25 2021, MaxMem=  268435456 cpu:       2.6
 (Enter /sw/target/amd/app/gaussian/Gaussian09RevA.02_gcc-4.9.2/g09/l502.exe)
 Closed shell SCF:
 Requested convergence on RMS density matrix=1.00D-08 within  64 cycles.
 Requested convergence on MAX density matrix=1.00D-06.
 Requested convergence on             energy=1.00D-06.
 No special actions if energy rises.
 Using DIIS extrapolation, IDIIS=  1040.
 Integral symmetry usage will be decided dynamically.
        76494 words used for storage of precomputed grid.
 Keep R1 ints in memory in canonical form, NReq=4075175.
 IEnd=       97686 IEndB=       97686 NGot=   268435456 MDV=   265258082
 LenX=   265258082 LenY=   265252741
 Symmetry not used in FoFDir.
 MinBra= 0 MaxBra= 2 Meth= 1.
 IRaf=       0 NMat=   1 IRICut=       1 DoRegI=T DoRafI=F ISym2E= 0 JSym2E=0.

 Cycle   1  Pass 1  IDiag  1:
 E= -124.756822119027    
 DIIS: error= 2.65D-03 at cycle   1 NSaved=   1.
 NSaved= 1 IEnMin= 1 EnMin= -124.756822119027     IErMin= 1 ErrMin= 2.65D-03
 ErrMax= 2.65D-03 EMaxC= 1.00D-01 BMatC= 1.35D-03 BMatP= 1.35D-03
 IDIUse=3 WtCom= 9.74D-01 WtEn= 2.65D-02
 Coeff-Com:  0.100D+01
 Coeff-En:   0.100D+01
 Coeff:      0.100D+01
 Gap=     0.114 Goal=   None    Shift=    0.000
 GapD=    0.114 DampG=1.000 DampE=1.000 DampFc=1.0000 IDamp=-1.
 RMSDP=8.67D-04 MaxDP=9.18D-03              OVMax= 1.56D-02

 Cycle   2  Pass 1  IDiag  1:
 E= -124.759067646639     Delta-E=       -0.002245527612 Rises=F Damp=F
 DIIS: error= 5.10D-04 at cycle   2 NSaved=   2.
 NSaved= 2 IEnMin= 2 EnMin= -124.759067646639     IErMin= 2 ErrMin= 5.10D-04
 ErrMax= 5.10D-04 EMaxC= 1.00D-01 BMatC= 3.29D-05 BMatP= 1.35D-03
 IDIUse=3 WtCom= 9.95D-01 WtEn= 5.10D-03
 Coeff-Com:  0.702D-02 0.993D+00
 Coeff-En:   0.000D+00 0.100D+01
 Coeff:      0.699D-02 0.993D+00
 Gap=     0.110 Goal=   None    Shift=    0.000
 RMSDP=1.97D-04 MaxDP=1.78D-03 DE=-2.25D-03 OVMax= 5.82D-03

 Cycle   3  Pass 1  IDiag  1:
 E= -124.759088316416     Delta-E=       -0.000020669777 Rises=F Damp=F
 DIIS: error= 3.85D-04 at cycle   3 NSaved=   3.
 NSaved= 3 IEnMin= 3 EnMin= -124.759088316416     IErMin= 3 ErrMin= 3.85D-04
 ErrMax= 3.85D-04 EMaxC= 1.00D-01 BMatC= 2.36D-05 BMatP= 3.29D-05
 IDIUse=3 WtCom= 9.96D-01 WtEn= 3.85D-03
 Coeff-Com: -0.167D-01 0.457D+00 0.559D+00
 Coeff-En:   0.000D+00 0.294D+00 0.706D+00
 Coeff:     -0.167D-01 0.457D+00 0.560D+00
 Gap=     0.112 Goal=   None    Shift=    0.000
 RMSDP=1.05D-04 MaxDP=1.38D-03 DE=-2.07D-05 OVMax= 3.74D-03

 Cycle   4  Pass 1  IDiag  1:
 E= -124.759111778255     Delta-E=       -0.000023461838 Rises=F Damp=F
 DIIS: error= 1.61D-04 at cycle   4 NSaved=   4.
 NSaved= 4 IEnMin= 4 EnMin= -124.759111778255     IErMin= 4 ErrMin= 1.61D-04
 ErrMax= 1.61D-04 EMaxC= 1.00D-01 BMatC= 4.15D-06 BMatP= 2.36D-05
 IDIUse=3 WtCom= 9.98D-01 WtEn= 1.61D-03
 Coeff-Com: -0.139D-01 0.151D+00 0.320D+00 0.543D+00
 Coeff-En:   0.000D+00 0.000D+00 0.103D+00 0.897D+00
 Coeff:     -0.139D-01 0.151D+00 0.319D+00 0.544D+00
 Gap=     0.112 Goal=   None    Shift=    0.000
 RMSDP=3.14D-05 MaxDP=4.25D-04 DE=-2.35D-05 OVMax= 9.75D-04

 Cycle   5  Pass 1  IDiag  1:
 E= -124.759116037459     Delta-E=       -0.000004259204 Rises=F Damp=F
 DIIS: error= 2.71D-05 at cycle   5 NSaved=   5.
 NSaved= 5 IEnMin= 5 EnMin= -124.759116037459     IErMin= 5 ErrMin= 2.71D-05
 ErrMax= 2.71D-05 EMaxC= 1.00D-01 BMatC= 8.01D-08 BMatP= 4.15D-06
 IDIUse=1 WtCom= 1.00D+00 WtEn= 0.00D+00
 Coeff-Com: -0.549D-02 0.542D-01 0.122D+00 0.233D+00 0.596D+00
 Coeff:     -0.549D-02 0.542D-01 0.122D+00 0.233D+00 0.596D+00
 Gap=     0.112 Goal=   None    Shift=    0.000
 RMSDP=5.30D-06 MaxDP=7.56D-05 DE=-4.26D-06 OVMax= 1.57D-04

 Cycle   6  Pass 1  IDiag  1:
 E= -124.759116105033     Delta-E=       -0.000000067574 Rises=F Damp=F
 DIIS: error= 1.26D-05 at cycle   6 NSaved=   6.
 NSaved= 6 IEnMin= 6 EnMin= -124.759116105033     IErMin= 6 ErrMin= 1.26D-05
 ErrMax= 1.26D-05 EMaxC= 1.00D-01 BMatC= 1.61D-08 BMatP= 8.01D-08
 IDIUse=1 WtCom= 1.00D+00 WtEn= 0.00D+00
 Coeff-Com: -0.362D-04-0.291D-02-0.222D-02 0.843D-02 0.317D+00 0.680D+00
 Coeff:     -0.362D-04-0.291D-02-0.222D-02 0.843D-02 0.317D+00 0.680D+00
 Gap=     0.112 Goal=   None    Shift=    0.000
 RMSDP=1.93D-06 MaxDP=2.34D-05 DE=-6.76D-08 OVMax= 4.82D-05

 Cycle   7  Pass 1  IDiag  1:
 E= -124.759116121692     Delta-E=       -0.000000016659 Rises=F Damp=F
 DIIS: error= 7.66D-07 at cycle   7 NSaved=   7.
 NSaved= 7 IEnMin= 7 EnMin= -124.759116121692     IErMin= 7 ErrMin= 7.66D-07
 ErrMax= 7.66D-07 EMaxC= 1.00D-01 BMatC= 6.58D-11 BMatP= 1.61D-08
 IDIUse=1 WtCom= 1.00D+00 WtEn= 0.00D+00
 Coeff-Com:  0.101D-03-0.153D-02-0.271D-02-0.468D-02 0.417D-01 0.121D+00
 Coeff-Com:  0.846D+00
 Coeff:      0.101D-03-0.153D-02-0.271D-02-0.468D-02 0.417D-01 0.121D+00
 Coeff:      0.846D+00
 Gap=     0.112 Goal=   None    Shift=    0.000
 RMSDP=2.28D-07 MaxDP=2.40D-06 DE=-1.67D-08 OVMax= 6.45D-06

 Cycle   8  Pass 1  IDiag  1:
 E= -124.759116121785     Delta-E=       -0.000000000093 Rises=F Damp=F
 DIIS: error= 1.72D-07 at cycle   8 NSaved=   8.
 NSaved= 8 IEnMin= 8 EnMin= -124.759116121785     IErMin= 8 ErrMin= 1.72D-07
 ErrMax= 1.72D-07 EMaxC= 1.00D-01 BMatC= 3.73D-12 BMatP= 6.58D-11
 IDIUse=1 WtCom= 1.00D+00 WtEn= 0.00D+00
 Coeff-Com:  0.263D-04-0.290D-03-0.593D-03-0.161D-02 0.139D-02 0.897D-02
 Coeff-Com:  0.215D+00 0.777D+00
 Coeff:      0.263D-04-0.290D-03-0.593D-03-0.161D-02 0.139D-02 0.897D-02
 Coeff:      0.215D+00 0.777D+00
 Gap=     0.112 Goal=   None    Shift=    0.000
 RMSDP=5.26D-08 MaxDP=5.42D-07 DE=-9.29D-11 OVMax= 2.07D-06

 Cycle   9  Pass 1  IDiag  1:
 E= -124.759116121789     Delta-E=       -0.000000000004 Rises=F Damp=F
 DIIS: error= 1.16D-07 at cycle   9 NSaved=   9.
 NSaved= 9 IEnMin= 9 EnMin= -124.759116121789     IErMin= 9 ErrMin= 1.16D-07
 ErrMax= 1.16D-07 EMaxC= 1.00D-01 BMatC= 1.30D-12 BMatP= 3.73D-12
 IDIUse=1 WtCom= 1.00D+00 WtEn= 0.00D+00
 Coeff-Com:  0.732D-05-0.547D-04-0.134D-03-0.569D-03-0.175D-02-0.307D-02
 Coeff-Com:  0.612D-01 0.425D+00 0.519D+00
 Coeff:      0.732D-05-0.547D-04-0.134D-03-0.569D-03-0.175D-02-0.307D-02
 Coeff:      0.612D-01 0.425D+00 0.519D+00
 Gap=     0.112 Goal=   None    Shift=    0.000
 RMSDP=1.81D-08 MaxDP=2.71D-07 DE=-4.18D-12 OVMax= 5.34D-07

 Cycle  10  Pass 1  IDiag  1:
 E= -124.759116121791     Delta-E=       -0.000000000002 Rises=F Damp=F
 DIIS: error= 1.32D-08 at cycle  10 NSaved=  10.
 NSaved=10 IEnMin=10 EnMin= -124.759116121791     IErMin=10 ErrMin= 1.32D-08
 ErrMax= 1.32D-08 EMaxC= 1.00D-01 BMatC= 3.50D-14 BMatP= 1.30D-12
 IDIUse=1 WtCom= 1.00D+00 WtEn= 0.00D+00
 Coeff-Com: -0.228D-05 0.315D-04 0.600D-04 0.908D-04-0.783D-03-0.271D-02
 Coeff-Com: -0.198D-01-0.648D-02 0.122D+00 0.908D+00
 Coeff:     -0.228D-05 0.315D-04 0.600D-04 0.908D-04-0.783D-03-0.271D-02
 Coeff:     -0.198D-01-0.648D-02 0.122D+00 0.908D+00
 Gap=     0.112 Goal=   None    Shift=    0.000
 RMSDP=6.81D-09 MaxDP=7.25D-08 DE=-1.51D-12 OVMax= 4.19D-07

 SCF Done:  E(RB3LYP) =  -124.759116122     A.U. after   10 cycles
             Convg  =    0.6812D-08             -V/T =  2.0106
 KE= 1.234489683364D+02 PE=-4.534018624354D+02 EE= 1.231465027168D+02
 Leave Link  502 at Sun Oct  3 00:48:19 2021, MaxMem=  268435456 cpu:      14.2
 (Enter /sw/target/amd/app/gaussian/Gaussian09RevA.02_gcc-4.9.2/g09/l508.exe)
 QCSCF skips out because SCF is already converged.
 Leave Link  508 at Sun Oct  3 00:48:19 2021, MaxMem=  268435456 cpu:       0.0
 (Enter /sw/target/amd/app/gaussian/Gaussian09RevA.02_gcc-4.9.2/g09/l701.exe)
 Compute integral first derivatives.
 ... and contract with generalized density number  0.
 Leave Link  701 at Sun Oct  3 00:48:21 2021, MaxMem=  268435456 cpu:       0.2
 (Enter /sw/target/amd/app/gaussian/Gaussian09RevA.02_gcc-4.9.2/g09/l702.exe)
 L702 exits ... SP integral derivatives will be done elsewhere.
 Leave Link  702 at Sun Oct  3 00:48:22 2021, MaxMem=  268435456 cpu:       0.1
 (Enter /sw/target/amd/app/gaussian/Gaussian09RevA.02_gcc-4.9.2/g09/l703.exe)
 Compute integral first derivatives, UseDBF=F ICtDFT=           0.
 Integral derivatives from FoFDir, PRISM(SPDF).
 Calling FoFJK, ICntrl=      2127 FMM=F ISym2X=0 I1Cent= 0 IOpClX= 0 NMat=1 NMatS=1 NMatT=0.
 FoFCou: FMM=F IPFlag=           0 FMFlag=      100000 FMFlg1=         800
         NFxFlg=           0 DoJE=F BraDBF=F KetDBF=F FulRan=T
         Omega=  0.000000  0.000000  1.000000  0.000000  0.000000 ICntrl=    2127 IOpCl=  0
         NMat0=    1 NMatS0=    1 NMatT0=    0 NMatD0=    1 NMtDS0=    0 NMtDT0=    0
         I1Cent=           0 NGrid=           0.
 Symmetry not used in FoFCou.
 Leave Link  703 at Sun Oct  3 00:48:53 2021, MaxMem=  268435456 cpu:       4.3
 (Enter /sw/target/amd/app/gaussian/Gaussian09RevA.02_gcc-4.9.2/g09/l716.exe)
 Dipole        = 1.89142848D+00 4.48628514D-01-8.56620712D-01
 ***** Axes restored to original set *****
 -------------------------------------------------------------------
 Center     Atomic                   Forces (Hartrees/Bohr)
 Number     Number              X              Y              Z
 -------------------------------------------------------------------
      1        3           0.009042689    0.003573701    0.004502336
      2        6          -0.018566923   -0.021047180    0.010376451
      3        6          -0.020960338    0.017943164    0.031606368
      4        6           0.019747070    0.021052789   -0.023858251
      5        1          -0.001673829    0.009405887   -0.004962278
      6        1           0.001524585   -0.004600869   -0.018997379
      7        1           0.018207914   -0.002255462   -0.004831745
      8        1          -0.013378469   -0.011829391   -0.002326384
      9        1           0.006057301   -0.012242638    0.008490883
 -------------------------------------------------------------------
 Cartesian Forces:  Max     0.031606368 RMS     0.014422313
 Leave Link  716 at Sun Oct  3 00:48:54 2021, MaxMem=  268435456 cpu:       0.1
 (Enter /sw/target/amd/app/gaussian/Gaussian09RevA.02_gcc-4.9.2/g09/l103.exe)

 GradGradGradGradGradGradGradGradGradGradGradGradGradGradGradGradGradGrad
 Berny optimization.
 Using GEDIIS/GDIIS optimizer.
 Internal  Forces:  Max     0.011541230 RMS     0.007090015
 Search for a local minimum.
 Step number   2 out of a maximum of   46
 All quantities printed in internal units (Hartrees-Bohrs-Radians)
 RMS Force = .70900D-02 SwitMx=.10000D-02 MixMth= 1
 Mixed Optimization -- RFO/linear search
 Update second derivatives using D2CorX and points    1    2
 DE= -1.41D-02 DEPred=-1.41D-02 R= 1.00D+00
 SS=  1.41D+00  RLast= 2.99D-01 DXNew= 5.0454D-01 8.9828D-01
 Trust test= 1.00D+00 RLast= 2.99D-01 DXMaxT set to 5.05D-01
 Use linear search instead of GDIIS.
 Linear search step of   0.599 exceeds DXMaxT=   0.505 but not scaled.
 Quartic linear search produced a step of  2.00000.
 Iteration  1 RMS(Cart)=  0.06856189 RMS(Int)=  0.01134224
 Iteration  2 RMS(Cart)=  0.00554524 RMS(Int)=  0.00990217
 Iteration  3 RMS(Cart)=  0.00003038 RMS(Int)=  0.00990206
 Iteration  4 RMS(Cart)=  0.00000062 RMS(Int)=  0.00990206
 Variable       Old X    -DE/DX   Delta X   Delta X   Delta X     New X
                                 (Linear)    (Quad)   (Total)
    R1        3.81910  -0.01024  -0.11224   0.00000  -0.11224   3.70686
    R2        2.89694   0.00535   0.05803   0.00000   0.05657   2.95351
    R3        2.88772   0.00821   0.04707   0.00000   0.04934   2.93706
    R4        2.08715  -0.00619  -0.02687   0.00000  -0.02687   2.06028
    R5        2.87734   0.00210   0.01984   0.00000   0.01902   2.89636
    R6        2.07878  -0.00884  -0.04334   0.00000  -0.04334   2.03545
    R7        2.07725  -0.00818  -0.04184   0.00000  -0.04184   2.03541
    R8        2.08137  -0.00740  -0.03650   0.00000  -0.03650   2.04487
    R9        2.08429  -0.00565  -0.02647   0.00000  -0.02647   2.05782
    A1        2.13088   0.00465   0.02932   0.00000   0.02814   2.15902
    A2        1.75300   0.00465   0.02610   0.00000   0.02511   1.77811
    A3        2.13953  -0.00117   0.00605   0.00000   0.00040   2.13992
    A4        2.01237  -0.00330  -0.02944   0.00000  -0.03108   1.98129
    A5        1.86051   0.00314   0.07677   0.00000   0.07619   1.93670
    A6        1.89183   0.00825   0.13775   0.00000   0.12775   2.01958
    A7        1.88350   0.00852   0.15044   0.00000   0.14159   2.02509
    A8        2.10596   0.00182   0.01344   0.00000  -0.00334   2.10263
    A9        2.09322   0.00218   0.00723   0.00000  -0.00998   2.08324
   A10        2.07322  -0.00680  -0.04181   0.00000  -0.08236   1.99085
   A11        2.10748   0.00306   0.01618   0.00000   0.00653   2.11401
   A12        2.09779   0.00480   0.04010   0.00000   0.02956   2.12736
   A13        1.87456   0.00586   0.10432   0.00000   0.09964   1.97421
   A14        1.88719   0.01018   0.11879   0.00000   0.11388   2.00107
   A15        2.06906  -0.00977  -0.07385   0.00000  -0.09261   1.97645
    D1        2.81815  -0.00021   0.04635   0.00000   0.05466   2.87281
    D2        0.55175  -0.00336  -0.07443   0.00000  -0.08117   0.47058
    D3       -0.35339   0.00659   0.15871   0.00000   0.16543  -0.18797
    D4       -2.61980   0.00344   0.03792   0.00000   0.02960  -2.59020
    D5       -2.53529   0.00892   0.15202   0.00000   0.14785  -2.38744
    D6        0.46172  -0.00743  -0.11359   0.00000  -0.11388   0.34784
    D7       -0.28761   0.01154   0.20561   0.00000   0.20561  -0.08200
    D8        2.70940  -0.00481  -0.06000   0.00000  -0.05612   2.65328
    D9       -0.37198   0.00984   0.20457   0.00000   0.20071  -0.17127
   D10       -2.62384   0.01126   0.15969   0.00000   0.15028  -2.47356
   D11        2.61045  -0.01134  -0.15765   0.00000  -0.14775   2.46271
   D12        0.35860  -0.00992  -0.20254   0.00000  -0.19818   0.16042
         Item               Value     Threshold  Converged?
 Maximum Force            0.011541     0.000450     NO 
 RMS     Force            0.007090     0.000300     NO 
 Maximum Displacement     0.192319     0.001800     NO 
 RMS     Displacement     0.068830     0.001200     NO 
 Predicted change in Energy=-1.335818D-02
 GradGradGradGradGradGradGradGradGradGradGradGradGradGradGradGradGradGrad

 Leave Link  103 at Sun Oct  3 00:48:54 2021, MaxMem=  268435456 cpu:       0.0
 (Enter /sw/target/amd/app/gaussian/Gaussian09RevA.02_gcc-4.9.2/g09/l202.exe)
                          Input orientation:                          
 ---------------------------------------------------------------------
 Center     Atomic      Atomic             Coordinates (Angstroms)
 Number     Number       Type             X           Y           Z
 ---------------------------------------------------------------------
      1          3           0        1.191186   -0.341256   -0.314861
      2          6           0        3.068130    0.136149   -0.003429
      3          6           0        4.005819    0.730567   -1.103503
      4          6           0        3.804828   -0.786271   -1.014384
      5          1           0        3.531943    0.083990    0.981867
      6          1           0        4.916130    1.182808   -0.747159
      7          1           0        3.520204    1.282280   -1.890854
      8          1           0        4.704327   -1.318181   -0.733474
      9          1           0        3.293601   -1.227685   -1.868560
 ---------------------------------------------------------------------
                    Distance matrix (angstroms):
                    1          2          3          4          5
     1  Li   0.000000
     2  C    1.961587   0.000000
     3  C    3.113345   1.562932   0.000000
     4  C    2.741987   1.554224   1.532689   0.000000
     5  H    2.709516   1.090253   2.234142   2.194730   0.000000
     6  H    4.047821   2.250273   1.077112   2.276768   2.472429
     7  H    3.247145   2.253965   1.077094   2.264534   3.112646
     8  H    3.670392   2.307636   2.195952   1.082099   2.506584
     9  H    2.760414   2.321550   2.219756   1.088951   3.146781
                    6          7          8          9
     6  H    0.000000
     7  H    1.807358   0.000000
     8  H    2.509979   3.082868   0.000000
     9  H    3.114581   2.520272   1.812941   0.000000
 Stoichiometry    C3H5Li
 Framework group  C1[X(C3H5Li)]
 Deg. of freedom    21
 Full point group                 C1      NOp   1
 Largest Abelian subgroup         C1      NOp   1
 Largest concise Abelian subgroup C1      NOp   1
                         Standard orientation:                         
 ---------------------------------------------------------------------
 Center     Atomic      Atomic             Coordinates (Angstroms)
 Number     Number       Type             X           Y           Z
 ---------------------------------------------------------------------
      1          3           0        2.218202   -0.098225   -0.512190
      2          6           0        0.525294   -0.388699    0.435180
      3          6           0       -0.857954   -0.518473   -0.280739
      4          6           0       -0.289251    0.870866    0.028210
      5          1           0        0.475338   -0.554562    1.511584
      6          1           0       -1.656416   -0.926864    0.315790
      7          1           0       -0.833670   -0.885929   -1.292923
      8          1           0       -0.874852    1.417405    0.755743
      9          1           0       -0.033536    1.462467   -0.849533
 ---------------------------------------------------------------------
 Rotational constants (GHZ):     16.4654084      8.1453011      7.0190210
 Leave Link  202 at Sun Oct  3 00:48:54 2021, MaxMem=  268435456 cpu:       0.0
 (Enter /sw/target/amd/app/gaussian/Gaussian09RevA.02_gcc-4.9.2/g09/l301.exe)
 Standard basis: 6-31G(d) (6D, 7F)
 Ernie: Thresh=  0.10000D-02 Tol=  0.10000D-05 Strict=F.
 There are    70 symmetry adapted basis functions of A   symmetry.
 Integral buffers will be    131072 words long.
 Raffenetti 2 integral format.
 Two-electron integral symmetry is turned on.
    70 basis functions,   132 primitive gaussians,    70 cartesian basis functions
    13 alpha electrons       13 beta electrons
       nuclear repulsion energy        81.6110995976 Hartrees.
 IExCor=  402 DFT=T Ex+Corr=B3LYP ExCW=0 ScaHFX=  0.200000
 ScaDFX=  0.800000  0.720000  1.000000  0.810000 ScalE2=  1.000000  1.000000
 IRadAn=      0 IRanWt=     -1 IRanGd=            0 ICorTp=0
 NAtoms=    9 NActive=    9 NUniq=    9 SFac= 7.50D-01 NAtFMM=   80 NAOKFM=F Big=F
 Leave Link  301 at Sun Oct  3 00:48:55 2021, MaxMem=  268435456 cpu:       0.1
 (Enter /sw/target/amd/app/gaussian/Gaussian09RevA.02_gcc-4.9.2/g09/l302.exe)
 NPDir=0 NMtPBC=     1 NCelOv=     1 NCel=       1 NClECP=     1 NCelD=      1
         NCelK=      1 NCelE2=     1 NClLst=     1 CellRange=     0.0.
 One-electron integrals computed using PRISM.
 NBasis=    70 RedAO= T  NBF=    70
 NBsUse=    70 1.00D-06 NBFU=    70
 Precomputing XC quadrature grid using
 IXCGrd= 2 IRadAn=           0 IRanWt=          -1 IRanGd=           0 AccXCQ= 1.00D-10.
 NRdTot=     574 NPtTot=       72586 NUsed=       76734 NTot=       76766
 NSgBfM=    70    70    70    70    70 NAtAll=     9     9.
 Leave Link  302 at Sun Oct  3 00:48:57 2021, MaxMem=  268435456 cpu:       0.4
 (Enter /sw/target/amd/app/gaussian/Gaussian09RevA.02_gcc-4.9.2/g09/l303.exe)
 DipDrv:  MaxL=1.
 Leave Link  303 at Sun Oct  3 00:48:58 2021, MaxMem=  268435456 cpu:       0.1
 (Enter /sw/target/amd/app/gaussian/Gaussian09RevA.02_gcc-4.9.2/g09/l401.exe)
 Initial guess read from the read-write file.
 B after Tr=     0.000000    0.000000    0.000000
         Rot=    1.000000    0.000000    0.000000    0.000000 Ang=   0.00 deg.
 Guess basis will be translated and rotated to current coordinates.
 Initial guess orbital symmetries:
       Occupied  (A) (A) (A) (A) (A) (A) (A) (A) (A) (A) (A) (A)
                 (A)
       Virtual   (A) (A) (A) (A) (A) (A) (A) (A) (A) (A) (A) (A)
                 (A) (A) (A) (A) (A) (A) (A) (A) (A) (A) (A) (A)
                 (A) (A) (A) (A) (A) (A) (A) (A) (A) (A) (A) (A)
                 (A) (A) (A) (A) (A) (A) (A) (A) (A) (A) (A) (A)
                 (A) (A) (A) (A) (A) (A) (A) (A) (A)
 The electronic state of the initial guess is 1-A.
 Generating alternative initial guess.
 Harris functional with IExCor=  402 diagonalized for initial guess.
 ExpMin= 3.60D-02 ExpMax= 3.05D+03 ExpMxC= 4.57D+02 IAcc=3 IRadAn=         0 AccDes= 0.00D+00
 HarFok:  IExCor=  402 AccDes= 0.00D+00 IRadAn=         0 IDoV= 1
 ScaDFX=  1.000000  1.000000  1.000000  1.000000
 FoFCou: FMM=F IPFlag=           0 FMFlag=      100000 FMFlg1=           0
         NFxFlg=           0 DoJE=T BraDBF=F KetDBF=T FulRan=T
         Omega=  0.000000  0.000000  1.000000  0.000000  0.000000 ICntrl=     500 IOpCl=  0
         NMat0=    1 NMatS0=    1 NMatT0=    0 NMatD0=    1 NMtDS0=    0 NMtDT0=    0
         I1Cent=           4 NGrid=           0.
 Petite list used in FoFCou.
 Harris En= -124.899569433773    
 Leave Link  401 at Sun Oct  3 00:49:17 2021, MaxMem=  268435456 cpu:       2.7
 (Enter /sw/target/amd/app/gaussian/Gaussian09RevA.02_gcc-4.9.2/g09/l502.exe)
 Closed shell SCF:
 Requested convergence on RMS density matrix=1.00D-08 within  64 cycles.
 Requested convergence on MAX density matrix=1.00D-06.
 Requested convergence on             energy=1.00D-06.
 No special actions if energy rises.
 Using DIIS extrapolation, IDIIS=  1040.
 Integral symmetry usage will be decided dynamically.
        76640 words used for storage of precomputed grid.
 Keep R1 ints in memory in canonical form, NReq=4075321.
 IEnd=       97832 IEndB=       97832 NGot=   268435456 MDV=   265257936
 LenX=   265257936 LenY=   265252595
 Symmetry not used in FoFDir.
 MinBra= 0 MaxBra= 2 Meth= 1.
 IRaf=       0 NMat=   1 IRICut=       1 DoRegI=T DoRafI=F ISym2E= 0 JSym2E=0.

 Cycle   1  Pass 1  IDiag  1:
 E= -124.764035628317    
 DIIS: error= 5.85D-03 at cycle   1 NSaved=   1.
 NSaved= 1 IEnMin= 1 EnMin= -124.764035628317     IErMin= 1 ErrMin= 5.85D-03
 ErrMax= 5.85D-03 EMaxC= 1.00D-01 BMatC= 5.00D-03 BMatP= 5.00D-03
 IDIUse=3 WtCom= 9.42D-01 WtEn= 5.85D-02
 Coeff-Com:  0.100D+01
 Coeff-En:   0.100D+01
 Coeff:      0.100D+01
 Gap=     0.121 Goal=   None    Shift=    0.000
 GapD=    0.121 DampG=1.000 DampE=1.000 DampFc=1.0000 IDamp=-1.
 RMSDP=1.63D-03 MaxDP=1.79D-02              OVMax= 2.97D-02

 Cycle   2  Pass 1  IDiag  1:
 E= -124.772373240573     Delta-E=       -0.008337612255 Rises=F Damp=F
 DIIS: error= 7.10D-04 at cycle   2 NSaved=   2.
 NSaved= 2 IEnMin= 2 EnMin= -124.772373240573     IErMin= 2 ErrMin= 7.10D-04
 ErrMax= 7.10D-04 EMaxC= 1.00D-01 BMatC= 1.19D-04 BMatP= 5.00D-03
 IDIUse=3 WtCom= 9.93D-01 WtEn= 7.10D-03
 Coeff-Com:  0.149D-01 0.985D+00
 Coeff-En:   0.000D+00 0.100D+01
 Coeff:      0.148D-01 0.985D+00
 Gap=     0.115 Goal=   None    Shift=    0.000
 RMSDP=3.16D-04 MaxDP=2.89D-03 DE=-8.34D-03 OVMax= 7.21D-03

 Cycle   3  Pass 1  IDiag  1:
 E= -124.772505012735     Delta-E=       -0.000131772162 Rises=F Damp=F
 DIIS: error= 4.11D-04 at cycle   3 NSaved=   3.
 NSaved= 3 IEnMin= 3 EnMin= -124.772505012735     IErMin= 3 ErrMin= 4.11D-04
 ErrMax= 4.11D-04 EMaxC= 1.00D-01 BMatC= 2.70D-05 BMatP= 1.19D-04
 IDIUse=3 WtCom= 9.96D-01 WtEn= 4.11D-03
 Coeff-Com: -0.184D-01 0.294D+00 0.724D+00
 Coeff-En:   0.000D+00 0.000D+00 0.100D+01
 Coeff:     -0.183D-01 0.293D+00 0.725D+00
 Gap=     0.117 Goal=   None    Shift=    0.000
 RMSDP=1.24D-04 MaxDP=1.72D-03 DE=-1.32D-04 OVMax= 4.41D-03

 Cycle   4  Pass 1  IDiag  1:
 E= -124.772524126050     Delta-E=       -0.000019113315 Rises=F Damp=F
 DIIS: error= 2.54D-04 at cycle   4 NSaved=   4.
 NSaved= 4 IEnMin= 4 EnMin= -124.772524126050     IErMin= 4 ErrMin= 2.54D-04
 ErrMax= 2.54D-04 EMaxC= 1.00D-01 BMatC= 1.05D-05 BMatP= 2.70D-05
 IDIUse=3 WtCom= 9.97D-01 WtEn= 2.54D-03
 Coeff-Com: -0.132D-01 0.135D+00 0.436D+00 0.442D+00
 Coeff-En:   0.000D+00 0.000D+00 0.237D+00 0.763D+00
 Coeff:     -0.132D-01 0.134D+00 0.436D+00 0.443D+00
 Gap=     0.116 Goal=   None    Shift=    0.000
 RMSDP=5.07D-05 MaxDP=7.39D-04 DE=-1.91D-05 OVMax= 1.66D-03

 Cycle   5  Pass 1  IDiag  1:
 E= -124.772535358394     Delta-E=       -0.000011232344 Rises=F Damp=F
 DIIS: error= 2.48D-05 at cycle   5 NSaved=   5.
 NSaved= 5 IEnMin= 5 EnMin= -124.772535358394     IErMin= 5 ErrMin= 2.48D-05
 ErrMax= 2.48D-05 EMaxC= 1.00D-01 BMatC= 9.19D-08 BMatP= 1.05D-05
 IDIUse=1 WtCom= 1.00D+00 WtEn= 0.00D+00
 Coeff-Com: -0.217D-02 0.160D-01 0.651D-01 0.118D+00 0.803D+00
 Coeff:     -0.217D-02 0.160D-01 0.651D-01 0.118D+00 0.803D+00
 Gap=     0.116 Goal=   None    Shift=    0.000
 RMSDP=6.75D-06 MaxDP=8.89D-05 DE=-1.12D-05 OVMax= 1.82D-04

 Cycle   6  Pass 1  IDiag  1:
 E= -124.772535431348     Delta-E=       -0.000000072955 Rises=F Damp=F
 DIIS: error= 1.29D-05 at cycle   6 NSaved=   6.
 NSaved= 6 IEnMin= 6 EnMin= -124.772535431348     IErMin= 6 ErrMin= 1.29D-05
 ErrMax= 1.29D-05 EMaxC= 1.00D-01 BMatC= 3.18D-08 BMatP= 9.19D-08
 IDIUse=1 WtCom= 1.00D+00 WtEn= 0.00D+00
 Coeff-Com: -0.139D-03-0.216D-02 0.127D-02 0.294D-01 0.444D+00 0.528D+00
 Coeff:     -0.139D-03-0.216D-02 0.127D-02 0.294D-01 0.444D+00 0.528D+00
 Gap=     0.116 Goal=   None    Shift=    0.000
 RMSDP=2.61D-06 MaxDP=4.62D-05 DE=-7.30D-08 OVMax= 7.25D-05

 Cycle   7  Pass 1  IDiag  1:
 E= -124.772535463158     Delta-E=       -0.000000031809 Rises=F Damp=F
 DIIS: error= 1.73D-06 at cycle   7 NSaved=   7.
 NSaved= 7 IEnMin= 7 EnMin= -124.772535463158     IErMin= 7 ErrMin= 1.73D-06
 ErrMax= 1.73D-06 EMaxC= 1.00D-01 BMatC= 6.60D-10 BMatP= 3.18D-08
 IDIUse=1 WtCom= 1.00D+00 WtEn= 0.00D+00
 Coeff-Com:  0.112D-03-0.159D-02-0.400D-02-0.150D-02 0.656D-01 0.165D+00
 Coeff-Com:  0.777D+00
 Coeff:      0.112D-03-0.159D-02-0.400D-02-0.150D-02 0.656D-01 0.165D+00
 Coeff:      0.777D+00
 Gap=     0.116 Goal=   None    Shift=    0.000
 RMSDP=5.66D-07 MaxDP=6.29D-06 DE=-3.18D-08 OVMax= 1.57D-05

 Cycle   8  Pass 1  IDiag  1:
 E= -124.772535463968     Delta-E=       -0.000000000810 Rises=F Damp=F
 DIIS: error= 4.45D-07 at cycle   8 NSaved=   8.
 NSaved= 8 IEnMin= 8 EnMin= -124.772535463968     IErMin= 8 ErrMin= 4.45D-07
 ErrMax= 4.45D-07 EMaxC= 1.00D-01 BMatC= 2.46D-11 BMatP= 6.60D-10
 IDIUse=1 WtCom= 1.00D+00 WtEn= 0.00D+00
 Coeff-Com:  0.374D-04-0.417D-03-0.123D-02-0.171D-02 0.592D-02 0.316D-01
 Coeff-Com:  0.242D+00 0.724D+00
 Coeff:      0.374D-04-0.417D-03-0.123D-02-0.171D-02 0.592D-02 0.316D-01
 Coeff:      0.242D+00 0.724D+00
 Gap=     0.116 Goal=   None    Shift=    0.000
 RMSDP=1.32D-07 MaxDP=1.38D-06 DE=-8.10D-10 OVMax= 4.66D-06

 Cycle   9  Pass 1  IDiag  1:
 E= -124.772535464000     Delta-E=       -0.000000000032 Rises=F Damp=F
 DIIS: error= 1.72D-07 at cycle   9 NSaved=   9.
 NSaved= 9 IEnMin= 9 EnMin= -124.772535464000     IErMin= 9 ErrMin= 1.72D-07
 ErrMax= 1.72D-07 EMaxC= 1.00D-01 BMatC= 4.40D-12 BMatP= 2.46D-11
 IDIUse=1 WtCom= 1.00D+00 WtEn= 0.00D+00
 Coeff-Com:  0.969D-05-0.860D-04-0.276D-03-0.759D-03-0.173D-02 0.251D-02
 Coeff-Com:  0.580D-01 0.337D+00 0.606D+00
 Coeff:      0.969D-05-0.860D-04-0.276D-03-0.759D-03-0.173D-02 0.251D-02
 Coeff:      0.580D-01 0.337D+00 0.606D+00
 Gap=     0.116 Goal=   None    Shift=    0.000
 RMSDP=4.19D-08 MaxDP=6.54D-07 DE=-3.24D-11 OVMax= 1.71D-06

 Cycle  10  Pass 1  IDiag  1:
 E= -124.772535464005     Delta-E=       -0.000000000005 Rises=F Damp=F
 DIIS: error= 4.94D-08 at cycle  10 NSaved=  10.
 NSaved=10 IEnMin=10 EnMin= -124.772535464005     IErMin=10 ErrMin= 4.94D-08
 ErrMax= 4.94D-08 EMaxC= 1.00D-01 BMatC= 4.79D-13 BMatP= 4.40D-12
 IDIUse=1 WtCom= 1.00D+00 WtEn= 0.00D+00
 Coeff-Com: -0.247D-05 0.381D-04 0.104D-03-0.806D-04-0.202D-02-0.510D-02
 Coeff-Com: -0.183D-01 0.198D-01 0.256D+00 0.750D+00
 Coeff:     -0.247D-05 0.381D-04 0.104D-03-0.806D-04-0.202D-02-0.510D-02
 Coeff:     -0.183D-01 0.198D-01 0.256D+00 0.750D+00
 Gap=     0.116 Goal=   None    Shift=    0.000
 RMSDP=1.97D-08 MaxDP=1.82D-07 DE=-4.60D-12 OVMax= 1.06D-06

 Cycle  11  Pass 1  IDiag  1:
 E= -124.772535464006     Delta-E=       -0.000000000002 Rises=F Damp=F
 DIIS: error= 1.18D-08 at cycle  11 NSaved=  11.
 NSaved=11 IEnMin=11 EnMin= -124.772535464006     IErMin=11 ErrMin= 1.18D-08
 ErrMax= 1.18D-08 EMaxC= 1.00D-01 BMatC= 1.47D-14 BMatP= 4.79D-13
 IDIUse=1 WtCom= 1.00D+00 WtEn= 0.00D+00
 Coeff-Com: -0.114D-05 0.124D-04 0.414D-04 0.284D-04-0.256D-03-0.120D-02
 Coeff-Com: -0.776D-02-0.171D-01 0.127D-01 0.177D+00 0.837D+00
 Coeff:     -0.114D-05 0.124D-04 0.414D-04 0.284D-04-0.256D-03-0.120D-02
 Coeff:     -0.776D-02-0.171D-01 0.127D-01 0.177D+00 0.837D+00
 Gap=     0.116 Goal=   None    Shift=    0.000
 RMSDP=5.00D-09 MaxDP=4.78D-08 DE=-1.65D-12 OVMax= 2.89D-07

 SCF Done:  E(RB3LYP) =  -124.772535464     A.U. after   11 cycles
             Convg  =    0.4998D-08             -V/T =  2.0105
 KE= 1.234753396153D+02 PE=-4.525806733560D+02 EE= 1.227216986791D+02
 Leave Link  502 at Sun Oct  3 00:51:25 2021, MaxMem=  268435456 cpu:      16.0
 (Enter /sw/target/amd/app/gaussian/Gaussian09RevA.02_gcc-4.9.2/g09/l508.exe)
 QCSCF skips out because SCF is already converged.
 Leave Link  508 at Sun Oct  3 00:51:26 2021, MaxMem=  268435456 cpu:       0.0
 (Enter /sw/target/amd/app/gaussian/Gaussian09RevA.02_gcc-4.9.2/g09/l701.exe)
 Compute integral first derivatives.
 ... and contract with generalized density number  0.
 Leave Link  701 at Sun Oct  3 00:51:28 2021, MaxMem=  268435456 cpu:       0.2
 (Enter /sw/target/amd/app/gaussian/Gaussian09RevA.02_gcc-4.9.2/g09/l702.exe)
 L702 exits ... SP integral derivatives will be done elsewhere.
 Leave Link  702 at Sun Oct  3 00:51:29 2021, MaxMem=  268435456 cpu:       0.1
 (Enter /sw/target/amd/app/gaussian/Gaussian09RevA.02_gcc-4.9.2/g09/l703.exe)
 Compute integral first derivatives, UseDBF=F ICtDFT=           0.
 Integral derivatives from FoFDir, PRISM(SPDF).
 Calling FoFJK, ICntrl=      2127 FMM=F ISym2X=0 I1Cent= 0 IOpClX= 0 NMat=1 NMatS=1 NMatT=0.
 FoFCou: FMM=F IPFlag=           0 FMFlag=      100000 FMFlg1=         800
         NFxFlg=           0 DoJE=F BraDBF=F KetDBF=F FulRan=T
         Omega=  0.000000  0.000000  1.000000  0.000000  0.000000 ICntrl=    2127 IOpCl=  0
         NMat0=    1 NMatS0=    1 NMatT0=    0 NMatD0=    1 NMtDS0=    0 NMtDT0=    0
         I1Cent=           0 NGrid=           0.
 Symmetry not used in FoFCou.
 Leave Link  703 at Sun Oct  3 00:52:09 2021, MaxMem=  268435456 cpu:       5.3
 (Enter /sw/target/amd/app/gaussian/Gaussian09RevA.02_gcc-4.9.2/g09/l716.exe)
 Dipole        = 1.82352910D+00 4.88880430D-01-8.63471062D-01
 ***** Axes restored to original set *****
 -------------------------------------------------------------------
 Center     Atomic                   Forces (Hartrees/Bohr)
 Number     Number              X              Y              Z
 -------------------------------------------------------------------
      1        3           0.002411441    0.002163959    0.001989769
      2        6          -0.002000306   -0.003701029   -0.018833436
      3        6          -0.024188918   -0.017514540    0.025960481
      4        6           0.011053612    0.027831179   -0.001648829
      5        1           0.004380981    0.001755473    0.000421467
      6        1           0.010400311   -0.001263764   -0.001786409
      7        1          -0.000753277    0.003493141   -0.008424359
      8        1           0.001747440   -0.008175157    0.002893163
      9        1          -0.003051284   -0.004589261   -0.000571847
 -------------------------------------------------------------------
 Cartesian Forces:  Max     0.027831179 RMS     0.010852959
 Leave Link  716 at Sun Oct  3 00:52:10 2021, MaxMem=  268435456 cpu:       0.1
 (Enter /sw/target/amd/app/gaussian/Gaussian09RevA.02_gcc-4.9.2/g09/l103.exe)

 GradGradGradGradGradGradGradGradGradGradGradGradGradGradGradGradGradGrad
 Berny optimization.
 Using GEDIIS/GDIIS optimizer.
 Internal  Forces:  Max     0.015404926 RMS     0.004789612
 Search for a local minimum.
 Step number   3 out of a maximum of   46
 All quantities printed in internal units (Hartrees-Bohrs-Radians)
 RMS Force = .47896D-02 SwitMx=.10000D-02 MixMth= 1
 Mixed Optimization -- RFO/linear search
 Update second derivatives using D2CorX and points    2    3
 Use linear search instead of GDIIS.
     Eigenvalues ---    0.01881   0.02928   0.03020   0.03370   0.03609
     Eigenvalues ---    0.03680   0.07727   0.09505   0.10441   0.12150
     Eigenvalues ---    0.16007   0.17148   0.20239   0.27389   0.28308
     Eigenvalues ---    0.31327   0.32398   0.32466   0.32523   0.32594
     Eigenvalues ---    0.348281000.000001000.000001000.000001000.00000
     Eigenvalues --- 1000.000001000.000001000.000001000.000001000.00000
     Eigenvalues --- 1000.000001000.000001000.000001000.000001000.00000
     Eigenvalues --- 1000.00000
 RFO step:  Lambda=-5.64435075D-03 EMin= 1.88083757D-02
 Quartic linear search produced a step of  0.19890.
 Iteration  1 RMS(Cart)=  0.02776701 RMS(Int)=  0.00436420
 Iteration  2 RMS(Cart)=  0.00214046 RMS(Int)=  0.00369046
 Iteration  3 RMS(Cart)=  0.00000451 RMS(Int)=  0.00369046
 Iteration  4 RMS(Cart)=  0.00000001 RMS(Int)=  0.00369046
 Variable       Old X    -DE/DX   Delta X   Delta X   Delta X     New X
                                 (Linear)    (Quad)   (Total)
    R1        3.70686  -0.00315  -0.02232  -0.02580  -0.04812   3.65874
    R2        2.95351  -0.01540   0.01125  -0.05997  -0.04867   2.90484
    R3        2.93706  -0.00324   0.00981  -0.01296  -0.00209   2.93497
    R4        2.06028   0.00216  -0.00534   0.01003   0.00468   2.06496
    R5        2.89636  -0.01196   0.00378  -0.04622  -0.04357   2.85280
    R6        2.03545   0.00767  -0.00862   0.03035   0.02173   2.05717
    R7        2.03541   0.00829  -0.00832   0.03210   0.02378   2.05919
    R8        2.04487   0.00622  -0.00726   0.02466   0.01740   2.06227
    R9        2.05782   0.00374  -0.00527   0.01526   0.00999   2.06781
    A1        2.15902   0.00250   0.00560   0.00736   0.01231   2.17133
    A2        1.77811   0.00570   0.00499   0.03194   0.03706   1.81517
    A3        2.13992   0.00054   0.00008   0.01635   0.01497   2.15490
    A4        1.98129  -0.00317  -0.00618  -0.02570  -0.03195   1.94933
[...]
      2  -0.136395D+02  0.202448D-02 -0.194765D+02
      3   0.345902D-01 -0.882782D-04  0.235803D-01
 1/2[<0|r|b>*<b|rxdel|0> + (<0|rxdel|b>*<b|r|0>)*]
 Rotatory Strengths (R) in cgs (10**-40 erg-esu-cm/Gauss)
       state          XX          YY          ZZ     R(length)     R(au)
         1         0.0769     -0.0318     -0.0538     -0.0029     -0.0000
         2        -0.1322     -0.4051      0.3167     -0.0735     -0.0002
         3         0.0735      0.4159     -0.2360      0.0845      0.0002
         4         0.0193      0.0041     -0.0080      0.0051      0.0000
         5         0.0033     -0.0043      0.0231      0.0074      0.0000
         6         0.0033     -0.1010     -0.0064     -0.0347     -0.0001
         7        -0.0005     -0.0203      0.0133     -0.0025     -0.0000
         8         0.0461      0.0033      0.0065      0.0186      0.0000
         9         0.0151      0.0111     -0.0064      0.0066      0.0000
        10        -0.0416     -0.0243     -0.0079     -0.0246     -0.0001
  1/2[<0|del|b>*<b|r|0> + (<0|r|b>*<b|del|0>)*] (Au)
       state          X           Y           Z        Dip. S.   Osc.(frdel)
         1        -0.1279     -0.0000     -0.0097      0.1376      0.0917
         2        -0.0367     -0.0000     -0.0551      0.0918      0.0612
         3        -0.0000     -0.0869     -0.0000      0.0869      0.0579
         4        -0.0000      0.0001     -0.0000     -0.0001     -0.0001
         5        -0.0009      0.0000     -0.0050      0.0059      0.0039
         6        -0.0003     -0.0000     -0.0000      0.0003      0.0002
         7        -0.0000     -0.0040     -0.0000      0.0040      0.0027
         8        -0.0827     -0.0000      0.0006      0.0822      0.0548
         9        -0.0404     -0.0000     -0.0001      0.0406      0.0270
        10        -0.0000     -0.0118     -0.0000      0.0118      0.0079
 Ground to excited state transition densities written to RWF  633

 Excitation energies and oscillator strengths:
 
 Excited State   1:      Singlet-A      2.5321 eV  489.65 nm  f=0.0818  <S**2>=0.000
      13 -> 14         0.70577
 This state for optimization and/or second-order correction.
 Total Energy, E(TD-HF/TD-KS) =  -124.685133167    
 Copying the excited state density for this state as the 1-particle RhoCI density.
 
 Excited State   2:      Singlet-A      3.7780 eV  328.18 nm  f=0.0555  <S**2>=0.000
      13 -> 15         0.70495
 
 Excited State   3:      Singlet-A      3.8224 eV  324.36 nm  f=0.0595  <S**2>=0.000
      12 -> 14         0.19235
      13 -> 16         0.67937
 
 Excited State   4:      Singlet-A      4.0281 eV  307.80 nm  f=0.0002  <S**2>=0.000
      12 -> 14         0.67932
      13 -> 16        -0.19258
 
 Excited State   5:      Singlet-A      4.6796 eV  264.94 nm  f=0.0044  <S**2>=0.000
      11 -> 14         0.70519
 
 Excited State   6:      Singlet-A      5.2357 eV  236.81 nm  f=0.0005  <S**2>=0.000
      13 -> 17         0.70428
 
 Excited State   7:      Singlet-A      5.4357 eV  228.09 nm  f=0.0019  <S**2>=0.000
      12 -> 15         0.70552
 
 Excited State   8:      Singlet-A      5.6021 eV  221.32 nm  f=0.0639  <S**2>=0.000
      12 -> 16         0.69719
 
 Excited State   9:      Singlet-A      6.1149 eV  202.76 nm  f=0.0289  <S**2>=0.000
      11 -> 15         0.69738
 
 Excited State  10:      Singlet-A      6.1417 eV  201.87 nm  f=0.0051  <S**2>=0.000
      11 -> 16         0.70544
 SavETr:  write IOETrn=   770 NScale= 10 NData=  16 NLR=1 LETran=     190.
 The selected state is a singlet
 Cannot handle 2e integral symmetry, ISym2E=1.
 CISAX:  IP=  1 NPass=   1 NMax=     1.
 CISAX will form     1 AO SS matrices at one time.
 NMat=     1 NSing=     1.
 Cannot handle 2e integral symmetry, ISym2E=1.
 CISAX:  IP=  1 NPass=   1 NMax=     1.
 CISAX will form     1 AO SS matrices at one time.
 NMat=     1 NSing=     1.
 Leave Link  914 at Sun Oct  3 02:17:11 2021, MaxMem=  268435456 cpu:     249.9
 (Enter /sw/target/amd/app/gaussian/Gaussian09RevA.02_gcc-4.9.2/g09/l1002.exe)
 Minotr:  Closed shell wavefunction.
          Computing CIS/TD-HF/TD-KS derivatives.
          Using Z-Vector for PSCF gradient.
          Skipping F1 and S1 gradient terms here.
          Frozen-core window.
          Direct CPHF calculation.
          Differentiating once with respect to electric field.
                with respect to dipole field.
          Electric field/nuclear overlap derivatives assumed to be zero.
          Requested convergence is 1.0D-10 RMS, and 1.0D-09 maximum.
          NewPWx=F KeepS1=T KeepF1=T KeepIn=T MapXYZ=F SortEE=F KeepMc=T.
          MDV=     268435380 using IRadAn=       0.
 Generate precomputed XC quadrature information.
          Keep R1 ints in memory in canonical form, NReq=3913575.
 Symmetry not used in FoFDir.
 MinBra= 0 MaxBra= 2 Meth= 1.
 IRaf=       0 NMat=   1 IRICut=       1 DoRegI=T DoRafI=F ISym2E= 0 JSym2E=0.
          Solving linear equations separately, MaxMat=       0.
          There are     1 degrees of freedom in the 1st order CPHF.  IDoFFX=0.
 LinEq1:  Iter=  0 NonCon=     1 RMS=5.74D-02 Max=7.31D-01
 AX will form     1 AO Fock derivatives at one time.
 LinEq1:  Iter=  1 NonCon=     1 RMS=3.67D-02 Max=4.99D-01
 LinEq1:  Iter=  2 NonCon=     1 RMS=8.99D-03 Max=1.11D-01
 LinEq1:  Iter=  3 NonCon=     1 RMS=5.64D-03 Max=6.54D-02
 LinEq1:  Iter=  4 NonCon=     1 RMS=1.66D-03 Max=1.13D-02
 LinEq1:  Iter=  5 NonCon=     1 RMS=3.65D-04 Max=3.08D-03
 LinEq1:  Iter=  6 NonCon=     1 RMS=1.07D-04 Max=8.07D-04
 LinEq1:  Iter=  7 NonCon=     1 RMS=2.37D-05 Max=2.22D-04
 LinEq1:  Iter=  8 NonCon=     1 RMS=3.24D-06 Max=2.68D-05
 LinEq1:  Iter=  9 NonCon=     1 RMS=1.19D-06 Max=1.24D-05
 LinEq1:  Iter= 10 NonCon=     1 RMS=6.11D-07 Max=6.08D-06
 LinEq1:  Iter= 11 NonCon=     1 RMS=1.34D-07 Max=1.93D-06
 LinEq1:  Iter= 12 NonCon=     1 RMS=2.45D-08 Max=2.46D-07
 LinEq1:  Iter= 13 NonCon=     1 RMS=3.68D-09 Max=3.11D-08
 LinEq1:  Iter= 14 NonCon=     1 RMS=6.52D-10 Max=6.12D-09
 LinEq1:  Iter= 15 NonCon=     0 RMS=9.85D-11 Max=5.72D-10
 Linear equations converged to 1.000D-10 1.000D-09 after    15 iterations.
 End of Minotr Frequency-dependent properties file   721 does not exist.
 End of Minotr Frequency-dependent properties file   722 does not exist.
 Leave Link 1002 at Sun Oct  3 02:21:12 2021, MaxMem=  268435456 cpu:      34.7
 (Enter /sw/target/amd/app/gaussian/Gaussian09RevA.02_gcc-4.9.2/g09/l601.exe)
 Copying SCF densities to generalized density rwf, IOpCl= 0 IROHF=0.

 **********************************************************************

            Population analysis using the CI density.

 **********************************************************************

 Orbital symmetries:
       Occupied  (A) (A) (A) (A) (A) (A) (A) (A) (A) (A) (A) (A)
                 (A)
       Virtual   (A) (A) (A) (A) (A) (A) (A) (A) (A) (A) (A) (A)
                 (A) (A) (A) (A) (A) (A) (A) (A) (A) (A) (A) (A)
                 (A) (A) (A) (A) (A) (A) (A) (A) (A) (A) (A) (A)
                 (A) (A) (A) (A) (A) (A) (A) (A) (A) (A) (A) (A)
                 (A) (A) (A) (A) (A) (A) (A) (A) (A)
 The electronic state is 1-A.
 Alpha  occ. eigenvalues --  -10.13647 -10.13621 -10.10094  -1.98489  -0.77625
 Alpha  occ. eigenvalues --   -0.54350  -0.51140  -0.42412  -0.37953  -0.31175
 Alpha  occ. eigenvalues --   -0.24601  -0.22457  -0.16697
 Alpha virt. eigenvalues --   -0.04645   0.00757   0.00983   0.06069   0.11609
 Alpha virt. eigenvalues --    0.12378   0.12704   0.16273   0.19660   0.20369
 Alpha virt. eigenvalues --    0.21796   0.26050   0.26737   0.29529   0.31020
 Alpha virt. eigenvalues --    0.33628   0.46228   0.46233   0.46642   0.51774
 Alpha virt. eigenvalues --    0.58413   0.65196   0.66511   0.68397   0.70380
 Alpha virt. eigenvalues --    0.77615   0.78197   0.87993   0.88608   0.90963
 Alpha virt. eigenvalues --    0.94503   0.96982   0.98780   1.00932   1.03551
 Alpha virt. eigenvalues --    1.08359   1.16692   1.35938   1.39504   1.64359
 Alpha virt. eigenvalues --    1.69769   1.89840   1.90710   1.92505   1.96846
 Alpha virt. eigenvalues --    2.09120   2.18625   2.30025   2.33869   2.44543
 Alpha virt. eigenvalues --    2.54926   2.57592   2.62332   2.83647   4.15836
 Alpha virt. eigenvalues --    4.44026   4.47766
          Condensed to atoms (all electrons):
              1          2          3          4          5          6
     1  Li   2.809956   0.111078   0.018536   0.018572   0.042615  -0.004743
     2  C    0.111078   5.477634   0.244994   0.244932   0.346541  -0.021203
     3  C    0.018536   0.244994   5.105330   0.256314  -0.035840   0.385658
     4  C    0.018572   0.244932   0.256314   5.105328  -0.035863  -0.026135
     5  H    0.042615   0.346541  -0.035840  -0.035863   0.497269  -0.005476
     6  H   -0.004743  -0.021203   0.385658  -0.026135  -0.005476   0.519850
     7  H    0.020225  -0.024786   0.372804  -0.020593   0.001266  -0.028955
     8  H   -0.004736  -0.021209  -0.026160   0.385682  -0.005480  -0.004934
     9  H    0.020216  -0.024788  -0.020579   0.372809   0.001266   0.001933
              7          8          9
     1  Li   0.020225  -0.004736   0.020216
     2  C   -0.024786  -0.021209  -0.024788
     3  C    0.372804  -0.026160  -0.020579
     4  C   -0.020593   0.385682   0.372809
     5  H    0.001266  -0.005480   0.001266
     6  H   -0.028955  -0.004934   0.001933
     7  H    0.481426   0.001935  -0.005958
     8  H    0.001935   0.519825  -0.028943
     9  H   -0.005958  -0.028943   0.481390
 Mulliken atomic charges:
              1
     1  Li  -0.031718
     2  C   -0.333193
     3  C   -0.301057
     4  C   -0.301046
     5  H    0.193703
     6  H    0.184005
     7  H    0.202636
     8  H    0.184018
     9  H    0.202654
 Sum of Mulliken atomic charges =  -0.00000
 Mulliken charges with hydrogens summed into heavy atoms:
              1
     1  Li  -0.031718
     2  C   -0.139491
     3  C    0.085583
     4  C    0.085626
 Sum of Mulliken charges with hydrogens summed into heavy atoms =  -0.00000
 Electronic spatial extent (au):  <R**2>=            250.1262
 Charge=             -0.0000 electrons
 Dipole moment (field-independent basis, Debye):
    X=             -6.4294    Y=             -0.0021    Z=              2.6590  Tot=              6.9576
 Quadrupole moment (field-independent basis, Debye-Ang):
   XX=            -51.2185   YY=            -25.9465   ZZ=            -27.5957
   XY=             -0.0070   XZ=              9.1916   YZ=              0.0018
 Traceless Quadrupole moment (field-independent basis, Debye-Ang):
   XX=            -16.2983   YY=              8.9737   ZZ=              7.3246
   XY=             -0.0070   XZ=              9.1916   YZ=              0.0018
 Octapole moment (field-independent basis, Debye-Ang**2):
  XXX=           -155.1332  YYY=             -0.0081  ZZZ=             20.4267  XYY=            -21.3046
  XXY=             -0.0254  XXZ=             39.7098  XZZ=            -28.4383  YZZ=             -0.0033
  YYZ=              4.4459  XYZ=              0.0022
 Hexadecapole moment (field-independent basis, Debye-Ang**3):
 XXXX=           -906.5935 YYYY=           -116.1780 ZZZZ=           -113.6490 XXXY=             -0.0737
 XXXZ=            155.8855 YYYX=             -0.0303 YYYZ=              0.0047 ZZZX=             63.1320
 ZZZY=              0.0071 XXYY=           -110.7810 XXZZ=           -139.6718 YYZZ=            -36.4943
 XXYZ=              0.0103 YYXZ=             18.1265 ZZXY=             -0.0108
 N-N= 8.175687675409D+01 E-N=-4.503936732934D+02  KE= 1.234620088131D+02
 No NMR shielding tensors so no spin-rotation constants.
 Leave Link  601 at Sun Oct  3 02:21:14 2021, MaxMem=  268435456 cpu:       0.2
 (Enter /sw/target/amd/app/gaussian/Gaussian09RevA.02_gcc-4.9.2/g09/l604.exe)
 Evaluate density.
 Using the total density.
 Monte-Carlo method of calculating molar volume:
 based on  0.001 e/bohr**3 density envelope.
 Number of points per bohr**3 =   20 CutOff= 1.00D-04
 Using the CI density.
 There are       452 points.  Will hold       452 in memory.
 LenV=   268397038 MDV=   268435456.
 Box volume =11585.822 fraction occupied=0.069
 Integrated density= 1.9044076987317691D+01 error=-6.9559230126823088D+00
 Molar volume =  794.603 bohr**3/mol ( 70.910 cm**3/mol)
 Recommended a0 for SCRF calculation =  3.85 angstrom (  7.27 bohr)
 Leave Link  604 at Sun Oct  3 02:21:15 2021, MaxMem=  268435456 cpu:       0.1
 (Enter /sw/target/amd/app/gaussian/Gaussian09RevA.02_gcc-4.9.2/g09/l607.exe)
 ******************************Gaussian NBO Version 3.1******************************
             N A T U R A L   A T O M I C   O R B I T A L   A N D
          N A T U R A L   B O N D   O R B I T A L   A N A L Y S I S
 ******************************Gaussian NBO Version 3.1******************************
       /RESON  / : Allow strongly delocalized NBO set

 Analyzing the CI density

 Job title: [Li]C1CC1_conf_0                                                

 Storage needed:     15064 in NPA ( 268434961 available)


 NATURAL POPULATIONS:  Natural atomic orbital occupancies 
                                                          
   NAO  Atom  No  lang   Type(AO)    Occupancy
 --------------------------------------------
     1   Li    1  S      Cor( 1S)     1.99593
     2   Li    1  S      Val( 2S)     0.68612
     3   Li    1  S      Ryd( 3S)     0.00603
     4   Li    1  S      Ryd( 4S)     0.00000
     5   Li    1  px     Val( 2p)     0.18294
     6   Li    1  px     Ryd( 3p)     0.00000
     7   Li    1  py     Ryd( 3p)     0.00000
     8   Li    1  py     Val( 2p)     0.00046
     9   Li    1  pz     Val( 2p)     0.03469
    10   Li    1  pz     Ryd( 3p)     0.00000
    11   Li    1  dxy    Ryd( 3d)     0.00000
    12   Li    1  dxz    Ryd( 3d)     0.00000
    13   Li    1  dyz    Ryd( 3d)     0.00000
    14   Li    1  dx2y2  Ryd( 3d)     0.00000
    15   Li    1  dz2    Ryd( 3d)     0.00000

    16    C    2  S      Cor( 1S)     1.99904
    17    C    2  S      Val( 2S)     1.23812
    18    C    2  S      Ryd( 3S)     0.00389
    19    C    2  S      Ryd( 4S)     0.00003
    20    C    2  px     Val( 2p)     0.92904
    21    C    2  px     Ryd( 3p)     0.01201
    22    C    2  py     Val( 2p)     1.09658
    23    C    2  py     Ryd( 3p)     0.00168
    24    C    2  pz     Val( 2p)     1.12363
    25    C    2  pz     Ryd( 3p)     0.00461
    26    C    2  dxy    Ryd( 3d)     0.00106
    27    C    2  dxz    Ryd( 3d)     0.00050
    28    C    2  dyz    Ryd( 3d)     0.00019
    29    C    2  dx2y2  Ryd( 3d)     0.00080
    30    C    2  dz2    Ryd( 3d)     0.00117

    31    C    3  S      Cor( 1S)     1.99934
    32    C    3  S      Val( 2S)     1.06025
    33    C    3  S      Ryd( 3S)     0.00182
    34    C    3  S      Ryd( 4S)     0.00001
    35    C    3  px     Val( 2p)     1.10203
    36    C    3  px     Ryd( 3p)     0.00140
    37    C    3  py     Val( 2p)     1.04423
    38    C    3  py     Ryd( 3p)     0.00221
    39    C    3  pz     Val( 2p)     1.24884
    40    C    3  pz     Ryd( 3p)     0.00225
    41    C    3  dxy    Ryd( 3d)     0.00098
    42    C    3  dxz    Ryd( 3d)     0.00065
    43    C    3  dyz    Ryd( 3d)     0.00076
    44    C    3  dx2y2  Ryd( 3d)     0.00099
    45    C    3  dz2    Ryd( 3d)     0.00068

    46    C    4  S      Cor( 1S)     1.99934
    47    C    4  S      Val( 2S)     1.06027
    48    C    4  S      Ryd( 3S)     0.00182
    49    C    4  S      Ryd( 4S)     0.00001
    50    C    4  px     Val( 2p)     1.10193
    51    C    4  px     Ryd( 3p)     0.00140
    52    C    4  py     Val( 2p)     1.04421
    53    C    4  py     Ryd( 3p)     0.00221
    54    C    4  pz     Val( 2p)     1.24887
    55    C    4  pz     Ryd( 3p)     0.00224
    56    C    4  dxy    Ryd( 3d)     0.00098
    57    C    4  dxz    Ryd( 3d)     0.00065
    58    C    4  dyz    Ryd( 3d)     0.00076
    59    C    4  dx2y2  Ryd( 3d)     0.00099
    60    C    4  dz2    Ryd( 3d)     0.00068

    61    H    5  S      Val( 1S)     0.78045
    62    H    5  S      Ryd( 2S)     0.00000

    63    H    6  S      Val( 1S)     0.75120
    64    H    6  S      Ryd( 2S)     0.00070

    65    H    7  S      Val( 1S)     0.74221
    66    H    7  S      Ryd( 2S)     0.00000

    67    H    8  S      Val( 1S)     0.75121
    68    H    8  S      Ryd( 2S)     0.00070

    69    H    9  S      Val( 1S)     0.74221
    70    H    9  S      Ryd( 2S)     0.00000

 WARNING:  1 low occupancy (<1.9990e) core orbital  found on Li    1


 Summary of Natural Population Analysis:                  
                                                          
                                       Natural Population 
                Natural  -----------------------------------------------
    Atom  No    Charge         Core      Valence    Rydberg      Total
 -----------------------------------------------------------------------
     Li    1    0.09384      1.99593     0.90421    0.00603     2.90616
      C    2   -0.41233      1.99904     4.38736    0.02594     6.41233
      C    3   -0.46643      1.99934     4.45535    0.01174     6.46643
      C    4   -0.46636      1.99934     4.45528    0.01174     6.46636
      H    5    0.21955      0.00000     0.78045    0.00000     0.78045
      H    6    0.24811      0.00000     0.75120    0.00070     0.75189
      H    7    0.25779      0.00000     0.74221    0.00000     0.74221
      H    8    0.24810      0.00000     0.75121    0.00070     0.75190
      H    9    0.25779      0.00000     0.74221    0.00000     0.74221
 =======================================================================
   * Total *   -0.01994      7.99364    17.96946    0.05684    26.01994

                                 Natural Population      
 --------------------------------------------------------
   Core                       7.99364 ( 99.9205% of   8)
   Valence                   17.96946 ( 99.8304% of  18)
   Natural Minimal Basis     25.96310 ( 99.8581% of  26)
   Natural Rydberg Basis      0.05684 (  0.2186% of  26)
 --------------------------------------------------------

    Atom  No          Natural Electron Configuration
 ----------------------------------------------------------------------------
     Li    1      [core]2S( 0.69)2p( 0.22)3S( 0.01)
      C    2      [core]2S( 1.24)2p( 3.15)3p( 0.02)
      C    3      [core]2S( 1.06)2p( 3.40)3p( 0.01)
      C    4      [core]2S( 1.06)2p( 3.40)3p( 0.01)
      H    5            1S( 0.78)
      H    6            1S( 0.75)
      H    7            1S( 0.74)
      H    8            1S( 0.75)
      H    9            1S( 0.74)


 NBO analysis skipped by request.
 Leave Link  607 at Sun Oct  3 02:21:31 2021, MaxMem=  268435456 cpu:       2.3
 (Enter /sw/target/amd/app/gaussian/Gaussian09RevA.02_gcc-4.9.2/g09/l9999.exe)
 1\1\GINC-HERMITE\SP\RTD-B3LYP-FC\6-31G(d)\C3H5Li1\JSCHLEINITZ\03-Oct-2
 021\0\\#p TD(NStates=10, Root=1) b3lyp/6-31G* volume pop=NPA density=c
 urrent Geom=AllCheck Guess=Read\\[Li]C1CC1_conf_0\\0,1\Li,0,1.06555978
 93,-0.0108980513,-0.1205861422\C,0,3.0264643947,-0.0224748007,-0.08447
 15678\C,0,3.9309861192,0.7182874132,-1.0755592615\C,0,3.9214270341,-0.
 7826423142,-1.0697012492\H,0,3.4840438539,-0.0217571873,0.9127412136\H
 ,0,4.8325218879,1.2130495319,-0.71227996\H,0,3.4873594163,1.2387952376
 ,-1.9262055366\H,0,4.8165922142,-1.285704136,-0.7021241494\H,0,3.47121
 42441,-1.3042543825,-1.9161697741\\Version=AM64L-G09RevA.02\State=1-A\
 HF=-124.7781866\RMSD=1.570e-09\Dipole=2.7361434,-0.016189,-0.078706\Qu
 adrupole=-14.2814622,6.6709597,7.6105024,0.1302718,1.9976969,-0.007888
 1\PG=C01 [X(C3H5Li1)]\\@


 ASKING DUMB QUESTIONS IS EASIER THAN CORECTING DUMB MISTAKES.
 Job cpu time:  0 days  0 hours  4 minutes 52.1 seconds.
 File lengths (MBytes):  RWF=     16 Int=      0 D2E=      0 Chk=      3 Scr=      1
 Normal termination of Gaussian 09 at Sun Oct  3 02:21:35 2021.
