 Entering Gaussian System, Link 0=g09
 Input=C4H11ClMgSi_4df6_conf_0.com
 Output=C4H11ClMgSi_4df6_conf_0.log
 Initial command:
 /sw/target/amd/app/gaussian/Gaussian09RevA.02_gcc-4.9.2/g09/l1.exe /home/jschleinitz/gaussian/Gau-3095915.inp -scrdir=/home/jschleinitz/gaussian/
 Entering Link 1 = /sw/target/amd/app/gaussian/Gaussian09RevA.02_gcc-4.9.2/g09/l1.exe PID=   3096103.
  
 Copyright (c) 1988,1990,1992,1993,1995,1998,2003,2009, Gaussian, Inc.
                  All Rights Reserved.
  
 This is part of the Gaussian(R) 09 program.  It is based on
 the Gaussian(R) 03 system (copyright 2003, Gaussian, Inc.),
 the Gaussian(R) 98 system (copyright 1998, Gaussian, Inc.),
 the Gaussian(R) 94 system (copyright 1995, Gaussian, Inc.),
 the Gaussian 92(TM) system (copyright 1992, Gaussian, Inc.),
 the Gaussian 90(TM) system (copyright 1990, Gaussian, Inc.),
 the Gaussian 88(TM) system (copyright 1988, Gaussian, Inc.),
 the Gaussian 86(TM) system (copyright 1986, Carnegie Mellon
 University), and the Gaussian 82(TM) system (copyright 1983,
 Carnegie Mellon University). Gaussian is a federally registered
 trademark of Gaussian, Inc.
  
 This software contains proprietary and confidential information,
 including trade secrets, belonging to Gaussian, Inc.
  
 This software is provided under written license and may be
 used, copied, transmitted, or stored only in accord with that
 written license.
  
 The following legend is applicable only to US Government
 contracts under FAR:
  
                    RESTRICTED RIGHTS LEGEND
  
 Use, reproduction and disclosure by the US Government is
 subject to restrictions as set forth in subparagraphs (a)
 and (c) of the Commercial Computer Software - Restricted
 Rights clause in FAR 52.227-19.
  
 Gaussian, Inc.
 340 Quinnipiac St., Bldg. 40, Wallingford CT 06492
  
  
 ---------------------------------------------------------------
 Warning -- This program may not be used in any manner that
 competes with the business of Gaussian, Inc. or will provide
 assistance to any competitor of Gaussian, Inc.  The licensee
 of this program is prohibited from giving any competitor of
 Gaussian, Inc. access to this program.  By using this program,
 the user acknowledges that Gaussian, Inc. is engaged in the
 business of creating and licensing software in the field of
 computational chemistry and represents and warrants to the
 licensee that it is not a competitor of Gaussian, Inc. and that
 it will not use this program in any manner prohibited above.
 ---------------------------------------------------------------
  

 Cite this work as:
 Gaussian 09, Revision A.02,
 M. J. Frisch, G. W. Trucks, H. B. Schlegel, G. E. Scuseria, 
 M. A. Robb, J. R. Cheeseman, G. Scalmani, V. Barone, B. Mennucci, 
 G. A. Petersson, H. Nakatsuji, M. Caricato, X. Li, H. P. Hratchian, 
 A. F. Izmaylov, J. Bloino, G. Zheng, J. L. Sonnenberg, M. Hada, 
 M. Ehara, K. Toyota, R. Fukuda, J. Hasegawa, M. Ishida, T. Nakajima, 
 Y. Honda, O. Kitao, H. Nakai, T. Vreven, J. A. Montgomery, Jr., 
 J. E. Peralta, F. Ogliaro, M. Bearpark, J. J. Heyd, E. Brothers, 
 K. N. Kudin, V. N. Staroverov, R. Kobayashi, J. Normand, 
 K. Raghavachari, A. Rendell, J. C. Burant, S. S. Iyengar, J. Tomasi, 
 M. Cossi, N. Rega, J. M. Millam, M. Klene, J. E. Knox, J. B. Cross, 
 V. Bakken, C. Adamo, J. Jaramillo, R. Gomperts, R. E. Stratmann, 
 O. Yazyev, A. J. Austin, R. Cammi, C. Pomelli, J. W. Ochterski, 
 R. L. Martin, K. Morokuma, V. G. Zakrzewski, G. A. Voth, 
 P. Salvador, J. J. Dannenberg, S. Dapprich, A. D. Daniels, 
 O. Farkas, J. B. Foresman, J. V. Ortiz, J. Cioslowski, 
 and D. J. Fox, Gaussian, Inc., Wallingford CT, 2009.
 
 ******************************************
 Gaussian 09:  AM64L-G09RevA.02 11-Jun-2009
                 4-Oct-2021 
 ******************************************
 %nproc=3
 Will use up to    3 processors via shared memory.
 %mem=6gb
 %chk=C4H11ClMgSi_4df6_conf_0.chk
 -----------------------------------
 #p opt b3lyp/6-31G* scf=(xqc,tight)
 -----------------------------------
 1/14=-1,18=20,19=15,26=3,38=1/1,3;
 2/9=110,12=2,17=6,18=5,40=1/2;
 3/5=1,6=6,7=1,11=2,16=1,25=1,30=1,71=1,74=-5/1,2,3;
 4//1;
 5/5=2,8=3,13=1,32=2,38=5/2,8;
 6/7=2,8=2,9=2,10=2,28=1/1;
 7//1,2,3,16;
 1/14=-1,18=20,19=15/3(2);
 2/9=110/2;
 99//99;
 2/9=110/2;
 3/5=1,6=6,7=1,11=2,16=1,25=1,30=1,71=1,74=-5/1,2,3;
 4/5=5,16=3/1;
 5/5=2,8=3,13=1,32=2,38=5/2,8;
 7//1,2,3,16;
 1/14=-1,18=20,19=15/3(-5);
 2/9=110/2;
 6/7=2,8=2,9=2,10=2,19=2,28=1/1;
 99/9=1/99;
 Leave Link    1 at Mon Oct  4 21:19:03 2021, MaxMem=  805306368 cpu:       0.1
 (Enter /sw/target/amd/app/gaussian/Gaussian09RevA.02_gcc-4.9.2/g09/l101.exe)
 -------------------------
 Cl[Mg]C[Si](C)(C)C_conf_0
 -------------------------
 Symbolic Z-matrix:
 Charge =  0 Multiplicity = 1
 Cl                    4.70321  -0.14425   3.52288 
 Mg                    5.8541    0.9379    1.7512 
 C                     5.28776   0.02419  -0.12714 
 Si                    6.17579   0.89069  -1.52037 
 C                     5.69587   0.11172  -3.14738 
 C                     5.70171   2.69586  -1.52879 
 C                     8.01894   0.73302  -1.27254 
 H                     4.19184   0.11854  -0.27052 
 H                     5.56968  -1.04862  -0.11819 
 H                     4.60018   0.20572  -3.29296 
 H                     5.97773  -0.96116  -3.14063 
 H                     6.22484   0.62822  -3.97442 
 H                     4.60599   2.78939  -1.67444 
 H                     6.23057   3.21287  -2.35557 
 H                     5.98715   3.15694  -0.56101 
 H                     8.30035  -0.33998  -1.2659 
 H                     8.30218   1.19595  -0.30501 
 H                     8.54839   1.24952  -2.09926 
 
 NAtoms=     18 NQM=     18 NQMF=      0 NMic=      0 NMicF=      0 NTot=     18.
                    Isotopes and Nuclear Properties:
 (Nuclear quadrupole moments (NQMom) in fm**2, nuclear magnetic moments (NMagM)
  in nuclear magnetons)

  Atom         1           2           3           4           5           6           7           8           9          10
 IAtWgt=          35          24          12          28          12          12          12           1           1           1
 AtmWgt=  34.9688527  23.9850450  12.0000000  27.9769284  12.0000000  12.0000000  12.0000000   1.0078250   1.0078250   1.0078250
 NucSpn=           3           0           0           0           0           0           0           1           1           1
 AtZEff=   0.0000000   0.0000000   0.0000000   0.0000000   0.0000000   0.0000000   0.0000000   0.0000000   0.0000000   0.0000000
 NQMom=   -8.1650000   0.0000000   0.0000000   0.0000000   0.0000000   0.0000000   0.0000000   0.0000000   0.0000000   0.0000000
 NMagM=    0.8218740   0.0000000   0.0000000   0.0000000   0.0000000   0.0000000   0.0000000   2.7928460   2.7928460   2.7928460

  Atom        11          12          13          14          15          16          17          18
 IAtWgt=           1           1           1           1           1           1           1           1
 AtmWgt=   1.0078250   1.0078250   1.0078250   1.0078250   1.0078250   1.0078250   1.0078250   1.0078250
 NucSpn=           1           1           1           1           1           1           1           1
 AtZEff=   0.0000000   0.0000000   0.0000000   0.0000000   0.0000000   0.0000000   0.0000000   0.0000000
 NQMom=    0.0000000   0.0000000   0.0000000   0.0000000   0.0000000   0.0000000   0.0000000   0.0000000
 NMagM=    2.7928460   2.7928460   2.7928460   2.7928460   2.7928460   2.7928460   2.7928460   2.7928460
 Leave Link  101 at Mon Oct  4 21:19:03 2021, MaxMem=  805306368 cpu:       0.2
 (Enter /sw/target/amd/app/gaussian/Gaussian09RevA.02_gcc-4.9.2/g09/l103.exe)

 GradGradGradGradGradGradGradGradGradGradGradGradGradGradGradGradGradGrad
 Berny optimization.
 Initialization pass.
                           ----------------------------
                           !    Initial Parameters    !
                           ! (Angstroms and Degrees)  !
 --------------------------                            --------------------------
 ! Name  Definition              Value          Derivative Info.                !
 --------------------------------------------------------------------------------
 ! R1    R(1,2)                  2.3737         estimate D2E/DX2                !
 ! R2    R(2,3)                  2.1642         estimate D2E/DX2                !
 ! R3    R(3,4)                  1.8656         estimate D2E/DX2                !
 ! R4    R(3,8)                  1.1093         estimate D2E/DX2                !
 ! R5    R(3,9)                  1.1093         estimate D2E/DX2                !
 ! R6    R(4,5)                  1.8666         estimate D2E/DX2                !
 ! R7    R(4,6)                  1.8664         estimate D2E/DX2                !
 ! R8    R(4,7)                  1.8664         estimate D2E/DX2                !
 ! R9    R(5,10)                 1.1093         estimate D2E/DX2                !
 ! R10   R(5,11)                 1.1093         estimate D2E/DX2                !
 ! R11   R(5,12)                 1.1093         estimate D2E/DX2                !
 ! R12   R(6,13)                 1.1093         estimate D2E/DX2                !
 ! R13   R(6,14)                 1.1093         estimate D2E/DX2                !
 ! R14   R(6,15)                 1.1093         estimate D2E/DX2                !
 ! R15   R(7,16)                 1.1093         estimate D2E/DX2                !
 ! R16   R(7,17)                 1.1093         estimate D2E/DX2                !
 ! R17   R(7,18)                 1.1093         estimate D2E/DX2                !
 ! A1    A(1,2,3)              109.1742         estimate D2E/DX2                !
 ! A2    A(2,3,4)              109.1172         estimate D2E/DX2                !
 ! A3    A(2,3,8)              109.5606         estimate D2E/DX2                !
 ! A4    A(2,3,9)              109.5607         estimate D2E/DX2                !
 ! A5    A(4,3,8)              109.5262         estimate D2E/DX2                !
 ! A6    A(4,3,9)              109.5263         estimate D2E/DX2                !
 ! A7    A(8,3,9)              109.5357         estimate D2E/DX2                !
 ! A8    A(3,4,5)              109.5556         estimate D2E/DX2                !
 ! A9    A(3,4,6)              109.3707         estimate D2E/DX2                !
 ! A10   A(3,4,7)              109.3701         estimate D2E/DX2                !
 ! A11   A(5,4,6)              109.5353         estimate D2E/DX2                !
 ! A12   A(5,4,7)              109.5353         estimate D2E/DX2                !
 ! A13   A(6,4,7)              109.46           estimate D2E/DX2                !
 ! A14   A(4,5,10)             109.4497         estimate D2E/DX2                !
 ! A15   A(4,5,11)             109.4496         estimate D2E/DX2                !
 ! A16   A(4,5,12)             109.4472         estimate D2E/DX2                !
 ! A17   A(10,5,11)            109.4941         estimate D2E/DX2                !
 ! A18   A(10,5,12)            109.4934         estimate D2E/DX2                !
 ! A19   A(11,5,12)            109.4933         estimate D2E/DX2                !
 ! A20   A(4,6,13)             109.4531         estimate D2E/DX2                !
 ! A21   A(4,6,14)             109.4532         estimate D2E/DX2                !
 ! A22   A(4,6,15)             109.4327         estimate D2E/DX2                !
 ! A23   A(13,6,14)            109.4966         estimate D2E/DX2                !
 ! A24   A(13,6,15)            109.4903         estimate D2E/DX2                !
 ! A25   A(14,6,15)            109.5014         estimate D2E/DX2                !
 ! A26   A(4,7,16)             109.4531         estimate D2E/DX2                !
 ! A27   A(4,7,17)             109.4325         estimate D2E/DX2                !
 ! A28   A(4,7,18)             109.4533         estimate D2E/DX2                !
 ! A29   A(16,7,17)            109.4903         estimate D2E/DX2                !
 ! A30   A(16,7,18)            109.4967         estimate D2E/DX2                !
 ! A31   A(17,7,18)            109.5014         estimate D2E/DX2                !
 ! D1    D(1,2,3,4)            179.2551         estimate D2E/DX2                !
 ! D2    D(1,2,3,8)             59.3497         estimate D2E/DX2                !
 ! D3    D(1,2,3,9)            -60.8394         estimate D2E/DX2                !
 ! D4    D(2,3,4,5)            179.9984         estimate D2E/DX2                !
 ! D5    D(2,3,4,6)            -59.9331         estimate D2E/DX2                !
 ! D6    D(2,3,4,7)             59.9303         estimate D2E/DX2                !
 ! D7    D(8,3,4,5)            -60.075          estimate D2E/DX2                !
 ! D8    D(8,3,4,6)             59.9935         estimate D2E/DX2                !
 ! D9    D(8,3,4,7)            179.8569         estimate D2E/DX2                !
 ! D10   D(9,3,4,5)             60.0717         estimate D2E/DX2                !
 ! D11   D(9,3,4,6)           -179.8598         estimate D2E/DX2                !
 ! D12   D(9,3,4,7)            -59.9965         estimate D2E/DX2                !
 ! D13   D(3,4,5,10)            60.0013         estimate D2E/DX2                !
 ! D14   D(3,4,5,11)           -60.0003         estimate D2E/DX2                !
 ! D15   D(3,4,5,12)          -179.9994         estimate D2E/DX2                !
 ! D16   D(6,4,5,10)           -59.9666         estimate D2E/DX2                !
 ! D17   D(6,4,5,11)          -179.9683         estimate D2E/DX2                !
 ! D18   D(6,4,5,12)            60.0326         estimate D2E/DX2                !
 ! D19   D(7,4,5,10)           179.9684         estimate D2E/DX2                !
 ! D20   D(7,4,5,11)            59.9668         estimate D2E/DX2                !
 ! D21   D(7,4,5,12)           -60.0323         estimate D2E/DX2                !
 ! D22   D(3,4,6,13)           -60.1003         estimate D2E/DX2                !
 ! D23   D(3,4,6,14)           179.8907         estimate D2E/DX2                !
 ! D24   D(3,4,6,15)            59.8884         estimate D2E/DX2                !
 ! D25   D(5,4,6,13)            59.9807         estimate D2E/DX2                !
 ! D26   D(5,4,6,14)           -60.0283         estimate D2E/DX2                !
 ! D27   D(5,4,6,15)           179.9694         estimate D2E/DX2                !
 ! D28   D(7,4,6,13)          -179.9084         estimate D2E/DX2                !
 ! D29   D(7,4,6,14)            60.0827         estimate D2E/DX2                !
 ! D30   D(7,4,6,15)           -59.9197         estimate D2E/DX2                !
 ! D31   D(3,4,7,16)            60.0995         estimate D2E/DX2                !
 ! D32   D(3,4,7,17)           -59.889          estimate D2E/DX2                !
 ! D33   D(3,4,7,18)          -179.8913         estimate D2E/DX2                !
 ! D34   D(5,4,7,16)           -59.9811         estimate D2E/DX2                !
 ! D35   D(5,4,7,17)          -179.9696         estimate D2E/DX2                !
 ! D36   D(5,4,7,18)            60.0281         estimate D2E/DX2                !
 ! D37   D(6,4,7,16)           179.908          estimate D2E/DX2                !
 ! D38   D(6,4,7,17)            59.9195         estimate D2E/DX2                !
 ! D39   D(6,4,7,18)           -60.0829         estimate D2E/DX2                !
 --------------------------------------------------------------------------------
 Trust Radius=3.00D-01 FncErr=1.00D-07 GrdErr=1.00D-06
 Number of steps in this run=  97 maximum allowed number of steps= 108.
 GradGradGradGradGradGradGradGradGradGradGradGradGradGradGradGradGradGrad

 Leave Link  103 at Mon Oct  4 21:19:15 2021, MaxMem=  805306368 cpu:       0.0
 (Enter /sw/target/amd/app/gaussian/Gaussian09RevA.02_gcc-4.9.2/g09/l202.exe)
                          Input orientation:                          
 ---------------------------------------------------------------------
 Center     Atomic      Atomic             Coordinates (Angstroms)
 Number     Number       Type             X           Y           Z
 ---------------------------------------------------------------------
      1         17           0        4.703210   -0.144250    3.522876
      2         12           0        5.854096    0.937904    1.751197
      3          6           0        5.287759    0.024195   -0.127140
      4         14           0        6.175793    0.890695   -1.520372
      5          6           0        5.695872    0.111724   -3.147382
      6          6           0        5.701713    2.695865   -1.528788
      7          6           0        8.018937    0.733020   -1.272542
      8          1           0        4.191841    0.118544   -0.270518
      9          1           0        5.569685   -1.048618   -0.118191
     10          1           0        4.600180    0.205716   -3.292961
     11          1           0        5.977727   -0.961160   -3.140625
     12          1           0        6.224838    0.628220   -3.974419
     13          1           0        4.605992    2.789394   -1.674437
     14          1           0        6.230567    3.212871   -2.355574
     15          1           0        5.987148    3.156937   -0.561012
     16          1           0        8.300352   -0.339979   -1.265896
     17          1           0        8.302178    1.195954   -0.305010
     18          1           0        8.548387    1.249520   -2.099263
 ---------------------------------------------------------------------
                    Distance matrix (angstroms):
                    1          2          3          4          5
     1  Cl   0.000000
     2  Mg   2.373697   0.000000
     3  C    3.700363   2.164198   0.000000
     4  Si   5.354808   3.287687   1.865616   0.000000
     5  C    6.748573   4.970280   3.048947   1.866623   0.000000
     6  C    5.880694   3.724506   3.045290   1.866403   3.049207
     7  C    5.895734   3.724448   3.045277   1.866403   3.049207
     8  H    3.836717   2.742585   1.109276   2.468688   3.246306
     9  H    3.850458   2.742585   1.109275   2.468687   3.246277
    10  H    6.825594   5.248994   3.244709   2.468567   1.109310
    11  H    6.833300   5.248967   3.244699   2.468566   1.109310
    12  H    7.689051   5.745959   4.005561   2.468531   1.109308
    13  H    5.968901   4.089101   3.241182   2.468415   3.244584
    14  H    6.939687   4.709860   4.002806   2.468413   3.244992
    15  H    5.405966   3.207510   3.239053   2.468160   4.005930
    16  H    5.992502   4.089011   3.241158   2.468414   3.244587
    17  H    5.422308   3.207442   3.239040   2.468157   4.005929
    18  H    6.952440   4.709815   4.002797   2.468414   3.244992
                    6          7          8          9         10
     6  C    0.000000
     7  C    3.047613   0.000000
     8  H    3.241225   4.003535   0.000000
     9  H    4.003544   3.241234   1.812160   0.000000
    10  H    3.244460   4.006000   3.051148   3.548586   0.000000
    11  H    4.006000   3.244460   3.548615   3.051108   1.811751
    12  H    3.244985   3.244983   4.255788   4.255762   1.811742
    13  H    1.109309   4.004796   3.045645   4.252170   3.048778
    14  H    1.109305   3.243591   4.251908   4.858285   3.546806
    15  H    1.109347   3.241884   3.541094   4.249360   4.254049
    16  H    4.004795   1.109309   4.252162   3.045643   4.254180
    17  H    3.241879   1.109348   4.249337   3.541119   4.859343
    18  H    3.243595   1.109305   4.858282   4.251912   4.254736
                   11         12         13         14         15
    11  H    0.000000
    12  H    1.811741   0.000000
    13  H    4.254178   3.547007   0.000000
    14  H    4.254735   3.049773   1.811774   0.000000
    15  H    4.859344   4.254675   1.811738   1.811860   0.000000
    16  H    3.048781   3.547008   4.858825   4.253722   4.251611
    17  H    4.254049   4.254672   4.251608   3.544621   3.044725
    18  H    3.546806   3.049771   4.253724   3.048398   3.544630
                   16         17         18
    16  H    0.000000
    17  H    1.811738   0.000000
    18  H    1.811775   1.811859   0.000000
 Stoichiometry    C4H11ClMgSi
 Framework group  C1[X(C4H11ClMgSi)]
 Deg. of freedom    48
 Full point group                 C1      NOp   1
 Largest Abelian subgroup         C1      NOp   1
 Largest concise Abelian subgroup C1      NOp   1
                         Standard orientation:                         
 ---------------------------------------------------------------------
 Center     Atomic      Atomic             Coordinates (Angstroms)
 Number     Number       Type             X           Y           Z
 ---------------------------------------------------------------------
      1         17           0       -3.723120    0.298051   -0.000298
      2         12           0       -1.569655   -0.700460   -0.000069
      3          6           0       -0.064966    0.854894   -0.023234
      4         14           0        1.626777    0.068768   -0.000119
      5          6           0        2.934802    1.400293   -0.019908
      6          6           0        1.809186   -0.962368    1.544855
      7          6           0        1.823306   -1.021524   -1.502151
      8          1           0       -0.185525    1.501599    0.869925
      9          1           0       -0.177097    1.466463   -0.941875
     10          1           0        2.816344    2.047749    0.873029
     11          1           0        2.824735    2.012582   -0.938361
     12          1           0        3.939836    0.930954   -0.006141
     13          1           0        1.690712   -0.314535    2.437516
     14          1           0        2.814036   -1.432085    1.559021
     15          1           0        1.030772   -1.752696    1.555150
     16          1           0        1.713217   -0.408848   -2.420342
     17          1           0        1.044879   -1.811796   -1.488969
     18          1           0        2.828159   -1.491254   -1.488770
 ---------------------------------------------------------------------
 Rotational constants (GHZ):      2.8743791      0.5418745      0.5331578
 Leave Link  202 at Mon Oct  4 21:19:15 2021, MaxMem=  805306368 cpu:       0.0
 (Enter /sw/target/amd/app/gaussian/Gaussian09RevA.02_gcc-4.9.2/g09/l301.exe)
 Standard basis: 6-31G(d) (6D, 7F)
 Ernie: Thresh=  0.10000D-02 Tol=  0.10000D-05 Strict=F.
 There are   139 symmetry adapted basis functions of A   symmetry.
 Integral buffers will be    131072 words long.
 Raffenetti 2 integral format.
 Two-electron integral symmetry is turned on.
   139 basis functions,   312 primitive gaussians,   139 cartesian basis functions
    39 alpha electrons       39 beta electrons
       nuclear repulsion energy       454.7292290665 Hartrees.
 IExCor=  402 DFT=T Ex+Corr=B3LYP ExCW=0 ScaHFX=  0.200000
 ScaDFX=  0.800000  0.720000  1.000000  0.810000 ScalE2=  1.000000  1.000000
 IRadAn=      0 IRanWt=     -1 IRanGd=            0 ICorTp=0
 NAtoms=   18 NActive=   18 NUniq=   18 SFac= 7.50D-01 NAtFMM=   80 NAOKFM=F Big=F
 Leave Link  301 at Mon Oct  4 21:19:15 2021, MaxMem=  805306368 cpu:       0.1
 (Enter /sw/target/amd/app/gaussian/Gaussian09RevA.02_gcc-4.9.2/g09/l302.exe)
 NPDir=0 NMtPBC=     1 NCelOv=     1 NCel=       1 NClECP=     1 NCelD=      1
         NCelK=      1 NCelE2=     1 NClLst=     1 CellRange=     0.0.
 One-electron integrals computed using PRISM.
 NBasis=   139 RedAO= T  NBF=   139
 NBsUse=   139 1.00D-06 NBFU=   139
 Precomputing XC quadrature grid using
 IXCGrd= 2 IRadAn=           0 IRanWt=          -1 IRanGd=           0 AccXCQ= 1.00D-10.
 NRdTot=    1147 NPtTot=      145584 NUsed=      153860 NTot=      153892
 NSgBfM=   138   138   138   138   138 NAtAll=    18    18.
 Leave Link  302 at Mon Oct  4 21:19:16 2021, MaxMem=  805306368 cpu:       1.1
 (Enter /sw/target/amd/app/gaussian/Gaussian09RevA.02_gcc-4.9.2/g09/l303.exe)
 DipDrv:  MaxL=1.
 Leave Link  303 at Mon Oct  4 21:19:16 2021, MaxMem=  805306368 cpu:       0.1
 (Enter /sw/target/amd/app/gaussian/Gaussian09RevA.02_gcc-4.9.2/g09/l401.exe)
 Harris functional with IExCor=  402 diagonalized for initial guess.
 ExpMin= 4.21D-02 ExpMax= 2.52D+04 ExpMxC= 3.78D+03 IAcc=2 IRadAn=         0 AccDes= 0.00D+00
 HarFok:  IExCor=  402 AccDes= 0.00D+00 IRadAn=         0 IDoV= 1
 ScaDFX=  1.000000  1.000000  1.000000  1.000000
 FoFCou: FMM=F IPFlag=           0 FMFlag=      100000 FMFlg1=           0
         NFxFlg=           0 DoJE=T BraDBF=F KetDBF=T FulRan=T
         Omega=  0.000000  0.000000  1.000000  0.000000  0.000000 ICntrl=     500 IOpCl=  0
         NMat0=    1 NMatS0=    1 NMatT0=    0 NMatD0=    1 NMtDS0=    0 NMtDT0=    0
         I1Cent=           4 NGrid=           0.
 Petite list used in FoFCou.
 Harris En= -1109.14804493692    
 Initial guess orbital symmetries:
       Occupied  (A) (A) (A) (A) (A) (A) (A) (A) (A) (A) (A) (A)
                 (A) (A) (A) (A) (A) (A) (A) (A) (A) (A) (A) (A)
                 (A) (A) (A) (A) (A) (A) (A) (A) (A) (A) (A) (A)
                 (A) (A) (A)
       Virtual   (A) (A) (A) (A) (A) (A) (A) (A) (A) (A) (A) (A)
                 (A) (A) (A) (A) (A) (A) (A) (A) (A) (A) (A) (A)
                 (A) (A) (A) (A) (A) (A) (A) (A) (A) (A) (A) (A)
                 (A) (A) (A) (A) (A) (A) (A) (A) (A) (A) (A) (A)
                 (A) (A) (A) (A) (A) (A) (A) (A) (A) (A) (A) (A)
                 (A) (A) (A) (A) (A) (A) (A) (A) (A) (A) (A) (A)
                 (A) (A) (A) (A) (A) (A) (A) (A) (A) (A) (A) (A)
                 (A) (A) (A) (A) (A) (A) (A) (A) (A) (A) (A) (A)
                 (A) (A) (A) (A)
 The electronic state of the initial guess is 1-A.
 Leave Link  401 at Mon Oct  4 21:19:25 2021, MaxMem=  805306368 cpu:       8.8
 (Enter /sw/target/amd/app/gaussian/Gaussian09RevA.02_gcc-4.9.2/g09/l502.exe)
 Closed shell SCF:
 Requested convergence on RMS density matrix=1.00D-08 within  64 cycles.
 Requested convergence on MAX density matrix=1.00D-06.
 Requested convergence on             energy=1.00D-06.
 No special actions if energy rises.
 Using DIIS extrapolation, IDIIS=  1040.
 Integral symmetry usage will be decided dynamically.
       153685 words used for storage of precomputed grid.
 Keep R1 ints in memory in canonical form, NReq=48932341.
 IEnd=      219082 IEndB=      219082 NGot=   805306368 MDV=   757769628
 LenX=   757769628 LenY=   757749866
 Symmetry not used in FoFDir.
 MinBra= 0 MaxBra= 2 Meth= 1.
 IRaf=       0 NMat=   1 IRICut=       1 DoRegI=T DoRafI=F ISym2E= 0 JSym2E=0.

 Cycle   1  Pass 1  IDiag  1:
 E= -1108.33229337406    
 DIIS: error= 7.37D-02 at cycle   1 NSaved=   1.
 NSaved= 1 IEnMin= 1 EnMin= -1108.33229337406     IErMin= 1 ErrMin= 7.37D-02
 ErrMax= 7.37D-02 EMaxC= 1.00D-01 BMatC= 5.19D-01 BMatP= 5.19D-01
 IDIUse=3 WtCom= 2.63D-01 WtEn= 7.37D-01
 Coeff-Com:  0.100D+01
 Coeff-En:   0.100D+01
 Coeff:      0.100D+01
 Gap=    -0.017 Goal=   None    Shift=    0.000
 GapD=   -0.017 DampG=0.250 DampE=0.500 DampFc=0.2500 IDamp=-1.
 Damping current iteration by 2.50D-01
 RMSDP=1.36D-02 MaxDP=5.22D-01              OVMax= 7.17D-01

 Cycle   2  Pass 1  IDiag  1:
 E= -1108.54353293396     Delta-E=       -0.211239559898 Rises=F Damp=T
 DIIS: error= 2.91D-02 at cycle   2 NSaved=   2.
 NSaved= 2 IEnMin= 2 EnMin= -1108.54353293396     IErMin= 2 ErrMin= 2.91D-02
 ErrMax= 2.91D-02 EMaxC= 1.00D-01 BMatC= 9.60D-02 BMatP= 5.19D-01
 IDIUse=3 WtCom= 7.09D-01 WtEn= 2.91D-01
 Coeff-Com: -0.633D+00 0.163D+01
 Coeff-En:   0.000D+00 0.100D+01
 Coeff:     -0.448D+00 0.145D+01
 Gap=     0.125 Goal=   None    Shift=    0.000
 RMSDP=3.82D-03 MaxDP=7.42D-02 DE=-2.11D-01 OVMax= 5.76D-01

 Cycle   3  Pass 1  IDiag  1:
 E= -1108.85026127737     Delta-E=       -0.306728343405 Rises=F Damp=F
 DIIS: error= 1.43D-02 at cycle   3 NSaved=   3.
 NSaved= 3 IEnMin= 3 EnMin= -1108.85026127737     IErMin= 3 ErrMin= 1.43D-02
 ErrMax= 1.43D-02 EMaxC= 1.00D-01 BMatC= 4.23D-02 BMatP= 9.60D-02
 IDIUse=3 WtCom= 8.57D-01 WtEn= 1.43D-01
 Coeff-Com: -0.370D+00 0.973D+00 0.397D+00
 Coeff-En:   0.000D+00 0.000D+00 0.100D+01
 Coeff:     -0.317D+00 0.834D+00 0.483D+00
 Gap=     0.148 Goal=   None    Shift=    0.000
 RMSDP=2.09D-03 MaxDP=6.19D-02 DE=-3.07D-01 OVMax= 1.19D-01

 Cycle   4  Pass 1  IDiag  1:
 E= -1108.90465439264     Delta-E=       -0.054393115279 Rises=F Damp=F
 DIIS: error= 4.66D-03 at cycle   4 NSaved=   4.
 NSaved= 4 IEnMin= 4 EnMin= -1108.90465439264     IErMin= 4 ErrMin= 4.66D-03
 ErrMax= 4.66D-03 EMaxC= 1.00D-01 BMatC= 2.66D-03 BMatP= 4.23D-02
 IDIUse=3 WtCom= 9.53D-01 WtEn= 4.66D-02
 Coeff-Com: -0.108D+00 0.230D+00 0.174D+00 0.705D+00
 Coeff-En:   0.000D+00 0.000D+00 0.000D+00 0.100D+01
 Coeff:     -0.103D+00 0.219D+00 0.166D+00 0.718D+00
 Gap=     0.121 Goal=   None    Shift=    0.000
 RMSDP=6.11D-04 MaxDP=2.22D-02 DE=-5.44D-02 OVMax= 2.63D-02

 Cycle   5  Pass 1  IDiag  1:
 E= -1108.90783627228     Delta-E=       -0.003181879637 Rises=F Damp=F
 DIIS: error= 1.13D-03 at cycle   5 NSaved=   5.
 NSaved= 5 IEnMin= 5 EnMin= -1108.90783627228     IErMin= 5 ErrMin= 1.13D-03
 ErrMax= 1.13D-03 EMaxC= 1.00D-01 BMatC= 2.73D-04 BMatP= 2.66D-03
 IDIUse=3 WtCom= 9.89D-01 WtEn= 1.13D-02
 Coeff-Com: -0.114D-01 0.138D-01 0.127D-01 0.261D+00 0.724D+00
 Coeff-En:   0.000D+00 0.000D+00 0.000D+00 0.000D+00 0.100D+01
 Coeff:     -0.113D-01 0.136D-01 0.126D-01 0.258D+00 0.727D+00
 Gap=     0.126 Goal=   None    Shift=    0.000
 RMSDP=2.09D-04 MaxDP=7.51D-03 DE=-3.18D-03 OVMax= 9.94D-03

 Cycle   6  Pass 1  IDiag  1:
 E= -1108.90810707122     Delta-E=       -0.000270798943 Rises=F Damp=F
 DIIS: error= 4.96D-04 at cycle   6 NSaved=   6.
 NSaved= 6 IEnMin= 6 EnMin= -1108.90810707122     IErMin= 6 ErrMin= 4.96D-04
 ErrMax= 4.96D-04 EMaxC= 1.00D-01 BMatC= 4.92D-05 BMatP= 2.73D-04
 IDIUse=3 WtCom= 9.95D-01 WtEn= 4.96D-03
 Coeff-Com:  0.670D-02-0.942D-02 0.361D-02 0.383D-01 0.287D+00 0.673D+00
 Coeff-En:   0.000D+00 0.000D+00 0.000D+00 0.000D+00 0.871D-01 0.913D+00
 Coeff:      0.667D-02-0.937D-02 0.359D-02 0.381D-01 0.286D+00 0.675D+00
 Gap=     0.127 Goal=   None    Shift=    0.000
 RMSDP=6.45D-05 MaxDP=1.69D-03 DE=-2.71D-04 OVMax= 3.91D-03

 Cycle   7  Pass 1  IDiag  1:
 E= -1108.90816770349     Delta-E=       -0.000060632270 Rises=F Damp=F
 DIIS: error= 1.38D-04 at cycle   7 NSaved=   7.
 NSaved= 7 IEnMin= 7 EnMin= -1108.90816770349     IErMin= 7 ErrMin= 1.38D-04
 ErrMax= 1.38D-04 EMaxC= 1.00D-01 BMatC= 2.65D-06 BMatP= 4.92D-05
 IDIUse=3 WtCom= 9.99D-01 WtEn= 1.38D-03
 Coeff-Com:  0.429D-02-0.612D-02 0.334D-02 0.965D-02 0.881D-01 0.254D+00
 Coeff-Com:  0.647D+00
 Coeff-En:   0.000D+00 0.000D+00 0.000D+00 0.000D+00 0.000D+00 0.000D+00
 Coeff-En:   0.100D+01
 Coeff:      0.428D-02-0.611D-02 0.333D-02 0.964D-02 0.879D-01 0.254D+00
 Coeff:      0.647D+00
 Gap=     0.127 Goal=   None    Shift=    0.000
 RMSDP=1.34D-05 MaxDP=3.70D-04 DE=-6.06D-05 OVMax= 4.38D-04

 Cycle   8  Pass 1  IDiag  1:
 E= -1108.90817026343     Delta-E=       -0.000002559934 Rises=F Damp=F
 DIIS: error= 5.48D-05 at cycle   8 NSaved=   8.
 NSaved= 8 IEnMin= 8 EnMin= -1108.90817026343     IErMin= 8 ErrMin= 5.48D-05
 ErrMax= 5.48D-05 EMaxC= 1.00D-01 BMatC= 4.98D-07 BMatP= 2.65D-06
 IDIUse=1 WtCom= 1.00D+00 WtEn= 0.00D+00
 Coeff-Com:  0.132D-02-0.181D-02 0.241D-02 0.284D-02 0.488D-02 0.125D-01
 Coeff-Com:  0.279D+00 0.699D+00
 Coeff:      0.132D-02-0.181D-02 0.241D-02 0.284D-02 0.488D-02 0.125D-01
 Coeff:      0.279D+00 0.699D+00
 Gap=     0.127 Goal=   None    Shift=    0.000
 RMSDP=6.41D-06 MaxDP=2.10D-04 DE=-2.56D-06 OVMax= 3.80D-04

 Cycle   9  Pass 1  IDiag  1:
 E= -1108.90817090409     Delta-E=       -0.000000640664 Rises=F Damp=F
 DIIS: error= 1.14D-05 at cycle   9 NSaved=   9.
 NSaved= 9 IEnMin= 9 EnMin= -1108.90817090409     IErMin= 9 ErrMin= 1.14D-05
 ErrMax= 1.14D-05 EMaxC= 1.00D-01 BMatC= 3.16D-08 BMatP= 4.98D-07
 IDIUse=1 WtCom= 1.00D+00 WtEn= 0.00D+00
 Coeff-Com:  0.242D-03-0.293D-03 0.987D-03 0.956D-03-0.417D-02-0.173D-01
 Coeff-Com:  0.465D-01 0.256D+00 0.717D+00
 Coeff:      0.242D-03-0.293D-03 0.987D-03 0.956D-03-0.417D-02-0.173D-01
 Coeff:      0.465D-01 0.256D+00 0.717D+00
 Gap=     0.127 Goal=   None    Shift=    0.000
 RMSDP=2.18D-06 MaxDP=8.91D-05 DE=-6.41D-07 OVMax= 1.55D-04

 Cycle  10  Pass 1  IDiag  1:
 E= -1108.90817095453     Delta-E=       -0.000000050436 Rises=F Damp=F
 DIIS: error= 1.43D-06 at cycle  10 NSaved=  10.
 NSaved=10 IEnMin=10 EnMin= -1108.90817095453     IErMin=10 ErrMin= 1.43D-06
 ErrMax= 1.43D-06 EMaxC= 1.00D-01 BMatC= 5.80D-10 BMatP= 3.16D-08
 IDIUse=1 WtCom= 1.00D+00 WtEn= 0.00D+00
 Coeff-Com: -0.455D-05 0.228D-06 0.122D-03 0.145D-03-0.123D-02-0.499D-02
 Coeff-Com: -0.705D-02 0.177D-01 0.178D+00 0.817D+00
 Coeff:     -0.455D-05 0.228D-06 0.122D-03 0.145D-03-0.123D-02-0.499D-02
 Coeff:     -0.705D-02 0.177D-01 0.178D+00 0.817D+00
 Gap=     0.127 Goal=   None    Shift=    0.000
 RMSDP=3.46D-07 MaxDP=1.31D-05 DE=-5.04D-08 OVMax= 1.78D-05

 Cycle  11  Pass 1  IDiag  1:
 E= -1108.90817095526     Delta-E=       -0.000000000728 Rises=F Damp=F
 DIIS: error= 3.80D-07 at cycle  11 NSaved=  11.
 NSaved=11 IEnMin=11 EnMin= -1108.90817095526     IErMin=11 ErrMin= 3.80D-07
 ErrMax= 3.80D-07 EMaxC= 1.00D-01 BMatC= 4.11D-11 BMatP= 5.80D-10
 IDIUse=1 WtCom= 1.00D+00 WtEn= 0.00D+00
 Coeff-Com: -0.999D-05 0.152D-04 0.183D-04 0.273D-04-0.267D-03-0.949D-03
 Coeff-Com: -0.268D-02 0.965D-03 0.425D-01 0.270D+00 0.690D+00
 Coeff:     -0.999D-05 0.152D-04 0.183D-04 0.273D-04-0.267D-03-0.949D-03
 Coeff:     -0.268D-02 0.965D-03 0.425D-01 0.270D+00 0.690D+00
 Gap=     0.127 Goal=   None    Shift=    0.000
 RMSDP=6.92D-08 MaxDP=3.05D-06 DE=-7.28D-10 OVMax= 3.12D-06

 Cycle  12  Pass 1  IDiag  1:
 E= -1108.90817095530     Delta-E=       -0.000000000042 Rises=F Damp=F
 DIIS: error= 1.90D-07 at cycle  12 NSaved=  12.
 NSaved=12 IEnMin=12 EnMin= -1108.90817095530     IErMin=12 ErrMin= 1.90D-07
 ErrMax= 1.90D-07 EMaxC= 1.00D-01 BMatC= 9.66D-12 BMatP= 4.11D-11
 IDIUse=1 WtCom= 1.00D+00 WtEn= 0.00D+00
 Coeff-Com: -0.438D-05 0.589D-05-0.411D-05-0.114D-05-0.292D-04-0.206D-04
 Coeff-Com: -0.620D-03-0.506D-03 0.854D-02 0.667D-01 0.310D+00 0.616D+00
 Coeff:     -0.438D-05 0.589D-05-0.411D-05-0.114D-05-0.292D-04-0.206D-04
 Coeff:     -0.620D-03-0.506D-03 0.854D-02 0.667D-01 0.310D+00 0.616D+00
 Gap=     0.127 Goal=   None    Shift=    0.000
 RMSDP=2.99D-08 MaxDP=1.15D-06 DE=-4.23D-11 OVMax= 1.45D-06

 Cycle  13  Pass 1  IDiag  1:
 E= -1108.90817095531     Delta-E=       -0.000000000013 Rises=F Damp=F
 DIIS: error= 8.40D-08 at cycle  13 NSaved=  13.
 NSaved=13 IEnMin=13 EnMin= -1108.90817095531     IErMin=13 ErrMin= 8.40D-08
 ErrMax= 8.40D-08 EMaxC= 1.00D-01 BMatC= 9.76D-13 BMatP= 9.66D-12
 IDIUse=1 WtCom= 1.00D+00 WtEn= 0.00D+00
 Coeff-Com: -0.110D-05 0.150D-05-0.353D-05-0.420D-05 0.493D-05 0.690D-04
 Coeff-Com:  0.108D-03 0.144D-03 0.624D-03 0.369D-04 0.453D-01 0.219D+00
 Coeff-Com:  0.734D+00
 Coeff:     -0.110D-05 0.150D-05-0.353D-05-0.420D-05 0.493D-05 0.690D-04
 Coeff:      0.108D-03 0.144D-03 0.624D-03 0.369D-04 0.453D-01 0.219D+00
 Coeff:      0.734D+00
 Gap=     0.127 Goal=   None    Shift=    0.000
 RMSDP=1.06D-08 MaxDP=5.79D-07 DE=-1.27D-11 OVMax= 6.11D-07

 Cycle  14  Pass 1  IDiag  1:
 E= -1108.90817095532     Delta-E=       -0.000000000013 Rises=F Damp=F
 DIIS: error= 1.56D-08 at cycle  14 NSaved=  14.
 NSaved=14 IEnMin=14 EnMin= -1108.90817095532     IErMin=14 ErrMin= 1.56D-08
 ErrMax= 1.56D-08 EMaxC= 1.00D-01 BMatC= 4.76D-14 BMatP= 9.76D-13
 IDIUse=1 WtCom= 1.00D+00 WtEn= 0.00D+00
 Coeff-Com: -0.208D-06 0.281D-06-0.100D-05-0.167D-05 0.389D-06 0.144D-04
 Coeff-Com:  0.453D-04 0.948D-04-0.539D-04-0.342D-02-0.747D-02 0.660D-02
 Coeff-Com:  0.190D+00 0.814D+00
 Coeff:     -0.208D-06 0.281D-06-0.100D-05-0.167D-05 0.389D-06 0.144D-04
 Coeff:      0.453D-04 0.948D-04-0.539D-04-0.342D-02-0.747D-02 0.660D-02
 Coeff:      0.190D+00 0.814D+00
 Gap=     0.127 Goal=   None    Shift=    0.000
 RMSDP=2.26D-09 MaxDP=5.37D-08 DE=-1.34D-11 OVMax= 1.10D-07

 SCF Done:  E(RB3LYP) =  -1108.90817096     A.U. after   14 cycles
             Convg  =    0.2263D-08             -V/T =  2.0047
 KE= 1.103727490210D+03 PE=-3.539147743038D+03 EE= 8.717828528069D+02
 Leave Link  502 at Mon Oct  4 21:21:52 2021, MaxMem=  805306368 cpu:      68.0
 (Enter /sw/target/amd/app/gaussian/Gaussian09RevA.02_gcc-4.9.2/g09/l508.exe)
 QCSCF skips out because SCF is already converged.
 Leave Link  508 at Mon Oct  4 21:21:59 2021, MaxMem=  805306368 cpu:       0.0
 (Enter /sw/target/amd/app/gaussian/Gaussian09RevA.02_gcc-4.9.2/g09/l601.exe)
 Copying SCF densities to generalized density rwf, IOpCl= 0 IROHF=0.

 **********************************************************************

            Population analysis using the SCF density.

 **********************************************************************

 Orbital symmetries:
       Occupied  (A) (A) (A) (A) (A) (A) (A) (A) (A) (A) (A) (A)
                 (A) (A) (A) (A) (A) (A) (A) (A) (A) (A) (A) (A)
                 (A) (A) (A) (A) (A) (A) (A) (A) (A) (A) (A) (A)
                 (A) (A) (A)
       Virtual   (A) (A) (A) (A) (A) (A) (A) (A) (A) (A) (A) (A)
                 (A) (A) (A) (A) (A) (A) (A) (A) (A) (A) (A) (A)
                 (A) (A) (A) (A) (A) (A) (A) (A) (A) (A) (A) (A)
                 (A) (A) (A) (A) (A) (A) (A) (A) (A) (A) (A) (A)
                 (A) (A) (A) (A) (A) (A) (A) (A) (A) (A) (A) (A)
                 (A) (A) (A) (A) (A) (A) (A) (A) (A) (A) (A) (A)
                 (A) (A) (A) (A) (A) (A) (A) (A) (A) (A) (A) (A)
                 (A) (A) (A) (A) (A) (A) (A) (A) (A) (A) (A) (A)
                 (A) (A) (A) (A)
 The electronic state is 1-A.
 Alpha  occ. eigenvalues -- -101.47264 -66.10647 -46.86536 -10.17259 -10.17253
 Alpha  occ. eigenvalues --  -10.16048 -10.15452  -9.38843  -7.14800  -7.14507
 Alpha  occ. eigenvalues --   -7.14477  -5.25349  -3.61236  -3.61203  -3.61179
 Alpha  occ. eigenvalues --   -3.14760  -1.89341  -1.89180  -1.88810  -0.73355
 Alpha  occ. eigenvalues --   -0.72231  -0.68316  -0.67450  -0.64358  -0.45030
 Alpha  occ. eigenvalues --   -0.42601  -0.41825  -0.41681  -0.40702  -0.39176
 Alpha  occ. eigenvalues --   -0.38617  -0.38003  -0.31872  -0.30600  -0.29772
 Alpha  occ. eigenvalues --   -0.29162  -0.26783  -0.26780  -0.23490
 Alpha virt. eigenvalues --   -0.10742  -0.02310   0.02212   0.03907   0.07490
 Alpha virt. eigenvalues --    0.09977   0.10459   0.11312   0.11357   0.12176
 Alpha virt. eigenvalues --    0.13475   0.13524   0.14838   0.16493   0.16720
 Alpha virt. eigenvalues --    0.18338   0.19207   0.19694   0.20480   0.21225
 Alpha virt. eigenvalues --    0.22231   0.24179   0.24759   0.28268   0.29867
 Alpha virt. eigenvalues --    0.30479   0.38213   0.39114   0.39841   0.40625
 Alpha virt. eigenvalues --    0.41307   0.49406   0.49853   0.51195   0.53716
 Alpha virt. eigenvalues --    0.55619   0.58084   0.59438   0.60051   0.63628
 Alpha virt. eigenvalues --    0.64972   0.71710   0.72576   0.73829   0.76504
 Alpha virt. eigenvalues --    0.76968   0.77213   0.78708   0.82280   0.85745
 Alpha virt. eigenvalues --    0.88260   0.89252   0.89939   0.89952   0.90213
 Alpha virt. eigenvalues --    0.90875   0.93154   0.93651   0.93908   0.94116
 Alpha virt. eigenvalues --    0.94191   0.94984   0.99253   1.00177   1.00888
 Alpha virt. eigenvalues --    1.02510   1.02866   1.03099   1.04113   1.20626
 Alpha virt. eigenvalues --    1.28293   1.31783   1.39048   1.49333   1.65950
 Alpha virt. eigenvalues --    1.68065   1.70024   1.80406   1.82646   1.85241
 Alpha virt. eigenvalues --    1.85729   1.87043   2.06670   2.09241   2.23155
 Alpha virt. eigenvalues --    2.24139   2.24600   2.25167   2.25621   2.26249
 Alpha virt. eigenvalues --    2.27422   2.27433   2.30340   2.30995   3.11062
 Alpha virt. eigenvalues --    4.16379   4.21338   4.23653   4.26671   4.32638
          Condensed to atoms (all electrons):
              1          2          3          4          5          6
     1  Cl  17.096107   0.326383  -0.008427  -0.000832  -0.000001   0.000008
     2  Mg   0.326383  10.804801   0.352474  -0.064240   0.008939  -0.000011
     3  C   -0.008427   0.352474   5.370366   0.376915  -0.034333  -0.029949
     4  Si  -0.000832  -0.064240   0.376915  12.031210   0.382924   0.395203
     5  C   -0.000001   0.008939  -0.034333   0.382924   5.266759  -0.029425
     6  C    0.000008  -0.000011  -0.029949   0.395203  -0.029425   5.272696
     7  C    0.000007  -0.000068  -0.029953   0.395088  -0.029408  -0.031257
     8  H   -0.000677  -0.007938   0.346050  -0.019123  -0.001376  -0.001544
     9  H   -0.000657  -0.007960   0.345860  -0.019150  -0.001385   0.001339
    10  H   -0.000000  -0.000304  -0.002088  -0.023052   0.361946  -0.001249
    11  H   -0.000000  -0.000303  -0.002089  -0.023052   0.361912   0.001439
    12  H    0.000000  -0.000626   0.001611  -0.015839   0.348712  -0.001179
    13  H   -0.000001   0.001567  -0.000824  -0.022639  -0.001468   0.363638
    14  H    0.000000  -0.000708   0.001502  -0.019485  -0.001020   0.358726
    15  H   -0.000012   0.012834  -0.002206  -0.029067   0.001485   0.349389
    16  H   -0.000001   0.001589  -0.000829  -0.022642  -0.001468   0.001467
    17  H   -0.000011   0.012916  -0.002209  -0.029128   0.001485  -0.001252
    18  H    0.000000  -0.000710   0.001501  -0.019462  -0.001016  -0.001661
              7          8          9         10         11         12
     1  Cl   0.000007  -0.000677  -0.000657  -0.000000  -0.000000   0.000000
     2  Mg  -0.000068  -0.007938  -0.007960  -0.000304  -0.000303  -0.000626
     3  C   -0.029953   0.346050   0.345860  -0.002088  -0.002089   0.001611
     4  Si   0.395088  -0.019123  -0.019150  -0.023052  -0.023052  -0.015839
     5  C   -0.029408  -0.001376  -0.001385   0.361946   0.361912   0.348712
     6  C   -0.031257  -0.001544   0.001339  -0.001249   0.001439  -0.001179
     7  C    5.272829   0.001337  -0.001539   0.001440  -0.001247  -0.001181
     8  H    0.001337   0.535027  -0.024561   0.000512  -0.000055   0.000006
     9  H   -0.001539  -0.024561   0.535761  -0.000055   0.000512   0.000006
    10  H    0.001440   0.000512  -0.000055   0.547426  -0.020842  -0.023283
    11  H   -0.001247  -0.000055   0.000512  -0.020842   0.547528  -0.023289
    12  H   -0.001181   0.000006   0.000006  -0.023283  -0.023289   0.562378
    13  H    0.001467   0.000361   0.000001   0.000502  -0.000004  -0.000081
    14  H   -0.001658  -0.000017  -0.000027  -0.000094  -0.000007   0.000428
    15  H   -0.001250  -0.000117   0.000012  -0.000001  -0.000028  -0.000013
    16  H    0.363634   0.000002   0.000362  -0.000004   0.000503  -0.000081
    17  H    0.349380   0.000012  -0.000118  -0.000028  -0.000001  -0.000013
    18  H    0.358747  -0.000027  -0.000017  -0.000007  -0.000094   0.000428
             13         14         15         16         17         18
     1  Cl  -0.000001   0.000000  -0.000012  -0.000001  -0.000011   0.000000
     2  Mg   0.001567  -0.000708   0.012834   0.001589   0.012916  -0.000710
     3  C   -0.000824   0.001502  -0.002206  -0.000829  -0.002209   0.001501
     4  Si  -0.022639  -0.019485  -0.029067  -0.022642  -0.029128  -0.019462
     5  C   -0.001468  -0.001020   0.001485  -0.001468   0.001485  -0.001016
     6  C    0.363638   0.358726   0.349389   0.001467  -0.001252  -0.001661
     7  C    0.001467  -0.001658  -0.001250   0.363634   0.349380   0.358747
     8  H    0.000361  -0.000017  -0.000117   0.000002   0.000012  -0.000027
     9  H    0.000001  -0.000027   0.000012   0.000362  -0.000118  -0.000017
    10  H    0.000502  -0.000094  -0.000001  -0.000004  -0.000028  -0.000007
    11  H   -0.000004  -0.000007  -0.000028   0.000503  -0.000001  -0.000094
    12  H   -0.000081   0.000428  -0.000013  -0.000081  -0.000013   0.000428
    13  H    0.537160  -0.021294  -0.024804  -0.000024  -0.000011  -0.000002
    14  H   -0.021294   0.541994  -0.022610  -0.000002  -0.000077   0.000817
    15  H   -0.024804  -0.022610   0.586491  -0.000011   0.000129  -0.000077
    16  H   -0.000024  -0.000002  -0.000011   0.537353  -0.024844  -0.021303
    17  H   -0.000011  -0.000077   0.000129  -0.024844   0.586611  -0.022610
    18  H   -0.000002   0.000817  -0.000077  -0.021303  -0.022610   0.541929
 Mulliken atomic charges:
              1
     1  Cl  -0.411887
     2  Mg   0.561365
     3  C   -0.683372
     4  Si   0.726371
     5  C   -0.633261
     6  C   -0.646379
     7  C   -0.646366
     8  H    0.172128
     9  H    0.171617
    10  H    0.159180
    11  H    0.159116
    12  H    0.152017
    13  H    0.166455
    14  H    0.163530
    15  H    0.129857
    16  H    0.166300
    17  H    0.129769
    18  H    0.163562
 Sum of Mulliken atomic charges =  -0.00000
 Mulliken charges with hydrogens summed into heavy atoms:
              1
     1  Cl  -0.411887
     2  Mg   0.561365
     3  C   -0.339627
     4  Si   0.726371
     5  C   -0.162948
     6  C   -0.186538
     7  C   -0.186736
 Sum of Mulliken charges with hydrogens summed into heavy atoms =  -0.00000
 Electronic spatial extent (au):  <R**2>=           2158.4551
 Charge=             -0.0000 electrons
 Dipole moment (field-independent basis, Debye):
    X=              3.9599    Y=             -3.8561    Z=              0.0226  Tot=              5.5273
 Quadrupole moment (field-independent basis, Debye-Ang):
   XX=            -86.8630   YY=            -59.4758   ZZ=            -62.2971
   XY=              7.2044   XZ=             -0.0132   YZ=              0.0057
 Traceless Quadrupole moment (field-independent basis, Debye-Ang):
   XX=            -17.3177   YY=             10.0695   ZZ=              7.2482
   XY=              7.2044   XZ=             -0.0132   YZ=              0.0057
 Octapole moment (field-independent basis, Debye-Ang**2):
  XXX=             91.9070  YYY=             -8.7028  ZZZ=             -0.3365  XYY=            -13.6799
  XXY=            -18.8969  XXZ=              0.1241  XZZ=             -5.7642  YZZ=              3.9261
  YYZ=              0.2421  XYZ=             -0.0091
 Hexadecapole moment (field-independent basis, Debye-Ang**3):
 XXXX=          -2634.0553 YYYY=           -365.8551 ZZZZ=           -340.7250 XXXY=             -3.2203
 XXXZ=              0.6803 YYYX=             13.2332 YYYZ=             -0.0320 ZZZX=             -0.5702
 ZZZY=              0.0926 XXYY=           -435.4928 XXZZ=           -435.6174 YYZZ=           -119.0134
 XXYZ=             -0.0588 YYXZ=              0.3836 ZZXY=             13.3926
 N-N= 4.547292290665D+02 E-N=-3.539147741053D+03  KE= 1.103727490210D+03
 No NMR shielding tensors so no spin-rotation constants.
 Leave Link  601 at Mon Oct  4 21:25:09 2021, MaxMem=  805306368 cpu:       0.7
 (Enter /sw/target/amd/app/gaussian/Gaussian09RevA.02_gcc-4.9.2/g09/l701.exe)
 Compute integral first derivatives.
 ... and contract with generalized density number  0.
 Leave Link  701 at Mon Oct  4 21:25:18 2021, MaxMem=  805306368 cpu:       0.6
 (Enter /sw/target/amd/app/gaussian/Gaussian09RevA.02_gcc-4.9.2/g09/l702.exe)
 L702 exits ... SP integral derivatives will be done elsewhere.
 Leave Link  702 at Mon Oct  4 21:25:18 2021, MaxMem=  805306368 cpu:       0.0
 (Enter /sw/target/amd/app/gaussian/Gaussian09RevA.02_gcc-4.9.2/g09/l703.exe)
 Compute integral first derivatives, UseDBF=F ICtDFT=           0.
 Integral derivatives from FoFDir, PRISM(SPDF).
 Calling FoFJK, ICntrl=      2127 FMM=F ISym2X=0 I1Cent= 0 IOpClX= 0 NMat=1 NMatS=1 NMatT=0.
 FoFCou: FMM=F IPFlag=           0 FMFlag=      100000 FMFlg1=         800
         NFxFlg=           0 DoJE=F BraDBF=F KetDBF=F FulRan=T
         Omega=  0.000000  0.000000  1.000000  0.000000  0.000000 ICntrl=    2127 IOpCl=  0
         NMat0=    1 NMatS0=    1 NMatT0=    0 NMatD0=    1 NMtDS0=    0 NMtDT0=    0
         I1Cent=           0 NGrid=           0.
 Symmetry not used in FoFCou.
 Leave Link  703 at Mon Oct  4 21:26:39 2021, MaxMem=  805306368 cpu:      18.5
 (Enter /sw/target/amd/app/gaussian/Gaussian09RevA.02_gcc-4.9.2/g09/l716.exe)
 Dipole        = 1.55794571D+00-1.51711972D+00 8.88211464D-03
 ***** Axes restored to original set *****
 -------------------------------------------------------------------
 Center     Atomic                   Forces (Hartrees/Bohr)
 Number     Number              X              Y              Z
 -------------------------------------------------------------------
      1       17           0.014088810    0.015293815   -0.007031092
      2       12          -0.027705753   -0.030840531    0.008449126
      3        6           0.008746889    0.009077238   -0.007478004
      4       14          -0.010610965   -0.011872246    0.005810962
      5        6           0.000320595   -0.001001625   -0.010637774
      6        6          -0.001695020    0.007549820   -0.002982423
      7        6           0.008009001   -0.000722175   -0.001914171
      8        1           0.006787792   -0.001651460    0.008268551
      9        1          -0.003732183    0.007222606    0.006950257
     10        1           0.009037911   -0.002814846   -0.002261216
     11        1          -0.003900238    0.008105465   -0.003717016
     12        1          -0.006290936   -0.007213038    0.001475873
     13        1           0.008872367    0.003811716    0.001677830
     14        1          -0.006162572    0.001147191    0.008174119
     15        1          -0.003132054    0.002780378   -0.007741802
     16        1           0.002140494    0.009528214    0.000918476
     17        1           0.004192171   -0.003438741   -0.006932844
     18        1           0.001033691   -0.004961779    0.008971150
 -------------------------------------------------------------------
 Cartesian Forces:  Max     0.030840531 RMS     0.008713295
 Leave Link  716 at Mon Oct  4 21:27:01 2021, MaxMem=  805306368 cpu:       0.1
 (Enter /sw/target/amd/app/gaussian/Gaussian09RevA.02_gcc-4.9.2/g09/l103.exe)

 GradGradGradGradGradGradGradGradGradGradGradGradGradGradGradGradGradGrad
 Berny optimization.
 Internal  Forces:  Max     0.048894726 RMS     0.007855729
 Search for a local minimum.
 Step number   1 out of a maximum of   97
 All quantities printed in internal units (Hartrees-Bohrs-Radians)
 RMS Force = .78557D-02 SwitMx=.10000D-02 MixMth= 1
 Mixed Optimization -- RFO/linear search
 Second derivative matrix not updated -- first step.
     Eigenvalues ---    0.00316   0.01209   0.01212   0.01212   0.01223
     Eigenvalues ---    0.05521   0.05530   0.05565   0.05582   0.06358
     Eigenvalues ---    0.06358   0.06359   0.06359   0.06361   0.06361
     Eigenvalues ---    0.06374   0.10242   0.10922   0.12271   0.13587
     Eigenvalues ---    0.14799   0.14813   0.16000   0.16000   0.16000
     Eigenvalues ---    0.16000   0.16000   0.16000   0.16000   0.16000
     Eigenvalues ---    0.16000   0.21500   0.21514   0.21514   0.21561
     Eigenvalues ---    0.22065   0.25000   0.32669   0.32669   0.32673
     Eigenvalues ---    0.32673   0.32673   0.32673   0.32673   0.32674
     Eigenvalues ---    0.32674   0.32677   0.326771000.000001000.00000
     Eigenvalues --- 1000.000001000.000001000.000001000.000001000.00000
     Eigenvalues --- 1000.000001000.000001000.000001000.000001000.00000
     Eigenvalues --- 1000.000001000.000001000.000001000.000001000.00000
     Eigenvalues --- 1000.000001000.000001000.000001000.000001000.00000
     Eigenvalues --- 1000.000001000.000001000.000001000.000001000.00000
     Eigenvalues --- 1000.000001000.000001000.000001000.000001000.00000
     Eigenvalues --- 1000.000001000.000001000.000001000.000001000.00000
     Eigenvalues --- 1000.000001000.00000
 RFO step:  Lambda=-2.31944823D-02 EMin= 3.16366031D-03
 Linear search not attempted -- first point.
 Maximum step size (   0.300) exceeded in Quadratic search.
    -- Step size scaled by   0.900
 Iteration  1 RMS(Cart)=  0.06265777 RMS(Int)=  0.00292557
 Iteration  2 RMS(Cart)=  0.00373389 RMS(Int)=  0.00047475
 Iteration  3 RMS(Cart)=  0.00000354 RMS(Int)=  0.00047475
 Iteration  4 RMS(Cart)=  0.00000001 RMS(Int)=  0.00047475
 Variable       Old X    -DE/DX   Delta X   Delta X   Delta X     New X
                                 (Linear)    (Quad)   (Total)
    R1        4.48564  -0.01905   0.00000  -0.11757  -0.11757   4.36807
    R2        4.08974  -0.00890   0.00000  -0.06380  -0.06380   4.02595
    R3        3.52550   0.00812   0.00000   0.03062   0.03062   3.55613
    R4        2.09623  -0.00792   0.00000  -0.02037  -0.02037   2.07586
    R5        2.09623  -0.00788   0.00000  -0.02027  -0.02027   2.07596
    R6        3.52741   0.01463   0.00000   0.05531   0.05531   3.58271
    R7        3.52699   0.01533   0.00000   0.05791   0.05791   3.58491
    R8        3.52699   0.01529   0.00000   0.05776   0.05776   3.58475
    R9        2.09629  -0.00887   0.00000  -0.02283  -0.02283   2.07346
   R10        2.09629  -0.00885   0.00000  -0.02278  -0.02278   2.07352
   R11        2.09629  -0.00746   0.00000  -0.01919  -0.01919   2.07710
   R12        2.09629  -0.00866   0.00000  -0.02228  -0.02228   2.07401
   R13        2.09628  -0.00850   0.00000  -0.02186  -0.02186   2.07442
   R14        2.09636  -0.00641   0.00000  -0.01649  -0.01649   2.07988
   R15        2.09629  -0.00867   0.00000  -0.02231  -0.02231   2.07398
   R16        2.09636  -0.00641   0.00000  -0.01649  -0.01649   2.07987
   R17        2.09628  -0.00850   0.00000  -0.02188  -0.02188   2.07440
    A1        1.90545   0.04889   0.00000   0.16115   0.16115   2.06660
    A2        1.90445   0.01439   0.00000   0.05550   0.05523   1.95968
    A3        1.91219  -0.00932   0.00000  -0.05018  -0.05146   1.86073
    A4        1.91219  -0.00916   0.00000  -0.04892  -0.05021   1.86199
    A5        1.91159   0.00280   0.00000   0.03064   0.03081   1.94240
    A6        1.91159   0.00268   0.00000   0.03018   0.03033   1.94192
    A7        1.91176  -0.00134   0.00000  -0.01695  -0.01889   1.89287
    A8        1.91211   0.00230   0.00000   0.01972   0.01975   1.93186
    A9        1.90888  -0.00009   0.00000   0.00225   0.00228   1.91116
   A10        1.90887  -0.00008   0.00000   0.00241   0.00243   1.91130
   A11        1.91175  -0.00098   0.00000  -0.00800  -0.00813   1.90362
   A12        1.91175  -0.00097   0.00000  -0.00784  -0.00797   1.90378
   A13        1.91044  -0.00017   0.00000  -0.00853  -0.00861   1.90183
   A14        1.91026   0.00361   0.00000   0.01697   0.01671   1.92697
   A15        1.91026   0.00366   0.00000   0.01730   0.01704   1.92730
   A16        1.91021   0.00765   0.00000   0.03903   0.03860   1.94881
   A17        1.91103  -0.00430   0.00000  -0.02402  -0.02409   1.88694
   A18        1.91102  -0.00530   0.00000  -0.02464  -0.02505   1.88597
   A19        1.91102  -0.00531   0.00000  -0.02459  -0.02501   1.88601
   A20        1.91032   0.00429   0.00000   0.02138   0.02102   1.93134
   A21        1.91032   0.00630   0.00000   0.03092   0.03049   1.94081
   A22        1.90996   0.00658   0.00000   0.03207   0.03164   1.94160
   A23        1.91108  -0.00517   0.00000  -0.02487  -0.02521   1.88587
   A24        1.91097  -0.00542   0.00000  -0.02656  -0.02691   1.88406
   A25        1.91116  -0.00657   0.00000  -0.03286  -0.03333   1.87783
   A26        1.91032   0.00432   0.00000   0.02152   0.02116   1.93148
   A27        1.90996   0.00656   0.00000   0.03197   0.03154   1.94150
   A28        1.91032   0.00629   0.00000   0.03086   0.03043   1.94075
   A29        1.91097  -0.00541   0.00000  -0.02653  -0.02687   1.88409
   A30        1.91108  -0.00518   0.00000  -0.02490  -0.02525   1.88583
   A31        1.91116  -0.00656   0.00000  -0.03284  -0.03331   1.87785
    D1        3.12859  -0.00000   0.00000  -0.00062  -0.00064   3.12795
    D2        1.03585  -0.00656   0.00000  -0.04154  -0.03936   0.99649
    D3       -1.06185   0.00651   0.00000   0.04049   0.03833  -1.02352
    D4        3.14156   0.00006   0.00000   0.00075   0.00075  -3.14087
    D5       -1.04603   0.00020   0.00000   0.00440   0.00443  -1.04160
    D6        1.04598  -0.00011   0.00000  -0.00320  -0.00323   1.04275
    D7       -1.04851  -0.00087   0.00000  -0.00822  -0.00801  -1.05651
    D8        1.04708  -0.00073   0.00000  -0.00457  -0.00433   1.04276
    D9        3.13909  -0.00104   0.00000  -0.01217  -0.01199   3.12711
   D10        1.04845   0.00086   0.00000   0.00845   0.00824   1.05669
   D11       -3.13915   0.00100   0.00000   0.01210   0.01192  -3.12722
   D12       -1.04714   0.00069   0.00000   0.00451   0.00427  -1.04287
   D13        1.04722  -0.00041   0.00000  -0.00429  -0.00438   1.04284
   D14       -1.04720   0.00040   0.00000   0.00415   0.00424  -1.04296
   D15       -3.14158  -0.00002   0.00000  -0.00020  -0.00021   3.14139
   D16       -1.04662  -0.00110   0.00000  -0.01425  -0.01431  -1.06093
   D17       -3.14104  -0.00029   0.00000  -0.00581  -0.00569   3.13646
   D18        1.04777  -0.00071   0.00000  -0.01016  -0.01014   1.03763
   D19        3.14104   0.00030   0.00000   0.00596   0.00584  -3.13630
   D20        1.04662   0.00112   0.00000   0.01440   0.01446   1.06108
   D21       -1.04776   0.00070   0.00000   0.01005   0.01002  -1.03775
   D22       -1.04895  -0.00064   0.00000  -0.00367  -0.00366  -1.05261
   D23        3.13969  -0.00079   0.00000  -0.00522  -0.00518   3.13451
   D24        1.04525  -0.00062   0.00000  -0.00351  -0.00353   1.04172
   D25        1.04686   0.00151   0.00000   0.01698   0.01695   1.06381
   D26       -1.04769   0.00136   0.00000   0.01542   0.01543  -1.03226
   D27        3.14106   0.00153   0.00000   0.01713   0.01708  -3.12505
   D28       -3.13999  -0.00038   0.00000  -0.00279  -0.00278   3.14041
   D29        1.04864  -0.00053   0.00000  -0.00435  -0.00430   1.04434
   D30       -1.04580  -0.00037   0.00000  -0.00263  -0.00266  -1.04845
   D31        1.04893   0.00065   0.00000   0.00386   0.00384   1.05278
   D32       -1.04526   0.00063   0.00000   0.00363   0.00365  -1.04161
   D33       -3.13970   0.00080   0.00000   0.00542   0.00537  -3.13432
   D34       -1.04687  -0.00152   0.00000  -0.01698  -0.01696  -1.06383
   D35       -3.14106  -0.00154   0.00000  -0.01721  -0.01716   3.12497
   D36        1.04769  -0.00137   0.00000  -0.01542  -0.01543   1.03225
   D37        3.13999   0.00039   0.00000   0.00289   0.00288  -3.14032
   D38        1.04579   0.00037   0.00000   0.00266   0.00268   1.04847
   D39       -1.04864   0.00054   0.00000   0.00445   0.00441  -1.04424
         Item               Value     Threshold  Converged?
 Maximum Force            0.048895     0.000450     NO 
 RMS     Force            0.007856     0.000300     NO 
 Maximum Displacement     0.260103     0.001800     NO 
 RMS     Displacement     0.060757     0.001200     NO 
 Predicted change in Energy=-1.249561D-02
 GradGradGradGradGradGradGradGradGradGradGradGradGradGradGradGradGradGrad

 Leave Link  103 at Mon Oct  4 21:27:25 2021, MaxMem=  805306368 cpu:       0.6
 (Enter /sw/target/amd/app/gaussian/Gaussian09RevA.02_gcc-4.9.2/g09/l202.exe)
                          Input orientation:                          
 ---------------------------------------------------------------------
 Center     Atomic      Atomic             Coordinates (Angstroms)
 Number     Number       Type             X           Y           Z
 ---------------------------------------------------------------------
      1         17           0        4.750010   -0.070816    3.660517
      2         12           0        5.756305    0.828729    1.784045
      3          6           0        5.270774    0.004940   -0.119741
      4         14           0        6.166693    0.879041   -1.524920
      5          6           0        5.701749    0.112222   -3.195313
      6          6           0        5.692561    2.715870   -1.532709
      7          6           0        8.040712    0.727072   -1.273019
      8          1           0        4.180858    0.087666   -0.229012
      9          1           0        5.536357   -1.060263   -0.079481
     10          1           0        4.620907    0.193324   -3.365942
     11          1           0        5.971695   -0.951091   -3.216956
     12          1           0        6.216585    0.611512   -4.028255
     13          1           0        4.611396    2.836053   -1.678254
     14          1           0        6.206370    3.255061   -2.339119
     15          1           0        5.962985    3.201607   -0.582813
     16          1           0        8.346257   -0.327012   -1.265284
     17          1           0        8.352553    1.177649   -0.318502
     18          1           0        8.591507    1.234985   -2.075299
 ---------------------------------------------------------------------
                    Distance matrix (angstroms):
                    1          2          3          4          5
     1  Cl   0.000000
     2  Mg   2.311484   0.000000
     3  C    3.816711   2.130439   0.000000
     4  Si   5.458753   3.334697   1.881822   0.000000
     5  C    6.923996   5.030941   3.107474   1.895890   0.000000
     6  C    5.968552   3.816572   3.086020   1.897050   3.089226
     7  C    5.983738   3.817654   3.086111   1.896970   3.089337
     8  H    3.934144   2.661505   1.098499   2.499839   3.333565
     9  H    3.947775   2.662592   1.098550   2.499504   3.333240
    10  H    7.032607   5.311801   3.315967   2.499805   1.097229
    11  H    7.040386   5.312642   3.316328   2.500079   1.097258
    12  H    7.857075   5.834541   4.066813   2.518084   1.099154
    13  H    6.080426   4.162653   3.298323   2.504466   3.302967
    14  H    7.012708   4.805218   4.045276   2.511963   3.296232
    15  H    5.494171   3.357869   3.303372   2.514632   4.054343
    16  H    6.104273   4.164372   3.298645   2.504491   3.303236
    17  H    5.510859   3.359010   3.303349   2.514477   4.054373
    18  H    7.025795   4.806032   4.045304   2.511839   3.296321
                    6          7          8          9         10
     6  C    0.000000
     7  C    3.088133   0.000000
     8  H    3.300352   4.049353   0.000000
     9  H    4.049129   3.300135   1.782548   0.000000
    10  H    3.297336   4.044784   3.169406   3.634605   0.000000
    11  H    4.044899   3.297871   3.635097   3.169415   1.776657
    12  H    3.306157   3.306375   4.341987   4.341700   1.777563
    13  H    1.097517   4.046260   3.136765   4.311948   3.135665
    14  H    1.097736   3.300319   4.311338   4.917001   3.597540
    15  H    1.100624   3.304036   3.605244   4.312643   4.312395
    16  H    4.046325   1.097502   4.312351   3.136770   4.308335
    17  H    3.303934   1.100621   4.312668   3.605043   4.917415
    18  H    3.300199   1.097727   4.917209   4.311078   4.303078
                   11         12         13         14         15
    11  H    0.000000
    12  H    1.777612   0.000000
    13  H    4.308187   3.612163   0.000000
    14  H    4.303183   3.137138   1.776584   0.000000
    15  H    4.917691   4.317867   1.777755   1.773895   0.000000
    16  H    3.136406   3.612525   4.911691   4.308536   4.312412
    17  H    4.312894   4.318001   4.312248   3.606194   3.142658
    18  H    3.598016   3.137357   4.308404   3.136747   3.606139
                   16         17         18
    16  H    0.000000
    17  H    1.777762   0.000000
    18  H    1.776543   1.773901   0.000000
 Stoichiometry    C4H11ClMgSi
 Framework group  C1[X(C4H11ClMgSi)]
 Deg. of freedom    48
 Full point group                 C1      NOp   1
 Largest Abelian subgroup         C1      NOp   1
 Largest concise Abelian subgroup C1      NOp   1
                         Standard orientation:                         
 ---------------------------------------------------------------------
 Center     Atomic      Atomic             Coordinates (Angstroms)
 Number     Number       Type             X           Y           Z
 ---------------------------------------------------------------------
      1         17           0       -3.798198    0.235682   -0.000922
      2         12           0       -1.621580   -0.542322    0.001250
      3          6           0       -0.036519    0.880844   -0.029527
      4         14           0        1.657807    0.062505   -0.000625
      5          6           0        3.032571    1.367755   -0.027912
      6          6           0        1.828554   -0.984715    1.571945
      7          6           0        1.842845   -1.064686   -1.515120
      8          1           0       -0.180696    1.530452    0.844500
      9          1           0       -0.172064    1.484296   -0.937430
     10          1           0        2.949168    2.029536    0.843294
     11          1           0        2.957723    1.983896   -0.932756
     12          1           0        4.030172    0.906613   -0.011225
     13          1           0        1.726912   -0.358165    2.467292
     14          1           0        2.806481   -1.481642    1.613723
     15          1           0        1.055709   -1.767113    1.615961
     16          1           0        1.749755   -0.485506   -2.442695
     17          1           0        1.070201   -1.848445   -1.525611
     18          1           0        2.820967   -1.562918   -1.521938
 ---------------------------------------------------------------------
 Rotational constants (GHZ):      2.9084857      0.5196862      0.5150488
 Leave Link  202 at Mon Oct  4 21:27:28 2021, MaxMem=  805306368 cpu:       0.0
 (Enter /sw/target/amd/app/gaussian/Gaussian09RevA.02_gcc-4.9.2/g09/l301.exe)
 Standard basis: 6-31G(d) (6D, 7F)
 Ernie: Thresh=  0.10000D-02 Tol=  0.10000D-05 Strict=F.
 There are   139 symmetry adapted basis functions of A   symmetry.
 Integral buffers will be    131072 words long.
 Raffenetti 2 integral format.
 Two-electron integral symmetry is turned on.
   139 basis functions,   312 primitive gaussians,   139 cartesian basis functions
    39 alpha electrons       39 beta electrons
       nuclear repulsion energy       450.7200845366 Hartrees.
 IExCor=  402 DFT=T Ex+Corr=B3LYP ExCW=0 ScaHFX=  0.200000
 ScaDFX=  0.800000  0.720000  1.000000  0.810000 ScalE2=  1.000000  1.000000
 IRadAn=      0 IRanWt=     -1 IRanGd=            0 ICorTp=0
 NAtoms=   18 NActive=   18 NUniq=   18 SFac= 7.50D-01 NAtFMM=   80 NAOKFM=F Big=F
 Leave Link  301 at Mon Oct  4 21:27:31 2021, MaxMem=  805306368 cpu:       0.1
 (Enter /sw/target/amd/app/gaussian/Gaussian09RevA.02_gcc-4.9.2/g09/l302.exe)
 NPDir=0 NMtPBC=     1 NCelOv=     1 NCel=       1 NClECP=     1 NCelD=      1
         NCelK=      1 NCelE2=     1 NClLst=     1 CellRange=     0.0.
 One-electron integrals computed using PRISM.
 NBasis=   139 RedAO= T  NBF=   139
 NBsUse=   139 1.00D-06 NBFU=   139
 Precomputing XC quadrature grid using
 IXCGrd= 2 IRadAn=           0 IRanWt=          -1 IRanGd=           0 AccXCQ= 1.00D-10.
 NRdTot=    1147 NPtTot=      145584 NUsed=      153860 NTot=      153892
 NSgBfM=   138   138   138   138   138 NAtAll=    18    18.
 Leave Link  302 at Mon Oct  4 21:27:49 2021, MaxMem=  805306368 cpu:       0.9
 (Enter /sw/target/amd/app/gaussian/Gaussian09RevA.02_gcc-4.9.2/g09/l303.exe)
 DipDrv:  MaxL=1.
 Leave Link  303 at Mon Oct  4 21:28:05 2021, MaxMem=  805306368 cpu:       0.1
 (Enter /sw/target/amd/app/gaussian/Gaussian09RevA.02_gcc-4.9.2/g09/l401.exe)
 Initial guess read from the read-write file.
 B after Tr=     0.000000    0.000000    0.000000
         Rot=    1.000000    0.000000    0.000000    0.000000 Ang=   0.00 deg.
 Guess basis will be translated and rotated to current coordinates.
 Initial guess orbital symmetries:
       Occupied  (A) (A) (A) (A) (A) (A) (A) (A) (A) (A) (A) (A)
                 (A) (A) (A) (A) (A) (A) (A) (A) (A) (A) (A) (A)
                 (A) (A) (A) (A) (A) (A) (A) (A) (A) (A) (A) (A)
                 (A) (A) (A)
       Virtual   (A) (A) (A) (A) (A) (A) (A) (A) (A) (A) (A) (A)
                 (A) (A) (A) (A) (A) (A) (A) (A) (A) (A) (A) (A)
                 (A) (A) (A) (A) (A) (A) (A) (A) (A) (A) (A) (A)
                 (A) (A) (A) (A) (A) (A) (A) (A) (A) (A) (A) (A)
                 (A) (A) (A) (A) (A) (A) (A) (A) (A) (A) (A) (A)
                 (A) (A) (A) (A) (A) (A) (A) (A) (A) (A) (A) (A)
                 (A) (A) (A) (A) (A) (A) (A) (A) (A) (A) (A) (A)
                 (A) (A) (A) (A) (A) (A) (A) (A) (A) (A) (A) (A)
                 (A) (A) (A) (A)
 The electronic state of the initial guess is 1-A.
 Generating alternative initial guess.
 Harris functional with IExCor=  402 diagonalized for initial guess.
 ExpMin= 4.21D-02 ExpMax= 2.52D+04 ExpMxC= 3.78D+03 IAcc=2 IRadAn=         0 AccDes= 0.00D+00
 HarFok:  IExCor=  402 AccDes= 0.00D+00 IRadAn=         0 IDoV= 1
 ScaDFX=  1.000000  1.000000  1.000000  1.000000
 FoFCou: FMM=F IPFlag=           0 FMFlag=      100000 FMFlg1=           0
         NFxFlg=           0 DoJE=T BraDBF=F KetDBF=T FulRan=T
         Omega=  0.000000  0.000000  1.000000  0.000000  0.000000 ICntrl=     500 IOpCl=  0
         NMat0=    1 NMatS0=    1 NMatT0=    0 NMatD0=    1 NMtDS0=    0 NMtDT0=    0
         I1Cent=           4 NGrid=           0.
 Petite list used in FoFCou.
 Harris En= -1109.16168226911    
 Leave Link  401 at Mon Oct  4 21:28:20 2021, MaxMem=  805306368 cpu:       8.4
 (Enter /sw/target/amd/app/gaussian/Gaussian09RevA.02_gcc-4.9.2/g09/l502.exe)
 Closed shell SCF:
 Requested convergence on RMS density matrix=1.00D-08 within  64 cycles.
 Requested convergence on MAX density matrix=1.00D-06.
 Requested convergence on             energy=1.00D-06.
 No special actions if energy rises.
 Using DIIS extrapolation, IDIIS=  1040.
 Integral symmetry usage will be decided dynamically.
       153685 words used for storage of precomputed grid.
 Keep R1 ints in memory in canonical form, NReq=48932341.
 IEnd=      219082 IEndB=      219082 NGot=   805306368 MDV=   757769628
 LenX=   757769628 LenY=   757749866
 Symmetry not used in FoFDir.
 MinBra= 0 MaxBra= 2 Meth= 1.
 IRaf=       0 NMat=   1 IRICut=       1 DoRegI=T DoRafI=F ISym2E= 0 JSym2E=0.

 Cycle   1  Pass 1  IDiag  1:
 E= -1108.92140495370    
 DIIS: error= 2.38D-03 at cycle   1 NSaved=   1.
 NSaved= 1 IEnMin= 1 EnMin= -1108.92140495370     IErMin= 1 ErrMin= 2.38D-03
 ErrMax= 2.38D-03 EMaxC= 1.00D-01 BMatC= 1.60D-03 BMatP= 1.60D-03
 IDIUse=3 WtCom= 9.76D-01 WtEn= 2.38D-02
 Coeff-Com:  0.100D+01
 Coeff-En:   0.100D+01
 Coeff:      0.100D+01
 Gap=     0.155 Goal=   None    Shift=    0.000
 GapD=    0.155 DampG=1.000 DampE=1.000 DampFc=1.0000 IDamp=-1.
 RMSDP=7.47D-04 MaxDP=1.63D-02              OVMax= 3.44D-02

 Cycle   2  Pass 1  IDiag  1:
 E= -1108.92358566847     Delta-E=       -0.002180714778 Rises=F Damp=F
 DIIS: error= 1.71D-03 at cycle   2 NSaved=   2.
 NSaved= 2 IEnMin= 2 EnMin= -1108.92358566847     IErMin= 2 ErrMin= 1.71D-03
 ErrMax= 1.71D-03 EMaxC= 1.00D-01 BMatC= 4.52D-04 BMatP= 1.60D-03
 IDIUse=3 WtCom= 9.83D-01 WtEn= 1.71D-02
 Coeff-Com:  0.278D+00 0.722D+00
 Coeff-En:   0.000D+00 0.100D+01
 Coeff:      0.274D+00 0.726D+00
 Gap=     0.141 Goal=   None    Shift=    0.000
 RMSDP=3.12D-04 MaxDP=1.00D-02 DE=-2.18D-03 OVMax= 2.30D-02

 Cycle   3  Pass 1  IDiag  1:
 E= -1108.92366593355     Delta-E=       -0.000080265075 Rises=F Damp=F
 DIIS: error= 1.89D-03 at cycle   3 NSaved=   3.
 NSaved= 3 IEnMin= 3 EnMin= -1108.92366593355     IErMin= 2 ErrMin= 1.71D-03
 ErrMax= 1.89D-03 EMaxC= 1.00D-01 BMatC= 3.84D-04 BMatP= 4.52D-04
 IDIUse=3 WtCom= 9.81D-01 WtEn= 1.89D-02
 Coeff-Com:  0.275D-01 0.474D+00 0.499D+00
 Coeff-En:   0.000D+00 0.466D+00 0.534D+00
 Coeff:      0.270D-01 0.474D+00 0.499D+00
 Gap=     0.145 Goal=   None    Shift=    0.000
 RMSDP=1.77D-04 MaxDP=6.41D-03 DE=-8.03D-05 OVMax= 1.46D-02

 Cycle   4  Pass 1  IDiag  1:
 E= -1108.92411395571     Delta-E=       -0.000448022163 Rises=F Damp=F
 DIIS: error= 2.96D-04 at cycle   4 NSaved=   4.
 NSaved= 4 IEnMin= 4 EnMin= -1108.92411395571     IErMin= 4 ErrMin= 2.96D-04
 ErrMax= 2.96D-04 EMaxC= 1.00D-01 BMatC= 1.55D-05 BMatP= 3.84D-04
 IDIUse=3 WtCom= 9.97D-01 WtEn= 2.96D-03
 Coeff-Com: -0.102D-01 0.180D+00 0.251D+00 0.579D+00
 Coeff-En:   0.000D+00 0.000D+00 0.000D+00 0.100D+01
 Coeff:     -0.101D-01 0.179D+00 0.251D+00 0.580D+00
 Gap=     0.144 Goal=   None    Shift=    0.000
 RMSDP=3.86D-05 MaxDP=1.20D-03 DE=-4.48D-04 OVMax= 1.86D-03

 Cycle   5  Pass 1  IDiag  1:
 E= -1108.92413164364     Delta-E=       -0.000017687927 Rises=F Damp=F
 DIIS: error= 6.12D-05 at cycle   5 NSaved=   5.
 NSaved= 5 IEnMin= 5 EnMin= -1108.92413164364     IErMin= 5 ErrMin= 6.12D-05
 ErrMax= 6.12D-05 EMaxC= 1.00D-01 BMatC= 5.91D-07 BMatP= 1.55D-05
 IDIUse=1 WtCom= 1.00D+00 WtEn= 0.00D+00
 Coeff-Com: -0.530D-02 0.373D-01 0.629D-01 0.233D+00 0.672D+00
 Coeff:     -0.530D-02 0.373D-01 0.629D-01 0.233D+00 0.672D+00
 Gap=     0.144 Goal=   None    Shift=    0.000
 RMSDP=8.18D-06 MaxDP=3.43D-04 DE=-1.77D-05 OVMax= 3.36D-04

 Cycle   6  Pass 1  IDiag  1:
 E= -1108.92413229831     Delta-E=       -0.000000654671 Rises=F Damp=F
 DIIS: error= 1.29D-05 at cycle   6 NSaved=   6.
 NSaved= 6 IEnMin= 6 EnMin= -1108.92413229831     IErMin= 6 ErrMin= 1.29D-05
 ErrMax= 1.29D-05 EMaxC= 1.00D-01 BMatC= 3.64D-08 BMatP= 5.91D-07
 IDIUse=1 WtCom= 1.00D+00 WtEn= 0.00D+00
 Coeff-Com: -0.156D-02 0.569D-02 0.131D-01 0.649D-01 0.279D+00 0.638D+00
 Coeff:     -0.156D-02 0.569D-02 0.131D-01 0.649D-01 0.279D+00 0.638D+00
 Gap=     0.144 Goal=   None    Shift=    0.000
 RMSDP=2.29D-06 MaxDP=7.57D-05 DE=-6.55D-07 OVMax= 9.69D-05

 Cycle   7  Pass 1  IDiag  1:
 E= -1108.92413234296     Delta-E=       -0.000000044652 Rises=F Damp=F
 DIIS: error= 3.17D-06 at cycle   7 NSaved=   7.
 NSaved= 7 IEnMin= 7 EnMin= -1108.92413234296     IErMin= 7 ErrMin= 3.17D-06
 ErrMax= 3.17D-06 EMaxC= 1.00D-01 BMatC= 2.34D-09 BMatP= 3.64D-08
 IDIUse=1 WtCom= 1.00D+00 WtEn= 0.00D+00
 Coeff-Com: -0.556D-04-0.191D-02-0.146D-02-0.256D-02 0.236D-01 0.214D+00
 Coeff-Com:  0.769D+00
 Coeff:     -0.556D-04-0.191D-02-0.146D-02-0.256D-02 0.236D-01 0.214D+00
 Coeff:      0.769D+00
 Gap=     0.144 Goal=   None    Shift=    0.000
 RMSDP=7.05D-07 MaxDP=2.85D-05 DE=-4.47D-08 OVMax= 2.49D-05

 Cycle   8  Pass 1  IDiag  1:
 E= -1108.92413234630     Delta-E=       -0.000000003338 Rises=F Damp=F
 DIIS: error= 7.79D-07 at cycle   8 NSaved=   8.
 NSaved= 8 IEnMin= 8 EnMin= -1108.92413234630     IErMin= 8 ErrMin= 7.79D-07
 ErrMax= 7.79D-07 EMaxC= 1.00D-01 BMatC= 1.53D-10 BMatP= 2.34D-09
 IDIUse=1 WtCom= 1.00D+00 WtEn= 0.00D+00
 Coeff-Com:  0.823D-04-0.109D-02-0.132D-02-0.486D-02-0.612D-02 0.514D-01
 Coeff-Com:  0.296D+00 0.665D+00
 Coeff:      0.823D-04-0.109D-02-0.132D-02-0.486D-02-0.612D-02 0.514D-01
 Coeff:      0.296D+00 0.665D+00
 Gap=     0.144 Goal=   None    Shift=    0.000
 RMSDP=1.44D-07 MaxDP=3.86D-06 DE=-3.34D-09 OVMax= 6.81D-06

 Cycle   9  Pass 1  IDiag  1:
 E= -1108.92413234651     Delta-E=       -0.000000000207 Rises=F Damp=F
 DIIS: error= 2.45D-07 at cycle   9 NSaved=   9.
 NSaved= 9 IEnMin= 9 EnMin= -1108.92413234651     IErMin= 9 ErrMin= 2.45D-07
 ErrMax= 2.45D-07 EMaxC= 1.00D-01 BMatC= 9.43D-12 BMatP= 1.53D-10
 IDIUse=1 WtCom= 1.00D+00 WtEn= 0.00D+00
 Coeff-Com:  0.314D-04-0.287D-03-0.377D-03-0.161D-02-0.320D-02 0.789D-02
 Coeff-Com:  0.619D-01 0.242D+00 0.693D+00
 Coeff:      0.314D-04-0.287D-03-0.377D-03-0.161D-02-0.320D-02 0.789D-02
 Coeff:      0.619D-01 0.242D+00 0.693D+00
 Gap=     0.144 Goal=   None    Shift=    0.000
 RMSDP=3.18D-08 MaxDP=6.98D-07 DE=-2.07D-10 OVMax= 1.50D-06

 Cycle  10  Pass 1  IDiag  1:
 E= -1108.92413234652     Delta-E=       -0.000000000015 Rises=F Damp=F
 DIIS: error= 1.14D-07 at cycle  10 NSaved=  10.
 NSaved=10 IEnMin=10 EnMin= -1108.92413234652     IErMin=10 ErrMin= 1.14D-07
 ErrMax= 1.14D-07 EMaxC= 1.00D-01 BMatC= 1.87D-12 BMatP= 9.43D-12
 IDIUse=1 WtCom= 1.00D+00 WtEn= 0.00D+00
 Coeff-Com:  0.172D-05 0.264D-04 0.252D-04-0.615D-04-0.632D-03-0.372D-02
 Coeff-Com: -0.149D-01 0.231D-01 0.341D+00 0.656D+00
 Coeff:      0.172D-05 0.264D-04 0.252D-04-0.615D-04-0.632D-03-0.372D-02
 Coeff:     -0.149D-01 0.231D-01 0.341D+00 0.656D+00
 Gap=     0.144 Goal=   None    Shift=    0.000
 RMSDP=1.23D-08 MaxDP=2.70D-07 DE=-1.46D-11 OVMax= 6.18D-07

 Cycle  11  Pass 1  IDiag  1:
 E= -1108.92413234652     Delta-E=        0.000000000006 Rises=F Damp=F
 DIIS: error= 7.10D-09 at cycle  11 NSaved=  11.
 NSaved=11 IEnMin=10 EnMin= -1108.92413234652     IErMin=11 ErrMin= 7.10D-09
 ErrMax= 7.10D-09 EMaxC= 1.00D-01 BMatC= 1.80D-14 BMatP= 1.87D-12
 IDIUse=1 WtCom= 1.00D+00 WtEn= 0.00D+00
 Coeff-Com: -0.248D-06 0.112D-04 0.144D-04 0.205D-04-0.915D-04-0.102D-02
 Coeff-Com: -0.486D-02-0.325D-02 0.463D-01 0.141D+00 0.822D+00
 Coeff:     -0.248D-06 0.112D-04 0.144D-04 0.205D-04-0.915D-04-0.102D-02
 Coeff:     -0.486D-02-0.325D-02 0.463D-01 0.141D+00 0.822D+00
 Gap=     0.144 Goal=   None    Shift=    0.000
 RMSDP=2.23D-09 MaxDP=8.96D-08 DE= 6.14D-12 OVMax= 1.07D-07

 SCF Done:  E(RB3LYP) =  -1108.92413235     A.U. after   11 cycles
             Convg  =    0.2227D-08             -V/T =  2.0047
 KE= 1.103777836072D+03 PE=-3.531088506750D+03 EE= 8.676664537948D+02
 Leave Link  502 at Mon Oct  4 21:29:24 2021, MaxMem=  805306368 cpu:      71.9
 (Enter /sw/target/amd/app/gaussian/Gaussian09RevA.02_gcc-4.9.2/g09/l508.exe)
 QCSCF skips out because SCF is already converged.
 Leave Link  508 at Mon Oct  4 21:29:25 2021, MaxMem=  805306368 cpu:       0.0
 (Enter /sw/target/amd/app/gaussian/Gaussian09RevA.02_gcc-4.9.2/g09/l701.exe)
 Compute integral first derivatives.
 ... and contract with generalized density number  0.
 Leave Link  701 at Mon Oct  4 21:29:26 2021, MaxMem=  805306368 cpu:       0.7
 (Enter /sw/target/amd/app/gaussian/Gaussian09RevA.02_gcc-4.9.2/g09/l702.exe)
 L702 exits ... SP integral derivatives will be done elsewhere.
 Leave Link  702 at Mon Oct  4 21:29:26 2021, MaxMem=  805306368 cpu:       0.1
 (Enter /sw/target/amd/app/gaussian/Gaussian09RevA.02_gcc-4.9.2/g09/l703.exe)
 Compute integral first derivatives, UseDBF=F ICtDFT=           0.
 Integral derivatives from FoFDir, PRISM(SPDF).
 Calling FoFJK, ICntrl=      2127 FMM=F ISym2X=0 I1Cent= 0 IOpClX= 0 NMat=1 NMatS=1 NMatT=0.
 FoFCou: FMM=F IPFlag=           0 FMFlag=      100000 FMFlg1=         800
         NFxFlg=           0 DoJE=F BraDBF=F KetDBF=F FulRan=T
         Omega=  0.000000  0.000000  1.000000  0.000000  0.000000 ICntrl=    2127 IOpCl=  0
         NMat0=    1 NMatS0=    1 NMatT0=    0 NMatD0=    1 NMtDS0=    0 NMtDT0=    0
         I1Cent=           0 NGrid=           0.
 Symmetry not used in FoFCou.
 Leave Link  703 at Mon Oct  4 21:29:40 2021, MaxMem=  805306368 cpu:      30.3
 (Enter /sw/target/amd/app/gaussian/Gaussian09RevA.02_gcc-4.9.2/g09/l716.exe)
 Dipole        = 1.37855545D+00-1.26798352D+00 1.34609069D-02
 ***** Axes restored to original set *****
 -------------------------------------------------------------------
 Center     Atomic                   Forces (Hartrees/Bohr)
 Number     Number              X              Y              Z
 -------------------------------------------------------------------
      1       17           0.010110032    0.010940124   -0.005203089
      2       12          -0.020081513   -0.022259036    0.006650974
      3        6           0.012125301    0.013160862   -0.006705091
      4       14          -0.005377065   -0.006249224    0.001165765
      5        6           0.002291842    0.002532266   -0.001316185
      6        6           0.000816203   -0.000846876   -0.000096894
      7        6          -0.000970018    0.000620086   -0.000286555
      8        1           0.000317208    0.000185297    0.003587474
      9        1          -0.000334148    0.000734525    0.003423674
     10        1           0.000703731   -0.000774865   -0.000675570
     11        1          -0.000804779    0.000487526   -0.000849480
     12        1          -0.001208277   -0.001430446   -0.000113699
     13        1           0.000741921    0.001258263    0.000286389
     14        1          -0.001033610    0.000685110    0.001034372
     15        1          -0.000572190    0.001277822   -0.001339739
[...]
     1  Cl  17.050882   0.172492   0.005158   0.000978   0.000001   0.000004
     2  Mg   0.172492  11.703589   0.011955  -0.024491  -0.009963  -0.008665
     3  C    0.005158   0.011955   5.780975   0.314821  -0.012156  -0.023902
     4  Si   0.000978  -0.024491   0.314821  11.999474   0.322173   0.411372
     5  C    0.000001  -0.009963  -0.012156   0.322173   5.337097  -0.025880
     6  C    0.000004  -0.008665  -0.023902   0.411372  -0.025880   5.286788
     7  C    0.000004  -0.008644  -0.023895   0.411363  -0.025875  -0.028388
     8  H   -0.000283   0.025229   0.309654  -0.013004  -0.001417  -0.002107
     9  H   -0.000283   0.025218   0.309655  -0.013001  -0.001417   0.001075
    10  H   -0.000000   0.000316  -0.001873  -0.016837   0.361796  -0.001187
    11  H   -0.000000   0.000316  -0.001873  -0.016836   0.361793   0.001177
    12  H   -0.000000   0.001467   0.000798  -0.004837   0.338796  -0.001339
    13  H   -0.000007   0.005200  -0.001060  -0.021238  -0.001569   0.355228
    14  H   -0.000001   0.002988   0.001054  -0.023286  -0.002302   0.349625
    15  H   -0.000168   0.012977  -0.002264  -0.025096   0.000701   0.357990
    16  H   -0.000007   0.005192  -0.001060  -0.021234  -0.001568   0.001208
    17  H   -0.000168   0.012965  -0.002263  -0.025094   0.000702  -0.001051
    18  H   -0.000001   0.002983   0.001054  -0.023281  -0.002301  -0.001166
              7          8          9         10         11         12
     1  Cl   0.000004  -0.000283  -0.000283  -0.000000  -0.000000  -0.000000
     2  Mg  -0.008644   0.025229   0.025218   0.000316   0.000316   0.001467
     3  C   -0.023895   0.309654   0.309655  -0.001873  -0.001873   0.000798
     4  Si   0.411363  -0.013004  -0.013001  -0.016837  -0.016836  -0.004837
     5  C   -0.025875  -0.001417  -0.001417   0.361796   0.361793   0.338796
     6  C   -0.028388  -0.002107   0.001075  -0.001187   0.001177  -0.001339
     7  C    5.286735   0.001074  -0.002107   0.001177  -0.001186  -0.001339
     8  H    0.001074   0.501298  -0.027913   0.000414  -0.000088   0.000033
     9  H   -0.002107  -0.027913   0.501331  -0.000088   0.000414   0.000033
    10  H    0.001177   0.000414  -0.000088   0.511867  -0.023073  -0.024517
    11  H   -0.001186  -0.000088   0.000414  -0.023073   0.511875  -0.024519
    12  H   -0.001339   0.000033   0.000033  -0.024517  -0.024519   0.516759
    13  H    0.001208   0.000542   0.000002   0.000400  -0.000014   0.000067
    14  H   -0.001166   0.000038  -0.000013  -0.000064  -0.000000   0.001083
    15  H   -0.001051   0.000049   0.000022   0.000009  -0.000016   0.000054
    16  H    0.355232   0.000002   0.000542  -0.000014   0.000400   0.000067
    17  H    0.357993   0.000022   0.000049  -0.000016   0.000009   0.000054
    18  H    0.349639  -0.000013   0.000038  -0.000000  -0.000064   0.001082
             13         14         15         16         17         18
     1  Cl  -0.000007  -0.000001  -0.000168  -0.000007  -0.000168  -0.000001
     2  Mg   0.005200   0.002988   0.012977   0.005192   0.012965   0.002983
     3  C   -0.001060   0.001054  -0.002264  -0.001060  -0.002263   0.001054
     4  Si  -0.021238  -0.023286  -0.025096  -0.021234  -0.025094  -0.023281
     5  C   -0.001569  -0.002302   0.000701  -0.001568   0.000702  -0.002301
     6  C    0.355228   0.349625   0.357990   0.001208  -0.001051  -0.001166
     7  C    0.001208  -0.001166  -0.001051   0.355232   0.357993   0.349639
     8  H    0.000542   0.000038   0.000049   0.000002   0.000022  -0.000013
     9  H    0.000002  -0.000013   0.000022   0.000542   0.000049   0.000038
    10  H    0.000400  -0.000064   0.000009  -0.000014  -0.000016  -0.000000
    11  H   -0.000014  -0.000000  -0.000016   0.000400   0.000009  -0.000064
    12  H    0.000067   0.001083   0.000054   0.000067   0.000054   0.001082
    13  H    0.535980  -0.022044  -0.023358  -0.000017   0.000015   0.000016
    14  H   -0.022044   0.544830  -0.019747   0.000016   0.000069   0.000797
    15  H   -0.023358  -0.019747   0.516184   0.000015   0.000363   0.000069
    16  H   -0.000017   0.000016   0.000015   0.535988  -0.023359  -0.022046
    17  H    0.000015   0.000069   0.000363  -0.023359   0.516196  -0.019747
    18  H    0.000016   0.000797   0.000069  -0.022046  -0.019747   0.544806
 Mulliken atomic charges:
              1
     1  Cl  -0.228599
     2  Mg   0.068876
     3  C   -0.664780
     4  Si   0.768054
     5  C   -0.638611
     6  C   -0.670782
     7  C   -0.670775
     8  H    0.206469
     9  H    0.206442
    10  H    0.191690
    11  H    0.191685
    12  H    0.196257
    13  H    0.170648
    14  H    0.168122
    15  H    0.183266
    16  H    0.170642
    17  H    0.183261
    18  H    0.168135
 Sum of Mulliken atomic charges =  -0.00000
 Mulliken charges with hydrogens summed into heavy atoms:
              1
     1  Cl  -0.228599
     2  Mg   0.068876
     3  C   -0.251869
     4  Si   0.768054
     5  C   -0.058978
     6  C   -0.148746
     7  C   -0.148737
 Sum of Mulliken charges with hydrogens summed into heavy atoms =  -0.00000
 Electronic spatial extent (au):  <R**2>=           2190.9318
 Charge=              0.0000 electrons
 Dipole moment (field-independent basis, Debye):
    X=             -8.8157    Y=             -0.8130    Z=             -0.0024  Tot=              8.8531
 Quadrupole moment (field-independent basis, Debye-Ang):
   XX=            -83.0524   YY=            -65.5825   ZZ=            -66.1461
   XY=              0.3828   XZ=             -0.0043   YZ=              0.0015
 Traceless Quadrupole moment (field-independent basis, Debye-Ang):
   XX=            -11.4587   YY=              6.0111   ZZ=              5.4476
   XY=              0.3828   XZ=             -0.0043   YZ=              0.0015
 Octapole moment (field-independent basis, Debye-Ang**2):
  XXX=           -131.0219  YYY=              9.8221  ZZZ=             -0.0110  XYY=            -10.6476
  XXY=              0.2582  XXZ=             -0.0062  XZZ=             -8.5958  YZZ=              0.4453
  YYZ=             -0.0009  XYZ=              0.0027
 Hexadecapole moment (field-independent basis, Debye-Ang**3):
 XXXX=          -2568.2097 YYYY=           -405.1921 ZZZZ=           -374.1539 XXXY=             18.5818
 XXXZ=             -0.0177 YYYX=             21.8252 YYYZ=              0.0034 ZZZX=             -0.0058
 ZZZY=              0.0061 XXYY=           -457.4872 XXZZ=           -458.3425 YYZZ=           -128.3936
 XXYZ=              0.0113 YYXZ=             -0.0106 ZZXY=             12.5253
 N-N= 4.528640670835D+02 E-N=-3.533548161861D+03  KE= 1.103898159396D+03
 No NMR shielding tensors so no spin-rotation constants.
 Leave Link  601 at Mon Oct  4 23:10:31 2021, MaxMem=  805306368 cpu:       0.7
 (Enter /sw/target/amd/app/gaussian/Gaussian09RevA.02_gcc-4.9.2/g09/l604.exe)
 Evaluate density.
 Using the total density.
 Monte-Carlo method of calculating molar volume:
 based on  0.001 e/bohr**3 density envelope.
 Number of points per bohr**3 =   20 CutOff= 1.00D-04
 Using the CI density.
 There are       506 points.  Will hold       506 in memory.
 LenV=   805214550 MDV=   805306368.
 Box volume =16249.072 fraction occupied=0.059
 Integrated density= 2.9859834877904440D+01 error=-4.8140165122095560D+01
 Molar volume =  963.384 bohr**3/mol ( 85.971 cm**3/mol)
 Recommended a0 for SCRF calculation =  4.07 angstrom (  7.69 bohr)
 Leave Link  604 at Mon Oct  4 23:10:39 2021, MaxMem=  805306368 cpu:       0.4
 (Enter /sw/target/amd/app/gaussian/Gaussian09RevA.02_gcc-4.9.2/g09/l607.exe)
 ******************************Gaussian NBO Version 3.1******************************
             N A T U R A L   A T O M I C   O R B I T A L   A N D
          N A T U R A L   B O N D   O R B I T A L   A N A L Y S I S
 ******************************Gaussian NBO Version 3.1******************************
       /RESON  / : Allow strongly delocalized NBO set

 Analyzing the CI density

 Job title: Cl[Mg]C[Si](C)(C)C_conf_0                                       

 Storage needed:     59092 in NPA ( 805304568 available)


 NATURAL POPULATIONS:  Natural atomic orbital occupancies 
                                                          
   NAO  Atom  No  lang   Type(AO)    Occupancy
 --------------------------------------------
     1   Cl    1  S      Cor( 1S)     2.00000
     2   Cl    1  S      Cor( 2S)     1.99991
     3   Cl    1  S      Val( 3S)     1.94584
     4   Cl    1  S      Ryd( 4S)     0.00265
     5   Cl    1  S      Ryd( 5S)     0.00001
     6   Cl    1  px     Cor( 2p)     1.99997
     7   Cl    1  px     Val( 3p)     1.86342
     8   Cl    1  px     Ryd( 4p)     0.00048
     9   Cl    1  py     Cor( 2p)     1.99999
    10   Cl    1  py     Val( 3p)     1.92785
    11   Cl    1  py     Ryd( 4p)     0.00018
    12   Cl    1  pz     Cor( 2p)     2.00000
    13   Cl    1  pz     Val( 3p)     1.94100
    14   Cl    1  pz     Ryd( 4p)     0.00006
    15   Cl    1  dxy    Ryd( 3d)     0.00139
    16   Cl    1  dxz    Ryd( 3d)     0.00068
    17   Cl    1  dyz    Ryd( 3d)     0.00008
    18   Cl    1  dx2y2  Ryd( 3d)     0.00164
    19   Cl    1  dz2    Ryd( 3d)     0.00076

    20   Mg    2  S      Cor( 1S)     2.00000
    21   Mg    2  S      Cor( 2S)     1.99799
    22   Mg    2  S      Val( 3S)     0.80931
    23   Mg    2  S      Ryd( 4S)     0.02251
    24   Mg    2  S      Ryd( 5S)     0.00032
    25   Mg    2  px     Cor( 2p)     1.99811
    26   Mg    2  px     Val( 3p)     0.09982
    27   Mg    2  px     Ryd( 4p)     0.00237
    28   Mg    2  py     Cor( 2p)     1.99950
    29   Mg    2  py     Val( 3p)     0.07586
    30   Mg    2  py     Ryd( 4p)     0.00157
    31   Mg    2  pz     Cor( 2p)     1.99987
    32   Mg    2  pz     Val( 3p)     0.06160
    33   Mg    2  pz     Ryd( 4p)     0.00044
    34   Mg    2  dxy    Ryd( 3d)     0.00310
    35   Mg    2  dxz    Ryd( 3d)     0.00244
    36   Mg    2  dyz    Ryd( 3d)     0.00070
    37   Mg    2  dx2y2  Ryd( 3d)     0.00265
    38   Mg    2  dz2    Ryd( 3d)     0.00093

    39    C    3  S      Cor( 1S)     1.99952
    40    C    3  S      Val( 2S)     1.40546
    41    C    3  S      Ryd( 3S)     0.00747
    42    C    3  S      Ryd( 4S)     0.00001
    43    C    3  px     Val( 2p)     1.21948
    44    C    3  px     Ryd( 3p)     0.00826
    45    C    3  py     Val( 2p)     1.39714
    46    C    3  py     Ryd( 3p)     0.00385
    47    C    3  pz     Val( 2p)     1.25415
    48    C    3  pz     Ryd( 3p)     0.00242
    49    C    3  dxy    Ryd( 3d)     0.00044
    50    C    3  dxz    Ryd( 3d)     0.00012
    51    C    3  dyz    Ryd( 3d)     0.00121
    52    C    3  dx2y2  Ryd( 3d)     0.00021
    53    C    3  dz2    Ryd( 3d)     0.00061

    54   Si    4  S      Cor( 1S)     2.00000
    55   Si    4  S      Cor( 2S)     1.99870
    56   Si    4  S      Val( 3S)     0.80188
    57   Si    4  S      Ryd( 4S)     0.00119
    58   Si    4  S      Ryd( 5S)     0.00000
    59   Si    4  px     Cor( 2p)     1.99946
    60   Si    4  px     Val( 3p)     0.46378
    61   Si    4  px     Ryd( 4p)     0.00279
    62   Si    4  py     Cor( 2p)     1.99980
    63   Si    4  py     Val( 3p)     0.48188
    64   Si    4  py     Ryd( 4p)     0.00160
    65   Si    4  pz     Cor( 2p)     1.99982
    66   Si    4  pz     Val( 3p)     0.48016
    67   Si    4  pz     Ryd( 4p)     0.00113
    68   Si    4  dxy    Ryd( 3d)     0.00702
    69   Si    4  dxz    Ryd( 3d)     0.00235
    70   Si    4  dyz    Ryd( 3d)     0.00812
    71   Si    4  dx2y2  Ryd( 3d)     0.00489
    72   Si    4  dz2    Ryd( 3d)     0.00756

    73    C    5  S      Cor( 1S)     1.99941
    74    C    5  S      Val( 2S)     1.23732
    75    C    5  S      Ryd( 3S)     0.00162
    76    C    5  S      Ryd( 4S)     0.00001
    77    C    5  px     Val( 2p)     1.27572
    78    C    5  px     Ryd( 3p)     0.00257
    79    C    5  py     Val( 2p)     1.29574
    80    C    5  py     Ryd( 3p)     0.00124
    81    C    5  pz     Val( 2p)     1.28119
    82    C    5  pz     Ryd( 3p)     0.00055
    83    C    5  dxy    Ryd( 3d)     0.00079
    84    C    5  dxz    Ryd( 3d)     0.00006
    85    C    5  dyz    Ryd( 3d)     0.00098
    86    C    5  dx2y2  Ryd( 3d)     0.00032
    87    C    5  dz2    Ryd( 3d)     0.00074

    88    C    6  S      Cor( 1S)     1.99950
    89    C    6  S      Val( 2S)     1.22636
    90    C    6  S      Ryd( 3S)     0.00174
    91    C    6  S      Ryd( 4S)     0.00001
    92    C    6  px     Val( 2p)     1.27748
    93    C    6  px     Ryd( 3p)     0.00055
    94    C    6  py     Val( 2p)     1.32237
    95    C    6  py     Ryd( 3p)     0.00166
    96    C    6  pz     Val( 2p)     1.36844
    97    C    6  pz     Ryd( 3p)     0.00234
    98    C    6  dxy    Ryd( 3d)     0.00099
    99    C    6  dxz    Ryd( 3d)     0.00003
   100    C    6  dyz    Ryd( 3d)     0.00082
   101    C    6  dx2y2  Ryd( 3d)     0.00027
   102    C    6  dz2    Ryd( 3d)     0.00069

   103    C    7  S      Cor( 1S)     1.99950
   104    C    7  S      Val( 2S)     1.22636
   105    C    7  S      Ryd( 3S)     0.00174
   106    C    7  S      Ryd( 4S)     0.00001
   107    C    7  px     Val( 2p)     1.27747
   108    C    7  px     Ryd( 3p)     0.00055
   109    C    7  py     Val( 2p)     1.32248
   110    C    7  py     Ryd( 3p)     0.00166
   111    C    7  pz     Val( 2p)     1.36835
   112    C    7  pz     Ryd( 3p)     0.00234
   113    C    7  dxy    Ryd( 3d)     0.00099
   114    C    7  dxz    Ryd( 3d)     0.00003
   115    C    7  dyz    Ryd( 3d)     0.00082
   116    C    7  dx2y2  Ryd( 3d)     0.00027
   117    C    7  dz2    Ryd( 3d)     0.00069

   118    H    8  S      Val( 1S)     0.74895
   119    H    8  S      Ryd( 2S)     0.00178

   120    H    9  S      Val( 1S)     0.74896
   121    H    9  S      Ryd( 2S)     0.00178

   122    H   10  S      Val( 1S)     0.73591
   123    H   10  S      Ryd( 2S)     0.00084

   124    H   11  S      Val( 1S)     0.73591
   125    H   11  S      Ryd( 2S)     0.00084

   126    H   12  S      Val( 1S)     0.72927
   127    H   12  S      Ryd( 2S)     0.00135

   128    H   13  S      Val( 1S)     0.74328
   129    H   13  S      Ryd( 2S)     0.00143

   130    H   14  S      Val( 1S)     0.74370
   131    H   14  S      Ryd( 2S)     0.00116

   132    H   15  S      Val( 1S)     0.73981
   133    H   15  S      Ryd( 2S)     0.00172

   134    H   16  S      Val( 1S)     0.74328
   135    H   16  S      Ryd( 2S)     0.00143

   136    H   17  S      Val( 1S)     0.73981
   137    H   17  S      Ryd( 2S)     0.00172

   138    H   18  S      Val( 1S)     0.74370
   139    H   18  S      Ryd( 2S)     0.00116

 WARNING:  2 low occupancy (<1.9990e) core orbitals found on Mg    2
           1 low occupancy (<1.9990e) core orbital  found on Si    4


 Summary of Natural Population Analysis:                  
                                                          
                                       Natural Population 
                Natural  -----------------------------------------------
    Atom  No    Charge         Core      Valence    Rydberg      Total
 -----------------------------------------------------------------------
     Cl    1   -0.68591      9.99987     7.67811    0.00793    17.68591
     Mg    2    0.92091      9.99547     1.04659    0.03703    11.07909
      C    3   -1.30036      1.99952     5.27624    0.02460     7.30036
     Si    4    1.73788      9.99777     2.22770    0.03665    12.26212
      C    5   -1.09826      1.99941     5.08997    0.00888     7.09826
      C    6   -1.20323      1.99950     5.19465    0.00909     7.20323
      C    7   -1.20324      1.99950     5.19466    0.00909     7.20324
      H    8    0.24927      0.00000     0.74895    0.00178     0.75073
      H    9    0.24926      0.00000     0.74896    0.00178     0.75074
      H   10    0.26325      0.00000     0.73591    0.00084     0.73675
      H   11    0.26324      0.00000     0.73591    0.00084     0.73676
      H   12    0.26939      0.00000     0.72927    0.00135     0.73061
      H   13    0.25529      0.00000     0.74328    0.00143     0.74471
      H   14    0.25514      0.00000     0.74370    0.00116     0.74486
      H   15    0.25847      0.00000     0.73981    0.00172     0.74153
      H   16    0.25529      0.00000     0.74328    0.00143     0.74471
      H   17    0.25847      0.00000     0.73981    0.00172     0.74153
      H   18    0.25515      0.00000     0.74370    0.00116     0.74485
 =======================================================================
   * Total *    0.00000     37.99104    39.86049    0.14847    78.00000

                                 Natural Population      
 --------------------------------------------------------
   Core                      37.99104 ( 99.9764% of  38)
   Valence                   39.86049 ( 99.6512% of  40)
   Natural Minimal Basis     77.85153 ( 99.8097% of  78)
   Natural Rydberg Basis      0.14847 (  0.1903% of  78)
 --------------------------------------------------------

    Atom  No          Natural Electron Configuration
 ----------------------------------------------------------------------------
     Cl    1      [core]3S( 1.95)3p( 5.73)
     Mg    2      [core]3S( 0.81)3p( 0.24)4S( 0.02)3d( 0.01)
      C    3      [core]2S( 1.41)2p( 3.87)3S( 0.01)3p( 0.01)
     Si    4      [core]3S( 0.80)3p( 1.43)3d( 0.03)4p( 0.01)
      C    5      [core]2S( 1.24)2p( 3.85)
      C    6      [core]2S( 1.23)2p( 3.97)
      C    7      [core]2S( 1.23)2p( 3.97)
      H    8            1S( 0.75)
      H    9            1S( 0.75)
      H   10            1S( 0.74)
      H   11            1S( 0.74)
      H   12            1S( 0.73)
      H   13            1S( 0.74)
      H   14            1S( 0.74)
      H   15            1S( 0.74)
      H   16            1S( 0.74)
      H   17            1S( 0.74)
      H   18            1S( 0.74)


 NBO analysis skipped by request.
 Leave Link  607 at Mon Oct  4 23:12:39 2021, MaxMem=  805306368 cpu:      11.8
 (Enter /sw/target/amd/app/gaussian/Gaussian09RevA.02_gcc-4.9.2/g09/l9999.exe)
 1\1\GINC-HERMITE\SP\RTD-B3LYP-FC\6-31G(d)\C4H11Cl1Mg1Si1\JSCHLEINITZ\0
 4-Oct-2021\0\\#p TD(NStates=10, Root=1) b3lyp/6-31G* volume pop=NPA de
 nsity=current Geom=AllCheck Guess=Read\\Cl[Mg]C[Si](C)(C)C_conf_0\\0,1
 \Cl,0,5.6747829983,1.0127912587,3.8162451836\Mg,0,5.3882450092,0.39257
 81568,1.704892208\C,0,5.1245767441,-0.1830560318,-0.2741494159\Si,0,6.
 1114132227,0.8155884293,-1.5242630396\C,0,5.8041077754,0.2164227095,-3
 .2993627117\C,0,5.6178357025,2.6473354676,-1.410322675\C,0,7.967046439
 4,0.6578903211,-1.145391257\H,0,4.050724133,-0.1127605389,-0.503487891
 \H,0,5.3909663016,-1.2477775151,-0.3521839335\H,0,4.7446213626,0.30237
 08519,-3.569853526\H,0,6.0888696718,-0.8361104124,-3.4183203891\H,0,6.
 3807164764,0.8002719712,-4.0278818973\H,0,4.5397485309,2.7830242567,-1
 .5632095487\H,0,6.1324649782,3.246034849,-2.1718049017\H,0,5.869846209
 2,3.0859770692,-0.4349912627\H,0,8.2882428224,-0.3913290344,-1.1404407
 793\H,0,8.2299574073,1.0873098603,-0.1688375668\H,0,8.5721077042,1.179
 9879044,-1.8966928563\\Version=AM64L-G09RevA.02\State=1-A\HF=-1108.946
 2361\RMSD=9.446e-10\Dipole=0.1624937,-0.2722675,-3.4686043\Quadrupole=
 4.0415402,4.2989625,-8.3405027,0.1942888,1.5206551,0.137078\PG=C01 [X(
 C4H11Cl1Mg1Si1)]\\@


 WE MIGHT AS WELL ATTEMPT TO INTRODUCE A NEW PLANET 
 INTO THE SOLAR SYSTEM, OR TO ANNIHILATE ONE ALREADYIN EXISTENCE, 
 AS TO CREATE OR DESTROY A PARTICLE OF HYDROGEN.
 ALL THE CHANGES WE CAN PRODUCE CONSIST IN SEPARATING PARTICLES
 THAT ARE IN A STATE OF ... COMBINATION, AND JOINING 
 THOSE THAT WERE PREVIOUSLY AT A DISTANCE.

                                    -- JOHN DALTON, 1810
 Job cpu time:  0 days  0 hours 31 minutes 31.4 seconds.
 File lengths (MBytes):  RWF=     55 Int=      0 D2E=      0 Chk=      9 Scr=      1
 Normal termination of Gaussian 09 at Mon Oct  4 23:12:45 2021.
