 Entering Gaussian System, Link 0=g09
 Input=C4H6N2_323d_conf_0.com
 Output=C4H6N2_323d_conf_0.log
 Initial command:
 /sw/target/amd/app/gaussian/Gaussian09RevA.02_gcc-4.9.2/g09/l1.exe /home/jschleinitz/gaussian/Gau-2366308.inp -scrdir=/home/jschleinitz/gaussian/
 Entering Link 1 = /sw/target/amd/app/gaussian/Gaussian09RevA.02_gcc-4.9.2/g09/l1.exe PID=   2366314.
  
 Copyright (c) 1988,1990,1992,1993,1995,1998,2003,2009, Gaussian, Inc.
                  All Rights Reserved.
  
 This is part of the Gaussian(R) 09 program.  It is based on
 the Gaussian(R) 03 system (copyright 2003, Gaussian, Inc.),
 the Gaussian(R) 98 system (copyright 1998, Gaussian, Inc.),
 the Gaussian(R) 94 system (copyright 1995, Gaussian, Inc.),
 the Gaussian 92(TM) system (copyright 1992, Gaussian, Inc.),
 the Gaussian 90(TM) system (copyright 1990, Gaussian, Inc.),
 the Gaussian 88(TM) system (copyright 1988, Gaussian, Inc.),
 the Gaussian 86(TM) system (copyright 1986, Carnegie Mellon
 University), and the Gaussian 82(TM) system (copyright 1983,
 Carnegie Mellon University). Gaussian is a federally registered
 trademark of Gaussian, Inc.
  
 This software contains proprietary and confidential information,
 including trade secrets, belonging to Gaussian, Inc.
  
 This software is provided under written license and may be
 used, copied, transmitted, or stored only in accord with that
 written license.
  
 The following legend is applicable only to US Government
 contracts under FAR:
  
                    RESTRICTED RIGHTS LEGEND
  
 Use, reproduction and disclosure by the US Government is
 subject to restrictions as set forth in subparagraphs (a)
 and (c) of the Commercial Computer Software - Restricted
 Rights clause in FAR 52.227-19.
  
 Gaussian, Inc.
 340 Quinnipiac St., Bldg. 40, Wallingford CT 06492
  
  
 ---------------------------------------------------------------
 Warning -- This program may not be used in any manner that
 competes with the business of Gaussian, Inc. or will provide
 assistance to any competitor of Gaussian, Inc.  The licensee
 of this program is prohibited from giving any competitor of
 Gaussian, Inc. access to this program.  By using this program,
 the user acknowledges that Gaussian, Inc. is engaged in the
 business of creating and licensing software in the field of
 computational chemistry and represents and warrants to the
 licensee that it is not a competitor of Gaussian, Inc. and that
 it will not use this program in any manner prohibited above.
 ---------------------------------------------------------------
  

 Cite this work as:
 Gaussian 09, Revision A.02,
 M. J. Frisch, G. W. Trucks, H. B. Schlegel, G. E. Scuseria, 
 M. A. Robb, J. R. Cheeseman, G. Scalmani, V. Barone, B. Mennucci, 
 G. A. Petersson, H. Nakatsuji, M. Caricato, X. Li, H. P. Hratchian, 
 A. F. Izmaylov, J. Bloino, G. Zheng, J. L. Sonnenberg, M. Hada, 
 M. Ehara, K. Toyota, R. Fukuda, J. Hasegawa, M. Ishida, T. Nakajima, 
 Y. Honda, O. Kitao, H. Nakai, T. Vreven, J. A. Montgomery, Jr., 
 J. E. Peralta, F. Ogliaro, M. Bearpark, J. J. Heyd, E. Brothers, 
 K. N. Kudin, V. N. Staroverov, R. Kobayashi, J. Normand, 
 K. Raghavachari, A. Rendell, J. C. Burant, S. S. Iyengar, J. Tomasi, 
 M. Cossi, N. Rega, J. M. Millam, M. Klene, J. E. Knox, J. B. Cross, 
 V. Bakken, C. Adamo, J. Jaramillo, R. Gomperts, R. E. Stratmann, 
 O. Yazyev, A. J. Austin, R. Cammi, C. Pomelli, J. W. Ochterski, 
 R. L. Martin, K. Morokuma, V. G. Zakrzewski, G. A. Voth, 
 P. Salvador, J. J. Dannenberg, S. Dapprich, A. D. Daniels, 
 O. Farkas, J. B. Foresman, J. V. Ortiz, J. Cioslowski, 
 and D. J. Fox, Gaussian, Inc., Wallingford CT, 2009.
 
 ******************************************
 Gaussian 09:  AM64L-G09RevA.02 11-Jun-2009
                 3-Oct-2021 
 ******************************************
 %nproc=2
 Will use up to    2 processors via shared memory.
 %mem=4gb
 %chk=C4H6N2_323d_conf_0.chk
 -----------------------------------
 #p opt b3lyp/6-31G* scf=(xqc,tight)
 -----------------------------------
 1/14=-1,18=20,19=15,26=3,38=1/1,3;
 2/9=110,12=2,17=6,18=5,40=1/2;
 3/5=1,6=6,7=1,11=2,16=1,25=1,30=1,71=1,74=-5/1,2,3;
 4//1;
 5/5=2,8=3,13=1,32=2,38=5/2,8;
 6/7=2,8=2,9=2,10=2,28=1/1;
 7//1,2,3,16;
 1/14=-1,18=20,19=15/3(2);
 2/9=110/2;
 99//99;
 2/9=110/2;
 3/5=1,6=6,7=1,11=2,16=1,25=1,30=1,71=1,74=-5/1,2,3;
 4/5=5,16=3/1;
 5/5=2,8=3,13=1,32=2,38=5/2,8;
 7//1,2,3,16;
 1/14=-1,18=20,19=15/3(-5);
 2/9=110/2;
 6/7=2,8=2,9=2,10=2,19=2,28=1/1;
 99/9=1/99;
 Leave Link    1 at Sun Oct  3 21:05:36 2021, MaxMem=  536870912 cpu:       0.1
 (Enter /sw/target/amd/app/gaussian/Gaussian09RevA.02_gcc-4.9.2/g09/l101.exe)
 ---------------
 Cn1cncc1_conf_0
 ---------------
 Symbolic Z-matrix:
 Charge =  0 Multiplicity = 1
 C                     2.17772   0.0194   -0.01856 
 N                     0.73866  -0.0216   -0.00106 
 C                    -0.0999    1.05382   0.00727 
 N                    -1.3594    0.67776   0.00598 
 C                    -1.32703  -0.69322   0.00056 
 C                    -0.03006  -1.15064   0.00139 
 H                     2.51645   1.05824   0.00355 
 H                     2.5249   -0.46543  -0.93461 
 H                     2.55081  -0.51241   0.86033 
 H                     0.24907   2.07838   0.01213 
 H                    -2.23864  -1.27683  -0.00353 
 H                     0.38841  -2.1473    0.00002 
 
 NAtoms=     12 NQM=     12 NQMF=      0 NMic=      0 NMicF=      0 NTot=     12.
                    Isotopes and Nuclear Properties:
 (Nuclear quadrupole moments (NQMom) in fm**2, nuclear magnetic moments (NMagM)
  in nuclear magnetons)

  Atom         1           2           3           4           5           6           7           8           9          10
 IAtWgt=          12          14          12          14          12          12           1           1           1           1
 AtmWgt=  12.0000000  14.0030740  12.0000000  14.0030740  12.0000000  12.0000000   1.0078250   1.0078250   1.0078250   1.0078250
 NucSpn=           0           2           0           2           0           0           1           1           1           1
 AtZEff=   0.0000000   0.0000000   0.0000000   0.0000000   0.0000000   0.0000000   0.0000000   0.0000000   0.0000000   0.0000000
 NQMom=    0.0000000   2.0440000   0.0000000   2.0440000   0.0000000   0.0000000   0.0000000   0.0000000   0.0000000   0.0000000
 NMagM=    0.0000000   0.4037610   0.0000000   0.4037610   0.0000000   0.0000000   2.7928460   2.7928460   2.7928460   2.7928460

  Atom        11          12
 IAtWgt=           1           1
 AtmWgt=   1.0078250   1.0078250
 NucSpn=           1           1
 AtZEff=   0.0000000   0.0000000
 NQMom=    0.0000000   0.0000000
 NMagM=    2.7928460   2.7928460
 Leave Link  101 at Sun Oct  3 21:05:38 2021, MaxMem=  536870912 cpu:       0.2
 (Enter /sw/target/amd/app/gaussian/Gaussian09RevA.02_gcc-4.9.2/g09/l103.exe)

 GradGradGradGradGradGradGradGradGradGradGradGradGradGradGradGradGradGrad
 Berny optimization.
 Initialization pass.
                           ----------------------------
                           !    Initial Parameters    !
                           ! (Angstroms and Degrees)  !
 --------------------------                            --------------------------
 ! Name  Definition              Value          Derivative Info.                !
 --------------------------------------------------------------------------------
 ! R1    R(1,2)                  1.4398         estimate D2E/DX2                !
 ! R2    R(1,7)                  1.0929         estimate D2E/DX2                !
 ! R3    R(1,8)                  1.093          estimate D2E/DX2                !
 ! R4    R(1,9)                  1.0929         estimate D2E/DX2                !
 ! R5    R(2,3)                  1.3637         estimate D2E/DX2                !
 ! R6    R(2,6)                  1.3659         estimate D2E/DX2                !
 ! R7    R(3,4)                  1.3144         estimate D2E/DX2                !
 ! R8    R(3,10)                 1.0824         estimate D2E/DX2                !
 ! R9    R(4,5)                  1.3714         estimate D2E/DX2                !
 ! R10   R(5,6)                  1.3753         estimate D2E/DX2                !
 ! R11   R(5,11)                 1.0824         estimate D2E/DX2                !
 ! R12   R(6,12)                 1.081          estimate D2E/DX2                !
 ! A1    A(2,1,7)              109.6707         estimate D2E/DX2                !
 ! A2    A(2,1,8)              108.3625         estimate D2E/DX2                !
 ! A3    A(2,1,9)              108.5162         estimate D2E/DX2                !
 ! A4    A(7,1,8)              109.8852         estimate D2E/DX2                !
 ! A5    A(7,1,9)              109.9048         estimate D2E/DX2                !
 ! A6    A(8,1,9)              110.4683         estimate D2E/DX2                !
 ! A7    A(1,2,3)              126.3146         estimate D2E/DX2                !
 ! A8    A(1,2,6)              125.8802         estimate D2E/DX2                !
 ! A9    A(3,2,6)              107.804          estimate D2E/DX2                !
 ! A10   A(2,3,4)              111.3197         estimate D2E/DX2                !
 ! A11   A(2,3,10)             123.246          estimate D2E/DX2                !
 ! A12   A(4,3,10)             125.4341         estimate D2E/DX2                !
 ! A13   A(3,4,5)              105.2725         estimate D2E/DX2                !
 ! A14   A(4,5,6)              110.779          estimate D2E/DX2                !
 ! A15   A(4,5,11)             121.2751         estimate D2E/DX2                !
 ! A16   A(6,5,11)             127.9459         estimate D2E/DX2                !
 ! A17   A(2,6,5)              104.8227         estimate D2E/DX2                !
 ! A18   A(2,6,12)             122.9736         estimate D2E/DX2                !
 ! A19   A(5,6,12)             132.2033         estimate D2E/DX2                !
 ! D1    D(7,1,2,3)              1.5582         estimate D2E/DX2                !
 ! D2    D(7,1,2,6)           -178.8968         estimate D2E/DX2                !
 ! D3    D(8,1,2,3)           -118.3923         estimate D2E/DX2                !
 ! D4    D(8,1,2,6)             61.1527         estimate D2E/DX2                !
 ! D5    D(9,1,2,3)            121.6255         estimate D2E/DX2                !
 ! D6    D(9,1,2,6)            -58.8294         estimate D2E/DX2                !
 ! D7    D(1,2,3,4)            179.1956         estimate D2E/DX2                !
 ! D8    D(1,2,3,10)            -0.6855         estimate D2E/DX2                !
 ! D9    D(6,2,3,4)             -0.4172         estimate D2E/DX2                !
 ! D10   D(6,2,3,10)           179.7017         estimate D2E/DX2                !
 ! D11   D(1,2,6,5)           -179.1516         estimate D2E/DX2                !
 ! D12   D(1,2,6,12)             0.6323         estimate D2E/DX2                !
 ! D13   D(3,2,6,5)              0.4634         estimate D2E/DX2                !
 ! D14   D(3,2,6,12)          -179.7528         estimate D2E/DX2                !
 ! D15   D(2,3,4,5)              0.1782         estimate D2E/DX2                !
 ! D16   D(10,3,4,5)          -179.9438         estimate D2E/DX2                !
 ! D17   D(3,4,5,6)              0.1263         estimate D2E/DX2                !
 ! D18   D(3,4,5,11)          -179.881          estimate D2E/DX2                !
 ! D19   D(4,5,6,2)             -0.3706         estimate D2E/DX2                !
 ! D20   D(4,5,6,12)           179.8742         estimate D2E/DX2                !
 ! D21   D(11,5,6,2)           179.6373         estimate D2E/DX2                !
 ! D22   D(11,5,6,12)           -0.1178         estimate D2E/DX2                !
 --------------------------------------------------------------------------------
 Trust Radius=3.00D-01 FncErr=1.00D-07 GrdErr=1.00D-06
 Number of steps in this run=  63 maximum allowed number of steps= 100.
 GradGradGradGradGradGradGradGradGradGradGradGradGradGradGradGradGradGrad

 Leave Link  103 at Sun Oct  3 21:05:38 2021, MaxMem=  536870912 cpu:       0.0
 (Enter /sw/target/amd/app/gaussian/Gaussian09RevA.02_gcc-4.9.2/g09/l202.exe)
                          Input orientation:                          
 ---------------------------------------------------------------------
 Center     Atomic      Atomic             Coordinates (Angstroms)
 Number     Number       Type             X           Y           Z
 ---------------------------------------------------------------------
      1          6           0        2.177720    0.019401   -0.018560
      2          7           0        0.738659   -0.021602   -0.001056
      3          6           0       -0.099904    1.053822    0.007270
      4          7           0       -1.359397    0.677756    0.005978
      5          6           0       -1.327030   -0.693220    0.000560
      6          6           0       -0.030064   -1.150638    0.001391
      7          1           0        2.516448    1.058238    0.003552
      8          1           0        2.524896   -0.465430   -0.934611
      9          1           0        2.550811   -0.512413    0.860333
     10          1           0        0.249073    2.078383    0.012127
     11          1           0       -2.238643   -1.276826   -0.003527
     12          1           0        0.388413   -2.147297    0.000021
 ---------------------------------------------------------------------
                    Distance matrix (angstroms):
                    1          2          3          4          5
     1  C    0.000000
     2  N    1.439752   0.000000
     3  C    2.501653   1.363743   0.000000
     4  N    3.597948   2.211558   1.314438   0.000000
     5  C    3.576516   2.172128   2.134956   1.371369   0.000000
     6  C    2.498740   1.365892   2.205574   2.260569   1.375264
     7  H    1.092890   2.080051   2.616359   3.894476   4.223735
     8  H    1.093043   2.063771   3.175664   4.156839   3.970360
     9  H    1.092921   2.065620   3.194856   4.175662   3.976123
    10  H    2.821352   2.156341   1.082374   2.132831   3.188419
    11  H    4.602684   3.231087   3.163265   2.143259   1.082429
    12  H    2.810079   2.154356   3.238158   3.322018   2.248796
                    6          7          8          9         10
     6  C    0.000000
     7  H    3.371033   0.000000
     8  H    2.805963   1.789354   0.000000
     9  H    2.793928   1.789469   1.795746   0.000000
    10  H    3.241082   2.486315   3.542128   3.567868   0.000000
    11  H    2.212187   5.297497   4.921035   4.926404   4.176890
    12  H    1.080951   3.847597   2.875199   2.844108   4.227994
                   11         12
    11  H    0.000000
    12  H    2.767518   0.000000
 Stoichiometry    C4H6N2
 Framework group  C1[X(C4H6N2)]
 Deg. of freedom    30
 Full point group                 C1      NOp   1
 Largest Abelian subgroup         C1      NOp   1
 Largest concise Abelian subgroup C1      NOp   1
                         Standard orientation:                         
 ---------------------------------------------------------------------
 Center     Atomic      Atomic             Coordinates (Angstroms)
 Number     Number       Type             X           Y           Z
 ---------------------------------------------------------------------
      1          6           0       -2.042530   -0.024864    0.004923
      2          7           0       -0.602849   -0.013892   -0.004331
      3          6           0        0.196403    1.091093   -0.004493
      4          7           0        1.468615    0.760687    0.002980
      5          6           0        1.485700   -0.610575    0.004024
      6          6           0        0.206108   -1.114459   -0.005751
      7          1           0       -2.418384    1.001150   -0.015989
      8          1           0       -2.377209   -0.524883    0.917454
      9          1           0       -2.391171   -0.566917   -0.877746
     10          1           0       -0.189278    2.102414   -0.008253
     11          1           0        2.417737   -1.160940    0.011634
     12          1           0       -0.176141   -2.125559   -0.009859
 ---------------------------------------------------------------------
 Rotational constants (GHZ):      9.1417217      3.6750825      2.6662883
 Leave Link  202 at Sun Oct  3 21:05:38 2021, MaxMem=  536870912 cpu:       0.0
 (Enter /sw/target/amd/app/gaussian/Gaussian09RevA.02_gcc-4.9.2/g09/l301.exe)
 Standard basis: 6-31G(d) (6D, 7F)
 Ernie: Thresh=  0.10000D-02 Tol=  0.10000D-05 Strict=F.
 There are   102 symmetry adapted basis functions of A   symmetry.
 Integral buffers will be    131072 words long.
 Raffenetti 2 integral format.
 Two-electron integral symmetry is turned on.
   102 basis functions,   192 primitive gaussians,   102 cartesian basis functions
    22 alpha electrons       22 beta electrons
       nuclear repulsion energy       227.0280134509 Hartrees.
 IExCor=  402 DFT=T Ex+Corr=B3LYP ExCW=0 ScaHFX=  0.200000
 ScaDFX=  0.800000  0.720000  1.000000  0.810000 ScalE2=  1.000000  1.000000
 IRadAn=      0 IRanWt=     -1 IRanGd=            0 ICorTp=0
 NAtoms=   12 NActive=   12 NUniq=   12 SFac= 7.50D-01 NAtFMM=   80 NAOKFM=F Big=F
 Leave Link  301 at Sun Oct  3 21:05:39 2021, MaxMem=  536870912 cpu:       0.1
 (Enter /sw/target/amd/app/gaussian/Gaussian09RevA.02_gcc-4.9.2/g09/l302.exe)
 NPDir=0 NMtPBC=     1 NCelOv=     1 NCel=       1 NClECP=     1 NCelD=      1
         NCelK=      1 NCelE2=     1 NClLst=     1 CellRange=     0.0.
 One-electron integrals computed using PRISM.
 NBasis=   102 RedAO= T  NBF=   102
 NBsUse=   102 1.00D-06 NBFU=   102
 Precomputing XC quadrature grid using
 IXCGrd= 2 IRadAn=           0 IRanWt=          -1 IRanGd=           0 AccXCQ= 1.00D-10.
 NRdTot=     744 NPtTot=       94218 NUsed=       99595 NTot=       99627
 NSgBfM=   102   102   102   102   102 NAtAll=    12    12.
 Leave Link  302 at Sun Oct  3 21:05:41 2021, MaxMem=  536870912 cpu:       0.6
 (Enter /sw/target/amd/app/gaussian/Gaussian09RevA.02_gcc-4.9.2/g09/l303.exe)
 DipDrv:  MaxL=1.
 Leave Link  303 at Sun Oct  3 21:05:42 2021, MaxMem=  536870912 cpu:       0.1
 (Enter /sw/target/amd/app/gaussian/Gaussian09RevA.02_gcc-4.9.2/g09/l401.exe)
 Harris functional with IExCor=  402 diagonalized for initial guess.
 ExpMin= 1.61D-01 ExpMax= 4.17D+03 ExpMxC= 6.27D+02 IAcc=1 IRadAn=         1 AccDes= 0.00D+00
 HarFok:  IExCor=  402 AccDes= 0.00D+00 IRadAn=         1 IDoV= 1
 ScaDFX=  1.000000  1.000000  1.000000  1.000000
 FoFCou: FMM=F IPFlag=           0 FMFlag=      100000 FMFlg1=           0
         NFxFlg=           0 DoJE=T BraDBF=F KetDBF=T FulRan=T
         Omega=  0.000000  0.000000  1.000000  0.000000  0.000000 ICntrl=     500 IOpCl=  0
         NMat0=    1 NMatS0=    1 NMatT0=    0 NMatD0=    1 NMtDS0=    0 NMtDT0=    0
         I1Cent=           4 NGrid=           0.
 Petite list used in FoFCou.
 Harris En= -265.561974932597    
 Initial guess orbital symmetries:
       Occupied  (A) (A) (A) (A) (A) (A) (A) (A) (A) (A) (A) (A)
                 (A) (A) (A) (A) (A) (A) (A) (A) (A) (A)
       Virtual   (A) (A) (A) (A) (A) (A) (A) (A) (A) (A) (A) (A)
                 (A) (A) (A) (A) (A) (A) (A) (A) (A) (A) (A) (A)
                 (A) (A) (A) (A) (A) (A) (A) (A) (A) (A) (A) (A)
                 (A) (A) (A) (A) (A) (A) (A) (A) (A) (A) (A) (A)
                 (A) (A) (A) (A) (A) (A) (A) (A) (A) (A) (A) (A)
                 (A) (A) (A) (A) (A) (A) (A) (A) (A) (A) (A) (A)
                 (A) (A) (A) (A) (A) (A) (A) (A)
 The electronic state of the initial guess is 1-A.
 Leave Link  401 at Sun Oct  3 21:05:50 2021, MaxMem=  536870912 cpu:       2.3
 (Enter /sw/target/amd/app/gaussian/Gaussian09RevA.02_gcc-4.9.2/g09/l502.exe)
 Closed shell SCF:
 Requested convergence on RMS density matrix=1.00D-08 within  64 cycles.
 Requested convergence on MAX density matrix=1.00D-06.
 Requested convergence on             energy=1.00D-06.
 No special actions if energy rises.
 Using DIIS extrapolation, IDIIS=  1040.
 Integral symmetry usage will be decided dynamically.
        99474 words used for storage of precomputed grid.
 Keep R1 ints in memory in canonical form, NReq=14859221.
 IEnd=      137610 IEndB=      137610 NGot=   536870912 MDV=   522948374
 LenX=   522948374 LenY=   522937529
 Symmetry not used in FoFDir.
 MinBra= 0 MaxBra= 2 Meth= 1.
 IRaf=       0 NMat=   1 IRICut=       1 DoRegI=T DoRafI=F ISym2E= 0 JSym2E=0.
 Integral accuracy reduced to 1.0D-05 until final iterations.

 Cycle   1  Pass 0  IDiag  1:
 E= -265.377924245849    
 DIIS: error= 3.24D-02 at cycle   1 NSaved=   1.
 NSaved= 1 IEnMin= 1 EnMin= -265.377924245849     IErMin= 1 ErrMin= 3.24D-02
 ErrMax= 3.24D-02 EMaxC= 1.00D-01 BMatC= 1.35D-01 BMatP= 1.35D-01
 IDIUse=3 WtCom= 6.76D-01 WtEn= 3.24D-01
 Coeff-Com:  0.100D+01
 Coeff-En:   0.100D+01
 Coeff:      0.100D+01
 Gap=     0.232 Goal=   None    Shift=    0.000
 GapD=    0.232 DampG=1.000 DampE=0.500 DampFc=0.5000 IDamp=-1.
 Damping current iteration by 5.00D-01
 RMSDP=9.25D-03 MaxDP=1.54D-01              OVMax= 2.46D-01

 Cycle   2  Pass 0  IDiag  1:
 E= -265.437802442520     Delta-E=       -0.059878196671 Rises=F Damp=T
 DIIS: error= 8.90D-03 at cycle   2 NSaved=   2.
 NSaved= 2 IEnMin= 2 EnMin= -265.437802442520     IErMin= 2 ErrMin= 8.90D-03
 ErrMax= 8.90D-03 EMaxC= 1.00D-01 BMatC= 1.35D-02 BMatP= 1.35D-01
 IDIUse=3 WtCom= 9.11D-01 WtEn= 8.90D-02
 Coeff-Com:  0.117D+00 0.883D+00
 Coeff-En:   0.173D+00 0.827D+00
 Coeff:      0.122D+00 0.878D+00
 Gap=     0.362 Goal=   None    Shift=    0.000
 RMSDP=2.38D-03 MaxDP=4.22D-02 DE=-5.99D-02 OVMax= 1.81D-01

 Cycle   3  Pass 0  IDiag  1:
 E= -265.509741897208     Delta-E=       -0.071939454688 Rises=F Damp=F
 DIIS: error= 1.54D-02 at cycle   3 NSaved=   3.
 NSaved= 3 IEnMin= 3 EnMin= -265.509741897208     IErMin= 2 ErrMin= 8.90D-03
 ErrMax= 1.54D-02 EMaxC= 1.00D-01 BMatC= 1.75D-02 BMatP= 1.35D-02
 IDIUse=2 WtCom= 0.00D+00 WtEn= 1.00D+00
 Coeff-En:   0.000D+00 0.000D+00 0.100D+01
 Coeff:      0.000D+00 0.000D+00 0.100D+01
 Gap=     0.243 Goal=   None    Shift=    0.000
 RMSDP=3.58D-03 MaxDP=7.53D-02 DE=-7.19D-02 OVMax= 1.57D-01

 Cycle   4  Pass 0  IDiag  1:
 E= -265.453751438206     Delta-E=        0.055990459002 Rises=F Damp=F
 DIIS: error= 2.71D-02 at cycle   4 NSaved=   4.
 NSaved= 4 IEnMin= 3 EnMin= -265.509741897208     IErMin= 2 ErrMin= 8.90D-03
 ErrMax= 2.71D-02 EMaxC= 1.00D-01 BMatC= 7.77D-02 BMatP= 1.35D-02
 IDIUse=2 WtCom= 0.00D+00 WtEn= 1.00D+00
 Coeff-En:   0.000D+00 0.000D+00 0.765D+00 0.235D+00
 Coeff:      0.000D+00 0.000D+00 0.765D+00 0.235D+00
 Gap=     0.273 Goal=   None    Shift=    0.000
 RMSDP=1.91D-03 MaxDP=3.77D-02 DE= 5.60D-02 OVMax= 8.28D-02

 Cycle   5  Pass 0  IDiag  1:
 E= -265.521508886601     Delta-E=       -0.067757448395 Rises=F Damp=F
 DIIS: error= 7.48D-03 at cycle   5 NSaved=   5.
 NSaved= 5 IEnMin= 5 EnMin= -265.521508886601     IErMin= 5 ErrMin= 7.48D-03
 ErrMax= 7.48D-03 EMaxC= 1.00D-01 BMatC= 4.93D-03 BMatP= 1.35D-02
 IDIUse=3 WtCom= 9.25D-01 WtEn= 7.48D-02
 Coeff-Com: -0.206D-02 0.191D-01 0.284D+00-0.653D-01 0.765D+00
 Coeff-En:   0.000D+00 0.000D+00 0.268D+00 0.000D+00 0.732D+00
 Coeff:     -0.190D-02 0.177D-01 0.282D+00-0.604D-01 0.762D+00
 Gap=     0.254 Goal=   None    Shift=    0.000
 RMSDP=6.30D-04 MaxDP=1.36D-02 DE=-6.78D-02 OVMax= 2.60D-02

 Cycle   6  Pass 0  IDiag  1:
 E= -265.526085734917     Delta-E=       -0.004576848316 Rises=F Damp=F
 DIIS: error= 3.87D-04 at cycle   6 NSaved=   6.
 NSaved= 6 IEnMin= 6 EnMin= -265.526085734917     IErMin= 6 ErrMin= 3.87D-04
 ErrMax= 3.87D-04 EMaxC= 1.00D-01 BMatC= 1.94D-05 BMatP= 4.93D-03
 IDIUse=3 WtCom= 9.96D-01 WtEn= 3.87D-03
 Coeff-Com: -0.436D-02 0.104D-01 0.913D-01-0.606D-01 0.410D+00 0.553D+00
 Coeff-En:   0.000D+00 0.000D+00 0.000D+00 0.000D+00 0.000D+00 0.100D+01
 Coeff:     -0.435D-02 0.104D-01 0.909D-01-0.604D-01 0.408D+00 0.555D+00
 Gap=     0.255 Goal=   None    Shift=    0.000
 RMSDP=3.57D-05 MaxDP=1.04D-03 DE=-4.58D-03 OVMax= 1.53D-03

 Cycle   7  Pass 0  IDiag  1:
 E= -265.526102163071     Delta-E=       -0.000016428154 Rises=F Damp=F
 DIIS: error= 5.19D-05 at cycle   7 NSaved=   7.
 NSaved= 7 IEnMin= 7 EnMin= -265.526102163071     IErMin= 7 ErrMin= 5.19D-05
 ErrMax= 5.19D-05 EMaxC= 1.00D-01 BMatC= 2.38D-07 BMatP= 1.94D-05
 IDIUse=1 WtCom= 1.00D+00 WtEn= 0.00D+00
 Coeff-Com: -0.108D-02 0.203D-02 0.261D-01-0.173D-01 0.118D+00 0.202D+00
 Coeff-Com:  0.671D+00
 Coeff:     -0.108D-02 0.203D-02 0.261D-01-0.173D-01 0.118D+00 0.202D+00
 Coeff:      0.671D+00
 Gap=     0.255 Goal=   None    Shift=    0.000
 RMSDP=4.87D-06 MaxDP=1.09D-04 DE=-1.64D-05 OVMax= 2.27D-04

 Initial convergence to 1.0D-05 achieved.  Increase integral accuracy.
 Cycle   8  Pass 1  IDiag  1:
 E= -265.526106849077     Delta-E=       -0.000004686005 Rises=F Damp=F
 DIIS: error= 2.14D-05 at cycle   1 NSaved=   1.
 NSaved= 1 IEnMin= 1 EnMin= -265.526106849077     IErMin= 1 ErrMin= 2.14D-05
 ErrMax= 2.14D-05 EMaxC= 1.00D-01 BMatC= 6.68D-08 BMatP= 6.68D-08
 IDIUse=1 WtCom= 1.00D+00 WtEn= 0.00D+00
 Coeff-Com:  0.100D+01
 Coeff:      0.100D+01
 Gap=     0.255 Goal=   None    Shift=    0.000
 RMSDP=4.87D-06 MaxDP=1.09D-04 DE=-4.69D-06 OVMax= 2.41D-04

 Cycle   9  Pass 1  IDiag  1:
 E= -265.526106796948     Delta-E=        0.000000052128 Rises=F Damp=F
 DIIS: error= 4.01D-05 at cycle   2 NSaved=   2.
 NSaved= 2 IEnMin= 1 EnMin= -265.526106849077     IErMin= 1 ErrMin= 2.14D-05
 ErrMax= 4.01D-05 EMaxC= 1.00D-01 BMatC= 1.21D-07 BMatP= 6.68D-08
 IDIUse=1 WtCom= 1.00D+00 WtEn= 0.00D+00
 Coeff-Com:  0.581D+00 0.419D+00
 Coeff:      0.581D+00 0.419D+00
 Gap=     0.255 Goal=   None    Shift=    0.000
 RMSDP=3.70D-06 MaxDP=8.79D-05 DE= 5.21D-08 OVMax= 1.93D-04

 Cycle  10  Pass 1  IDiag  1:
 E= -265.526106914837     Delta-E=       -0.000000117888 Rises=F Damp=F
 DIIS: error= 7.34D-06 at cycle   3 NSaved=   3.
 NSaved= 3 IEnMin= 3 EnMin= -265.526106914837     IErMin= 3 ErrMin= 7.34D-06
 ErrMax= 7.34D-06 EMaxC= 1.00D-01 BMatC= 4.85D-09 BMatP= 6.68D-08
 IDIUse=1 WtCom= 1.00D+00 WtEn= 0.00D+00
 Coeff-Com:  0.168D+00 0.196D+00 0.636D+00
 Coeff:      0.168D+00 0.196D+00 0.636D+00
 Gap=     0.255 Goal=   None    Shift=    0.000
 RMSDP=9.70D-07 MaxDP=2.18D-05 DE=-1.18D-07 OVMax= 3.94D-05

 Cycle  11  Pass 1  IDiag  1:
 E= -265.526106917409     Delta-E=       -0.000000002573 Rises=F Damp=F
 DIIS: error= 5.43D-06 at cycle   4 NSaved=   4.
 NSaved= 4 IEnMin= 4 EnMin= -265.526106917409     IErMin= 4 ErrMin= 5.43D-06
 ErrMax= 5.43D-06 EMaxC= 1.00D-01 BMatC= 2.54D-09 BMatP= 4.85D-09
 IDIUse=1 WtCom= 1.00D+00 WtEn= 0.00D+00
 Coeff-Com: -0.192D-01 0.459D-01 0.462D+00 0.512D+00
 Coeff:     -0.192D-01 0.459D-01 0.462D+00 0.512D+00
 Gap=     0.255 Goal=   None    Shift=    0.000
 RMSDP=4.15D-07 MaxDP=1.15D-05 DE=-2.57D-09 OVMax= 1.87D-05

 Cycle  12  Pass 1  IDiag  1:
 E= -265.526106919507     Delta-E=       -0.000000002097 Rises=F Damp=F
 DIIS: error= 5.35D-07 at cycle   5 NSaved=   5.
 NSaved= 5 IEnMin= 5 EnMin= -265.526106919507     IErMin= 5 ErrMin= 5.35D-07
 ErrMax= 5.35D-07 EMaxC= 1.00D-01 BMatC= 3.55D-11 BMatP= 2.54D-09
 IDIUse=1 WtCom= 1.00D+00 WtEn= 0.00D+00
 Coeff-Com: -0.127D-01 0.233D-01 0.247D+00 0.286D+00 0.457D+00
 Coeff:     -0.127D-01 0.233D-01 0.247D+00 0.286D+00 0.457D+00
 Gap=     0.255 Goal=   None    Shift=    0.000
 RMSDP=5.68D-08 MaxDP=1.16D-06 DE=-2.10D-09 OVMax= 1.85D-06

 Cycle  13  Pass 1  IDiag  1:
 E= -265.526106919542     Delta-E=       -0.000000000035 Rises=F Damp=F
 DIIS: error= 7.82D-08 at cycle   6 NSaved=   6.
 NSaved= 6 IEnMin= 6 EnMin= -265.526106919542     IErMin= 6 ErrMin= 7.82D-08
 ErrMax= 7.82D-08 EMaxC= 1.00D-01 BMatC= 6.42D-13 BMatP= 3.55D-11
 IDIUse=1 WtCom= 1.00D+00 WtEn= 0.00D+00
 Coeff-Com: -0.239D-02 0.380D-02 0.378D-01 0.467D-01 0.135D+00 0.779D+00
 Coeff:     -0.239D-02 0.380D-02 0.378D-01 0.467D-01 0.135D+00 0.779D+00
 Gap=     0.255 Goal=   None    Shift=    0.000
 RMSDP=1.26D-08 MaxDP=3.70D-07 DE=-3.50D-11 OVMax= 7.15D-07

 Cycle  14  Pass 1  IDiag  1:
 E= -265.526106919543     Delta-E=       -0.000000000001 Rises=F Damp=F
 DIIS: error= 4.94D-08 at cycle   7 NSaved=   7.
 NSaved= 7 IEnMin= 7 EnMin= -265.526106919543     IErMin= 7 ErrMin= 4.94D-08
 ErrMax= 4.94D-08 EMaxC= 1.00D-01 BMatC= 3.61D-13 BMatP= 6.42D-13
 IDIUse=1 WtCom= 1.00D+00 WtEn= 0.00D+00
 Coeff-Com: -0.567D-04-0.352D-03-0.559D-02-0.485D-02 0.328D-01 0.489D+00
 Coeff-Com:  0.489D+00
 Coeff:     -0.567D-04-0.352D-03-0.559D-02-0.485D-02 0.328D-01 0.489D+00
 Coeff:      0.489D+00
 Gap=     0.255 Goal=   None    Shift=    0.000
 RMSDP=5.56D-09 MaxDP=1.70D-07 DE=-1.42D-12 OVMax= 2.34D-07

 SCF Done:  E(RB3LYP) =  -265.526106920     A.U. after   14 cycles
             Convg  =    0.5564D-08             -V/T =  2.0093
 KE= 2.630880900115D+02 PE=-1.070425630335D+03 EE= 3.147834199533D+02
 Leave Link  502 at Sun Oct  3 21:07:32 2021, MaxMem=  536870912 cpu:      29.7
 (Enter /sw/target/amd/app/gaussian/Gaussian09RevA.02_gcc-4.9.2/g09/l508.exe)
 QCSCF skips out because SCF is already converged.
 Leave Link  508 at Sun Oct  3 21:07:33 2021, MaxMem=  536870912 cpu:       0.0
 (Enter /sw/target/amd/app/gaussian/Gaussian09RevA.02_gcc-4.9.2/g09/l601.exe)
 Copying SCF densities to generalized density rwf, IOpCl= 0 IROHF=0.

 **********************************************************************

            Population analysis using the SCF density.

 **********************************************************************

 Orbital symmetries:
       Occupied  (A) (A) (A) (A) (A) (A) (A) (A) (A) (A) (A) (A)
                 (A) (A) (A) (A) (A) (A) (A) (A) (A) (A)
       Virtual   (A) (A) (A) (A) (A) (A) (A) (A) (A) (A) (A) (A)
                 (A) (A) (A) (A) (A) (A) (A) (A) (A) (A) (A) (A)
                 (A) (A) (A) (A) (A) (A) (A) (A) (A) (A) (A) (A)
                 (A) (A) (A) (A) (A) (A) (A) (A) (A) (A) (A) (A)
                 (A) (A) (A) (A) (A) (A) (A) (A) (A) (A) (A) (A)
                 (A) (A) (A) (A) (A) (A) (A) (A) (A) (A) (A) (A)
                 (A) (A) (A) (A) (A) (A) (A) (A)
 The electronic state is 1-A.
 Alpha  occ. eigenvalues --  -14.39038 -14.30011 -10.23916 -10.22806 -10.20453
 Alpha  occ. eigenvalues --  -10.18839  -1.01514  -0.88064  -0.74796  -0.71325
 Alpha  occ. eigenvalues --   -0.59142  -0.57146  -0.53047  -0.47962  -0.45300
 Alpha  occ. eigenvalues --   -0.42194  -0.41645  -0.39399  -0.39352  -0.26227
 Alpha  occ. eigenvalues --   -0.25599  -0.22054
 Alpha virt. eigenvalues --    0.03409   0.07732   0.08920   0.12282   0.13041
 Alpha virt. eigenvalues --    0.15872   0.16035   0.16133   0.18096   0.23928
 Alpha virt. eigenvalues --    0.26671   0.33980   0.35156   0.45241   0.48021
 Alpha virt. eigenvalues --    0.48881   0.51416   0.56964   0.57469   0.61372
 Alpha virt. eigenvalues --    0.63547   0.64626   0.66138   0.67766   0.71974
 Alpha virt. eigenvalues --    0.76000   0.81128   0.81379   0.82453   0.84703
 Alpha virt. eigenvalues --    0.85341   0.86466   0.87825   0.89870   0.92161
 Alpha virt. eigenvalues --    0.95766   1.00908   1.05377   1.15701   1.19839
 Alpha virt. eigenvalues --    1.29773   1.30121   1.37093   1.37583   1.38796
 Alpha virt. eigenvalues --    1.51537   1.51973   1.56057   1.56914   1.79117
 Alpha virt. eigenvalues --    1.87193   1.88232   1.94380   1.99047   2.03971
 Alpha virt. eigenvalues --    2.08513   2.10614   2.13392   2.22672   2.25609
 Alpha virt. eigenvalues --    2.27132   2.28356   2.32504   2.36599   2.41259
 Alpha virt. eigenvalues --    2.48337   2.59722   2.61557   2.66351   2.72763
 Alpha virt. eigenvalues --    2.81102   3.02290   3.03089   3.12103   3.92175
 Alpha virt. eigenvalues --    4.01868   4.13448   4.23284   4.29900   4.44751
          Condensed to atoms (all electrons):
              1          2          3          4          5          6
     1  C    4.988554   0.271314  -0.034096   0.006727   0.007352  -0.047692
     2  N    0.271314   6.652096   0.395269  -0.078540  -0.061560   0.395177
     3  C   -0.034096   0.395269   4.757209   0.526518  -0.120067  -0.104378
     4  N    0.006727  -0.078540   0.526518   6.658994   0.460897  -0.064601
     5  C    0.007352  -0.061560  -0.120067   0.460897   4.832870   0.563589
     6  C   -0.047692   0.395177  -0.104378  -0.064601   0.563589   4.942337
     7  H    0.378685  -0.032459  -0.001254   0.000135  -0.000152   0.003486
     8  H    0.376212  -0.042404   0.000453  -0.000156   0.000065  -0.000482
     9  H    0.375812  -0.041429   0.000674  -0.000172   0.000044  -0.000598
    10  H   -0.000316  -0.057667   0.377725  -0.037942   0.006292   0.004782
    11  H   -0.000110   0.003642   0.007969  -0.043418   0.380643  -0.057625
    12  H    0.000651  -0.047821   0.005369   0.004663  -0.032275   0.361262
              7          8          9         10         11         12
     1  C    0.378685   0.376212   0.375812  -0.000316  -0.000110   0.000651
     2  N   -0.032459  -0.042404  -0.041429  -0.057667   0.003642  -0.047821
     3  C   -0.001254   0.000453   0.000674   0.377725   0.007969   0.005369
     4  N    0.000135  -0.000156  -0.000172  -0.037942  -0.043418   0.004663
     5  C   -0.000152   0.000065   0.000044   0.006292   0.380643  -0.032275
     6  C    0.003486  -0.000482  -0.000598   0.004782  -0.057625   0.361262
     7  H    0.525202  -0.026605  -0.026139   0.004465   0.000005   0.000008
     8  H   -0.026605   0.552604  -0.037117  -0.000084  -0.000003   0.000896
     9  H   -0.026139  -0.037117   0.551878  -0.000084  -0.000003   0.001014
    10  H    0.004465  -0.000084  -0.000084   0.552742  -0.000171  -0.000109
    11  H    0.000005  -0.000003  -0.000003  -0.000171   0.577920   0.000221
    12  H    0.000008   0.000896   0.001014  -0.000109   0.000221   0.558616
 Mulliken atomic charges:
              1
     1  C   -0.323092
     2  N   -0.355619
     3  C    0.188608
     4  N   -0.433106
     5  C   -0.037698
     6  C    0.004743
     7  H    0.174621
     8  H    0.176622
     9  H    0.176120
    10  H    0.150367
    11  H    0.130929
    12  H    0.147505
 Sum of Mulliken atomic charges =  -0.00000
 Mulliken charges with hydrogens summed into heavy atoms:
              1
     1  C    0.204271
     2  N   -0.355619
     3  C    0.338975
     4  N   -0.433106
     5  C    0.093231
     6  C    0.152248
 Sum of Mulliken charges with hydrogens summed into heavy atoms =  -0.00000
 Electronic spatial extent (au):  <R**2>=            484.5871
 Charge=             -0.0000 electrons
 Dipole moment (field-independent basis, Debye):
    X=             -3.8216    Y=             -1.1622    Z=             -0.0013  Tot=              3.9944
 Quadrupole moment (field-independent basis, Debye-Ang):
   XX=            -34.9248   YY=            -32.6383   ZZ=            -37.0458
   XY=             -3.7980   XZ=              0.0090   YZ=             -0.0134
 Traceless Quadrupole moment (field-independent basis, Debye-Ang):
   XX=             -0.0552   YY=              2.2313   ZZ=             -2.1762
   XY=             -3.7980   XZ=              0.0090   YZ=             -0.0134
 Octapole moment (field-independent basis, Debye-Ang**2):
  XXX=            -13.3153  YYY=              0.2368  ZZZ=              0.0672  XYY=             -5.7188
  XXY=             -8.0868  XXZ=              0.0153  XZZ=             -3.0783  YZZ=              0.2473
  YYZ=             -0.0989  XYZ=             -0.0465
 Hexadecapole moment (field-independent basis, Debye-Ang**3):
 XXXX=           -405.4741 YYYY=           -169.3718 ZZZZ=            -42.5579 XXXY=            -20.8195
 XXXZ=              0.2294 YYYX=             -5.9340 YYYZ=             -0.0051 ZZZX=             -0.1210
 ZZZY=             -0.0233 XXYY=           -102.5303 XXZZ=            -76.3374 YYZZ=            -41.5842
 XXYZ=             -0.0567 YYXZ=              0.1260 ZZXY=              2.0729
 N-N= 2.270280134509D+02 E-N=-1.070425630051D+03  KE= 2.630880900115D+02
 No NMR shielding tensors so no spin-rotation constants.
 Leave Link  601 at Sun Oct  3 21:07:34 2021, MaxMem=  536870912 cpu:       0.5
 (Enter /sw/target/amd/app/gaussian/Gaussian09RevA.02_gcc-4.9.2/g09/l701.exe)
 Compute integral first derivatives.
 ... and contract with generalized density number  0.
 Leave Link  701 at Sun Oct  3 21:07:35 2021, MaxMem=  536870912 cpu:       0.5
 (Enter /sw/target/amd/app/gaussian/Gaussian09RevA.02_gcc-4.9.2/g09/l702.exe)
 L702 exits ... SP integral derivatives will be done elsewhere.
 Leave Link  702 at Sun Oct  3 21:07:36 2021, MaxMem=  536870912 cpu:       0.1
 (Enter /sw/target/amd/app/gaussian/Gaussian09RevA.02_gcc-4.9.2/g09/l703.exe)
 Compute integral first derivatives, UseDBF=F ICtDFT=           0.
 Integral derivatives from FoFDir, PRISM(SPDF).
 Calling FoFJK, ICntrl=      2127 FMM=F ISym2X=0 I1Cent= 0 IOpClX= 0 NMat=1 NMatS=1 NMatT=0.
 FoFCou: FMM=F IPFlag=           0 FMFlag=      100000 FMFlg1=         800
         NFxFlg=           0 DoJE=F BraDBF=F KetDBF=F FulRan=T
         Omega=  0.000000  0.000000  1.000000  0.000000  0.000000 ICntrl=    2127 IOpCl=  0
         NMat0=    1 NMatS0=    1 NMatT0=    0 NMatD0=    1 NMtDS0=    0 NMtDT0=    0
         I1Cent=           0 NGrid=           0.
 Symmetry not used in FoFCou.
 Leave Link  703 at Sun Oct  3 21:08:07 2021, MaxMem=  536870912 cpu:      11.0
 (Enter /sw/target/amd/app/gaussian/Gaussian09RevA.02_gcc-4.9.2/g09/l716.exe)
 Dipole        =-1.50353633D+00-4.57229021D-01-5.20371439D-04
 ***** Axes restored to original set *****
 -------------------------------------------------------------------
 Center     Atomic                   Forces (Hartrees/Bohr)
 Number     Number              X              Y              Z
 -------------------------------------------------------------------
      1        6           0.001284753   -0.003189043   -0.000211048
      2        7           0.008141173    0.011191973    0.001338367
      3        6          -0.005202428   -0.003997034   -0.000674855
      4        7          -0.006618919    0.002846106    0.000194406
      5        6          -0.003023532   -0.002862568    0.000351491
      6        6          -0.010806769   -0.003857137   -0.000856064
      7        1           0.000399767   -0.001177475    0.000016200
      8        1           0.006309750    0.000307480    0.000589895
      9        1           0.005967934    0.000366428   -0.000673249
     10        1           0.002209663   -0.000931371   -0.000126079
     11        1           0.000139713    0.000067042    0.000213996
     12        1           0.001198894    0.001235599   -0.000163060
 -------------------------------------------------------------------
 Cartesian Forces:  Max     0.011191973 RMS     0.003863392
 Leave Link  716 at Sun Oct  3 21:08:07 2021, MaxMem=  536870912 cpu:       0.1
 (Enter /sw/target/amd/app/gaussian/Gaussian09RevA.02_gcc-4.9.2/g09/l103.exe)

 GradGradGradGradGradGradGradGradGradGradGradGradGradGradGradGradGradGrad
 Berny optimization.
 Internal  Forces:  Max     0.013853227 RMS     0.003799487
 Search for a local minimum.
 Step number   1 out of a maximum of   63
 All quantities printed in internal units (Hartrees-Bohrs-Radians)
 RMS Force = .37995D-02 SwitMx=.10000D-02 MixMth= 1
 Mixed Optimization -- RFO/linear search
 Second derivative matrix not updated -- first step.
     Eigenvalues ---    0.01166   0.01711   0.02205   0.02244   0.02331
     Eigenvalues ---    0.02361   0.02451   0.07819   0.07932   0.16000
     Eigenvalues ---    0.16000   0.16000   0.16000   0.16000   0.16000
     Eigenvalues ---    0.22685   0.23421   0.24999   0.34463   0.34477
     Eigenvalues ---    0.34481   0.35702   0.35709   0.35880   0.39620
     Eigenvalues ---    0.44130   0.46837   0.51094   0.51492   0.60780
     Eigenvalues --- 1000.000001000.000001000.000001000.000001000.00000
     Eigenvalues --- 1000.000001000.000001000.000001000.000001000.00000
     Eigenvalues --- 1000.000001000.000001000.000001000.000001000.00000
     Eigenvalues --- 1000.000001000.000001000.000001000.000001000.00000
     Eigenvalues --- 1000.000001000.000001000.00000
 RFO step:  Lambda=-2.97039118D-03 EMin= 1.16594095D-02
 Linear search not attempted -- first point.
 Iteration  1 RMS(Cart)=  0.03246350 RMS(Int)=  0.00064311
 Iteration  2 RMS(Cart)=  0.00049373 RMS(Int)=  0.00033442
 Iteration  3 RMS(Cart)=  0.00000022 RMS(Int)=  0.00033442
 Variable       Old X    -DE/DX   Delta X   Delta X   Delta X     New X
                                 (Linear)    (Quad)   (Total)
    R1        2.72074   0.01385   0.00000   0.03471   0.03471   2.75544
    R2        2.06526  -0.00099   0.00000  -0.00285  -0.00285   2.06241
    R3        2.06555   0.00137   0.00000   0.00395   0.00395   2.06950
    R4        2.06532   0.00132   0.00000   0.00379   0.00379   2.06911
    R5        2.57710   0.00309   0.00000   0.00622   0.00628   2.58339
    R6        2.58116   0.01058   0.00000   0.02070   0.02072   2.60188
    R7        2.48393   0.00566   0.00000   0.00877   0.00879   2.49272
    R8        2.04539  -0.00017   0.00000  -0.00048  -0.00048   2.04492
    R9        2.59151   0.00130   0.00000   0.00209   0.00204   2.59355
   R10        2.59887   0.00245   0.00000   0.00475   0.00470   2.60357
   R11        2.04549  -0.00015   0.00000  -0.00043  -0.00043   2.04507
   R12        2.04270  -0.00067   0.00000  -0.00186  -0.00186   2.04084
    A1        1.91412  -0.00198   0.00000  -0.01548  -0.01533   1.89879
    A2        1.89128   0.00807   0.00000   0.05147   0.05068   1.94196
    A3        1.89397   0.00745   0.00000   0.04709   0.04630   1.94026
    A4        1.91786  -0.00365   0.00000  -0.02527  -0.02513   1.89273
    A5        1.91820  -0.00357   0.00000  -0.02586  -0.02571   1.89249
    A6        1.92804  -0.00603   0.00000  -0.03003  -0.03163   1.89641
    A7        2.20461   0.00442   0.00000   0.01719   0.01716   2.22176
    A8        2.19702   0.00404   0.00000   0.01568   0.01565   2.21267
    A9        1.88153  -0.00847   0.00000  -0.03291  -0.03287   1.84866
   A10        1.94290   0.00604   0.00000   0.02656   0.02658   1.96948
   A11        2.15105  -0.00546   0.00000  -0.02827  -0.02830   2.12275
   A12        2.18924  -0.00057   0.00000   0.00173   0.00169   2.19093
   A13        1.83735  -0.00160   0.00000  -0.00920  -0.00928   1.82807
   A14        1.93346  -0.00067   0.00000  -0.00504  -0.00516   1.92830
   A15        2.11665   0.00036   0.00000   0.00266   0.00272   2.11937
   A16        2.23308   0.00031   0.00000   0.00238   0.00244   2.23551
   A17        1.82950   0.00470   0.00000   0.02077   0.02069   1.85019
   A18        2.14629  -0.00397   0.00000  -0.02031  -0.02030   2.12599
   A19        2.30738  -0.00073   0.00000  -0.00042  -0.00041   2.30697
    D1        0.02720   0.00019   0.00000   0.00500   0.00503   0.03222
    D2       -3.12234  -0.00001   0.00000  -0.00305  -0.00306  -3.12540
    D3       -2.06633   0.00091   0.00000   0.01373   0.01443  -2.05190
    D4        1.06732   0.00071   0.00000   0.00568   0.00634   1.07366
    D5        2.12277  -0.00081   0.00000  -0.00708  -0.00775   2.11502
    D6       -1.02677  -0.00100   0.00000  -0.01513  -0.01584  -1.04261
    D7        3.12755   0.00032   0.00000   0.01147   0.01147   3.13903
    D8       -0.01196   0.00007   0.00000   0.00185   0.00189  -0.01007
    D9       -0.00728   0.00045   0.00000   0.01817   0.01807   0.01079
   D10        3.13639   0.00020   0.00000   0.00855   0.00849  -3.13831
   D11       -3.12678  -0.00037   0.00000  -0.01329  -0.01328  -3.14007
   D12        0.01104  -0.00007   0.00000  -0.00151  -0.00155   0.00949
   D13        0.00809  -0.00049   0.00000  -0.01995  -0.01982  -0.01174
   D14       -3.13728  -0.00019   0.00000  -0.00816  -0.00809   3.13782
   D15        0.00311  -0.00017   0.00000  -0.00792  -0.00808  -0.00497
   D16       -3.14061   0.00008   0.00000   0.00192   0.00190  -3.13871
   D17        0.00221  -0.00012   0.00000  -0.00510  -0.00510  -0.00289
   D18       -3.13952  -0.00007   0.00000  -0.00191  -0.00184  -3.14136
   D19       -0.00647   0.00036   0.00000   0.01564   0.01581   0.00934
   D20        3.13940   0.00003   0.00000   0.00235   0.00240  -3.14138
   D21        3.13526   0.00030   0.00000   0.01219   0.01228  -3.13564
   D22       -0.00206  -0.00002   0.00000  -0.00110  -0.00112  -0.00318
         Item               Value     Threshold  Converged?
 Maximum Force            0.013853     0.000450     NO 
 RMS     Force            0.003799     0.000300     NO 
 Maximum Displacement     0.137637     0.001800     NO 
 RMS     Displacement     0.032404     0.001200     NO 
 Predicted change in Energy=-1.512072D-03
 GradGradGradGradGradGradGradGradGradGradGradGradGradGradGradGradGradGrad

 Leave Link  103 at Sun Oct  3 21:08:10 2021, MaxMem=  536870912 cpu:       0.7
 (Enter /sw/target/amd/app/gaussian/Gaussian09RevA.02_gcc-4.9.2/g09/l202.exe)
                          Input orientation:                          
 ---------------------------------------------------------------------
 Center     Atomic      Atomic             Coordinates (Angstroms)
 Number     Number       Type             X           Y           Z
 ---------------------------------------------------------------------
      1          6           0        2.196431    0.014155   -0.015804
      2          7           0        0.738862   -0.023600   -0.002749
      3          6           0       -0.117410    1.042077    0.000278
      4          7           0       -1.385751    0.679838    0.009924
      5          6           0       -1.357072   -0.692307    0.006777
      6          6           0       -0.056719   -1.147323   -0.008596
      7          1           0        2.521396    1.055708    0.010164
      8          1           0        2.597730   -0.451535   -0.922118
      9          1           0        2.613113   -0.500341    0.856280
     10          1           0        0.245477    2.061538    0.001997
     11          1           0       -2.268460   -1.275831    0.012803
     12          1           0        0.363383   -2.142206   -0.015478
 ---------------------------------------------------------------------
                    Distance matrix (angstroms):
                    1          2          3          4          5
     1  C    0.000000
     2  N    1.458117   0.000000
     3  C    2.531945   1.367069   0.000000
     4  N    3.643601   2.238072   1.319091   0.000000
     5  C    3.623118   2.200045   2.131876   1.372449   0.000000
     6  C    2.534911   1.376858   2.190259   2.259466   1.377749
     7  H    1.091379   2.083866   2.638859   3.925185   4.254184
     8  H    1.095131   2.117489   3.233214   4.244624   4.069555
     9  H    1.094925   2.116136   3.250776   4.254416   4.064588
    10  H    2.828129   2.142720   1.082123   2.137771   3.186197
    11  H    4.647594   3.257653   3.162257   2.145652   1.082203
    12  H    2.830187   2.151660   3.220415   3.320249   2.250037
                    6          7          8          9         10
     6  C    0.000000
     7  H    3.391220   0.000000
     8  H    2.892187   1.773909   0.000000
     9  H    2.880035   1.773587   1.779134   0.000000
    10  H    3.223077   2.488286   3.564073   3.591479   0.000000
    11  H    2.215574   5.327175   5.023280   5.014238   4.178280
    12  H    1.079966   3.858021   2.944940   2.918384   4.205433
                   11         12
    11  H    0.000000
    12  H    2.770921   0.000000
 Stoichiometry    C4H6N2
 Framework group  C1[X(C4H6N2)]
 Deg. of freedom    30
 Full point group                 C1      NOp   1
 Largest Abelian subgroup         C1      NOp   1
 Largest concise Abelian subgroup C1      NOp   1
                         Standard orientation:                         
 ---------------------------------------------------------------------
 Center     Atomic      Atomic             Coordinates (Angstroms)
 Number     Number       Type             X           Y           Z
 ---------------------------------------------------------------------
      1          6           0        2.070966    0.027622   -0.000196
      2          7           0        0.612915    0.014203   -0.003772
      3          6           0       -0.205443   -1.080843    0.002523
      4          7           0       -1.485749   -0.763332   -0.000011
      5          6           0       -1.505206    0.608978   -0.001787
      6          6           0       -0.221545    1.109357    0.003443
      7          1           0        2.432097   -1.001986   -0.024711
      8          1           0        2.461533    0.510426    0.901841
      9          1           0        2.463692    0.553198   -0.876778
     10          1           0        0.192967   -2.086954    0.001929
     11          1           0       -2.436524    1.160163   -0.003818
     12          1           0        0.163432    2.118375    0.004122
 ---------------------------------------------------------------------
 Rotational constants (GHZ):      9.2293115      3.5717435      2.6177221
 Leave Link  202 at Sun Oct  3 21:08:10 2021, MaxMem=  536870912 cpu:       0.0
 (Enter /sw/target/amd/app/gaussian/Gaussian09RevA.02_gcc-4.9.2/g09/l301.exe)
 Standard basis: 6-31G(d) (6D, 7F)
 Ernie: Thresh=  0.10000D-02 Tol=  0.10000D-05 Strict=F.
 There are   102 symmetry adapted basis functions of A   symmetry.
 Integral buffers will be    131072 words long.
 Raffenetti 2 integral format.
 Two-electron integral symmetry is turned on.
   102 basis functions,   192 primitive gaussians,   102 cartesian basis functions
    22 alpha electrons       22 beta electrons
       nuclear repulsion energy       225.7150629781 Hartrees.
 IExCor=  402 DFT=T Ex+Corr=B3LYP ExCW=0 ScaHFX=  0.200000
 ScaDFX=  0.800000  0.720000  1.000000  0.810000 ScalE2=  1.000000  1.000000
 IRadAn=      0 IRanWt=     -1 IRanGd=            0 ICorTp=0
 NAtoms=   12 NActive=   12 NUniq=   12 SFac= 7.50D-01 NAtFMM=   80 NAOKFM=F Big=F
 Leave Link  301 at Sun Oct  3 21:08:11 2021, MaxMem=  536870912 cpu:       0.1
 (Enter /sw/target/amd/app/gaussian/Gaussian09RevA.02_gcc-4.9.2/g09/l302.exe)
 NPDir=0 NMtPBC=     1 NCelOv=     1 NCel=       1 NClECP=     1 NCelD=      1
         NCelK=      1 NCelE2=     1 NClLst=     1 CellRange=     0.0.
 One-electron integrals computed using PRISM.
 NBasis=   102 RedAO= T  NBF=   102
 NBsUse=   102 1.00D-06 NBFU=   102
 Precomputing XC quadrature grid using
 IXCGrd= 2 IRadAn=           0 IRanWt=          -1 IRanGd=           0 AccXCQ= 1.00D-10.
 NRdTot=     744 NPtTot=       94510 NUsed=       99887 NTot=       99919
 NSgBfM=   102   102   102   102   102 NAtAll=    12    12.
 Leave Link  302 at Sun Oct  3 21:08:13 2021, MaxMem=  536870912 cpu:       0.5
 (Enter /sw/target/amd/app/gaussian/Gaussian09RevA.02_gcc-4.9.2/g09/l303.exe)
 DipDrv:  MaxL=1.
 Leave Link  303 at Sun Oct  3 21:08:14 2021, MaxMem=  536870912 cpu:       0.1
 (Enter /sw/target/amd/app/gaussian/Gaussian09RevA.02_gcc-4.9.2/g09/l401.exe)
 Initial guess read from the read-write file.
 B after Tr=     0.000000    0.000000    0.000000
         Rot=    1.000000    0.000000    0.000000    0.000000 Ang=   0.00 deg.
 Guess basis will be translated and rotated to current coordinates.
 Initial guess orbital symmetries:
       Occupied  (A) (A) (A) (A) (A) (A) (A) (A) (A) (A) (A) (A)
                 (A) (A) (A) (A) (A) (A) (A) (A) (A) (A)
       Virtual   (A) (A) (A) (A) (A) (A) (A) (A) (A) (A) (A) (A)
                 (A) (A) (A) (A) (A) (A) (A) (A) (A) (A) (A) (A)
                 (A) (A) (A) (A) (A) (A) (A) (A) (A) (A) (A) (A)
                 (A) (A) (A) (A) (A) (A) (A) (A) (A) (A) (A) (A)
                 (A) (A) (A) (A) (A) (A) (A) (A) (A) (A) (A) (A)
                 (A) (A) (A) (A) (A) (A) (A) (A) (A) (A) (A) (A)
                 (A) (A) (A) (A) (A) (A) (A) (A)
 The electronic state of the initial guess is 1-A.
 Generating alternative initial guess.
 Harris functional with IExCor=  402 diagonalized for initial guess.
 ExpMin= 1.61D-01 ExpMax= 4.17D+03 ExpMxC= 6.27D+02 IAcc=1 IRadAn=         1 AccDes= 0.00D+00
 HarFok:  IExCor=  402 AccDes= 0.00D+00 IRadAn=         1 IDoV= 1
 ScaDFX=  1.000000  1.000000  1.000000  1.000000
 FoFCou: FMM=F IPFlag=           0 FMFlag=      100000 FMFlg1=           0
         NFxFlg=           0 DoJE=T BraDBF=F KetDBF=T FulRan=T
         Omega=  0.000000  0.000000  1.000000  0.000000  0.000000 ICntrl=     500 IOpCl=  0
         NMat0=    1 NMatS0=    1 NMatT0=    0 NMatD0=    1 NMtDS0=    0 NMtDT0=    0
         I1Cent=           4 NGrid=           0.
 Petite list used in FoFCou.
 Harris En= -265.561166810728    
 Leave Link  401 at Sun Oct  3 21:08:20 2021, MaxMem=  536870912 cpu:       2.3
 (Enter /sw/target/amd/app/gaussian/Gaussian09RevA.02_gcc-4.9.2/g09/l502.exe)
 Closed shell SCF:
 Requested convergence on RMS density matrix=1.00D-08 within  64 cycles.
 Requested convergence on MAX density matrix=1.00D-06.
 Requested convergence on             energy=1.00D-06.
 No special actions if energy rises.
 Using DIIS extrapolation, IDIIS=  1040.
 Integral symmetry usage will be decided dynamically.
        99766 words used for storage of precomputed grid.
 Keep R1 ints in memory in canonical form, NReq=14859513.
 IEnd=      137902 IEndB=      137902 NGot=   536870912 MDV=   522948082
 LenX=   522948082 LenY=   522937237
 Symmetry not used in FoFDir.
 MinBra= 0 MaxBra= 2 Meth= 1.
 IRaf=       0 NMat=   1 IRICut=       1 DoRegI=T DoRafI=F ISym2E= 0 JSym2E=0.
 Integral accuracy reduced to 1.0D-05 until final iterations.

 Cycle   1  Pass 0  IDiag  1:
 E= -258.947146734778    
 DIIS: error= 1.10D-01 at cycle   1 NSaved=   1.
 NSaved= 1 IEnMin= 1 EnMin= -258.947146734778     IErMin= 1 ErrMin= 1.10D-01
 ErrMax= 1.10D-01 EMaxC= 1.00D-01 BMatC= 2.23D+00 BMatP= 2.23D+00
 IDIUse=3 WtCom= 0.00D+00 WtEn= 1.00D+00
 Coeff-Com:  0.100D+01
 Coeff-En:   0.100D+01
 Coeff:      0.100D+01
 Recover alternate guess density for next cycle.
 RMSDP=3.66D-02 MaxDP=6.50D-01              OVMax= 0.00D+00

 Cycle   2  Pass 0  IDiag  1:
 E= -265.381919076901     Delta-E=       -6.434772342123 Rises=F Damp=F
 DIIS: error= 3.30D-02 at cycle   2 NSaved=   2.
 NSaved= 2 IEnMin= 2 EnMin= -265.381919076901     IErMin= 2 ErrMin= 3.30D-02
 ErrMax= 3.30D-02 EMaxC= 1.00D-01 BMatC= 1.33D-01 BMatP= 2.23D+00
 IDIUse=3 WtCom= 6.70D-01 WtEn= 3.30D-01
 Coeff-Com:  0.422D-01 0.958D+00
 Coeff-En:   0.000D+00 0.100D+01
 Coeff:      0.283D-01 0.972D+00
 Gap=     0.229 Goal=   None    Shift=    0.000
 RMSDP=9.13D-03 MaxDP=1.53D-01 DE=-6.43D+00 OVMax= 2.43D-01

 Cycle   3  Pass 0  IDiag  1:
 E= -265.316364387408     Delta-E=        0.065554689494 Rises=F Damp=F
 DIIS: error= 3.38D-02 at cycle   3 NSaved=   3.
 NSaved= 3 IEnMin= 2 EnMin= -265.381919076901     IErMin= 2 ErrMin= 3.30D-02
 ErrMax= 3.38D-02 EMaxC= 1.00D-01 BMatC= 2.09D-01 BMatP= 1.33D-01
 IDIUse=2 WtCom= 0.00D+00 WtEn= 1.00D+00
 Coeff-En:   0.000D+00 0.590D+00 0.410D+00
 Coeff:      0.000D+00 0.590D+00 0.410D+00
 Gap=     0.317 Goal=   None    Shift=    0.000
 RMSDP=5.64D-03 MaxDP=9.99D-02 DE= 6.56D-02 OVMax= 1.68D-01

 Cycle   4  Pass 0  IDiag  1:
 E= -265.516439598253     Delta-E=       -0.200075210845 Rises=F Damp=F
 DIIS: error= 1.14D-02 at cycle   4 NSaved=   4.
 NSaved= 4 IEnMin= 4 EnMin= -265.516439598253     IErMin= 4 ErrMin= 1.14D-02
 ErrMax= 1.14D-02 EMaxC= 1.00D-01 BMatC= 1.12D-02 BMatP= 1.33D-01
 IDIUse=3 WtCom= 8.86D-01 WtEn= 1.14D-01
 Coeff-Com:  0.481D-03 0.264D+00 0.223D+00 0.512D+00
 Coeff-En:   0.000D+00 0.000D+00 0.000D+00 0.100D+01
 Coeff:      0.426D-03 0.234D+00 0.198D+00 0.568D+00
 Gap=     0.250 Goal=   None    Shift=    0.000
 RMSDP=1.40D-03 MaxDP=2.58D-02 DE=-2.00D-01 OVMax= 5.16D-02

 Cycle   5  Pass 0  IDiag  1:
 E= -265.524327904169     Delta-E=       -0.007888305916 Rises=F Damp=F
 DIIS: error= 5.20D-03 at cycle   5 NSaved=   5.
 NSaved= 5 IEnMin= 5 EnMin= -265.524327904169     IErMin= 5 ErrMin= 5.20D-03
 ErrMax= 5.20D-03 EMaxC= 1.00D-01 BMatC= 3.02D-03 BMatP= 1.12D-02
 IDIUse=3 WtCom= 9.48D-01 WtEn= 5.20D-02
 Coeff-Com: -0.136D-02 0.364D-01 0.172D-01 0.336D+00 0.612D+00
 Coeff-En:   0.000D+00 0.000D+00 0.000D+00 0.243D+00 0.757D+00
 Coeff:     -0.129D-02 0.345D-01 0.163D-01 0.331D+00 0.620D+00
 Gap=     0.252 Goal=   None    Shift=    0.000
 RMSDP=5.74D-04 MaxDP=1.02D-02 DE=-7.89D-03 OVMax= 2.04D-02

 Cycle   6  Pass 0  IDiag  1:
 E= -265.527081836585     Delta-E=       -0.002753932415 Rises=F Damp=F
 DIIS: error= 1.26D-03 at cycle   6 NSaved=   6.
 NSaved= 6 IEnMin= 6 EnMin= -265.527081836585     IErMin= 6 ErrMin= 1.26D-03
 ErrMax= 1.26D-03 EMaxC= 1.00D-01 BMatC= 1.16D-04 BMatP= 3.02D-03
 IDIUse=3 WtCom= 9.87D-01 WtEn= 1.26D-02
 Coeff-Com:  0.147D-03 0.925D-02 0.155D-02 0.151D+00 0.324D+00 0.515D+00
 Coeff-En:   0.000D+00 0.000D+00 0.000D+00 0.000D+00 0.000D+00 0.100D+01
 Coeff:      0.145D-03 0.914D-02 0.153D-02 0.149D+00 0.320D+00 0.521D+00
 Gap=     0.252 Goal=   None    Shift=    0.000
 RMSDP=1.17D-04 MaxDP=2.77D-03 DE=-2.75D-03 OVMax= 5.78D-03

 Cycle   7  Pass 0  IDiag  1:
 E= -265.527177287931     Delta-E=       -0.000095451346 Rises=F Damp=F
 DIIS: error= 3.28D-04 at cycle   7 NSaved=   7.
 NSaved= 7 IEnMin= 7 EnMin= -265.527177287931     IErMin= 7 ErrMin= 3.28D-04
 ErrMax= 3.28D-04 EMaxC= 1.00D-01 BMatC= 1.31D-05 BMatP= 1.16D-04
 IDIUse=3 WtCom= 9.97D-01 WtEn= 3.28D-03
 Coeff-Com:  0.193D-04-0.176D-05-0.227D-02 0.377D-01 0.965D-01 0.289D+00
 Coeff-Com:  0.579D+00
 Coeff-En:   0.000D+00 0.000D+00 0.000D+00 0.000D+00 0.000D+00 0.818D-01
 Coeff-En:   0.918D+00
 Coeff:      0.193D-04-0.176D-05-0.226D-02 0.376D-01 0.962D-01 0.288D+00
 Coeff:      0.580D+00
 Gap=     0.252 Goal=   None    Shift=    0.000
 RMSDP=3.37D-05 MaxDP=9.20D-04 DE=-9.55D-05 OVMax= 1.86D-03

 Cycle   8  Pass 0  IDiag  1:
 E= -265.527189001835     Delta-E=       -0.000011713905 Rises=F Damp=F
 DIIS: error= 5.62D-05 at cycle   8 NSaved=   8.
 NSaved= 8 IEnMin= 8 EnMin= -265.527189001835     IErMin= 8 ErrMin= 5.62D-05
 ErrMax= 5.62D-05 EMaxC= 1.00D-01 BMatC= 3.84D-07 BMatP= 1.31D-05
 IDIUse=1 WtCom= 1.00D+00 WtEn= 0.00D+00
 Coeff-Com: -0.203D-04-0.208D-03-0.140D-02 0.170D-01 0.442D-01 0.140D+00
 Coeff-Com:  0.304D+00 0.496D+00
 Coeff:     -0.203D-04-0.208D-03-0.140D-02 0.170D-01 0.442D-01 0.140D+00
 Coeff:      0.304D+00 0.496D+00
 Gap=     0.252 Goal=   None    Shift=    0.000
 RMSDP=6.55D-06 MaxDP=1.69D-04 DE=-1.17D-05 OVMax= 2.71D-04

 Initial convergence to 1.0D-05 achieved.  Increase integral accuracy.
 Cycle   9  Pass 1  IDiag  1:
 E= -265.527179671688     Delta-E=        0.000009330148 Rises=F Damp=F
 DIIS: error= 1.48D-05 at cycle   1 NSaved=   1.
 NSaved= 1 IEnMin= 1 EnMin= -265.527179671688     IErMin= 1 ErrMin= 1.48D-05
 ErrMax= 1.48D-05 EMaxC= 1.00D-01 BMatC= 4.55D-08 BMatP= 4.55D-08
 IDIUse=1 WtCom= 1.00D+00 WtEn= 0.00D+00
 Coeff-Com:  0.100D+01
 Coeff:      0.100D+01
 Gap=     0.252 Goal=   None    Shift=    0.000
 RMSDP=6.55D-06 MaxDP=1.69D-04 DE= 9.33D-06 OVMax= 1.55D-04

 Cycle  10  Pass 1  IDiag  1:
 E= -265.527179644600     Delta-E=        0.000000027088 Rises=F Damp=F
 DIIS: error= 2.98D-05 at cycle   2 NSaved=   2.
 NSaved= 2 IEnMin= 1 EnMin= -265.527179671688     IErMin= 1 ErrMin= 1.48D-05
 ErrMax= 2.98D-05 EMaxC= 1.00D-01 BMatC= 8.18D-08 BMatP= 4.55D-08
 IDIUse=1 WtCom= 1.00D+00 WtEn= 0.00D+00
 Coeff-Com:  0.583D+00 0.417D+00
 Coeff:      0.583D+00 0.417D+00
 Gap=     0.252 Goal=   None    Shift=    0.000
 RMSDP=3.07D-06 MaxDP=7.14D-05 DE= 2.71D-08 OVMax= 1.21D-04

 Cycle  11  Pass 1  IDiag  1:
 E= -265.527179719631     Delta-E=       -0.000000075031 Rises=F Damp=F
 DIIS: error= 5.33D-06 at cycle   3 NSaved=   3.
 NSaved= 3 IEnMin= 3 EnMin= -265.527179719631     IErMin= 3 ErrMin= 5.33D-06
 ErrMax= 5.33D-06 EMaxC= 1.00D-01 BMatC= 2.99D-09 BMatP= 4.55D-08
 IDIUse=1 WtCom= 1.00D+00 WtEn= 0.00D+00
 Coeff-Com:  0.802D-01 0.165D+00 0.754D+00
 Coeff:      0.802D-01 0.165D+00 0.754D+00
 Gap=     0.252 Goal=   None    Shift=    0.000
 RMSDP=7.72D-07 MaxDP=1.59D-05 DE=-7.50D-08 OVMax= 3.03D-05

 Cycle  12  Pass 1  IDiag  1:
 E= -265.527179720801     Delta-E=       -0.000000001170 Rises=F Damp=F
 DIIS: error= 6.27D-06 at cycle   4 NSaved=   4.
 NSaved= 4 IEnMin= 4 EnMin= -265.527179720801     IErMin= 3 ErrMin= 5.33D-06
 ErrMax= 6.27D-06 EMaxC= 1.00D-01 BMatC= 1.97D-09 BMatP= 2.99D-09
 IDIUse=1 WtCom= 1.00D+00 WtEn= 0.00D+00
 Coeff-Com: -0.124D-01 0.684D-01 0.526D+00 0.418D+00
 Coeff:     -0.124D-01 0.684D-01 0.526D+00 0.418D+00
 Gap=     0.252 Goal=   None    Shift=    0.000
 RMSDP=3.91D-07 MaxDP=1.21D-05 DE=-1.17D-09 OVMax= 1.73D-05

 Cycle  13  Pass 1  IDiag  1:
 E= -265.527179722472     Delta-E=       -0.000000001672 Rises=F Damp=F
 DIIS: error= 5.50D-07 at cycle   5 NSaved=   5.
 NSaved= 5 IEnMin= 5 EnMin= -265.527179722472     IErMin= 5 ErrMin= 5.50D-07
 ErrMax= 5.50D-07 EMaxC= 1.00D-01 BMatC= 2.41D-11 BMatP= 1.97D-09
 IDIUse=1 WtCom= 1.00D+00 WtEn= 0.00D+00
 Coeff-Com: -0.882D-02 0.229D-01 0.190D+00 0.192D+00 0.604D+00
 Coeff:     -0.882D-02 0.229D-01 0.190D+00 0.192D+00 0.604D+00
 Gap=     0.252 Goal=   None    Shift=    0.000
 RMSDP=6.42D-08 MaxDP=1.17D-06 DE=-1.67D-09 OVMax= 2.25D-06

 Cycle  14  Pass 1  IDiag  1:
 E= -265.527179722489     Delta-E=       -0.000000000017 Rises=F Damp=F
 DIIS: error= 1.56D-07 at cycle   6 NSaved=   6.
 NSaved= 6 IEnMin= 6 EnMin= -265.527179722489     IErMin= 6 ErrMin= 1.56D-07
 ErrMax= 1.56D-07 EMaxC= 1.00D-01 BMatC= 4.00D-12 BMatP= 2.41D-11
 IDIUse=1 WtCom= 1.00D+00 WtEn= 0.00D+00
 Coeff-Com: -0.428D-02 0.919D-02 0.761D-01 0.861D-01 0.356D+00 0.477D+00
 Coeff:     -0.428D-02 0.919D-02 0.761D-01 0.861D-01 0.356D+00 0.477D+00
 Gap=     0.252 Goal=   None    Shift=    0.000
 RMSDP=2.07D-08 MaxDP=5.28D-07 DE=-1.73D-11 OVMax= 9.93D-07

 Cycle  15  Pass 1  IDiag  1:
 E= -265.527179722493     Delta-E=       -0.000000000004 Rises=F Damp=F
 DIIS: error= 2.58D-08 at cycle   7 NSaved=   7.
 NSaved= 7 IEnMin= 7 EnMin= -265.527179722493     IErMin= 7 ErrMin= 2.58D-08
 ErrMax= 2.58D-08 EMaxC= 1.00D-01 BMatC= 1.05D-13 BMatP= 4.00D-12
 IDIUse=1 WtCom= 1.00D+00 WtEn= 0.00D+00
 Coeff-Com: -0.665D-03 0.118D-02 0.796D-02 0.120D-01 0.597D-01 0.163D+00
 Coeff-Com:  0.757D+00
 Coeff:     -0.665D-03 0.118D-02 0.796D-02 0.120D-01 0.597D-01 0.163D+00
 Coeff:      0.757D+00
 Gap=     0.252 Goal=   None    Shift=    0.000
 RMSDP=3.50D-09 MaxDP=1.08D-07 DE=-3.87D-12 OVMax= 1.06D-07

 SCF Done:  E(RB3LYP) =  -265.527179722     A.U. after   15 cycles
             Convg  =    0.3504D-08             -V/T =  2.0097
 KE= 2.629838078601D+02 PE=-1.067713059732D+03 EE= 3.134870091718D+02
 Leave Link  502 at Sun Oct  3 21:10:01 2021, MaxMem=  536870912 cpu:      32.5
 (Enter /sw/target/amd/app/gaussian/Gaussian09RevA.02_gcc-4.9.2/g09/l508.exe)
 QCSCF skips out because SCF is already converged.
 Leave Link  508 at Sun Oct  3 21:10:01 2021, MaxMem=  536870912 cpu:       0.0
 (Enter /sw/target/amd/app/gaussian/Gaussian09RevA.02_gcc-4.9.2/g09/l701.exe)
 Compute integral first derivatives.
 ... and contract with generalized density number  0.
 Leave Link  701 at Sun Oct  3 21:10:02 2021, MaxMem=  536870912 cpu:       0.4
 (Enter /sw/target/amd/app/gaussian/Gaussian09RevA.02_gcc-4.9.2/g09/l702.exe)
 L702 exits ... SP integral derivatives will be done elsewhere.
 Leave Link  702 at Sun Oct  3 21:10:03 2021, MaxMem=  536870912 cpu:       0.1
 (Enter /sw/target/amd/app/gaussian/Gaussian09RevA.02_gcc-4.9.2/g09/l703.exe)
 Compute integral first derivatives, UseDBF=F ICtDFT=           0.
 Integral derivatives from FoFDir, PRISM(SPDF).
 Calling FoFJK, ICntrl=      2127 FMM=F ISym2X=0 I1Cent= 0 IOpClX= 0 NMat=1 NMatS=1 NMatT=0.
 FoFCou: FMM=F IPFlag=           0 FMFlag=      100000 FMFlg1=         800
         NFxFlg=           0 DoJE=F BraDBF=F KetDBF=F FulRan=T
         Omega=  0.000000  0.000000  1.000000  0.000000  0.000000 ICntrl=    2127 IOpCl=  0
         NMat0=    1 NMatS0=    1 NMatT0=    0 NMatD0=    1 NMtDS0=    0 NMtDT0=    0
         I1Cent=           0 NGrid=           0.
 Symmetry not used in FoFCou.
 Leave Link  703 at Sun Oct  3 21:10:36 2021, MaxMem=  536870912 cpu:      11.1
 (Enter /sw/target/amd/app/gaussian/Gaussian09RevA.02_gcc-4.9.2/g09/l716.exe)
 Dipole        = 1.52369066D+00 4.62857236D-01 5.36663315D-04
 ***** Axes restored to original set *****
 -------------------------------------------------------------------
 Center     Atomic                   Forces (Hartrees/Bohr)
 Number     Number              X              Y              Z
 -------------------------------------------------------------------
      1        6          -0.002474987    0.000666606   -0.000175117
      2        7           0.002408978    0.000245227   -0.001310157
      3        6          -0.002266765    0.003505343    0.001057278
      4        7           0.003974028    0.002802696   -0.000130750
      5        6           0.004593897   -0.002847735   -0.000763701
      6        6          -0.004819902   -0.004763876    0.001230020
      7        1          -0.000154581    0.000791325    0.000037656
      8        1          -0.001161221   -0.000171425   -0.000324102
      9        1          -0.001238088   -0.000163894    0.000376799
     10        1           0.000393946    0.000407897   -0.000002265
     11        1           0.000326258   -0.000191977   -0.000090526
     12        1           0.000418436   -0.000280186    0.000094866
 -------------------------------------------------------------------
 Cartesian Forces:  Max     0.004819902 RMS     0.001959283
 Leave Link  716 at Sun Oct  3 21:10:37 2021, MaxMem=  536870912 cpu:       0.0
 (Enter /sw/target/amd/app/gaussian/Gaussian09RevA.02_gcc-4.9.2/g09/l103.exe)

 GradGradGradGradGradGradGradGradGradGradGradGradGradGradGradGradGradGrad
 Berny optimization.
 Using GEDIIS/GDIIS optimizer.
 Internal  Forces:  Max     0.004997464 RMS     0.001573540
 Search for a local minimum.
 Step number   2 out of a maximum of   63
 All quantities printed in internal units (Hartrees-Bohrs-Radians)
 RMS Force = .15735D-02 SwitMx=.10000D-02 MixMth= 1
 Mixed Optimization -- RFO/linear search
 Update second derivatives using D2CorX and points    1    2
 DE= -1.07D-03 DEPred=-1.51D-03 R= 7.09D-01
 SS=  1.41D+00  RLast= 1.24D-01 DXNew= 5.0454D-01 3.7261D-01
 Trust test= 7.09D-01 RLast= 1.24D-01 DXMaxT set to 3.73D-01
 Use linear search instead of GDIIS.
     Eigenvalues ---    0.01166   0.01705   0.02230   0.02262   0.02332
     Eigenvalues ---    0.02373   0.02456   0.07462   0.07724   0.15546
     Eigenvalues ---    0.15999   0.16000   0.16000   0.16000   0.16488
     Eigenvalues ---    0.22783   0.24845   0.26782   0.34438   0.34472
     Eigenvalues ---    0.34521   0.35700   0.35713   0.35891   0.41633
     Eigenvalues ---    0.44228   0.46423   0.50764   0.52100   0.63413
     Eigenvalues --- 1000.000001000.000001000.000001000.000001000.00000
     Eigenvalues --- 1000.000001000.000001000.000001000.000001000.00000
     Eigenvalues --- 1000.000001000.000001000.000001000.000001000.00000
     Eigenvalues --- 1000.000001000.000001000.000001000.000001000.00000
     Eigenvalues --- 1000.000001000.000001000.00000
 RFO step:  Lambda=-1.56635361D-04 EMin= 1.16593527D-02
 Quartic linear search produced a step of -0.21310.
 Iteration  1 RMS(Cart)=  0.00920773 RMS(Int)=  0.00007815
 Iteration  2 RMS(Cart)=  0.00004787 RMS(Int)=  0.00006893
 Iteration  3 RMS(Cart)=  0.00000000 RMS(Int)=  0.00006893
 Variable       Old X    -DE/DX   Delta X   Delta X   Delta X     New X
                                 (Linear)    (Quad)   (Total)
    R1        2.75544  -0.00500  -0.00740  -0.00077  -0.00817   2.74727
    R2        2.06241   0.00071   0.00061   0.00087   0.00148   2.06389
    R3        2.06950  -0.00009  -0.00084   0.00084   0.00000   2.06950
    R4        2.06911  -0.00009  -0.00081   0.00078  -0.00003   2.06908
    R5        2.58339   0.00079  -0.00134   0.00300   0.00164   2.58502
    R6        2.60188   0.00312  -0.00442   0.01047   0.00604   2.60792
    R7        2.49272  -0.00359  -0.00187  -0.00225  -0.00412   2.48860
    R8        2.04492   0.00052   0.00010   0.00101   0.00111   2.04603
    R9        2.59355   0.00395  -0.00043   0.00641   0.00600   2.59955
   R10        2.60357  -0.00428  -0.00100  -0.00550  -0.00649   2.59708
   R11        2.04507  -0.00017   0.00009  -0.00049  -0.00040   2.04467
   R12        2.04084   0.00042   0.00040   0.00043   0.00083   2.04167
    A1        1.89879   0.00005   0.00327  -0.00343  -0.00020   1.89859
    A2        1.94196  -0.00138  -0.01080   0.00614  -0.00451   1.93745
    A3        1.94026  -0.00155  -0.00987   0.00404  -0.00567   1.93459
    A4        1.89273   0.00081   0.00535  -0.00206   0.00326   1.89600
    A5        1.89249   0.00082   0.00548  -0.00243   0.00301   1.89550
    A6        1.89641   0.00135   0.00674  -0.00259   0.00446   1.90087
    A7        2.22176  -0.00231  -0.00366  -0.00333  -0.00697   2.21479
    A8        2.21267  -0.00053  -0.00334   0.00187  -0.00145   2.21122
    A9        1.84866   0.00284   0.00701   0.00157   0.00850   1.85716
   A10        1.96948  -0.00263  -0.00566  -0.00197  -0.00769   1.96179
   A11        2.12275   0.00108   0.00603  -0.00405   0.00199   2.12474
   A12        2.19093   0.00155  -0.00036   0.00608   0.00573   2.19666
   A13        1.82807   0.00135   0.00198   0.00124   0.00321   1.83128
   A14        1.92830   0.00114   0.00110   0.00261   0.00370   1.93200
   A15        2.11937  -0.00022  -0.00058   0.00046  -0.00013   2.11924
   A16        2.23551  -0.00092  -0.00052  -0.00304  -0.00357   2.23194
   A17        1.85019  -0.00270  -0.00441  -0.00322  -0.00768   1.84251
   A18        2.12599   0.00107   0.00433  -0.00233   0.00200   2.12799
   A19        2.30697   0.00163   0.00009   0.00563   0.00571   2.31268
    D1        0.03222  -0.00011  -0.00107  -0.00485  -0.00592   0.02630
    D2       -3.12540   0.00015   0.00065   0.00470   0.00535  -3.12005
    D3       -2.05190  -0.00030  -0.00308  -0.00386  -0.00707  -2.05898
    D4        1.07366  -0.00004  -0.00135   0.00569   0.00420   1.07786
    D5        2.11502  -0.00001   0.00165  -0.00757  -0.00578   2.10923
    D6       -1.04261   0.00025   0.00338   0.00198   0.00549  -1.03712
    D7        3.13903  -0.00028  -0.00244  -0.00605  -0.00849   3.13053
    D8       -0.01007   0.00003  -0.00040   0.00248   0.00206  -0.00801
    D9        0.01079  -0.00048  -0.00385  -0.01402  -0.01787  -0.00708
   D10       -3.13831  -0.00017  -0.00181  -0.00549  -0.00732   3.13756
   D11       -3.14007   0.00037   0.00283   0.00823   0.01103  -3.12904
   D12        0.00949   0.00002   0.00033  -0.00113  -0.00078   0.00871
   D13       -0.01174   0.00055   0.00422   0.01610   0.02032   0.00859
   D14        3.13782   0.00020   0.00172   0.00673   0.00851  -3.13685
   D15       -0.00497   0.00020   0.00172   0.00561   0.00735   0.00238
   D16       -3.13871  -0.00012  -0.00040  -0.00326  -0.00370   3.14077
   D17       -0.00289   0.00017   0.00109   0.00513   0.00624   0.00335
   D18       -3.14136  -0.00002   0.00039  -0.00120  -0.00078   3.14105
   D19        0.00934  -0.00048  -0.00337  -0.01356  -0.01691  -0.00757
   D20       -3.14138  -0.00008  -0.00051  -0.00288  -0.00334   3.13846
   D21       -3.13564  -0.00027  -0.00262  -0.00669  -0.00930   3.13824
   D22       -0.00318   0.00012   0.00024   0.00399   0.00426   0.00108
         Item               Value     Threshold  Converged?
 Maximum Force            0.004997     0.000450     NO 
 RMS     Force            0.001574     0.000300     NO 
 Maximum Displacement     0.025571     0.001800     NO 
 RMS     Displacement     0.009224     0.001200     NO 
 Predicted change in Energy=-1.570604D-04
 GradGradGradGradGradGradGradGradGradGradGradGradGradGradGradGradGradGrad

 Leave Link  103 at Sun Oct  3 21:10:39 2021, MaxMem=  536870912 cpu:       0.7
 (Enter /sw/target/amd/app/gaussian/Gaussian09RevA.02_gcc-4.9.2/g09/l202.exe)
                          Input orientation:                          
 ---------------------------------------------------------------------
 Center     Atomic      Atomic             Coordinates (Angstroms)
 Number     Number       Type             X           Y           Z
 ---------------------------------------------------------------------
      1          6           0        2.190975    0.015574   -0.019550
      2          7           0        0.737826   -0.024531   -0.003080
      3          6           0       -0.113284    1.046335    0.007096
      4          7           0       -1.378706    0.681694    0.007814
      5          6           0       -1.351101   -0.693636    0.000773
      6          6           0       -0.055980   -1.153427    0.000120
      7          1           0        2.514244    1.058521    0.004479
      8          1           0        2.586382   -0.452476   -0.927239
      9          1           0        2.604832   -0.498621    0.854037
     10          1           0        0.253200    2.065128    0.010806
     11          1           0       -2.262898   -1.276158    0.000167
     12          1           0        0.365491   -2.148229   -0.001946
 ---------------------------------------------------------------------
                    Distance matrix (angstroms):
                    1          2          3          4          5
     1  C    0.000000
     2  N    1.453795   0.000000
     3  C    2.524438   1.367935   0.000000
     4  N    3.631403   2.231274   1.316912   0.000000
     5  C    3.612436   2.193475   2.135352   1.375624   0.000000
     6  C    2.532934   1.380052   2.200519   2.262152   1.374317
     7  H    1.092162   2.080558   2.627558   3.911147   4.243932
     8  H    1.095133   2.110537   3.226083   4.228781   4.052547
     9  H    1.094911   2.108346   3.239191   4.240025   4.051604
    10  H    2.820738   2.145165   1.082711   2.139396   3.191342
    11  H    4.637450   3.251296   3.164627   2.148264   1.081992
    12  H    2.831032   2.156091   3.230255   3.324272   2.250008
                    6          7          8          9         10
     6  C    0.000000
     7  H    3.390986   0.000000
     8  H    2.886763   1.776629   0.000000
     9  H    2.870168   1.776133   1.781969   0.000000
    10  H    3.233389   2.474999   3.558370   3.579668   0.000000
    11  H    2.210328   5.317127   5.005402   5.002845   4.182709
    12  H    1.080404   3.860107   2.943485   2.910079   4.214873
                   11         12
    11  H    0.000000
    12  H    2.769286   0.000000
 Stoichiometry    C4H6N2
 Framework group  C1[X(C4H6N2)]
 Deg. of freedom    30
 Full point group                 C1      NOp   1
 Largest Abelian subgroup         C1      NOp   1
 Largest concise Abelian subgroup C1      NOp   1
                         Standard orientation:                         
 ---------------------------------------------------------------------
 Center     Atomic      Atomic             Coordinates (Angstroms)
 Number     Number       Type             X           Y           Z
 ---------------------------------------------------------------------
      1          6           0        2.064117    0.029258    0.004232
      2          7           0        0.610400    0.015968   -0.003013
      3          6           0       -0.200876   -1.085429   -0.003928
      4          7           0       -1.478810   -0.767458    0.002224
      5          6           0       -1.501662    0.607976    0.004239
      6          6           0       -0.224313    1.114965   -0.005075
      7          1           0        2.425293   -1.001212   -0.018203
      8          1           0        2.447798    0.514906    0.907698
      9          1           0        2.453299    0.555001   -0.873811
     10          1           0        0.202726   -2.090100   -0.006410
     11          1           0       -2.434205    1.156656    0.008669
     12          1           0        0.160364    2.124559   -0.009233
 ---------------------------------------------------------------------
 Rotational constants (GHZ):      9.1647959      3.5960751      2.6256632
 Leave Link  202 at Sun Oct  3 21:10:39 2021, MaxMem=  536870912 cpu:       0.0
 (Enter /sw/target/amd/app/gaussian/Gaussian09RevA.02_gcc-4.9.2/g09/l301.exe)
 Standard basis: 6-31G(d) (6D, 7F)
 Ernie: Thresh=  0.10000D-02 Tol=  0.10000D-05 Strict=F.
 There are   102 symmetry adapted basis functions of A   symmetry.
 Integral buffers will be    131072 words long.
 Raffenetti 2 integral format.
 Two-electron integral symmetry is turned on.
   102 basis functions,   192 primitive gaussians,   102 cartesian basis functions
    22 alpha electrons       22 beta electrons
       nuclear repulsion energy       225.8380422245 Hartrees.
 IExCor=  402 DFT=T Ex+Corr=B3LYP ExCW=0 ScaHFX=  0.200000
 ScaDFX=  0.800000  0.720000  1.000000  0.810000 ScalE2=  1.000000  1.000000
 IRadAn=      0 IRanWt=     -1 IRanGd=            0 ICorTp=0
 NAtoms=   12 NActive=   12 NUniq=   12 SFac= 7.50D-01 NAtFMM=   80 NAOKFM=F Big=F
 Leave Link  301 at Sun Oct  3 21:10:40 2021, MaxMem=  536870912 cpu:       0.1
 (Enter /sw/target/amd/app/gaussian/Gaussian09RevA.02_gcc-4.9.2/g09/l302.exe)
 NPDir=0 NMtPBC=     1 NCelOv=     1 NCel=       1 NClECP=     1 NCelD=      1
         NCelK=      1 NCelE2=     1 NClLst=     1 CellRange=     0.0.
 One-electron integrals computed using PRISM.
 NBasis=   102 RedAO= T  NBF=   102
 NBsUse=   102 1.00D-06 NBFU=   102
 Precomputing XC quadrature grid using
 IXCGrd= 2 IRadAn=           0 IRanWt=          -1 IRanGd=           0 AccXCQ= 1.00D-10.
 NRdTot=     744 NPtTot=       94510 NUsed=       99887 NTot=       99919
 NSgBfM=   102   102   102   102   102 NAtAll=    12    12.
 Leave Link  302 at Sun Oct  3 21:10:42 2021, MaxMem=  536870912 cpu:       0.6
 (Enter /sw/target/amd/app/gaussian/Gaussian09RevA.02_gcc-4.9.2/g09/l303.exe)
 DipDrv:  MaxL=1.
 Leave Link  303 at Sun Oct  3 21:10:43 2021, MaxMem=  536870912 cpu:       0.1
 (Enter /sw/target/amd/app/gaussian/Gaussian09RevA.02_gcc-4.9.2/g09/l401.exe)
 Initial guess read from the read-write file.
 B after Tr=     0.000000    0.000000    0.000000
         Rot=    1.000000    0.000000    0.000000    0.000000 Ang=   0.00 deg.
 Guess basis will be translated and rotated to current coordinates.
 Initial guess orbital symmetries:
       Occupied  (A) (A) (A) (A) (A) (A) (A) (A) (A) (A) (A) (A)
                 (A) (A) (A) (A) (A) (A) (A) (A) (A) (A)
       Virtual   (A) (A) (A) (A) (A) (A) (A) (A) (A) (A) (A) (A)
                 (A) (A) (A) (A) (A) (A) (A) (A) (A) (A) (A) (A)
                 (A) (A) (A) (A) (A) (A) (A) (A) (A) (A) (A) (A)
                 (A) (A) (A) (A) (A) (A) (A) (A) (A) (A) (A) (A)
                 (A) (A) (A) (A) (A) (A) (A) (A) (A) (A) (A) (A)
                 (A) (A) (A) (A) (A) (A) (A) (A) (A) (A) (A) (A)
                 (A) (A) (A) (A) (A) (A) (A) (A)
 The electronic state of the initial guess is 1-A.
 Generating alternative initial guess.
 Harris functional with IExCor=  402 diagonalized for initial guess.
 ExpMin= 1.61D-01 ExpMax= 4.17D+03 ExpMxC= 6.27D+02 IAcc=1 IRadAn=         1 AccDes= 0.00D+00
 HarFok:  IExCor=  402 AccDes= 0.00D+00 IRadAn=         1 IDoV= 1
 ScaDFX=  1.000000  1.000000  1.000000  1.000000
 FoFCou: FMM=F IPFlag=           0 FMFlag=      100000 FMFlg1=           0
         NFxFlg=           0 DoJE=T BraDBF=F KetDBF=T FulRan=T
         Omega=  0.000000  0.000000  1.000000  0.000000  0.000000 ICntrl=     500 IOpCl=  0
         NMat0=    1 NMatS0=    1 NMatT0=    0 NMatD0=    1 NMtDS0=    0 NMtDT0=    0
         I1Cent=           4 NGrid=           0.
 Petite list used in FoFCou.
 Harris En= -265.561535460277    
 Leave Link  401 at Sun Oct  3 21:10:50 2021, MaxMem=  536870912 cpu:       2.0
 (Enter /sw/target/amd/app/gaussian/Gaussian09RevA.02_gcc-4.9.2/g09/l502.exe)
 Closed shell SCF:
 Requested convergence on RMS density matrix=1.00D-08 within  64 cycles.
 Requested convergence on MAX density matrix=1.00D-06.
 Requested convergence on             energy=1.00D-06.
 No special actions if energy rises.
 Using DIIS extrapolation, IDIIS=  1040.
[...]
 CISAX will form     1 AO SS matrices at one time.
 NMat=     1 NSing=     1.
 Leave Link  914 at Sun Oct  3 22:19:56 2021, MaxMem=  536870912 cpu:     820.2
 (Enter /sw/target/amd/app/gaussian/Gaussian09RevA.02_gcc-4.9.2/g09/l1002.exe)
 Minotr:  Closed shell wavefunction.
          Computing CIS/TD-HF/TD-KS derivatives.
          Using Z-Vector for PSCF gradient.
          Skipping F1 and S1 gradient terms here.
          Frozen-core window.
          Direct CPHF calculation.
          Differentiating once with respect to electric field.
                with respect to dipole field.
          Electric field/nuclear overlap derivatives assumed to be zero.
          Requested convergence is 1.0D-10 RMS, and 1.0D-09 maximum.
          NewPWx=F KeepS1=T KeepF1=T KeepIn=T MapXYZ=F SortEE=F KeepMc=T.
          MDV=     536870812 using IRadAn=       0.
 Generate precomputed XC quadrature information.
          Keep R1 ints in memory in canonical form, NReq=14625721.
 Symmetry not used in FoFDir.
 MinBra= 0 MaxBra= 2 Meth= 1.
 IRaf=       0 NMat=   1 IRICut=       1 DoRegI=T DoRafI=F ISym2E= 0 JSym2E=0.
          Solving linear equations separately, MaxMat=       0.
          There are     1 degrees of freedom in the 1st order CPHF.  IDoFFX=0.
 LinEq1:  Iter=  0 NonCon=     1 RMS=4.79D-02 Max=1.04D+00
 AX will form     1 AO Fock derivatives at one time.
 LinEq1:  Iter=  1 NonCon=     1 RMS=1.37D-02 Max=2.37D-01
 LinEq1:  Iter=  2 NonCon=     1 RMS=8.45D-03 Max=9.20D-02
 LinEq1:  Iter=  3 NonCon=     1 RMS=3.37D-03 Max=7.57D-02
 LinEq1:  Iter=  4 NonCon=     1 RMS=7.37D-04 Max=1.08D-02
 LinEq1:  Iter=  5 NonCon=     1 RMS=5.73D-04 Max=1.25D-02
 LinEq1:  Iter=  6 NonCon=     1 RMS=2.20D-04 Max=2.57D-03
 LinEq1:  Iter=  7 NonCon=     1 RMS=1.11D-04 Max=9.67D-04
 LinEq1:  Iter=  8 NonCon=     1 RMS=3.64D-05 Max=5.09D-04
 LinEq1:  Iter=  9 NonCon=     1 RMS=2.11D-05 Max=3.61D-04
 LinEq1:  Iter= 10 NonCon=     1 RMS=8.23D-06 Max=8.80D-05
 LinEq1:  Iter= 11 NonCon=     1 RMS=3.70D-06 Max=3.28D-05
 LinEq1:  Iter= 12 NonCon=     1 RMS=8.55D-07 Max=8.59D-06
 LinEq1:  Iter= 13 NonCon=     1 RMS=1.43D-07 Max=2.15D-06
 LinEq1:  Iter= 14 NonCon=     1 RMS=3.40D-08 Max=3.04D-07
 LinEq1:  Iter= 15 NonCon=     1 RMS=7.37D-09 Max=7.20D-08
 LinEq1:  Iter= 16 NonCon=     1 RMS=2.37D-09 Max=2.21D-08
 LinEq1:  Iter= 17 NonCon=     1 RMS=4.68D-10 Max=3.10D-09
 LinEq1:  Iter= 18 NonCon=     0 RMS=6.57D-11 Max=6.13D-10
 Linear equations converged to 1.000D-10 1.000D-09 after    18 iterations.
 End of Minotr Frequency-dependent properties file   721 does not exist.
 End of Minotr Frequency-dependent properties file   722 does not exist.
 Leave Link 1002 at Sun Oct  3 22:23:36 2021, MaxMem=  536870912 cpu:      73.0
 (Enter /sw/target/amd/app/gaussian/Gaussian09RevA.02_gcc-4.9.2/g09/l601.exe)
 Copying SCF densities to generalized density rwf, IOpCl= 0 IROHF=0.

 **********************************************************************

            Population analysis using the CI density.

 **********************************************************************

 Orbital symmetries:
       Occupied  (A) (A) (A) (A) (A) (A) (A) (A) (A) (A) (A) (A)
                 (A) (A) (A) (A) (A) (A) (A) (A) (A) (A)
       Virtual   (A) (A) (A) (A) (A) (A) (A) (A) (A) (A) (A) (A)
                 (A) (A) (A) (A) (A) (A) (A) (A) (A) (A) (A) (A)
                 (A) (A) (A) (A) (A) (A) (A) (A) (A) (A) (A) (A)
                 (A) (A) (A) (A) (A) (A) (A) (A) (A) (A) (A) (A)
                 (A) (A) (A) (A) (A) (A) (A) (A) (A) (A) (A) (A)
                 (A) (A) (A) (A) (A) (A) (A) (A) (A) (A) (A) (A)
                 (A) (A) (A) (A) (A) (A) (A) (A)
 The electronic state is 1-A.
 Alpha  occ. eigenvalues --  -14.39162 -14.30246 -10.24141 -10.22982 -10.20567
 Alpha  occ. eigenvalues --  -10.19002  -1.00999  -0.87868  -0.74611  -0.71352
 Alpha  occ. eigenvalues --   -0.59005  -0.57150  -0.53112  -0.47448  -0.45132
 Alpha  occ. eigenvalues --   -0.42510  -0.41219  -0.39441  -0.39296  -0.26286
 Alpha  occ. eigenvalues --   -0.25859  -0.22121
 Alpha virt. eigenvalues --    0.03232   0.07670   0.08965   0.12084   0.13175
 Alpha virt. eigenvalues --    0.15647   0.15856   0.16026   0.18008   0.23564
 Alpha virt. eigenvalues --    0.26580   0.33682   0.35263   0.44815   0.47461
 Alpha virt. eigenvalues --    0.49038   0.51008   0.56541   0.57527   0.61113
 Alpha virt. eigenvalues --    0.63618   0.64806   0.66346   0.67620   0.72375
 Alpha virt. eigenvalues --    0.75439   0.80724   0.81258   0.82429   0.84544
 Alpha virt. eigenvalues --    0.85288   0.85889   0.88067   0.89915   0.92086
 Alpha virt. eigenvalues --    0.95717   1.00783   1.05544   1.14674   1.19629
 Alpha virt. eigenvalues --    1.29207   1.30804   1.37173   1.38818   1.39219
 Alpha virt. eigenvalues --    1.51458   1.51503   1.55675   1.57107   1.77652
 Alpha virt. eigenvalues --    1.86895   1.87539   1.92023   1.96971   2.02719
 Alpha virt. eigenvalues --    2.08411   2.10114   2.12701   2.21819   2.25278
 Alpha virt. eigenvalues --    2.26201   2.28219   2.32625   2.35137   2.40971
 Alpha virt. eigenvalues --    2.48300   2.59630   2.60755   2.65632   2.72680
 Alpha virt. eigenvalues --    2.80481   3.00329   3.03107   3.10629   3.91198
 Alpha virt. eigenvalues --    4.00935   4.13409   4.23311   4.29712   4.44288
          Condensed to atoms (all electrons):
              1          2          3          4          5          6
     1  C    4.945177   0.376890  -0.056942   0.004350   0.005406  -0.052368
     2  N    0.376890   6.739557   0.303502  -0.029674  -0.002341   0.217460
     3  C   -0.056942   0.303502   5.051296   0.324164  -0.172942   0.004862
     4  N    0.004350  -0.029674   0.324164   6.727141   0.419246  -0.066304
     5  C    0.005406  -0.002341  -0.172942   0.419246   4.902215   0.552814
     6  C   -0.052368   0.217460   0.004862  -0.066304   0.552814   5.011603
     7  H    0.374830  -0.028745  -0.003151  -0.000045  -0.000222   0.003290
     8  H    0.353448  -0.062206   0.005523  -0.000169  -0.000227   0.007410
     9  H    0.355588  -0.061387   0.005269  -0.000154  -0.000184   0.006842
    10  H   -0.002692  -0.040667   0.376418  -0.041225   0.004449   0.005759
    11  H   -0.000176   0.004026   0.005555  -0.040549   0.366104  -0.028358
    12  H   -0.002907  -0.044724   0.004475   0.003330  -0.044299   0.388266
              7          8          9         10         11         12
     1  C    0.374830   0.353448   0.355588  -0.002692  -0.000176  -0.002907
     2  N   -0.028745  -0.062206  -0.061387  -0.040667   0.004026  -0.044724
     3  C   -0.003151   0.005523   0.005269   0.376418   0.005555   0.004475
     4  N   -0.000045  -0.000169  -0.000154  -0.041225  -0.040549   0.003330
     5  C   -0.000222  -0.000227  -0.000184   0.004449   0.366104  -0.044299
     6  C    0.003290   0.007410   0.006842   0.005759  -0.028358   0.388266
     7  H    0.542519  -0.028787  -0.026122   0.004358   0.000004  -0.000080
     8  H   -0.028787   0.647751  -0.072871  -0.000007   0.000000   0.001243
     9  H   -0.026122  -0.072871   0.641198   0.000034   0.000001   0.001574
    10  H    0.004358  -0.000007   0.000034   0.549476  -0.000208  -0.000198
    11  H    0.000004   0.000000   0.000001  -0.000208   0.543012  -0.001450
    12  H   -0.000080   0.001243   0.001574  -0.000198  -0.001450   0.550833
 Mulliken atomic charges:
              1
     1  C   -0.300603
     2  N   -0.371691
     3  C    0.151970
     4  N   -0.300111
     5  C   -0.030019
     6  C   -0.051274
     7  H    0.162151
     8  H    0.148891
     9  H    0.150210
    10  H    0.144502
    11  H    0.152037
    12  H    0.143938
 Sum of Mulliken atomic charges =  -0.00000
 Mulliken charges with hydrogens summed into heavy atoms:
              1
     1  C    0.160648
     2  N   -0.371691
     3  C    0.296472
     4  N   -0.300111
     5  C    0.122018
     6  C    0.092664
 Sum of Mulliken charges with hydrogens summed into heavy atoms =  -0.00000
 Electronic spatial extent (au):  <R**2>=            488.9677
 Charge=             -0.0000 electrons
 Dipole moment (field-independent basis, Debye):
    X=              0.8811    Y=             -0.2177    Z=             -0.0094  Tot=              0.9076
 Quadrupole moment (field-independent basis, Debye-Ang):
   XX=            -30.9179   YY=            -32.5106   ZZ=            -38.8392
   XY=             -0.8567   XZ=             -0.0313   YZ=             -0.0001
 Traceless Quadrupole moment (field-independent basis, Debye-Ang):
   XX=              3.1713   YY=              1.5786   ZZ=             -4.7500
   XY=             -0.8567   XZ=             -0.0313   YZ=             -0.0001
 Octapole moment (field-independent basis, Debye-Ang**2):
  XXX=             -1.9952  YYY=             -2.5091  ZZZ=              0.0010  XYY=              0.5291
  XXY=              0.9150  XXZ=             -0.0854  XZZ=              2.1930  YZZ=             -0.7194
  YYZ=             -0.0492  XYZ=             -0.0115
 Hexadecapole moment (field-independent basis, Debye-Ang**3):
 XXXX=           -395.6362 YYYY=           -170.9916 ZZZZ=            -46.1228 XXXY=             -8.2275
 XXXZ=             -0.3417 YYYX=             -0.2514 YYYZ=              0.0037 ZZZX=             -0.0038
 ZZZY=             -0.0087 XXYY=            -94.7429 XXZZ=            -80.9425 YYZZ=            -44.0861
 XXYZ=             -0.0031 YYXZ=             -0.1026 ZZXY=              1.9899
 N-N= 2.258819753861D+02 E-N=-1.067794076360D+03  KE= 2.630453562044D+02
 No NMR shielding tensors so no spin-rotation constants.
 Leave Link  601 at Sun Oct  3 22:23:40 2021, MaxMem=  536870912 cpu:       0.4
 (Enter /sw/target/amd/app/gaussian/Gaussian09RevA.02_gcc-4.9.2/g09/l604.exe)
 Evaluate density.
 Using the total density.
 Monte-Carlo method of calculating molar volume:
 based on  0.001 e/bohr**3 density envelope.
 Number of points per bohr**3 =   20 CutOff= 1.00D-04
 Using the CI density.
 There are       328 points.  Will hold       328 in memory.
 LenV=   536825638 MDV=   536870912.
 Box volume = 4424.619 fraction occupied=0.143
 Integrated density= 2.7024933447818068D+01 error=-1.6975066552181932D+01
 Molar volume =  634.015 bohr**3/mol ( 56.579 cm**3/mol)
 Recommended a0 for SCRF calculation =  3.60 angstrom (  6.81 bohr)
 Leave Link  604 at Sun Oct  3 22:23:42 2021, MaxMem=  536870912 cpu:       0.1
 (Enter /sw/target/amd/app/gaussian/Gaussian09RevA.02_gcc-4.9.2/g09/l607.exe)
 ******************************Gaussian NBO Version 3.1******************************
             N A T U R A L   A T O M I C   O R B I T A L   A N D
          N A T U R A L   B O N D   O R B I T A L   A N A L Y S I S
 ******************************Gaussian NBO Version 3.1******************************
       /RESON  / : Allow strongly delocalized NBO set

 Analyzing the CI density

 Job title: Cn1cncc1_conf_0                                                 

 Storage needed:     31758 in NPA ( 536870072 available)


 NATURAL POPULATIONS:  Natural atomic orbital occupancies 
                                                          
   NAO  Atom  No  lang   Type(AO)    Occupancy
 --------------------------------------------
     1    C    1  S      Cor( 1S)     1.99947
     2    C    1  S      Val( 2S)     1.08066
     3    C    1  S      Ryd( 3S)     0.00108
     4    C    1  S      Ryd( 4S)     0.00001
     5    C    1  px     Val( 2p)     0.86339
     6    C    1  px     Ryd( 3p)     0.00145
     7    C    1  py     Val( 2p)     1.24897
     8    C    1  py     Ryd( 3p)     0.00315
     9    C    1  pz     Val( 2p)     1.24501
    10    C    1  pz     Ryd( 3p)     0.00079
    11    C    1  dxy    Ryd( 3d)     0.00054
    12    C    1  dxz    Ryd( 3d)     0.00162
    13    C    1  dyz    Ryd( 3d)     0.00072
    14    C    1  dx2y2  Ryd( 3d)     0.00124
    15    C    1  dz2    Ryd( 3d)     0.00086

    16    N    2  S      Cor( 1S)     1.99933
    17    N    2  S      Val( 2S)     1.17099
    18    N    2  S      Ryd( 3S)     0.00036
    19    N    2  S      Ryd( 4S)     0.00000
    20    N    2  px     Val( 2p)     1.28396
    21    N    2  px     Ryd( 3p)     0.00181
    22    N    2  py     Val( 2p)     1.28685
    23    N    2  py     Ryd( 3p)     0.00220
    24    N    2  pz     Val( 2p)     1.66055
    25    N    2  pz     Ryd( 3p)     0.00491
    26    N    2  dxy    Ryd( 3d)     0.00076
    27    N    2  dxz    Ryd( 3d)     0.00099
    28    N    2  dyz    Ryd( 3d)     0.00063
    29    N    2  dx2y2  Ryd( 3d)     0.00053
    30    N    2  dz2    Ryd( 3d)     0.00060

    31    C    3  S      Cor( 1S)     1.99929
    32    C    3  S      Val( 2S)     0.87955
    33    C    3  S      Ryd( 3S)     0.00289
    34    C    3  S      Ryd( 4S)     0.00009
    35    C    3  px     Val( 2p)     0.82877
    36    C    3  px     Ryd( 3p)     0.00789
    37    C    3  py     Val( 2p)     1.03589
    38    C    3  py     Ryd( 3p)     0.00393
    39    C    3  pz     Val( 2p)     1.24712
    40    C    3  pz     Ryd( 3p)     0.01306
    41    C    3  dxy    Ryd( 3d)     0.00137
    42    C    3  dxz    Ryd( 3d)     0.00176
    43    C    3  dyz    Ryd( 3d)     0.00110
    44    C    3  dx2y2  Ryd( 3d)     0.00143
    45    C    3  dz2    Ryd( 3d)     0.00066

    46    N    4  S      Cor( 1S)     1.99876
    47    N    4  S      Val( 2S)     1.27895
    48    N    4  S      Ryd( 3S)     0.00001
    49    N    4  S      Ryd( 4S)     0.00000
    50    N    4  px     Val( 2p)     1.11665
    51    N    4  px     Ryd( 3p)     0.00241
    52    N    4  py     Val( 2p)     1.12101
    53    N    4  py     Ryd( 3p)     0.00265
    54    N    4  pz     Val( 2p)     1.55104
    55    N    4  pz     Ryd( 3p)     0.00224
    56    N    4  dxy    Ryd( 3d)     0.00000
    57    N    4  dxz    Ryd( 3d)     0.00136
    58    N    4  dyz    Ryd( 3d)     0.00174
    59    N    4  dx2y2  Ryd( 3d)     0.00083
    60    N    4  dz2    Ryd( 3d)     0.00013

    61    C    5  S      Cor( 1S)     1.99908
    62    C    5  S      Val( 2S)     0.95668
    63    C    5  S      Ryd( 3S)     0.00119
    64    C    5  S      Ryd( 4S)     0.00006
    65    C    5  px     Val( 2p)     1.16103
    66    C    5  px     Ryd( 3p)     0.00479
    67    C    5  py     Val( 2p)     0.88313
    68    C    5  py     Ryd( 3p)     0.00495
    69    C    5  pz     Val( 2p)     1.13773
    70    C    5  pz     Ryd( 3p)     0.00372
    71    C    5  dxy    Ryd( 3d)     0.00090
    72    C    5  dxz    Ryd( 3d)     0.00091
    73    C    5  dyz    Ryd( 3d)     0.00181
    74    C    5  dx2y2  Ryd( 3d)     0.00123
    75    C    5  dz2    Ryd( 3d)     0.00063

    76    C    6  S      Cor( 1S)     1.99912
    77    C    6  S      Val( 2S)     0.92162
    78    C    6  S      Ryd( 3S)     0.00107
    79    C    6  S      Ryd( 4S)     0.00004
    80    C    6  px     Val( 2p)     0.93632
    81    C    6  px     Ryd( 3p)     0.00643
    82    C    6  py     Val( 2p)     1.05726
    83    C    6  py     Ryd( 3p)     0.00336
    84    C    6  pz     Val( 2p)     1.29351
    85    C    6  pz     Ryd( 3p)     0.01160
    86    C    6  dxy    Ryd( 3d)     0.00122
    87    C    6  dxz    Ryd( 3d)     0.00073
    88    C    6  dyz    Ryd( 3d)     0.00087
    89    C    6  dx2y2  Ryd( 3d)     0.00075
    90    C    6  dz2    Ryd( 3d)     0.00056

    91    H    7  S      Val( 1S)     0.76535
    92    H    7  S      Ryd( 2S)     0.00067

    93    H    8  S      Val( 1S)     0.78509
    94    H    8  S      Ryd( 2S)     0.00565

    95    H    9  S      Val( 1S)     0.78351
    96    H    9  S      Ryd( 2S)     0.00534

    97    H   10  S      Val( 1S)     0.77891
    98    H   10  S      Ryd( 2S)     0.00044

    99    H   11  S      Val( 1S)     0.75707
   100    H   11  S      Ryd( 2S)     0.00029

   101    H   12  S      Val( 1S)     0.75946
   102    H   12  S      Ryd( 2S)     0.00018

 WARNING:  1 low occupancy (<1.9990e) core orbital  found on  N    4


 Summary of Natural Population Analysis:                  
                                                          
                                       Natural Population 
                Natural  -----------------------------------------------
    Atom  No    Charge         Core      Valence    Rydberg      Total
 -----------------------------------------------------------------------
      C    1   -0.44897      1.99947     4.43802    0.01147     6.44897
      N    2   -0.41447      1.99933     5.40235    0.01279     7.41447
      C    3   -0.02480      1.99929     3.99133    0.03418     6.02480
      N    4   -0.07778      1.99876     5.06764    0.01138     7.07778
      C    5   -0.15782      1.99908     4.13857    0.02018     6.15782
      C    6   -0.23445      1.99912     4.20871    0.02662     6.23445
      H    7    0.23398      0.00000     0.76535    0.00067     0.76602
      H    8    0.20926      0.00000     0.78509    0.00565     0.79074
      H    9    0.21115      0.00000     0.78351    0.00534     0.78885
      H   10    0.22065      0.00000     0.77891    0.00044     0.77935
      H   11    0.24263      0.00000     0.75707    0.00029     0.75737
      H   12    0.24036      0.00000     0.75946    0.00018     0.75964
 =======================================================================
   * Total *   -0.00027     11.99505    31.87603    0.12919    44.00027

                                 Natural Population      
 --------------------------------------------------------
   Core                      11.99505 ( 99.9588% of  12)
   Valence                   31.87603 ( 99.6126% of  32)
   Natural Minimal Basis     43.87108 ( 99.7070% of  44)
   Natural Rydberg Basis      0.12919 (  0.2936% of  44)
 --------------------------------------------------------

    Atom  No          Natural Electron Configuration
 ----------------------------------------------------------------------------
      C    1      [core]2S( 1.08)2p( 3.36)3p( 0.01)
      N    2      [core]2S( 1.17)2p( 4.23)3p( 0.01)
      C    3      [core]2S( 0.88)2p( 3.11)3p( 0.02)3d( 0.01)
      N    4      [core]2S( 1.28)2p( 3.79)3p( 0.01)
      C    5      [core]2S( 0.96)2p( 3.18)3p( 0.01)3d( 0.01)
      C    6      [core]2S( 0.92)2p( 3.29)3p( 0.02)
      H    7            1S( 0.77)
      H    8            1S( 0.79)2S( 0.01)
      H    9            1S( 0.78)2S( 0.01)
      H   10            1S( 0.78)
      H   11            1S( 0.76)
      H   12            1S( 0.76)


 NBO analysis skipped by request.
 Leave Link  607 at Sun Oct  3 22:24:11 2021, MaxMem=  536870912 cpu:       7.0
 (Enter /sw/target/amd/app/gaussian/Gaussian09RevA.02_gcc-4.9.2/g09/l9999.exe)
 1\1\GINC-HERMITE\SP\RTD-B3LYP-FC\6-31G(d)\C4H6N2\JSCHLEINITZ\03-Oct-20
 21\0\\#p TD(NStates=10, Root=1) b3lyp/6-31G* volume pop=NPA density=cu
 rrent Geom=AllCheck Guess=Read\\Cn1cncc1_conf_0\\0,1\C,0,2.1900303623,
 0.0166991451,-0.0175822046\N,0,0.739136113,-0.0254443306,-0.0038311\C,
 0,-0.1131490544,1.0447366379,0.0041375061\N,0,-1.3779239601,0.68256537
 22,0.0096033111\C,0,-1.3503936909,-0.6938247215,0.0036960138\C,0,-0.05
 70114426,-1.1545216251,-0.0042759109\H,0,2.5135158135,1.0598995219,0.0
 066939006\H,0,2.5855691996,-0.4518114616,-0.9250117223\H,0,2.601958597
 7,-0.4976797004,0.8569261093\H,0,0.2557089832,2.062752113,0.0062503913
 \H,0,-2.2630934357,-1.2749353281,0.0065599293\H,0,0.3666324131,-2.1482
 617929,-0.0096885678\\Version=AM64L-G09RevA.02\State=1-A\HF=-265.52735
 05\RMSD=9.060e-09\Dipole=0.3432454,0.0984765,0.0018011\Quadrupole=2.30
 88935,1.2225995,-3.531493,0.6792144,-0.0130461,0.0142293\PG=C01 [X(C4H
 6N2)]\\@


 A SUCCESSFUL PURSUIT OF SCIENCE MAKES A MAN THE
 BENEFACTOR OF ALL MANKIND OF EVERY AGE.
   --  JOSEPH PRIESTLEY, "EXPERIMENTS AND
 OBSERVATIONS ON DIFFERENT KINDS OF AIR", 1774
 Job cpu time:  0 days  0 hours 15 minutes  8.3 seconds.
 File lengths (MBytes):  RWF=     37 Int=      0 D2E=      0 Chk=      6 Scr=      1
 Normal termination of Gaussian 09 at Sun Oct  3 22:24:17 2021.
