 Entering Gaussian System, Link 0=g09
 Input=C4H9N_c5a3_conf_0.com
 Output=C4H9N_c5a3_conf_0.log
 Initial command:
 /sw/target/amd/app/gaussian/Gaussian09RevA.02_gcc-4.9.2/g09/l1.exe /home/jschleinitz/gaussian/Gau-1169258.inp -scrdir=/home/jschleinitz/gaussian/
 Entering Link 1 = /sw/target/amd/app/gaussian/Gaussian09RevA.02_gcc-4.9.2/g09/l1.exe PID=   1169475.
  
 Copyright (c) 1988,1990,1992,1993,1995,1998,2003,2009, Gaussian, Inc.
                  All Rights Reserved.
  
 This is part of the Gaussian(R) 09 program.  It is based on
 the Gaussian(R) 03 system (copyright 2003, Gaussian, Inc.),
 the Gaussian(R) 98 system (copyright 1998, Gaussian, Inc.),
 the Gaussian(R) 94 system (copyright 1995, Gaussian, Inc.),
 the Gaussian 92(TM) system (copyright 1992, Gaussian, Inc.),
 the Gaussian 90(TM) system (copyright 1990, Gaussian, Inc.),
 the Gaussian 88(TM) system (copyright 1988, Gaussian, Inc.),
 the Gaussian 86(TM) system (copyright 1986, Carnegie Mellon
 University), and the Gaussian 82(TM) system (copyright 1983,
 Carnegie Mellon University). Gaussian is a federally registered
 trademark of Gaussian, Inc.
  
 This software contains proprietary and confidential information,
 including trade secrets, belonging to Gaussian, Inc.
  
 This software is provided under written license and may be
 used, copied, transmitted, or stored only in accord with that
 written license.
  
 The following legend is applicable only to US Government
 contracts under FAR:
  
                    RESTRICTED RIGHTS LEGEND
  
 Use, reproduction and disclosure by the US Government is
 subject to restrictions as set forth in subparagraphs (a)
 and (c) of the Commercial Computer Software - Restricted
 Rights clause in FAR 52.227-19.
  
 Gaussian, Inc.
 340 Quinnipiac St., Bldg. 40, Wallingford CT 06492
  
  
 ---------------------------------------------------------------
 Warning -- This program may not be used in any manner that
 competes with the business of Gaussian, Inc. or will provide
 assistance to any competitor of Gaussian, Inc.  The licensee
 of this program is prohibited from giving any competitor of
 Gaussian, Inc. access to this program.  By using this program,
 the user acknowledges that Gaussian, Inc. is engaged in the
 business of creating and licensing software in the field of
 computational chemistry and represents and warrants to the
 licensee that it is not a competitor of Gaussian, Inc. and that
 it will not use this program in any manner prohibited above.
 ---------------------------------------------------------------
  

 Cite this work as:
 Gaussian 09, Revision A.02,
 M. J. Frisch, G. W. Trucks, H. B. Schlegel, G. E. Scuseria, 
 M. A. Robb, J. R. Cheeseman, G. Scalmani, V. Barone, B. Mennucci, 
 G. A. Petersson, H. Nakatsuji, M. Caricato, X. Li, H. P. Hratchian, 
 A. F. Izmaylov, J. Bloino, G. Zheng, J. L. Sonnenberg, M. Hada, 
 M. Ehara, K. Toyota, R. Fukuda, J. Hasegawa, M. Ishida, T. Nakajima, 
 Y. Honda, O. Kitao, H. Nakai, T. Vreven, J. A. Montgomery, Jr., 
 J. E. Peralta, F. Ogliaro, M. Bearpark, J. J. Heyd, E. Brothers, 
 K. N. Kudin, V. N. Staroverov, R. Kobayashi, J. Normand, 
 K. Raghavachari, A. Rendell, J. C. Burant, S. S. Iyengar, J. Tomasi, 
 M. Cossi, N. Rega, J. M. Millam, M. Klene, J. E. Knox, J. B. Cross, 
 V. Bakken, C. Adamo, J. Jaramillo, R. Gomperts, R. E. Stratmann, 
 O. Yazyev, A. J. Austin, R. Cammi, C. Pomelli, J. W. Ochterski, 
 R. L. Martin, K. Morokuma, V. G. Zakrzewski, G. A. Voth, 
 P. Salvador, J. J. Dannenberg, S. Dapprich, A. D. Daniels, 
 O. Farkas, J. B. Foresman, J. V. Ortiz, J. Cioslowski, 
 and D. J. Fox, Gaussian, Inc., Wallingford CT, 2009.
 
 ******************************************
 Gaussian 09:  AM64L-G09RevA.02 11-Jun-2009
                 4-Oct-2021 
 ******************************************
 %nproc=2
 Will use up to    2 processors via shared memory.
 %mem=4gb
 %chk=C4H9N_c5a3_conf_0.chk
 -----------------------------------
 #p opt b3lyp/6-31G* scf=(xqc,tight)
 -----------------------------------
 1/14=-1,18=20,19=15,26=3,38=1/1,3;
 2/9=110,12=2,17=6,18=5,40=1/2;
 3/5=1,6=6,7=1,11=2,16=1,25=1,30=1,71=1,74=-5/1,2,3;
 4//1;
 5/5=2,8=3,13=1,32=2,38=5/2,8;
 6/7=2,8=2,9=2,10=2,28=1/1;
 7//1,2,3,16;
 1/14=-1,18=20,19=15/3(2);
 2/9=110/2;
 99//99;
 2/9=110/2;
 3/5=1,6=6,7=1,11=2,16=1,25=1,30=1,71=1,74=-5/1,2,3;
 4/5=5,16=3/1;
 5/5=2,8=3,13=1,32=2,38=5/2,8;
 7//1,2,3,16;
 1/14=-1,18=20,19=15/3(-5);
 2/9=110/2;
 6/7=2,8=2,9=2,10=2,19=2,28=1/1;
 99/9=1/99;
 Leave Link    1 at Mon Oct  4 09:12:10 2021, MaxMem=  536870912 cpu:       0.1
 (Enter /sw/target/amd/app/gaussian/Gaussian09RevA.02_gcc-4.9.2/g09/l101.exe)
 --------------
 C1CCCN1_conf_0
 --------------
 Symbolic Z-matrix:
 Charge =  0 Multiplicity = 1
 C                    -0.83268  -0.87892  -0.24551 
 C                     0.58275  -1.13444   0.22628 
 C                     1.28913   0.15834  -0.13144 
 C                     0.20588   1.22398  -0.02884 
 N                    -1.06295   0.51165   0.13968 
 H                    -1.55357  -1.55174   0.22668 
 H                    -0.90652  -0.991    -1.33357 
 H                     1.03773  -2.00489  -0.25516 
 H                     0.60544  -1.28943   1.31196 
 H                     1.661     0.10474  -1.16152 
 H                     2.13935   0.35746   0.52808 
 H                     0.19351   1.84913  -0.92836 
 H                     0.37526   1.87547   0.83382 
 H                    -1.7954    0.93065  -0.42944 
 
 NAtoms=     14 NQM=     14 NQMF=      0 NMic=      0 NMicF=      0 NTot=     14.
                    Isotopes and Nuclear Properties:
 (Nuclear quadrupole moments (NQMom) in fm**2, nuclear magnetic moments (NMagM)
  in nuclear magnetons)

  Atom         1           2           3           4           5           6           7           8           9          10
 IAtWgt=          12          12          12          12          14           1           1           1           1           1
 AtmWgt=  12.0000000  12.0000000  12.0000000  12.0000000  14.0030740   1.0078250   1.0078250   1.0078250   1.0078250   1.0078250
 NucSpn=           0           0           0           0           2           1           1           1           1           1
 AtZEff=   0.0000000   0.0000000   0.0000000   0.0000000   0.0000000   0.0000000   0.0000000   0.0000000   0.0000000   0.0000000
 NQMom=    0.0000000   0.0000000   0.0000000   0.0000000   2.0440000   0.0000000   0.0000000   0.0000000   0.0000000   0.0000000
 NMagM=    0.0000000   0.0000000   0.0000000   0.0000000   0.4037610   2.7928460   2.7928460   2.7928460   2.7928460   2.7928460

  Atom        11          12          13          14
 IAtWgt=           1           1           1           1
 AtmWgt=   1.0078250   1.0078250   1.0078250   1.0078250
 NucSpn=           1           1           1           1
 AtZEff=   0.0000000   0.0000000   0.0000000   0.0000000
 NQMom=    0.0000000   0.0000000   0.0000000   0.0000000
 NMagM=    2.7928460   2.7928460   2.7928460   2.7928460
 Leave Link  101 at Mon Oct  4 09:12:10 2021, MaxMem=  536870912 cpu:       0.2
 (Enter /sw/target/amd/app/gaussian/Gaussian09RevA.02_gcc-4.9.2/g09/l103.exe)

 GradGradGradGradGradGradGradGradGradGradGradGradGradGradGradGradGradGrad
 Berny optimization.
 Initialization pass.
                           ----------------------------
                           !    Initial Parameters    !
                           ! (Angstroms and Degrees)  !
 --------------------------                            --------------------------
 ! Name  Definition              Value          Derivative Info.                !
 --------------------------------------------------------------------------------
 ! R1    R(1,2)                  1.5137         estimate D2E/DX2                !
 ! R2    R(1,5)                  1.4612         estimate D2E/DX2                !
 ! R3    R(1,6)                  1.0933         estimate D2E/DX2                !
 ! R4    R(1,7)                  1.0963         estimate D2E/DX2                !
 ! R5    R(2,3)                  1.516          estimate D2E/DX2                !
 ! R6    R(2,8)                  1.0938         estimate D2E/DX2                !
 ! R7    R(2,9)                  1.0969         estimate D2E/DX2                !
 ! R8    R(3,4)                  1.523          estimate D2E/DX2                !
 ! R9    R(3,10)                 1.0965         estimate D2E/DX2                !
 ! R10   R(3,11)                 1.0943         estimate D2E/DX2                !
 ! R11   R(4,5)                  1.4648         estimate D2E/DX2                !
 ! R12   R(4,12)                 1.0955         estimate D2E/DX2                !
 ! R13   R(4,13)                 1.0942         estimate D2E/DX2                !
 ! R14   R(5,14)                 1.0178         estimate D2E/DX2                !
 ! A1    A(2,1,5)              103.0525         estimate D2E/DX2                !
 ! A2    A(2,1,6)              112.2136         estimate D2E/DX2                !
 ! A3    A(2,1,7)              110.7967         estimate D2E/DX2                !
 ! A4    A(5,1,6)              111.5856         estimate D2E/DX2                !
 ! A5    A(5,1,7)              110.3846         estimate D2E/DX2                !
 ! A6    A(6,1,7)              108.742          estimate D2E/DX2                !
 ! A7    A(1,2,3)              102.6033         estimate D2E/DX2                !
 ! A8    A(1,2,8)              112.7114         estimate D2E/DX2                !
 ! A9    A(1,2,9)              110.5901         estimate D2E/DX2                !
 ! A10   A(3,2,8)              112.3922         estimate D2E/DX2                !
 ! A11   A(3,2,9)              110.1453         estimate D2E/DX2                !
 ! A12   A(8,2,9)              108.3357         estimate D2E/DX2                !
 ! A13   A(2,3,4)              104.4402         estimate D2E/DX2                !
 ! A14   A(2,3,10)             109.7571         estimate D2E/DX2                !
 ! A15   A(2,3,11)             112.0231         estimate D2E/DX2                !
 ! A16   A(4,3,10)             109.7989         estimate D2E/DX2                !
 ! A17   A(4,3,11)             112.6248         estimate D2E/DX2                !
 ! A18   A(10,3,11)            108.1544         estimate D2E/DX2                !
 ! A19   A(3,4,5)              106.4739         estimate D2E/DX2                !
 ! A20   A(3,4,12)             110.6095         estimate D2E/DX2                !
 ! A21   A(3,4,13)             111.0761         estimate D2E/DX2                !
 ! A22   A(5,4,12)             111.2348         estimate D2E/DX2                !
 ! A23   A(5,4,13)             109.4463         estimate D2E/DX2                !
 ! A24   A(12,4,13)            108.0187         estimate D2E/DX2                !
 ! A25   A(1,5,4)              107.2148         estimate D2E/DX2                !
 ! A26   A(1,5,14)             110.964          estimate D2E/DX2                !
 ! A27   A(4,5,14)             111.0274         estimate D2E/DX2                !
 ! D1    D(5,1,2,3)            -40.2878         estimate D2E/DX2                !
 ! D2    D(5,1,2,8)           -161.4018         estimate D2E/DX2                !
 ! D3    D(5,1,2,9)             77.1629         estimate D2E/DX2                !
 ! D4    D(6,1,2,3)           -160.4598         estimate D2E/DX2                !
 ! D5    D(6,1,2,8)             78.4262         estimate D2E/DX2                !
 ! D6    D(6,1,2,9)            -43.0091         estimate D2E/DX2                !
 ! D7    D(7,1,2,3)             77.7809         estimate D2E/DX2                !
 ! D8    D(7,1,2,8)            -43.3331         estimate D2E/DX2                !
 ! D9    D(7,1,2,9)           -164.7684         estimate D2E/DX2                !
 ! D10   D(2,1,5,4)             35.3627         estimate D2E/DX2                !
 ! D11   D(2,1,5,14)           156.7609         estimate D2E/DX2                !
 ! D12   D(6,1,5,4)            155.9653         estimate D2E/DX2                !
 ! D13   D(6,1,5,14)           -82.6366         estimate D2E/DX2                !
 ! D14   D(7,1,5,4)            -82.9945         estimate D2E/DX2                !
 ! D15   D(7,1,5,14)            38.4037         estimate D2E/DX2                !
 ! D16   D(1,2,3,4)             30.224          estimate D2E/DX2                !
 ! D17   D(1,2,3,10)           -87.4303         estimate D2E/DX2                !
 ! D18   D(1,2,3,11)           152.4101         estimate D2E/DX2                !
 ! D19   D(8,2,3,4)            151.5567         estimate D2E/DX2                !
 ! D20   D(8,2,3,10)            33.9024         estimate D2E/DX2                !
 ! D21   D(8,2,3,11)           -86.2572         estimate D2E/DX2                !
 ! D22   D(9,2,3,4)            -87.5425         estimate D2E/DX2                !
 ! D23   D(9,2,3,10)           154.8032         estimate D2E/DX2                !
 ! D24   D(9,2,3,11)            34.6436         estimate D2E/DX2                !
 ! D25   D(2,3,4,5)             -9.4106         estimate D2E/DX2                !
 ! D26   D(2,3,4,12)          -130.39           estimate D2E/DX2                !
 ! D27   D(2,3,4,13)           109.6694         estimate D2E/DX2                !
 ! D28   D(10,3,4,5)           108.215          estimate D2E/DX2                !
 ! D29   D(10,3,4,12)          -12.7644         estimate D2E/DX2                !
 ! D30   D(10,3,4,13)         -132.705          estimate D2E/DX2                !
 ! D31   D(11,3,4,5)          -131.2011         estimate D2E/DX2                !
 ! D32   D(11,3,4,12)          107.8194         estimate D2E/DX2                !
 ! D33   D(11,3,4,13)          -12.1211         estimate D2E/DX2                !
 ! D34   D(3,4,5,1)            -16.1925         estimate D2E/DX2                !
 ! D35   D(3,4,5,14)          -137.5507         estimate D2E/DX2                !
 ! D36   D(12,4,5,1)           104.3856         estimate D2E/DX2                !
 ! D37   D(12,4,5,14)          -16.9727         estimate D2E/DX2                !
 ! D38   D(13,4,5,1)          -136.3312         estimate D2E/DX2                !
 ! D39   D(13,4,5,14)          102.3106         estimate D2E/DX2                !
 --------------------------------------------------------------------------------
 Trust Radius=3.00D-01 FncErr=1.00D-07 GrdErr=1.00D-06
 Number of steps in this run=  90 maximum allowed number of steps= 100.
 GradGradGradGradGradGradGradGradGradGradGradGradGradGradGradGradGradGrad

 Leave Link  103 at Mon Oct  4 09:12:10 2021, MaxMem=  536870912 cpu:       0.0
 (Enter /sw/target/amd/app/gaussian/Gaussian09RevA.02_gcc-4.9.2/g09/l202.exe)
                          Input orientation:                          
 ---------------------------------------------------------------------
 Center     Atomic      Atomic             Coordinates (Angstroms)
 Number     Number       Type             X           Y           Z
 ---------------------------------------------------------------------
      1          6           0       -0.832680   -0.878915   -0.245511
      2          6           0        0.582753   -1.134440    0.226282
      3          6           0        1.289127    0.158336   -0.131441
      4          6           0        0.205876    1.223981   -0.028837
      5          7           0       -1.062951    0.511645    0.139681
      6          1           0       -1.553573   -1.551739    0.226676
      7          1           0       -0.906518   -0.991005   -1.333570
      8          1           0        1.037731   -2.004895   -0.255159
      9          1           0        0.605445   -1.289430    1.311957
     10          1           0        1.661004    0.104743   -1.161524
     11          1           0        2.139351    0.357458    0.528077
     12          1           0        0.193511    1.849134   -0.928363
     13          1           0        0.375259    1.875472    0.833820
     14          1           0       -1.795400    0.930654   -0.429440
 ---------------------------------------------------------------------
                    Distance matrix (angstroms):
                    1          2          3          4          5
     1  C    0.000000
     2  C    1.513714   0.000000
     3  C    2.364522   1.515981   0.000000
     4  C    2.355359   2.401930   1.523010   0.000000
     5  N    1.461183   2.329257   2.393868   1.464835   0.000000
     6  H    1.093316   2.176701   3.336697   3.296296   2.122695
     7  H    1.096306   2.161397   2.754442   2.801055   2.110189
     8  H    2.183199   1.093839   2.181301   3.341982   3.301778
     9  H    2.159266   1.096917   2.155654   2.876563   2.720596
    10  H    2.832864   2.150397   1.096465   2.157098   3.046085
    11  H    3.310593   2.177116   1.094301   2.190740   3.229452
    12  H    2.993594   3.222798   2.166623   1.095498   2.123273
    13  H    3.195422   3.077617   2.171506   1.094217   2.100072
    14  H    2.057960   3.217172   3.193678   2.061947   1.017815
                    6          7          8          9         10
     6  H    0.000000
     7  H    1.779738   0.000000
     8  H    2.674391   2.443572   0.000000
     9  H    2.430638   3.061682   1.776124   0.000000
    10  H    3.873569   2.796861   2.379188   3.029196   0.000000
    11  H    4.168161   3.815940   2.721716   2.383185   1.774101
    12  H    3.994040   3.072563   4.002430   3.878054   2.291462
    13  H    3.979296   3.815393   4.084360   3.209082   2.961422
    14  H    2.579001   2.302246   4.083436   3.704765   3.628333
                   11         12         13         14
    11  H    0.000000
    12  H    2.851773   0.000000
    13  H    2.347310   1.771726   0.000000
    14  H    4.089946   2.246841   2.683331   0.000000
 Stoichiometry    C4H9N
 Framework group  C1[X(C4H9N)]
 Deg. of freedom    36
 Full point group                 C1      NOp   1
 Largest Abelian subgroup         C1      NOp   1
 Largest concise Abelian subgroup C1      NOp   1
                         Standard orientation:                         
 ---------------------------------------------------------------------
 Center     Atomic      Atomic             Coordinates (Angstroms)
 Number     Number       Type             X           Y           Z
 ---------------------------------------------------------------------
      1          6           0       -1.017567   -0.688932    0.193320
      2          6           0       -0.977433    0.770651   -0.205853
      3          6           0        0.439894    1.172531    0.151744
      4          6           0        1.252964   -0.102743   -0.027569
      5          7           0        0.287908   -1.184699   -0.236807
      6          1           0       -1.833541   -1.228649   -0.294770
      7          1           0       -1.126568   -0.792633    1.279253
      8          1           0       -1.725873    1.372419    0.317783
      9          1           0       -1.140232    0.880044   -1.285091
     10          1           0        0.480721    1.494855    1.198968
     11          1           0        0.803173    1.994662   -0.472455
     12          1           0        1.874830   -0.290809    0.854490
     13          1           0        1.912678   -0.029742   -0.897488
     14          1           0        0.552308   -2.016297    0.287106
 ---------------------------------------------------------------------
 Rotational constants (GHZ):      6.9950362      6.8920482      3.9484896
 Leave Link  202 at Mon Oct  4 09:12:11 2021, MaxMem=  536870912 cpu:       0.0
 (Enter /sw/target/amd/app/gaussian/Gaussian09RevA.02_gcc-4.9.2/g09/l301.exe)
 Standard basis: 6-31G(d) (6D, 7F)
 Ernie: Thresh=  0.10000D-02 Tol=  0.10000D-05 Strict=F.
 There are    93 symmetry adapted basis functions of A   symmetry.
 Integral buffers will be    131072 words long.
 Raffenetti 2 integral format.
 Two-electron integral symmetry is turned on.
    93 basis functions,   176 primitive gaussians,    93 cartesian basis functions
    20 alpha electrons       20 beta electrons
       nuclear repulsion energy       191.4468586696 Hartrees.
 IExCor=  402 DFT=T Ex+Corr=B3LYP ExCW=0 ScaHFX=  0.200000
 ScaDFX=  0.800000  0.720000  1.000000  0.810000 ScalE2=  1.000000  1.000000
 IRadAn=      0 IRanWt=     -1 IRanGd=            0 ICorTp=0
 NAtoms=   14 NActive=   14 NUniq=   14 SFac= 7.50D-01 NAtFMM=   80 NAOKFM=F Big=F
 Leave Link  301 at Mon Oct  4 09:12:11 2021, MaxMem=  536870912 cpu:       0.1
 (Enter /sw/target/amd/app/gaussian/Gaussian09RevA.02_gcc-4.9.2/g09/l302.exe)
 NPDir=0 NMtPBC=     1 NCelOv=     1 NCel=       1 NClECP=     1 NCelD=      1
         NCelK=      1 NCelE2=     1 NClLst=     1 CellRange=     0.0.
 One-electron integrals computed using PRISM.
 NBasis=    93 RedAO= T  NBF=    93
 NBsUse=    93 1.00D-06 NBFU=    93
 Precomputing XC quadrature grid using
 IXCGrd= 2 IRadAn=           0 IRanWt=          -1 IRanGd=           0 AccXCQ= 1.00D-10.
 NRdTot=     864 NPtTot=      109654 NUsed=      115897 NTot=      115929
 NSgBfM=    93    93    93    93    93 NAtAll=    14    14.
 Leave Link  302 at Mon Oct  4 09:12:12 2021, MaxMem=  536870912 cpu:       0.6
 (Enter /sw/target/amd/app/gaussian/Gaussian09RevA.02_gcc-4.9.2/g09/l303.exe)
 DipDrv:  MaxL=1.
 Leave Link  303 at Mon Oct  4 09:12:13 2021, MaxMem=  536870912 cpu:       0.1
 (Enter /sw/target/amd/app/gaussian/Gaussian09RevA.02_gcc-4.9.2/g09/l401.exe)
 Harris functional with IExCor=  402 diagonalized for initial guess.
 ExpMin= 1.61D-01 ExpMax= 4.17D+03 ExpMxC= 6.27D+02 IAcc=1 IRadAn=         1 AccDes= 0.00D+00
 HarFok:  IExCor=  402 AccDes= 0.00D+00 IRadAn=         1 IDoV= 1
 ScaDFX=  1.000000  1.000000  1.000000  1.000000
 FoFCou: FMM=F IPFlag=           0 FMFlag=      100000 FMFlg1=           0
         NFxFlg=           0 DoJE=T BraDBF=F KetDBF=T FulRan=T
         Omega=  0.000000  0.000000  1.000000  0.000000  0.000000 ICntrl=     500 IOpCl=  0
         NMat0=    1 NMatS0=    1 NMatT0=    0 NMatD0=    1 NMtDS0=    0 NMtDT0=    0
         I1Cent=           4 NGrid=           0.
 Petite list used in FoFCou.
 Harris En= -212.633605822584    
 Initial guess orbital symmetries:
       Occupied  (A) (A) (A) (A) (A) (A) (A) (A) (A) (A) (A) (A)
                 (A) (A) (A) (A) (A) (A) (A) (A)
       Virtual   (A) (A) (A) (A) (A) (A) (A) (A) (A) (A) (A) (A)
                 (A) (A) (A) (A) (A) (A) (A) (A) (A) (A) (A) (A)
                 (A) (A) (A) (A) (A) (A) (A) (A) (A) (A) (A) (A)
                 (A) (A) (A) (A) (A) (A) (A) (A) (A) (A) (A) (A)
                 (A) (A) (A) (A) (A) (A) (A) (A) (A) (A) (A) (A)
                 (A) (A) (A) (A) (A) (A) (A) (A) (A) (A) (A) (A)
                 (A)
 The electronic state of the initial guess is 1-A.
 Leave Link  401 at Mon Oct  4 09:12:21 2021, MaxMem=  536870912 cpu:       2.5
 (Enter /sw/target/amd/app/gaussian/Gaussian09RevA.02_gcc-4.9.2/g09/l502.exe)
 Closed shell SCF:
 Requested convergence on RMS density matrix=1.00D-08 within  64 cycles.
 Requested convergence on MAX density matrix=1.00D-06.
 Requested convergence on             energy=1.00D-06.
 No special actions if energy rises.
 Using DIIS extrapolation, IDIIS=  1040.
 Integral symmetry usage will be decided dynamically.
       115758 words used for storage of precomputed grid.
 Keep R1 ints in memory in canonical form, NReq=10617330.
 IEnd=      148518 IEndB=      148518 NGot=   536870912 MDV=   527180327
 LenX=   527180327 LenY=   527171237
 Symmetry not used in FoFDir.
 MinBra= 0 MaxBra= 2 Meth= 1.
 IRaf=       0 NMat=   1 IRICut=       1 DoRegI=T DoRafI=F ISym2E= 0 JSym2E=0.
 Integral accuracy reduced to 1.0D-05 until final iterations.

 Cycle   1  Pass 0  IDiag  1:
 E= -212.390871840045    
 DIIS: error= 4.26D-02 at cycle   1 NSaved=   1.
 NSaved= 1 IEnMin= 1 EnMin= -212.390871840045     IErMin= 1 ErrMin= 4.26D-02
 ErrMax= 4.26D-02 EMaxC= 1.00D-01 BMatC= 1.71D-01 BMatP= 1.71D-01
 IDIUse=3 WtCom= 5.74D-01 WtEn= 4.26D-01
 Coeff-Com:  0.100D+01
 Coeff-En:   0.100D+01
 Coeff:      0.100D+01
 Gap=     0.212 Goal=   None    Shift=    0.000
 GapD=    0.212 DampG=1.000 DampE=0.500 DampFc=0.5000 IDamp=-1.
 Damping current iteration by 5.00D-01
 RMSDP=1.16D-02 MaxDP=1.63D-01              OVMax= 1.79D-01

 Cycle   2  Pass 0  IDiag  1:
 E= -212.465965361107     Delta-E=       -0.075093521062 Rises=F Damp=T
 DIIS: error= 8.35D-03 at cycle   2 NSaved=   2.
 NSaved= 2 IEnMin= 2 EnMin= -212.465965361107     IErMin= 2 ErrMin= 8.35D-03
 ErrMax= 8.35D-03 EMaxC= 1.00D-01 BMatC= 1.14D-02 BMatP= 1.71D-01
 IDIUse=3 WtCom= 9.16D-01 WtEn= 8.35D-02
 Coeff-Com:  0.129D+00 0.871D+00
 Coeff-En:   0.202D+00 0.798D+00
 Coeff:      0.135D+00 0.865D+00
 Gap=     0.286 Goal=   None    Shift=    0.000
 RMSDP=1.96D-03 MaxDP=2.73D-02 DE=-7.51D-02 OVMax= 1.02D-01

 Cycle   3  Pass 0  IDiag  1:
 E= -212.577207625633     Delta-E=       -0.111242264525 Rises=F Damp=F
 DIIS: error= 3.18D-03 at cycle   3 NSaved=   3.
 NSaved= 3 IEnMin= 3 EnMin= -212.577207625633     IErMin= 3 ErrMin= 3.18D-03
 ErrMax= 3.18D-03 EMaxC= 1.00D-01 BMatC= 1.65D-03 BMatP= 1.14D-02
 IDIUse=3 WtCom= 9.68D-01 WtEn= 3.18D-02
 Coeff-Com:  0.139D-01 0.250D+00 0.736D+00
 Coeff-En:   0.000D+00 0.000D+00 0.100D+01
 Coeff:      0.134D-01 0.242D+00 0.745D+00
 Gap=     0.279 Goal=   None    Shift=    0.000
 RMSDP=5.55D-04 MaxDP=8.68D-03 DE=-1.11D-01 OVMax= 1.00D-02

 Cycle   4  Pass 0  IDiag  1:
 E= -212.578337738669     Delta-E=       -0.001130113036 Rises=F Damp=F
 DIIS: error= 1.26D-03 at cycle   4 NSaved=   4.
 NSaved= 4 IEnMin= 4 EnMin= -212.578337738669     IErMin= 4 ErrMin= 1.26D-03
 ErrMax= 1.26D-03 EMaxC= 1.00D-01 BMatC= 3.38D-04 BMatP= 1.65D-03
 IDIUse=3 WtCom= 9.87D-01 WtEn= 1.26D-02
 Coeff-Com:  0.791D-03 0.607D-01 0.333D+00 0.606D+00
 Coeff-En:   0.000D+00 0.000D+00 0.614D-01 0.939D+00
 Coeff:      0.781D-03 0.599D-01 0.329D+00 0.610D+00
 Gap=     0.284 Goal=   None    Shift=    0.000
 RMSDP=2.27D-04 MaxDP=5.23D-03 DE=-1.13D-03 OVMax= 5.10D-03

 Cycle   5  Pass 0  IDiag  1:
 E= -212.578581080754     Delta-E=       -0.000243342085 Rises=F Damp=F
 DIIS: error= 5.67D-04 at cycle   5 NSaved=   5.
 NSaved= 5 IEnMin= 5 EnMin= -212.578581080754     IErMin= 5 ErrMin= 5.67D-04
 ErrMax= 5.67D-04 EMaxC= 1.00D-01 BMatC= 5.28D-05 BMatP= 3.38D-04
 IDIUse=3 WtCom= 9.94D-01 WtEn= 5.67D-03
 Coeff-Com: -0.116D-02 0.855D-03 0.828D-01 0.325D+00 0.592D+00
 Coeff-En:   0.000D+00 0.000D+00 0.000D+00 0.103D+00 0.897D+00
 Coeff:     -0.116D-02 0.850D-03 0.824D-01 0.324D+00 0.594D+00
 Gap=     0.282 Goal=   None    Shift=    0.000
 RMSDP=6.98D-05 MaxDP=1.45D-03 DE=-2.43D-04 OVMax= 1.51D-03

 Cycle   6  Pass 0  IDiag  1:
 E= -212.578625443747     Delta-E=       -0.000044362993 Rises=F Damp=F
 DIIS: error= 1.66D-05 at cycle   6 NSaved=   6.
 NSaved= 6 IEnMin= 6 EnMin= -212.578625443747     IErMin= 6 ErrMin= 1.66D-05
 ErrMax= 1.66D-05 EMaxC= 1.00D-01 BMatC= 3.12D-08 BMatP= 5.28D-05
 IDIUse=1 WtCom= 1.00D+00 WtEn= 0.00D+00
 Coeff-Com: -0.289D-04-0.539D-03 0.645D-02 0.318D-01 0.714D-01 0.891D+00
 Coeff:     -0.289D-04-0.539D-03 0.645D-02 0.318D-01 0.714D-01 0.891D+00
 Gap=     0.282 Goal=   None    Shift=    0.000
 RMSDP=3.65D-06 MaxDP=4.08D-05 DE=-4.44D-05 OVMax= 7.90D-05

 Initial convergence to 1.0D-05 achieved.  Increase integral accuracy.
 Cycle   7  Pass 1  IDiag  1:
 E= -212.578700881094     Delta-E=       -0.000075437346 Rises=F Damp=F
 DIIS: error= 2.27D-05 at cycle   1 NSaved=   1.
 NSaved= 1 IEnMin= 1 EnMin= -212.578700881094     IErMin= 1 ErrMin= 2.27D-05
 ErrMax= 2.27D-05 EMaxC= 1.00D-01 BMatC= 6.46D-08 BMatP= 6.46D-08
 IDIUse=1 WtCom= 1.00D+00 WtEn= 0.00D+00
 Coeff-Com:  0.100D+01
 Coeff:      0.100D+01
 Gap=     0.282 Goal=   None    Shift=    0.000
 RMSDP=3.65D-06 MaxDP=4.08D-05 DE=-7.54D-05 OVMax= 7.79D-05

 Cycle   8  Pass 1  IDiag  1:
 E= -212.578700957939     Delta-E=       -0.000000076845 Rises=F Damp=F
 DIIS: error= 5.42D-06 at cycle   2 NSaved=   2.
 NSaved= 2 IEnMin= 2 EnMin= -212.578700957939     IErMin= 2 ErrMin= 5.42D-06
 ErrMax= 5.42D-06 EMaxC= 1.00D-01 BMatC= 4.22D-09 BMatP= 6.46D-08
 IDIUse=1 WtCom= 1.00D+00 WtEn= 0.00D+00
 Coeff-Com:  0.717D-01 0.928D+00
 Coeff:      0.717D-01 0.928D+00
 Gap=     0.282 Goal=   None    Shift=    0.000
 RMSDP=1.36D-06 MaxDP=2.13D-05 DE=-7.68D-08 OVMax= 2.45D-05

 Cycle   9  Pass 1  IDiag  1:
 E= -212.578700958049     Delta-E=       -0.000000000110 Rises=F Damp=F
 DIIS: error= 6.41D-06 at cycle   3 NSaved=   3.
 NSaved= 3 IEnMin= 3 EnMin= -212.578700958049     IErMin= 2 ErrMin= 5.42D-06
 ErrMax= 6.41D-06 EMaxC= 1.00D-01 BMatC= 4.33D-09 BMatP= 4.22D-09
 IDIUse=1 WtCom= 1.00D+00 WtEn= 0.00D+00
 Coeff-Com: -0.221D-01 0.508D+00 0.514D+00
 Coeff:     -0.221D-01 0.508D+00 0.514D+00
 Gap=     0.282 Goal=   None    Shift=    0.000
 RMSDP=6.83D-07 MaxDP=1.24D-05 DE=-1.10D-10 OVMax= 1.29D-05

 Cycle  10  Pass 1  IDiag  1:
 E= -212.578700962116     Delta-E=       -0.000000004067 Rises=F Damp=F
 DIIS: error= 4.51D-07 at cycle   4 NSaved=   4.
 NSaved= 4 IEnMin= 4 EnMin= -212.578700962116     IErMin= 4 ErrMin= 4.51D-07
 ErrMax= 4.51D-07 EMaxC= 1.00D-01 BMatC= 3.57D-11 BMatP= 4.22D-09
 IDIUse=1 WtCom= 1.00D+00 WtEn= 0.00D+00
 Coeff-Com: -0.951D-02 0.171D+00 0.193D+00 0.646D+00
 Coeff:     -0.951D-02 0.171D+00 0.193D+00 0.646D+00
 Gap=     0.282 Goal=   None    Shift=    0.000
 RMSDP=8.90D-08 MaxDP=1.32D-06 DE=-4.07D-09 OVMax= 1.35D-06

 Cycle  11  Pass 1  IDiag  1:
 E= -212.578700962153     Delta-E=       -0.000000000036 Rises=F Damp=F
 DIIS: error= 1.53D-07 at cycle   5 NSaved=   5.
 NSaved= 5 IEnMin= 5 EnMin= -212.578700962153     IErMin= 5 ErrMin= 1.53D-07
 ErrMax= 1.53D-07 EMaxC= 1.00D-01 BMatC= 2.94D-12 BMatP= 3.57D-11
 IDIUse=1 WtCom= 1.00D+00 WtEn= 0.00D+00
 Coeff-Com: -0.221D-02 0.325D-01 0.416D-01 0.255D+00 0.673D+00
 Coeff:     -0.221D-02 0.325D-01 0.416D-01 0.255D+00 0.673D+00
 Gap=     0.282 Goal=   None    Shift=    0.000
 RMSDP=2.35D-08 MaxDP=5.16D-07 DE=-3.64D-11 OVMax= 5.35D-07

 Cycle  12  Pass 1  IDiag  1:
 E= -212.578700962151     Delta-E=        0.000000000001 Rises=F Damp=F
 DIIS: error= 6.27D-08 at cycle   6 NSaved=   6.
 NSaved= 6 IEnMin= 5 EnMin= -212.578700962153     IErMin= 6 ErrMin= 6.27D-08
 ErrMax= 6.27D-08 EMaxC= 1.00D-01 BMatC= 5.87D-13 BMatP= 2.94D-12
 IDIUse=1 WtCom= 1.00D+00 WtEn= 0.00D+00
 Coeff-Com: -0.253D-03 0.283D-03 0.273D-02 0.648D-01 0.356D+00 0.576D+00
 Coeff:     -0.253D-03 0.283D-03 0.273D-02 0.648D-01 0.356D+00 0.576D+00
 Gap=     0.282 Goal=   None    Shift=    0.000
 RMSDP=9.81D-09 MaxDP=1.82D-07 DE= 1.31D-12 OVMax= 1.99D-07

 SCF Done:  E(RB3LYP) =  -212.578700962     A.U. after   12 cycles
             Convg  =    0.9812D-08             -V/T =  2.0090
 KE= 2.106847143996D+02 PE=-8.754733424282D+02 EE= 2.607630683969D+02
 Leave Link  502 at Mon Oct  4 09:14:04 2021, MaxMem=  536870912 cpu:      28.7
 (Enter /sw/target/amd/app/gaussian/Gaussian09RevA.02_gcc-4.9.2/g09/l508.exe)
 QCSCF skips out because SCF is already converged.
 Leave Link  508 at Mon Oct  4 09:14:04 2021, MaxMem=  536870912 cpu:       0.0
 (Enter /sw/target/amd/app/gaussian/Gaussian09RevA.02_gcc-4.9.2/g09/l601.exe)
 Copying SCF densities to generalized density rwf, IOpCl= 0 IROHF=0.

 **********************************************************************

            Population analysis using the SCF density.

 **********************************************************************

 Orbital symmetries:
       Occupied  (A) (A) (A) (A) (A) (A) (A) (A) (A) (A) (A) (A)
                 (A) (A) (A) (A) (A) (A) (A) (A)
       Virtual   (A) (A) (A) (A) (A) (A) (A) (A) (A) (A) (A) (A)
                 (A) (A) (A) (A) (A) (A) (A) (A) (A) (A) (A) (A)
                 (A) (A) (A) (A) (A) (A) (A) (A) (A) (A) (A) (A)
                 (A) (A) (A) (A) (A) (A) (A) (A) (A) (A) (A) (A)
                 (A) (A) (A) (A) (A) (A) (A) (A) (A) (A) (A) (A)
                 (A) (A) (A) (A) (A) (A) (A) (A) (A) (A) (A) (A)
                 (A)
 The electronic state is 1-A.
 Alpha  occ. eigenvalues --  -14.30212 -10.19521 -10.19420 -10.17455 -10.17396
 Alpha  occ. eigenvalues --   -0.90778  -0.75910  -0.71624  -0.58053  -0.57033
 Alpha  occ. eigenvalues --   -0.50591  -0.48078  -0.42015  -0.39764  -0.36933
 Alpha  occ. eigenvalues --   -0.36261  -0.33781  -0.33441  -0.31977  -0.20536
 Alpha virt. eigenvalues --    0.07693   0.10750   0.13591   0.14891   0.16824
 Alpha virt. eigenvalues --    0.17171   0.18406   0.19076   0.19498   0.21862
 Alpha virt. eigenvalues --    0.23846   0.26391   0.28767   0.33119   0.53116
 Alpha virt. eigenvalues --    0.54462   0.55398   0.57162   0.58965   0.60251
 Alpha virt. eigenvalues --    0.67150   0.67936   0.70688   0.70934   0.78138
 Alpha virt. eigenvalues --    0.79178   0.85057   0.85606   0.86358   0.86976
 Alpha virt. eigenvalues --    0.88693   0.89847   0.90909   0.94301   0.95840
 Alpha virt. eigenvalues --    0.96911   0.97583   1.04541   1.20977   1.27838
 Alpha virt. eigenvalues --    1.32213   1.34737   1.48005   1.64273   1.70298
 Alpha virt. eigenvalues --    1.78994   1.83342   1.83866   1.88243   1.90830
 Alpha virt. eigenvalues --    2.01586   2.02627   2.05493   2.06467   2.10793
 Alpha virt. eigenvalues --    2.13942   2.22143   2.25662   2.30068   2.38732
 Alpha virt. eigenvalues --    2.41963   2.49075   2.53990   2.58405   2.66040
 Alpha virt. eigenvalues --    2.67525   2.72165   2.88509   3.94607   4.20114
 Alpha virt. eigenvalues --    4.25317   4.47483   4.58179
          Condensed to atoms (all electrons):
              1          2          3          4          5          6
     1  C    4.912019   0.381719  -0.071516  -0.083286   0.324563   0.376716
     2  C    0.381719   5.012931   0.384981  -0.074795  -0.061324  -0.027889
     3  C   -0.071516   0.384981   5.040495   0.379777  -0.056996   0.006489
     4  C   -0.083286  -0.074795   0.379777   4.895695   0.336498   0.005935
     5  N    0.324563  -0.061324  -0.056996   0.336498   6.903255  -0.043208
     6  H    0.376716  -0.027889   0.006489   0.005935  -0.043208   0.602077
     7  H    0.366823  -0.038507  -0.006774   0.002326  -0.058634  -0.053029
     8  H   -0.031358   0.371803  -0.033490   0.005995   0.004106   0.001005
     9  H   -0.035413   0.379070  -0.040351   0.000815   0.000496  -0.007633
    10  H    0.001876  -0.040368   0.377067  -0.036111   0.001324  -0.000128
    11  H    0.005877  -0.030454   0.377062  -0.032525   0.003339  -0.000180
    12  H    0.002554   0.006502  -0.035915   0.372295  -0.048304  -0.000421
    13  H    0.005974  -0.000163  -0.036917   0.380460  -0.052118  -0.000027
    14  H   -0.037155   0.006091   0.007337  -0.041435   0.311841   0.002190
              7          8          9         10         11         12
     1  C    0.366823  -0.031358  -0.035413   0.001876   0.005877   0.002554
     2  C   -0.038507   0.371803   0.379070  -0.040368  -0.030454   0.006502
     3  C   -0.006774  -0.033490  -0.040351   0.377067   0.377062  -0.035915
     4  C    0.002326   0.005995   0.000815  -0.036111  -0.032525   0.372295
     5  N   -0.058634   0.004106   0.000496   0.001324   0.003339  -0.048304
     6  H   -0.053029   0.001005  -0.007633  -0.000128  -0.000180  -0.000421
     7  H    0.677881  -0.003406   0.006136   0.002373  -0.000151   0.003182
     8  H   -0.003406   0.591422  -0.034372  -0.008470   0.001633  -0.000103
     9  H    0.006136  -0.034372   0.586305   0.005650  -0.008064  -0.000005
    10  H    0.002373  -0.008470   0.005650   0.602163  -0.035518  -0.011107
    11  H   -0.000151   0.001633  -0.008064  -0.035518   0.581431   0.003434
    12  H    0.003182  -0.000103  -0.000005  -0.011107   0.003434   0.652703
    13  H   -0.000588  -0.000211   0.000356   0.005134  -0.007234  -0.053538
    14  H   -0.008066  -0.000285  -0.000132  -0.000282  -0.000128  -0.009836
             13         14
     1  C    0.005974  -0.037155
     2  C   -0.000163   0.006091
     3  C   -0.036917   0.007337
     4  C    0.380460  -0.041435
     5  N   -0.052118   0.311841
     6  H   -0.000027   0.002190
     7  H   -0.000588  -0.008066
     8  H   -0.000211  -0.000285
     9  H    0.000356  -0.000132
    10  H    0.005134  -0.000282
    11  H   -0.007234  -0.000128
    12  H   -0.053538  -0.009836
    13  H    0.616978   0.004286
    14  H    0.004286   0.474306
 Mulliken atomic charges:
              1
     1  C   -0.119394
     2  C   -0.269596
     3  C   -0.291249
     4  C   -0.111645
     5  N   -0.564840
     6  H    0.138102
     7  H    0.110435
     8  H    0.135731
     9  H    0.147143
    10  H    0.136398
    11  H    0.141479
    12  H    0.118560
    13  H    0.137608
    14  H    0.291268
 Sum of Mulliken atomic charges =  -0.00000
 Mulliken charges with hydrogens summed into heavy atoms:
              1
     1  C    0.129144
     2  C    0.013277
     3  C   -0.013372
     4  C    0.144522
     5  N   -0.273572
 Sum of Mulliken charges with hydrogens summed into heavy atoms =  -0.00000
 Electronic spatial extent (au):  <R**2>=            385.0636
 Charge=             -0.0000 electrons
 Dipole moment (field-independent basis, Debye):
    X=              0.0107    Y=              0.2943    Z=              1.1389  Tot=              1.1763
 Quadrupole moment (field-independent basis, Debye-Ang):
   XX=            -31.6440   YY=            -31.5141   ZZ=            -32.8210
   XY=             -0.2182   XZ=              0.5038   YZ=             -2.3394
 Traceless Quadrupole moment (field-independent basis, Debye-Ang):
   XX=              0.3491   YY=              0.4789   ZZ=             -0.8280
   XY=             -0.2182   XZ=              0.5038   YZ=             -2.3394
 Octapole moment (field-independent basis, Debye-Ang**2):
  XXX=              0.2517  YYY=             -6.2554  ZZZ=              0.8073  XYY=              1.1276
  XXY=             -1.6789  XXZ=             -0.5435  XZZ=              0.2839  YZZ=              1.3776
  YYZ=              3.4268  XYZ=             -1.6716
 Hexadecapole moment (field-independent basis, Debye-Ang**3):
 XXXX=           -230.3215 YYYY=           -208.3519 ZZZZ=            -68.0054 XXXY=             -1.3358
 XXXZ=             -0.0164 YYYX=             -3.8033 YYYZ=             -7.9242 ZZZX=              1.1318
 ZZZY=             -2.2972 XXYY=            -72.5442 XXZZ=            -48.5722 YYZZ=            -49.1479
 XXYZ=              0.4331 YYXZ=              1.1130 ZZXY=             -0.1267
 N-N= 1.914468586696D+02 E-N=-8.754733468980D+02  KE= 2.106847143996D+02
 No NMR shielding tensors so no spin-rotation constants.
 Leave Link  601 at Mon Oct  4 09:14:06 2021, MaxMem=  536870912 cpu:       0.5
 (Enter /sw/target/amd/app/gaussian/Gaussian09RevA.02_gcc-4.9.2/g09/l701.exe)
 Compute integral first derivatives.
 ... and contract with generalized density number  0.
 Leave Link  701 at Mon Oct  4 09:14:11 2021, MaxMem=  536870912 cpu:       0.4
 (Enter /sw/target/amd/app/gaussian/Gaussian09RevA.02_gcc-4.9.2/g09/l702.exe)
 L702 exits ... SP integral derivatives will be done elsewhere.
 Leave Link  702 at Mon Oct  4 09:14:12 2021, MaxMem=  536870912 cpu:       0.1
 (Enter /sw/target/amd/app/gaussian/Gaussian09RevA.02_gcc-4.9.2/g09/l703.exe)
 Compute integral first derivatives, UseDBF=F ICtDFT=           0.
 Integral derivatives from FoFDir, PRISM(SPDF).
 Calling FoFJK, ICntrl=      2127 FMM=F ISym2X=0 I1Cent= 0 IOpClX= 0 NMat=1 NMatS=1 NMatT=0.
 FoFCou: FMM=F IPFlag=           0 FMFlag=      100000 FMFlg1=         800
         NFxFlg=           0 DoJE=F BraDBF=F KetDBF=F FulRan=T
         Omega=  0.000000  0.000000  1.000000  0.000000  0.000000 ICntrl=    2127 IOpCl=  0
         NMat0=    1 NMatS0=    1 NMatT0=    0 NMatD0=    1 NMtDS0=    0 NMtDT0=    0
         I1Cent=           0 NGrid=           0.
 Symmetry not used in FoFCou.
 Leave Link  703 at Mon Oct  4 09:14:49 2021, MaxMem=  536870912 cpu:       9.8
 (Enter /sw/target/amd/app/gaussian/Gaussian09RevA.02_gcc-4.9.2/g09/l716.exe)
 Dipole        = 4.20696284D-03 1.15772991D-01 4.48067818D-01
 ***** Axes restored to original set *****
 -------------------------------------------------------------------
 Center     Atomic                   Forces (Hartrees/Bohr)
 Number     Number              X              Y              Z
 -------------------------------------------------------------------
      1        6          -0.007701780    0.000057795   -0.000427886
      2        6           0.003918422   -0.011139267    0.003392597
      3        6           0.013561943    0.000492733   -0.004242219
      4        6          -0.003277995    0.013613031    0.001548537
      5        7          -0.008453872   -0.001235028    0.004441610
      6        1          -0.003337784   -0.000529687   -0.000499337
      7        1           0.001085281   -0.007296679   -0.005699927
      8        1          -0.000163711   -0.001892349    0.001210966
      9        1          -0.001986636   -0.001133481   -0.000468442
     10        1           0.002256854   -0.000079233    0.000655496
     11        1           0.001482741    0.001077953   -0.001992021
     12        1           0.002309403    0.004595348   -0.001218124
     13        1           0.000059217    0.003998330    0.000537317
     14        1           0.000247917   -0.000529468    0.002761434
 -------------------------------------------------------------------
 Cartesian Forces:  Max     0.013613031 RMS     0.004572012
 Leave Link  716 at Mon Oct  4 09:14:49 2021, MaxMem=  536870912 cpu:       0.1
 (Enter /sw/target/amd/app/gaussian/Gaussian09RevA.02_gcc-4.9.2/g09/l103.exe)

 GradGradGradGradGradGradGradGradGradGradGradGradGradGradGradGradGradGrad
 Berny optimization.
 Internal  Forces:  Max     0.015965419 RMS     0.003638424
 Search for a local minimum.
 Step number   1 out of a maximum of   90
 All quantities printed in internal units (Hartrees-Bohrs-Radians)
 RMS Force = .36384D-02 SwitMx=.10000D-02 MixMth= 1
 Mixed Optimization -- RFO/linear search
 Second derivative matrix not updated -- first step.
     Eigenvalues ---    0.00607   0.00899   0.02190   0.02631   0.03772
     Eigenvalues ---    0.04694   0.05034   0.05293   0.05726   0.05846
     Eigenvalues ---    0.06019   0.06348   0.06844   0.07086   0.08225
     Eigenvalues ---    0.08603   0.08772   0.09249   0.11157   0.11502
     Eigenvalues ---    0.20520   0.21049   0.28478   0.29290   0.30033
     Eigenvalues ---    0.34025   0.34076   0.34094   0.34185   0.34320
     Eigenvalues ---    0.34330   0.34373   0.34432   0.34948   0.35413
     Eigenvalues ---    0.446881000.000001000.000001000.000001000.00000
     Eigenvalues --- 1000.000001000.000001000.000001000.000001000.00000
     Eigenvalues --- 1000.000001000.000001000.000001000.000001000.00000
     Eigenvalues --- 1000.000001000.000001000.000001000.000001000.00000
     Eigenvalues --- 1000.000001000.000001000.000001000.000001000.00000
     Eigenvalues --- 1000.000001000.000001000.000001000.000001000.00000
     Eigenvalues --- 1000.000001000.000001000.000001000.000001000.00000
     Eigenvalues --- 1000.000001000.000001000.000001000.000001000.00000
     Eigenvalues --- 1000.000001000.000001000.000001000.000001000.00000
 RFO step:  Lambda=-4.52531000D-03 EMin= 6.07240528D-03
 Linear search not attempted -- first point.
 Iteration  1 RMS(Cart)=  0.02798896 RMS(Int)=  0.00046395
 Iteration  2 RMS(Cart)=  0.00042297 RMS(Int)=  0.00008623
 Iteration  3 RMS(Cart)=  0.00000025 RMS(Int)=  0.00008623
 Variable       Old X    -DE/DX   Delta X   Delta X   Delta X     New X
                                 (Linear)    (Quad)   (Total)
    R1        2.86051   0.00899   0.00000   0.02813   0.02808   2.88858
    R2        2.76124   0.00896   0.00000   0.02451   0.02451   2.78574
    R3        2.06607   0.00231   0.00000   0.00663   0.00663   2.07269
    R4        2.07172   0.00633   0.00000   0.01832   0.01832   2.09004
    R5        2.86479   0.01556   0.00000   0.05138   0.05133   2.91612
    R6        2.06706   0.00091   0.00000   0.00261   0.00261   2.06966
    R7        2.07287  -0.00035   0.00000  -0.00102  -0.00102   2.07186
    R8        2.87807   0.01597   0.00000   0.05189   0.05193   2.93000
    R9        2.07202   0.00016   0.00000   0.00046   0.00046   2.07248
   R10        2.06793   0.00014   0.00000   0.00042   0.00042   2.06835
   R11        2.76814   0.01314   0.00000   0.03464   0.03472   2.80285
   R12        2.07019   0.00359   0.00000   0.01037   0.01037   2.08056
   R13        2.06777   0.00282   0.00000   0.00810   0.00810   2.07587
   R14        1.92339  -0.00195   0.00000  -0.00431  -0.00431   1.91908
    A1        1.79861  -0.00149   0.00000  -0.01040  -0.01036   1.78825
    A2        1.95850   0.00163   0.00000   0.01019   0.01003   1.96853
    A3        1.93377  -0.00199   0.00000  -0.02045  -0.02050   1.91327
    A4        1.94754  -0.00089   0.00000  -0.01549  -0.01540   1.93214
    A5        1.92658   0.00453   0.00000   0.05922   0.05929   1.98587
    A6        1.89791  -0.00163   0.00000  -0.02072  -0.02074   1.87716
    A7        1.79077   0.00175   0.00000   0.00186   0.00178   1.79255
    A8        1.96719  -0.00091   0.00000   0.00157   0.00143   1.96861
    A9        1.93016  -0.00144   0.00000  -0.01985  -0.01981   1.91035
   A10        1.96161   0.00126   0.00000   0.01706   0.01706   1.97867
   A11        1.92240  -0.00041   0.00000   0.00904   0.00899   1.93139
   A12        1.89081  -0.00023   0.00000  -0.00918  -0.00936   1.88145
   A13        1.82282  -0.00115   0.00000  -0.00243  -0.00247   1.82036
   A14        1.91562   0.00065   0.00000   0.00517   0.00515   1.92077
   A15        1.95517   0.00106   0.00000   0.01099   0.01100   1.96617
   A16        1.91635   0.00177   0.00000   0.01277   0.01279   1.92914
   A17        1.96567  -0.00067   0.00000  -0.00433  -0.00435   1.96133
   A18        1.88765  -0.00153   0.00000  -0.02065  -0.02063   1.86702
   A19        1.85832  -0.00348   0.00000  -0.01797  -0.01777   1.84055
   A20        1.93050   0.00064   0.00000   0.00287   0.00293   1.93343
   A21        1.93864   0.00173   0.00000   0.01037   0.01034   1.94898
   A22        1.94141   0.00242   0.00000   0.02550   0.02547   1.96688
   A23        1.91020   0.00119   0.00000   0.00576   0.00576   1.91595
   A24        1.88528  -0.00238   0.00000  -0.02543  -0.02543   1.85985
   A25        1.87125   0.00421   0.00000   0.02137   0.02121   1.89247
   A26        1.93669  -0.00086   0.00000   0.00912   0.00874   1.94543
   A27        1.93779  -0.00161   0.00000   0.00905   0.00867   1.94647
    D1       -0.70315  -0.00005   0.00000  -0.00673  -0.00665  -0.70981
    D2       -2.81699  -0.00219   0.00000  -0.02916  -0.02907  -2.84607
    D3        1.34675  -0.00023   0.00000  -0.00414  -0.00412   1.34262
    D4       -2.80055   0.00109   0.00000   0.01290   0.01298  -2.78758
    D5        1.36880  -0.00105   0.00000  -0.00953  -0.00944   1.35935
    D6       -0.75065   0.00091   0.00000   0.01550   0.01551  -0.73514
    D7        1.35753   0.00347   0.00000   0.04707   0.04705   1.40458
    D8       -0.75631   0.00134   0.00000   0.02464   0.02463  -0.73168
    D9       -2.87575   0.00330   0.00000   0.04966   0.04958  -2.82617
   D10        0.61720   0.00046   0.00000   0.00788   0.00780   0.62499
   D11        2.73599   0.00066   0.00000   0.03805   0.03807   2.77407
   D12        2.72211   0.00106   0.00000   0.00598   0.00602   2.72813
   D13       -1.44228   0.00126   0.00000   0.03615   0.03630  -1.40598
   D14       -1.44853   0.00150   0.00000   0.00989   0.00981  -1.43872
   D15        0.67027   0.00169   0.00000   0.04006   0.04009   0.71036
   D16        0.52751   0.00087   0.00000   0.01245   0.01247   0.53998
   D17       -1.52595  -0.00089   0.00000  -0.00360  -0.00362  -1.52957
   D18        2.66006  -0.00010   0.00000   0.01176   0.01175   2.67181
   D19        2.64516   0.00150   0.00000   0.02422   0.02426   2.66942
   D20        0.59171  -0.00025   0.00000   0.00817   0.00817   0.59988
   D21       -1.50547   0.00054   0.00000   0.02354   0.02354  -1.48193
   D22       -1.52790   0.00178   0.00000   0.03034   0.03042  -1.49748
   D23        2.70183   0.00002   0.00000   0.01430   0.01433   2.71616
   D24        0.60464   0.00082   0.00000   0.02966   0.02970   0.63435
   D25       -0.16425  -0.00037   0.00000  -0.00796  -0.00797  -0.17222
   D26       -2.27574  -0.00152   0.00000  -0.02942  -0.02946  -2.30520
   D27        1.91409  -0.00008   0.00000  -0.00616  -0.00619   1.90791
   D28        1.88871   0.00062   0.00000   0.00286   0.00290   1.89160
   D29       -0.22278  -0.00053   0.00000  -0.01859  -0.01859  -0.24138
   D30       -2.31614   0.00091   0.00000   0.00466   0.00468  -2.31146
   D31       -2.28989  -0.00053   0.00000  -0.01736  -0.01734  -2.30723
   D32        1.88180  -0.00168   0.00000  -0.03881  -0.03883   1.84297
   D33       -0.21155  -0.00025   0.00000  -0.01556  -0.01556  -0.22711
   D34       -0.28261   0.00023   0.00000   0.00065   0.00070  -0.28192
   D35       -2.40071  -0.00044   0.00000  -0.02960  -0.02965  -2.43037
   D36        1.82187   0.00021   0.00000   0.00750   0.00750   1.82938
   D37       -0.29623  -0.00046   0.00000  -0.02275  -0.02284  -0.31907
   D38       -2.37943  -0.00047   0.00000  -0.00446  -0.00442  -2.38385
   D39        1.78566  -0.00114   0.00000  -0.03471  -0.03477   1.75089
         Item               Value     Threshold  Converged?
 Maximum Force            0.015965     0.000450     NO 
 RMS     Force            0.003638     0.000300     NO 
 Maximum Displacement     0.134011     0.001800     NO 
 RMS     Displacement     0.027967     0.001200     NO 
 Predicted change in Energy=-2.351288D-03
 GradGradGradGradGradGradGradGradGradGradGradGradGradGradGradGradGradGrad

 Leave Link  103 at Mon Oct  4 09:14:53 2021, MaxMem=  536870912 cpu:       0.9
 (Enter /sw/target/amd/app/gaussian/Gaussian09RevA.02_gcc-4.9.2/g09/l202.exe)
                          Input orientation:                          
 ---------------------------------------------------------------------
 Center     Atomic      Atomic             Coordinates (Angstroms)
 Number     Number       Type             X           Y           Z
 ---------------------------------------------------------------------
      1          6           0       -0.843607   -0.892148   -0.257559
      2          6           0        0.584123   -1.148500    0.224526
      3          6           0        1.306919    0.164829   -0.141563
      4          6           0        0.207459    1.251990   -0.026326
      5          7           0       -1.066205    0.510123    0.138940
      6          1           0       -1.578246   -1.551561    0.220458
      7          1           0       -0.903268   -1.061920   -1.348822
      8          1           0        1.034396   -2.034847   -0.234983
      9          1           0        0.581388   -1.298795    1.310551
     10          1           0        1.688121    0.110621   -1.168458
     11          1           0        2.164449    0.369057    0.507214
     12          1           0        0.207595    1.903237   -0.914047
     13          1           0        0.372355    1.905252    0.841293
     14          1           0       -1.816542    0.933661   -0.398574
 ---------------------------------------------------------------------
                    Distance matrix (angstroms):
                    1          2          3          4          5
     1  C    0.000000
     2  C    1.528573   0.000000
     3  C    2.399045   1.543142   0.000000
     4  C    2.399069   2.442776   1.550487   0.000000
     5  N    1.474152   2.341354   2.414463   1.483205   0.000000
     6  H    1.096823   2.199617   3.376571   3.333098   2.125882
     7  H    1.106000   2.166853   2.801306   2.887367   2.170554
     8  H    2.198447   1.095219   2.218461   3.395683   3.321027
     9  H    2.157532   1.096379   2.185687   2.904061   2.712826
    10  H    2.871398   2.178210   1.096707   2.190787   3.074931
    11  H    3.350211   2.209145   1.094522   2.212249   3.254635
    12  H    3.057807   3.278905   2.197114   1.100987   2.161508
    13  H    3.242142   3.122603   2.206465   1.098502   2.123474
    14  H    2.073660   3.238339   3.226944   2.082422   1.015535
                    6          7          8          9         10
     6  H    0.000000
     7  H    1.777071   0.000000
     8  H    2.695717   2.437574   0.000000
     9  H    2.432327   3.054927   1.770781   0.000000
    10  H    3.919322   2.850031   2.429354   3.058888   0.000000
    11  H    4.216488   3.860499   2.758012   2.435809   1.761123
    12  H    4.051168   3.196124   4.080838   3.916832   2.338836
    13  H    4.017442   3.902298   4.137759   3.244968   2.998507
    14  H    2.572219   2.391523   4.119060   3.695273   3.681410
                   11         12         13         14
    11  H    0.000000
    12  H    2.864082   0.000000
    13  H    2.383927   1.763057   0.000000
    14  H    4.121592   2.302808   2.696763   0.000000
 Stoichiometry    C4H9N
 Framework group  C1[X(C4H9N)]
 Deg. of freedom    36
 Full point group                 C1      NOp   1
 Largest Abelian subgroup         C1      NOp   1
 Largest concise Abelian subgroup C1      NOp   1
                         Standard orientation:                         
 ---------------------------------------------------------------------
 Center     Atomic      Atomic             Coordinates (Angstroms)
 Number     Number       Type             X           Y           Z
 ---------------------------------------------------------------------
      1          6           0       -1.114802   -0.559071    0.201809
      2          6           0       -0.884074    0.893083   -0.215979
      3          6           0        0.596399    1.121693    0.154462
      4          6           0        1.255774   -0.269848   -0.026782
      5          7           0        0.132021   -1.216250   -0.230250
      6          1           0       -1.982966   -1.010795   -0.293425
      7          1           0       -1.290050   -0.608331    1.292725
      8          1           0       -1.568363    1.590710    0.278562
      9          1           0       -1.031409    0.989538   -1.298124
     10          1           0        0.676408    1.452390    1.197057
     11          1           0        1.071260    1.891272   -0.462168
     12          1           0        1.873854   -0.526031    0.847586
     13          1           0        1.922959   -0.292013   -0.899180
     14          1           0        0.284374   -2.088135    0.267662
 ---------------------------------------------------------------------
 Rotational constants (GHZ):      6.8053588      6.7571222      3.8484538
 Leave Link  202 at Mon Oct  4 09:14:53 2021, MaxMem=  536870912 cpu:       0.0
 (Enter /sw/target/amd/app/gaussian/Gaussian09RevA.02_gcc-4.9.2/g09/l301.exe)
 Standard basis: 6-31G(d) (6D, 7F)
 Ernie: Thresh=  0.10000D-02 Tol=  0.10000D-05 Strict=F.
 There are    93 symmetry adapted basis functions of A   symmetry.
 Integral buffers will be    131072 words long.
 Raffenetti 2 integral format.
 Two-electron integral symmetry is turned on.
    93 basis functions,   176 primitive gaussians,    93 cartesian basis functions
    20 alpha electrons       20 beta electrons
       nuclear repulsion energy       189.3561590969 Hartrees.
 IExCor=  402 DFT=T Ex+Corr=B3LYP ExCW=0 ScaHFX=  0.200000
 ScaDFX=  0.800000  0.720000  1.000000  0.810000 ScalE2=  1.000000  1.000000
 IRadAn=      0 IRanWt=     -1 IRanGd=            0 ICorTp=0
 NAtoms=   14 NActive=   14 NUniq=   14 SFac= 7.50D-01 NAtFMM=   80 NAOKFM=F Big=F
 Leave Link  301 at Mon Oct  4 09:14:53 2021, MaxMem=  536870912 cpu:       0.1
 (Enter /sw/target/amd/app/gaussian/Gaussian09RevA.02_gcc-4.9.2/g09/l302.exe)
 NPDir=0 NMtPBC=     1 NCelOv=     1 NCel=       1 NClECP=     1 NCelD=      1
         NCelK=      1 NCelE2=     1 NClLst=     1 CellRange=     0.0.
 One-electron integrals computed using PRISM.
 NBasis=    93 RedAO= T  NBF=    93
 NBsUse=    93 1.00D-06 NBFU=    93
 Precomputing XC quadrature grid using
 IXCGrd= 2 IRadAn=           0 IRanWt=          -1 IRanGd=           0 AccXCQ= 1.00D-10.
 NRdTot=     864 NPtTot=      109654 NUsed=      115897 NTot=      115929
 NSgBfM=    93    93    93    93    93 NAtAll=    14    14.
 Leave Link  302 at Mon Oct  4 09:14:55 2021, MaxMem=  536870912 cpu:       0.7
 (Enter /sw/target/amd/app/gaussian/Gaussian09RevA.02_gcc-4.9.2/g09/l303.exe)
 DipDrv:  MaxL=1.
 Leave Link  303 at Mon Oct  4 09:14:55 2021, MaxMem=  536870912 cpu:       0.1
 (Enter /sw/target/amd/app/gaussian/Gaussian09RevA.02_gcc-4.9.2/g09/l401.exe)
 Initial guess read from the read-write file.
 B after Tr=     0.000000    0.000000    0.000000
         Rot=    1.000000    0.000000    0.000000    0.000000 Ang=   0.00 deg.
 Guess basis will be translated and rotated to current coordinates.
 Initial guess orbital symmetries:
       Occupied  (A) (A) (A) (A) (A) (A) (A) (A) (A) (A) (A) (A)
                 (A) (A) (A) (A) (A) (A) (A) (A)
       Virtual   (A) (A) (A) (A) (A) (A) (A) (A) (A) (A) (A) (A)
                 (A) (A) (A) (A) (A) (A) (A) (A) (A) (A) (A) (A)
                 (A) (A) (A) (A) (A) (A) (A) (A) (A) (A) (A) (A)
                 (A) (A) (A) (A) (A) (A) (A) (A) (A) (A) (A) (A)
                 (A) (A) (A) (A) (A) (A) (A) (A) (A) (A) (A) (A)
                 (A) (A) (A) (A) (A) (A) (A) (A) (A) (A) (A) (A)
                 (A)
 The electronic state of the initial guess is 1-A.
 Generating alternative initial guess.
 Harris functional with IExCor=  402 diagonalized for initial guess.
 ExpMin= 1.61D-01 ExpMax= 4.17D+03 ExpMxC= 6.27D+02 IAcc=1 IRadAn=         1 AccDes= 0.00D+00
 HarFok:  IExCor=  402 AccDes= 0.00D+00 IRadAn=         1 IDoV= 1
 ScaDFX=  1.000000  1.000000  1.000000  1.000000
 FoFCou: FMM=F IPFlag=           0 FMFlag=      100000 FMFlg1=           0
         NFxFlg=           0 DoJE=T BraDBF=F KetDBF=T FulRan=T
         Omega=  0.000000  0.000000  1.000000  0.000000  0.000000 ICntrl=     500 IOpCl=  0
         NMat0=    1 NMatS0=    1 NMatT0=    0 NMatD0=    1 NMtDS0=    0 NMtDT0=    0
         I1Cent=           4 NGrid=           0.
 Petite list used in FoFCou.
 Harris En= -212.629317442648    
 Leave Link  401 at Mon Oct  4 09:15:02 2021, MaxMem=  536870912 cpu:       2.5
 (Enter /sw/target/amd/app/gaussian/Gaussian09RevA.02_gcc-4.9.2/g09/l502.exe)
 Closed shell SCF:
 Requested convergence on RMS density matrix=1.00D-08 within  64 cycles.
 Requested convergence on MAX density matrix=1.00D-06.
 Requested convergence on             energy=1.00D-06.
 No special actions if energy rises.
 Using DIIS extrapolation, IDIIS=  1040.
 Integral symmetry usage will be decided dynamically.
       115758 words used for storage of precomputed grid.
 Keep R1 ints in memory in canonical form, NReq=10617330.
 IEnd=      148518 IEndB=      148518 NGot=   536870912 MDV=   527180327
 LenX=   527180327 LenY=   527171237
 Symmetry not used in FoFDir.
 MinBra= 0 MaxBra= 2 Meth= 1.
 IRaf=       0 NMat=   1 IRICut=       1 DoRegI=T DoRafI=F ISym2E= 0 JSym2E=0.
 Integral accuracy reduced to 1.0D-05 until final iterations.

 Cycle   1  Pass 0  IDiag  1:
 E= -212.556752150460    
 DIIS: error= 1.16D-02 at cycle   1 NSaved=   1.
 NSaved= 1 IEnMin= 1 EnMin= -212.556752150460     IErMin= 1 ErrMin= 1.16D-02
 ErrMax= 1.16D-02 EMaxC= 1.00D-01 BMatC= 1.25D-02 BMatP= 1.25D-02
 IDIUse=3 WtCom= 8.84D-01 WtEn= 1.16D-01
 Coeff-Com:  0.100D+01
 Coeff-En:   0.100D+01
 Coeff:      0.100D+01
 Recover alternate guess density for next cycle.
 RMSDP=5.25D-03 MaxDP=6.41D-02              OVMax= 0.00D+00

 Cycle   2  Pass 0  IDiag  1:
 E= -212.404988307443     Delta-E=        0.151763843016 Rises=F Damp=F
 Switch densities from cycles 1 and 2 for lowest energy.
 DIIS: error= 4.52D-02 at cycle   2 NSaved=   2.
 NSaved= 2 IEnMin= 1 EnMin= -212.556752150460     IErMin= 1 ErrMin= 1.16D-02
 ErrMax= 4.52D-02 EMaxC= 1.00D+00 BMatC= 1.60D-01 BMatP= 1.25D-02
 IDIUse=1 WtCom= 1.00D+00 WtEn= 0.00D+00
 Coeff-Com:  0.940D+00 0.604D-01
 Coeff:      0.940D+00 0.604D-01
 Gap=     0.297 Goal=   None    Shift=    0.000
 RMSDP=1.73D-03 MaxDP=2.24D-02 DE= 1.52D-01 OVMax= 9.04D-02

 Cycle   3  Pass 0  IDiag  1:
 E= -212.579176984519     Delta-E=       -0.174188677075 Rises=F Damp=F
 DIIS: error= 3.84D-03 at cycle   3 NSaved=   3.
 NSaved= 3 IEnMin= 3 EnMin= -212.579176984519     IErMin= 3 ErrMin= 3.84D-03
 ErrMax= 3.84D-03 EMaxC= 1.00D+00 BMatC= 1.54D-03 BMatP= 1.25D-02
 IDIUse=1 WtCom= 1.00D+00 WtEn= 0.00D+00
 Coeff-Com: -0.407D-01 0.850D-01 0.956D+00
 Coeff:     -0.407D-01 0.850D-01 0.956D+00
 Gap=     0.288 Goal=   None    Shift=    0.000
 RMSDP=5.22D-04 MaxDP=5.67D-03 DE=-1.74D-01 OVMax= 8.93D-03

 Cycle   4  Pass 0  IDiag  1:
 E= -212.580727209854     Delta-E=       -0.001550225335 Rises=F Damp=F
 DIIS: error= 8.68D-04 at cycle   4 NSaved=   4.
 NSaved= 4 IEnMin= 4 EnMin= -212.580727209854     IErMin= 4 ErrMin= 8.68D-04
 ErrMax= 8.68D-04 EMaxC= 1.00D+00 BMatC= 7.40D-05 BMatP= 1.54D-03
 IDIUse=1 WtCom= 1.00D+00 WtEn= 0.00D+00
 Coeff-Com: -0.233D-01 0.196D-01 0.296D+00 0.707D+00
 Coeff:     -0.233D-01 0.196D-01 0.296D+00 0.707D+00
 Gap=     0.288 Goal=   None    Shift=    0.000
 RMSDP=1.08D-04 MaxDP=9.41D-04 DE=-1.55D-03 OVMax= 1.83D-03

 Cycle   5  Pass 0  IDiag  1:
 E= -212.580792471505     Delta-E=       -0.000065261651 Rises=F Damp=F
 DIIS: error= 1.09D-04 at cycle   5 NSaved=   5.
 NSaved= 5 IEnMin= 5 EnMin= -212.580792471505     IErMin= 5 ErrMin= 1.09D-04
 ErrMax= 1.09D-04 EMaxC= 1.00D+00 BMatC= 2.03D-06 BMatP= 7.40D-05
 IDIUse=1 WtCom= 1.00D+00 WtEn= 0.00D+00
 Coeff-Com: -0.326D-02 0.155D-02 0.347D-01 0.182D+00 0.785D+00
 Coeff:     -0.326D-02 0.155D-02 0.347D-01 0.182D+00 0.785D+00
 Gap=     0.288 Goal=   None    Shift=    0.000
 RMSDP=2.08D-05 MaxDP=2.80D-04 DE=-6.53D-05 OVMax= 4.32D-04

 Cycle   6  Pass 0  IDiag  1:
 E= -212.580793953548     Delta-E=       -0.000001482044 Rises=F Damp=F
 DIIS: error= 4.84D-05 at cycle   6 NSaved=   6.
 NSaved= 6 IEnMin= 6 EnMin= -212.580793953548     IErMin= 6 ErrMin= 4.84D-05
 ErrMax= 4.84D-05 EMaxC= 1.00D+00 BMatC= 4.47D-07 BMatP= 2.03D-06
 IDIUse=1 WtCom= 1.00D+00 WtEn= 0.00D+00
 Coeff-Com: -0.911D-03 0.209D-03 0.756D-02 0.688D-01 0.411D+00 0.513D+00
 Coeff:     -0.911D-03 0.209D-03 0.756D-02 0.688D-01 0.411D+00 0.513D+00
 Gap=     0.288 Goal=   None    Shift=    0.000
 RMSDP=6.51D-06 MaxDP=1.24D-04 DE=-1.48D-06 OVMax= 1.47D-04

 Initial convergence to 1.0D-05 achieved.  Increase integral accuracy.
 Cycle   7  Pass 1  IDiag  1:
 E= -212.580812631933     Delta-E=       -0.000018678385 Rises=F Damp=F
 DIIS: error= 1.05D-05 at cycle   1 NSaved=   1.
 NSaved= 1 IEnMin= 1 EnMin= -212.580812631933     IErMin= 1 ErrMin= 1.05D-05
 ErrMax= 1.05D-05 EMaxC= 1.00D+00 BMatC= 3.79D-08 BMatP= 3.79D-08
 IDIUse=1 WtCom= 1.00D+00 WtEn= 0.00D+00
 Coeff-Com:  0.100D+01
 Coeff:      0.100D+01
 Gap=     0.288 Goal=   None    Shift=    0.000
 RMSDP=6.51D-06 MaxDP=1.24D-04 DE=-1.87D-05 OVMax= 6.25D-05

 Cycle   8  Pass 1  IDiag  1:
 E= -212.580812678455     Delta-E=       -0.000000046522 Rises=F Damp=F
 DIIS: error= 5.16D-06 at cycle   2 NSaved=   2.
 NSaved= 2 IEnMin= 2 EnMin= -212.580812678455     IErMin= 2 ErrMin= 5.16D-06
 ErrMax= 5.16D-06 EMaxC= 1.00D+00 BMatC= 5.40D-09 BMatP= 3.79D-08
 IDIUse=1 WtCom= 1.00D+00 WtEn= 0.00D+00
 Coeff-Com:  0.159D+00 0.841D+00
 Coeff:      0.159D+00 0.841D+00
 Gap=     0.288 Goal=   None    Shift=    0.000
 RMSDP=1.19D-06 MaxDP=2.42D-05 DE=-4.65D-08 OVMax= 2.67D-05

 Cycle   9  Pass 1  IDiag  1:
 E= -212.580812678982     Delta-E=       -0.000000000527 Rises=F Damp=F
 DIIS: error= 5.47D-06 at cycle   3 NSaved=   3.
 NSaved= 3 IEnMin= 3 EnMin= -212.580812678982     IErMin= 2 ErrMin= 5.16D-06
 ErrMax= 5.47D-06 EMaxC= 1.00D+00 BMatC= 5.00D-09 BMatP= 5.40D-09
 IDIUse=1 WtCom= 1.00D+00 WtEn= 0.00D+00
 Coeff-Com: -0.229D-01 0.495D+00 0.528D+00
 Coeff:     -0.229D-01 0.495D+00 0.528D+00
 Gap=     0.288 Goal=   None    Shift=    0.000
 RMSDP=6.07D-07 MaxDP=1.40D-05 DE=-5.27D-10 OVMax= 1.43D-05

 Cycle  10  Pass 1  IDiag  1:
 E= -212.580812683198     Delta-E=       -0.000000004216 Rises=F Damp=F
 DIIS: error= 6.06D-07 at cycle   4 NSaved=   4.
 NSaved= 4 IEnMin= 4 EnMin= -212.580812683198     IErMin= 4 ErrMin= 6.06D-07
 ErrMax= 6.06D-07 EMaxC= 1.00D+00 BMatC= 4.86D-11 BMatP= 5.00D-09
 IDIUse=1 WtCom= 1.00D+00 WtEn= 0.00D+00
 Coeff-Com: -0.128D-01 0.200D+00 0.232D+00 0.582D+00
 Coeff:     -0.128D-01 0.200D+00 0.232D+00 0.582D+00
 Gap=     0.288 Goal=   None    Shift=    0.000
 RMSDP=1.13D-07 MaxDP=1.67D-06 DE=-4.22D-09 OVMax= 2.28D-06

 Cycle  11  Pass 1  IDiag  1:
 E= -212.580812683240     Delta-E=       -0.000000000043 Rises=F Damp=F
 DIIS: error= 1.62D-07 at cycle   5 NSaved=   5.
 NSaved= 5 IEnMin= 5 EnMin= -212.580812683240     IErMin= 5 ErrMin= 1.62D-07
 ErrMax= 1.62D-07 EMaxC= 1.00D+00 BMatC= 4.96D-12 BMatP= 4.86D-11
 IDIUse=1 WtCom= 1.00D+00 WtEn= 0.00D+00
 Coeff-Com: -0.423D-02 0.534D-01 0.659D-01 0.282D+00 0.603D+00
 Coeff:     -0.423D-02 0.534D-01 0.659D-01 0.282D+00 0.603D+00
 Gap=     0.288 Goal=   None    Shift=    0.000
 RMSDP=2.59D-08 MaxDP=4.59D-07 DE=-4.29D-11 OVMax= 5.09D-07

 Cycle  12  Pass 1  IDiag  1:
 E= -212.580812683243     Delta-E=       -0.000000000002 Rises=F Damp=F
 DIIS: error= 2.93D-08 at cycle   6 NSaved=   6.
 NSaved= 6 IEnMin= 6 EnMin= -212.580812683243     IErMin= 6 ErrMin= 2.93D-08
 ErrMax= 2.93D-08 EMaxC= 1.00D+00 BMatC= 1.51D-13 BMatP= 4.96D-12
 IDIUse=1 WtCom= 1.00D+00 WtEn= 0.00D+00
 Coeff-Com: -0.130D-03-0.190D-02-0.101D-02 0.377D-01 0.184D+00 0.782D+00
 Coeff:     -0.130D-03-0.190D-02-0.101D-02 0.377D-01 0.184D+00 0.782D+00
 Gap=     0.288 Goal=   None    Shift=    0.000
 RMSDP=6.21D-09 MaxDP=5.34D-08 DE=-2.22D-12 OVMax= 9.99D-08

 SCF Done:  E(RB3LYP) =  -212.580812683     A.U. after   12 cycles
             Convg  =    0.6208D-08             -V/T =  2.0100
 KE= 2.104670163936D+02 PE=-8.711467059135D+02 EE= 2.587427177398D+02
 Leave Link  502 at Mon Oct  4 09:16:27 2021, MaxMem=  536870912 cpu:      27.7
 (Enter /sw/target/amd/app/gaussian/Gaussian09RevA.02_gcc-4.9.2/g09/l508.exe)
 QCSCF skips out because SCF is already converged.
 Leave Link  508 at Mon Oct  4 09:16:28 2021, MaxMem=  536870912 cpu:       0.0
 (Enter /sw/target/amd/app/gaussian/Gaussian09RevA.02_gcc-4.9.2/g09/l701.exe)
 Compute integral first derivatives.
 ... and contract with generalized density number  0.
 Leave Link  701 at Mon Oct  4 09:16:29 2021, MaxMem=  536870912 cpu:       0.4
 (Enter /sw/target/amd/app/gaussian/Gaussian09RevA.02_gcc-4.9.2/g09/l702.exe)
 L702 exits ... SP integral derivatives will be done elsewhere.
 Leave Link  702 at Mon Oct  4 09:16:29 2021, MaxMem=  536870912 cpu:       0.1
 (Enter /sw/target/amd/app/gaussian/Gaussian09RevA.02_gcc-4.9.2/g09/l703.exe)
 Compute integral first derivatives, UseDBF=F ICtDFT=           0.
 Integral derivatives from FoFDir, PRISM(SPDF).
 Calling FoFJK, ICntrl=      2127 FMM=F ISym2X=0 I1Cent= 0 IOpClX= 0 NMat=1 NMatS=1 NMatT=0.
 FoFCou: FMM=F IPFlag=           0 FMFlag=      100000 FMFlg1=         800
         NFxFlg=           0 DoJE=F BraDBF=F KetDBF=F FulRan=T
         Omega=  0.000000  0.000000  1.000000  0.000000  0.000000 ICntrl=    2127 IOpCl=  0
         NMat0=    1 NMatS0=    1 NMatT0=    0 NMatD0=    1 NMtDS0=    0 NMtDT0=    0
         I1Cent=           0 NGrid=           0.
 Symmetry not used in FoFCou.
 Leave Link  703 at Mon Oct  4 09:17:01 2021, MaxMem=  536870912 cpu:      10.0
 (Enter /sw/target/amd/app/gaussian/Gaussian09RevA.02_gcc-4.9.2/g09/l716.exe)
 Dipole        = 2.92119900D-02 1.00467195D-01 4.30910340D-01
 ***** Axes restored to original set *****
 -------------------------------------------------------------------
 Center     Atomic                   Forces (Hartrees/Bohr)
 Number     Number              X              Y              Z
 -------------------------------------------------------------------
      1        6          -0.000011763    0.003296778    0.000139666
      2        6           0.001233422   -0.000547215    0.001119740
      3        6           0.000111625   -0.001010775    0.000436912
      4        6          -0.001279750   -0.000572788   -0.000453468
      5        7           0.001690506   -0.002762411   -0.001105903
      6        1          -0.000322876    0.000661688   -0.000063825
      7        1          -0.000349945    0.000369235   -0.000364129
      8        1           0.000279854    0.000617133   -0.000227451
      9        1           0.000254724    0.000626655   -0.000026493
     10        1          -0.000773931    0.000031583    0.000048289
     11        1          -0.000049371   -0.000030624    0.000078946
     12        1           0.000184861   -0.000446285   -0.000246187
     13        1          -0.000488734   -0.000703608    0.000071510
     14        1          -0.000478621    0.000470633    0.000592393
 -------------------------------------------------------------------
 Cartesian Forces:  Max     0.003296778 RMS     0.000892086
 Leave Link  716 at Mon Oct  4 09:17:01 2021, MaxMem=  536870912 cpu:       0.1
 (Enter /sw/target/amd/app/gaussian/Gaussian09RevA.02_gcc-4.9.2/g09/l103.exe)

 GradGradGradGradGradGradGradGradGradGradGradGradGradGradGradGradGradGrad
 Berny optimization.
 Using GEDIIS/GDIIS optimizer.
 Internal  Forces:  Max     0.003268383 RMS     0.000571349
 Search for a local minimum.
 Step number   2 out of a maximum of   90
 All quantities printed in internal units (Hartrees-Bohrs-Radians)
 RMS Force = .57135D-03 SwitMx=.10000D-02 MixMth= 2
 Mixed Optimization -- En-DIIS/RFO-DIIS
 Update second derivatives using D2CorX and points    1    2
 DE= -2.11D-03 DEPred=-2.35D-03 R= 8.98D-01
 SS=  1.41D+00  RLast= 1.95D-01 DXNew= 5.0454D-01 5.8602D-01
 Trust test= 8.98D-01 RLast= 1.95D-01 DXMaxT set to 5.05D-01
 Use linear search instead of GDIIS.
     Eigenvalues ---    0.00611   0.00902   0.02081   0.02634   0.03675
     Eigenvalues ---    0.04663   0.05026   0.05279   0.05719   0.05927
     Eigenvalues ---    0.06078   0.06453   0.06989   0.07104   0.08107
     Eigenvalues ---    0.08479   0.08948   0.09233   0.11195   0.11484
     Eigenvalues ---    0.20455   0.21222   0.28429   0.28714   0.29890
     Eigenvalues ---    0.33942   0.34027   0.34080   0.34179   0.34320
     Eigenvalues ---    0.34336   0.34375   0.34433   0.35309   0.38308
     Eigenvalues ---    0.447121000.000001000.000001000.000001000.00000
     Eigenvalues --- 1000.000001000.000001000.000001000.000001000.00000
     Eigenvalues --- 1000.000001000.000001000.000001000.000001000.00000
     Eigenvalues --- 1000.000001000.000001000.000001000.000001000.00000
     Eigenvalues --- 1000.000001000.000001000.000001000.000001000.00000
     Eigenvalues --- 1000.000001000.000001000.000001000.000001000.00000
     Eigenvalues --- 1000.000001000.000001000.000001000.000001000.00000
     Eigenvalues --- 1000.000001000.000001000.000001000.000001000.00000
     Eigenvalues --- 1000.000001000.000001000.000001000.000001000.00000
 RFO step:  Lambda=-1.34160629D-04 EMin= 6.11233277D-03
 Quartic linear search produced a step of -0.06112.
 Iteration  1 RMS(Cart)=  0.00775110 RMS(Int)=  0.00004131
 Iteration  2 RMS(Cart)=  0.00004562 RMS(Int)=  0.00001368
 Iteration  3 RMS(Cart)=  0.00000000 RMS(Int)=  0.00001368
 Variable       Old X    -DE/DX   Delta X   Delta X   Delta X     New X
                                 (Linear)    (Quad)   (Total)
    R1        2.88858   0.00123  -0.00172   0.00647   0.00475   2.89333
    R2        2.78574  -0.00327  -0.00150  -0.00742  -0.00892   2.77683
    R3        2.07269  -0.00021  -0.00041  -0.00001  -0.00041   2.07228
    R4        2.09004   0.00033  -0.00112   0.00247   0.00136   2.09139
    R5        2.91612  -0.00177  -0.00314  -0.00030  -0.00342   2.91269
    R6        2.06966  -0.00029  -0.00016  -0.00058  -0.00073   2.06893
    R7        2.07186  -0.00011   0.00006  -0.00038  -0.00032   2.07154
    R8        2.93000  -0.00042  -0.00317   0.00403   0.00086   2.93086
    R9        2.07248  -0.00032  -0.00003  -0.00085  -0.00087   2.07160
   R10        2.06835   0.00001  -0.00003   0.00005   0.00003   2.06837
   R11        2.80285  -0.00179  -0.00212  -0.00203  -0.00416   2.79869
   R12        2.08056  -0.00006  -0.00063   0.00072   0.00009   2.08065
   R13        2.07587  -0.00044  -0.00049  -0.00050  -0.00099   2.07487
   R14        1.91908   0.00024   0.00026   0.00014   0.00040   1.91948
    A1        1.78825   0.00056   0.00063  -0.00196  -0.00138   1.78687
    A2        1.96853   0.00013  -0.00061   0.00363   0.00302   1.97155
    A3        1.91327   0.00027   0.00125   0.00427   0.00553   1.91881
    A4        1.93214  -0.00074   0.00094  -0.00804  -0.00710   1.92504
    A5        1.98587  -0.00028  -0.00362   0.00355  -0.00006   1.98580
    A6        1.87716   0.00007   0.00127  -0.00110   0.00014   1.87730
    A7        1.79255  -0.00077  -0.00011  -0.00561  -0.00574   1.78681
    A8        1.96861   0.00058  -0.00009   0.00291   0.00282   1.97143
    A9        1.91035   0.00027   0.00121   0.00259   0.00378   1.91413
   A10        1.97867  -0.00022  -0.00104  -0.00282  -0.00386   1.97482
   A11        1.93139   0.00004  -0.00055  -0.00127  -0.00180   1.92960
   A12        1.88145   0.00011   0.00057   0.00394   0.00451   1.88596
   A13        1.82036  -0.00031   0.00015  -0.00166  -0.00152   1.81884
   A14        1.92077   0.00023  -0.00031  -0.00180  -0.00211   1.91866
   A15        1.96617  -0.00012  -0.00067   0.00257   0.00189   1.96806
   A16        1.92914  -0.00033  -0.00078  -0.00274  -0.00354   1.92560
   A17        1.96133   0.00035   0.00027   0.00150   0.00178   1.96311
   A18        1.86702   0.00017   0.00126   0.00187   0.00314   1.87016
   A19        1.84055   0.00060   0.00109  -0.00091   0.00014   1.84069
   A20        1.93343  -0.00020  -0.00018  -0.00083  -0.00101   1.93242
   A21        1.94898  -0.00028  -0.00063   0.00010  -0.00052   1.94846
   A22        1.96688  -0.00022  -0.00156   0.00397   0.00242   1.96930
   A23        1.91595  -0.00035  -0.00035  -0.00495  -0.00529   1.91067
   A24        1.85985   0.00042   0.00155   0.00251   0.00406   1.86392
   A25        1.89247  -0.00028  -0.00130  -0.00202  -0.00335   1.88912
   A26        1.94543   0.00022  -0.00053   0.00679   0.00629   1.95172
   A27        1.94647   0.00004  -0.00053   0.00311   0.00262   1.94908
    D1       -0.70981  -0.00039   0.00041  -0.01376  -0.01336  -0.72317
    D2       -2.84607   0.00007   0.00178  -0.00830  -0.00653  -2.85259
    D3        1.34262  -0.00062   0.00025  -0.01697  -0.01674   1.32588
    D4       -2.78758   0.00009  -0.00079  -0.00478  -0.00556  -2.79314
    D5        1.35935   0.00055   0.00058   0.00068   0.00127   1.36063
    D6       -0.73514  -0.00015  -0.00095  -0.00799  -0.00894  -0.74408
    D7        1.40458  -0.00027  -0.00288  -0.00869  -0.01157   1.39301
    D8       -0.73168   0.00019  -0.00151  -0.00323  -0.00474  -0.73642
    D9       -2.82617  -0.00050  -0.00303  -0.01190  -0.01495  -2.84112
   D10        0.62499   0.00028  -0.00048   0.01604   0.01556   0.64055
   D11        2.77407   0.00028  -0.00233   0.02301   0.02067   2.79474
   D12        2.72813   0.00040  -0.00037   0.01532   0.01494   2.74307
   D13       -1.40598   0.00040  -0.00222   0.02228   0.02005  -1.38593
   D14       -1.43872  -0.00026  -0.00060   0.01041   0.00982  -1.42890
   D15        0.71036  -0.00026  -0.00245   0.01738   0.01493   0.72529
   D16        0.53998  -0.00033  -0.00076   0.00562   0.00483   0.54481
   D17       -1.52957   0.00011   0.00022   0.01063   0.01083  -1.51873
   D18        2.67181  -0.00018  -0.00072   0.00781   0.00708   2.67889
   D19        2.66942  -0.00026  -0.00148   0.00399   0.00250   2.67192
   D20        0.59988   0.00019  -0.00050   0.00900   0.00850   0.60838
   D21       -1.48193  -0.00011  -0.00144   0.00618   0.00474  -1.47719
   D22       -1.49748  -0.00025  -0.00186   0.00619   0.00431  -1.49317
   D23        2.71616   0.00020  -0.00088   0.01120   0.01031   2.72647
   D24        0.63435  -0.00009  -0.00182   0.00838   0.00656   0.64091
   D25       -0.17222  -0.00015   0.00049   0.00155   0.00203  -0.17019
   D26       -2.30520  -0.00015   0.00180  -0.00222  -0.00042  -2.30561
   D27        1.90791  -0.00036   0.00038  -0.00489  -0.00452   1.90338
   D28        1.89160  -0.00021  -0.00018  -0.00283  -0.00302   1.88858
   D29       -0.24138  -0.00021   0.00114  -0.00661  -0.00547  -0.24684
   D30       -2.31146  -0.00042  -0.00029  -0.00928  -0.00957  -2.32103
   D31       -2.30723  -0.00000   0.00106  -0.00134  -0.00029  -2.30752
   D32        1.84297   0.00001   0.00237  -0.00511  -0.00274   1.84024
   D33       -0.22711  -0.00021   0.00095  -0.00779  -0.00684  -0.23395
   D34       -0.28192  -0.00032  -0.00004  -0.01153  -0.01157  -0.29348
   D35       -2.43037  -0.00043   0.00181  -0.02072  -0.01889  -2.44926
   D36        1.82938  -0.00030  -0.00046  -0.01086  -0.01132   1.81806
   D37       -0.31907  -0.00041   0.00140  -0.02005  -0.01865  -0.33772
   D38       -2.38385  -0.00015   0.00027  -0.00849  -0.00823  -2.39208
   D39        1.75089  -0.00026   0.00213  -0.01768  -0.01556   1.73533
         Item               Value     Threshold  Converged?
 Maximum Force            0.003268     0.000450     NO 
 RMS     Force            0.000571     0.000300     NO 
 Maximum Displacement     0.033731     0.001800     NO 
 RMS     Displacement     0.007762     0.001200     NO 
 Predicted change in Energy=-7.644880D-05
 GradGradGradGradGradGradGradGradGradGradGradGradGradGradGradGradGradGrad

 Leave Link  103 at Mon Oct  4 09:17:04 2021, MaxMem=  536870912 cpu:       0.8
 (Enter /sw/target/amd/app/gaussian/Gaussian09RevA.02_gcc-4.9.2/g09/l202.exe)
                          Input orientation:                          
 ---------------------------------------------------------------------
 Center     Atomic      Atomic             Coordinates (Angstroms)
 Number     Number       Type             X           Y           Z
 ---------------------------------------------------------------------
      1          6           0       -0.840240   -0.888699   -0.263021
      2          6           0        0.585996   -1.148798    0.229342
      3          6           0        1.307603    0.161781   -0.141290
      4          6           0        0.206168    1.247874   -0.028733
      5          7           0       -1.064067    0.505856    0.142383
      6          1           0       -1.581729   -1.545355    0.207660
      7          1           0       -0.897406   -1.050206   -1.356397
      8          1           0        1.040418   -2.034215   -0.226938
      9          1           0        0.580929   -1.291345    1.316232
     10          1           0        1.681987    0.104214   -1.170014
     11          1           0        2.167133    0.369017    0.503902
     12          1           0        0.205795    1.896005   -0.918789
     13          1           0        0.368473    1.900706    0.839034
     14          1           0       -1.822126    0.934164   -0.380725
 ---------------------------------------------------------------------
                    Distance matrix (angstroms):
                    1          2          3          4          5
     1  C    0.000000
     2  C    1.531086   0.000000
     3  C    2.394067   1.541331   0.000000
     4  C    2.390565   2.440268   1.550944   0.000000
     5  N    1.469433   2.338408   2.413230   1.481002   0.000000
     6  H    1.096606   2.203805   3.374065   3.324844   2.116531
     7  H    1.106717   2.173654   2.794184   2.874324   2.166898
     8  H    2.202359   1.094831   2.213848   3.392251   3.319220
     9  H    2.162380   1.096210   2.182659   2.897760   2.704416
    10  H    2.858346   2.174726   1.096244   2.188269   3.069938
    11  H    3.348778   2.208877   1.094537   2.213928   3.254240
    12  H    3.046112   3.276215   2.196820   1.101033   2.161285
    13  H    3.233619   3.117454   2.206097   1.097977   2.117333
[...]
          Solving linear equations separately, MaxMat=       0.
          There are     1 degrees of freedom in the 1st order CPHF.  IDoFFX=0.
 LinEq1:  Iter=  0 NonCon=     1 RMS=2.93D-02 Max=3.04D-01
 AX will form     1 AO Fock derivatives at one time.
 LinEq1:  Iter=  1 NonCon=     1 RMS=7.44D-03 Max=1.40D-01
 LinEq1:  Iter=  2 NonCon=     1 RMS=2.06D-03 Max=2.22D-02
 LinEq1:  Iter=  3 NonCon=     1 RMS=1.07D-03 Max=1.06D-02
 LinEq1:  Iter=  4 NonCon=     1 RMS=3.45D-04 Max=5.11D-03
 LinEq1:  Iter=  5 NonCon=     1 RMS=1.05D-04 Max=1.56D-03
 LinEq1:  Iter=  6 NonCon=     1 RMS=3.44D-05 Max=3.47D-04
 LinEq1:  Iter=  7 NonCon=     1 RMS=1.74D-05 Max=2.03D-04
 LinEq1:  Iter=  8 NonCon=     1 RMS=3.97D-06 Max=5.10D-05
 LinEq1:  Iter=  9 NonCon=     1 RMS=6.41D-07 Max=4.85D-06
 LinEq1:  Iter= 10 NonCon=     1 RMS=1.15D-07 Max=1.05D-06
 LinEq1:  Iter= 11 NonCon=     1 RMS=1.54D-08 Max=1.67D-07
 LinEq1:  Iter= 12 NonCon=     1 RMS=2.22D-09 Max=2.41D-08
 LinEq1:  Iter= 13 NonCon=     1 RMS=3.83D-10 Max=3.42D-09
 LinEq1:  Iter= 14 NonCon=     1 RMS=1.33D-10 Max=1.23D-09
 LinEq1:  Iter= 15 NonCon=     0 RMS=6.15D-11 Max=4.45D-10
 Linear equations converged to 1.000D-10 1.000D-09 after    15 iterations.
 End of Minotr Frequency-dependent properties file   721 does not exist.
 End of Minotr Frequency-dependent properties file   722 does not exist.
 Leave Link 1002 at Mon Oct  4 11:26:10 2021, MaxMem=  536870912 cpu:      69.7
 (Enter /sw/target/amd/app/gaussian/Gaussian09RevA.02_gcc-4.9.2/g09/l601.exe)
 Copying SCF densities to generalized density rwf, IOpCl= 0 IROHF=0.

 **********************************************************************

            Population analysis using the CI density.

 **********************************************************************

 Orbital symmetries:
       Occupied  (A) (A) (A) (A) (A) (A) (A) (A) (A) (A) (A) (A)
                 (A) (A) (A) (A) (A) (A) (A) (A)
       Virtual   (A) (A) (A) (A) (A) (A) (A) (A) (A) (A) (A) (A)
                 (A) (A) (A) (A) (A) (A) (A) (A) (A) (A) (A) (A)
                 (A) (A) (A) (A) (A) (A) (A) (A) (A) (A) (A) (A)
                 (A) (A) (A) (A) (A) (A) (A) (A) (A) (A) (A) (A)
                 (A) (A) (A) (A) (A) (A) (A) (A) (A) (A) (A) (A)
                 (A) (A) (A) (A) (A) (A) (A) (A) (A) (A) (A) (A)
                 (A)
 The electronic state is 1-A.
 Alpha  occ. eigenvalues --  -14.30843 -10.19903 -10.19902 -10.17639 -10.17622
 Alpha  occ. eigenvalues --   -0.90577  -0.74936  -0.71200  -0.58408  -0.56676
 Alpha  occ. eigenvalues --   -0.50482  -0.47547  -0.42337  -0.39077  -0.36311
 Alpha  occ. eigenvalues --   -0.36304  -0.33608  -0.33284  -0.31461  -0.21466
 Alpha virt. eigenvalues --    0.08240   0.10681   0.13739   0.14520   0.16082
 Alpha virt. eigenvalues --    0.17236   0.18024   0.18571   0.20110   0.20227
 Alpha virt. eigenvalues --    0.24505   0.25418   0.29326   0.32640   0.53161
 Alpha virt. eigenvalues --    0.55616   0.56227   0.58001   0.58443   0.60770
 Alpha virt. eigenvalues --    0.65133   0.66769   0.68920   0.69590   0.77429
 Alpha virt. eigenvalues --    0.79245   0.82657   0.84440   0.85214   0.86858
 Alpha virt. eigenvalues --    0.87704   0.89957   0.93145   0.94294   0.95208
 Alpha virt. eigenvalues --    0.96212   0.96730   1.05755   1.27125   1.27193
 Alpha virt. eigenvalues --    1.33901   1.37084   1.45455   1.61667   1.64134
 Alpha virt. eigenvalues --    1.79189   1.83838   1.84523   1.88856   1.94352
 Alpha virt. eigenvalues --    1.97214   1.98418   2.02367   2.08971   2.09457
 Alpha virt. eigenvalues --    2.16111   2.17616   2.23751   2.28701   2.38187
 Alpha virt. eigenvalues --    2.39026   2.47937   2.54972   2.57964   2.65980
 Alpha virt. eigenvalues --    2.66796   2.68081   2.86641   3.91316   4.17554
 Alpha virt. eigenvalues --    4.24918   4.44121   4.61491
          Condensed to atoms (all electrons):
              1          2          3          4          5          6
     1  C    5.720991   0.433793  -0.063394  -0.078612   0.332708   0.096132
     2  C    0.433793   5.205060   0.462149  -0.063399  -0.091547  -0.041741
     3  C   -0.063394   0.462149   5.205061   0.433762  -0.091544   0.005747
     4  C   -0.078612  -0.063399   0.433762   5.720976   0.332712   0.009179
     5  N    0.332708  -0.091547  -0.091544   0.332712   8.015381  -0.126936
     6  H    0.096132  -0.041741   0.005747   0.009179  -0.126936   0.732313
     7  H    0.014350  -0.037058   0.002881  -0.013913  -0.149471   0.079284
     8  H   -0.140567   0.211780  -0.068089  -0.004335  -0.001822   0.024354
     9  H   -0.084937   0.275046  -0.059998   0.001125  -0.005708   0.019948
    10  H   -0.004326  -0.068074   0.211814  -0.140559  -0.001818   0.001100
    11  H    0.001126  -0.059978   0.275054  -0.084932  -0.005712   0.001483
    12  H   -0.013912   0.002882  -0.037047   0.014403  -0.149448   0.004443
    13  H    0.009182   0.005752  -0.041738   0.096142  -0.126930   0.001159
    14  H   -0.090820   0.017118   0.017114  -0.090826  -0.753025   0.075486
              7          8          9         10         11         12
     1  C    0.014350  -0.140567  -0.084937  -0.004326   0.001126  -0.013912
     2  C   -0.037058   0.211780   0.275046  -0.068074  -0.059978   0.002882
     3  C    0.002881  -0.068089  -0.059998   0.211814   0.275054  -0.037047
     4  C   -0.013913  -0.004335   0.001125  -0.140559  -0.084932   0.014403
     5  N   -0.149471  -0.001822  -0.005708  -0.001818  -0.005712  -0.149448
     6  H    0.079284   0.024354   0.019948   0.001100   0.001483   0.004443
     7  H    0.763980   0.040584   0.015490   0.007600   0.001813   0.036619
     8  H    0.040584   0.763650   0.021351   0.029210   0.014308   0.007608
     9  H    0.015490   0.021351   0.663123   0.014309   0.009014   0.001814
    10  H    0.007600   0.029210   0.014309   0.763603   0.021339   0.040571
    11  H    0.001813   0.014308   0.009014   0.021339   0.663106   0.015488
    12  H    0.036619   0.007608   0.001814   0.040571   0.015488   0.763919
    13  H    0.004443   0.001100   0.001482   0.024354   0.019944   0.079267
    14  H    0.110465   0.003577   0.004480   0.003576   0.004481   0.110446
             13         14
     1  C    0.009182  -0.090820
     2  C    0.005752   0.017118
     3  C   -0.041738   0.017114
     4  C    0.096142  -0.090826
     5  N   -0.126930  -0.753025
     6  H    0.001159   0.075486
     7  H    0.004443   0.110465
     8  H    0.001100   0.003577
     9  H    0.001482   0.004480
    10  H    0.024354   0.003576
    11  H    0.019944   0.004481
    12  H    0.079267   0.110446
    13  H    0.732306   0.075488
    14  H    0.075488   1.492106
 Mulliken atomic charges:
              1
     1  C   -0.131713
     2  C   -0.251782
     3  C   -0.251772
     4  C   -0.131723
     5  N   -0.176840
     6  H    0.118050
     7  H    0.122931
     8  H    0.097290
     9  H    0.123461
    10  H    0.097300
    11  H    0.123465
    12  H    0.122948
    13  H    0.118050
    14  H    0.020334
 Sum of Mulliken atomic charges =  -0.00000
 Mulliken charges with hydrogens summed into heavy atoms:
              1
     1  C    0.109268
     2  C   -0.031030
     3  C   -0.031006
     4  C    0.109275
     5  N   -0.156506
 Sum of Mulliken charges with hydrogens summed into heavy atoms =  -0.00000
 Electronic spatial extent (au):  <R**2>=            398.8198
 Charge=              0.0000 electrons
 Dipole moment (field-independent basis, Debye):
    X=              0.0002    Y=              0.1929    Z=             -0.3112  Tot=              0.3662
 Quadrupole moment (field-independent basis, Debye-Ang):
   XX=            -33.3111   YY=            -38.4261   ZZ=            -34.3263
   XY=             -0.0008   XZ=              0.0002   YZ=              0.1417
 Traceless Quadrupole moment (field-independent basis, Debye-Ang):
   XX=              2.0434   YY=             -3.0716   ZZ=              1.0282
   XY=             -0.0008   XZ=              0.0002   YZ=              0.1417
 Octapole moment (field-independent basis, Debye-Ang**2):
  XXX=             -0.0001  YYY=              9.7322  ZZZ=             -2.6715  XYY=              0.0018
  XXY=             -0.5273  XXZ=              0.0617  XZZ=              0.0008  YZZ=              0.5354
  YYZ=             -2.8409  XYZ=             -0.0005
 Hexadecapole moment (field-independent basis, Debye-Ang**3):
 XXXX=           -243.1645 YYYY=           -287.7107 ZZZZ=            -78.1832 XXXY=             -0.0033
 XXXZ=              0.0006 YYYX=             -0.0043 YYYZ=              2.5454 ZZZX=              0.0007
 ZZZY=              0.9697 XXYY=            -87.2082 XXZZ=            -53.1255 YYZZ=            -56.8238
 XXYZ=             -0.0244 YYXZ=              0.0009 ZZXY=             -0.0006
 N-N= 1.897409829938D+02 E-N=-8.704251856643D+02  KE= 2.106572332647D+02
 No NMR shielding tensors so no spin-rotation constants.
 Leave Link  601 at Mon Oct  4 11:26:13 2021, MaxMem=  536870912 cpu:       0.4
 (Enter /sw/target/amd/app/gaussian/Gaussian09RevA.02_gcc-4.9.2/g09/l604.exe)
 Evaluate density.
 Using the total density.
 Monte-Carlo method of calculating molar volume:
 based on  0.001 e/bohr**3 density envelope.
 Number of points per bohr**3 =   20 CutOff= 1.00D-04
 Using the CI density.
 There are       311 points.  Will hold       311 in memory.
 LenV=   536832003 MDV=   536870912.
 Box volume = 3785.657 fraction occupied=0.251
 Integrated density= 3.3920055149004710D+01 error=-6.0799448509952896D+00
 Molar volume =  949.457 bohr**3/mol ( 84.729 cm**3/mol)
 Recommended a0 for SCRF calculation =  4.05 angstrom (  7.66 bohr)
 Leave Link  604 at Mon Oct  4 11:26:13 2021, MaxMem=  536870912 cpu:       0.1
 (Enter /sw/target/amd/app/gaussian/Gaussian09RevA.02_gcc-4.9.2/g09/l607.exe)
 ******************************Gaussian NBO Version 3.1******************************
             N A T U R A L   A T O M I C   O R B I T A L   A N D
          N A T U R A L   B O N D   O R B I T A L   A N A L Y S I S
 ******************************Gaussian NBO Version 3.1******************************
       /RESON  / : Allow strongly delocalized NBO set

 Analyzing the CI density

 Job title: C1CCCN1_conf_0                                                  

 Storage needed:     26642 in NPA ( 536869792 available)


 NATURAL POPULATIONS:  Natural atomic orbital occupancies 
                                                          
   NAO  Atom  No  lang   Type(AO)    Occupancy
 --------------------------------------------
     1    C    1  S      Cor( 1S)     1.99933
     2    C    1  S      Val( 2S)     1.06743
     3    C    1  S      Ryd( 3S)     0.00161
     4    C    1  S      Ryd( 4S)     0.00004
     5    C    1  px     Val( 2p)     1.04662
     6    C    1  px     Ryd( 3p)     0.00388
     7    C    1  py     Val( 2p)     1.01227
     8    C    1  py     Ryd( 3p)     0.00558
     9    C    1  pz     Val( 2p)     1.19707
    10    C    1  pz     Ryd( 3p)     0.00359
    11    C    1  dxy    Ryd( 3d)     0.00136
    12    C    1  dxz    Ryd( 3d)     0.00086
    13    C    1  dyz    Ryd( 3d)     0.00075
    14    C    1  dx2y2  Ryd( 3d)     0.00086
    15    C    1  dz2    Ryd( 3d)     0.00098

    16    C    2  S      Cor( 1S)     1.99936
    17    C    2  S      Val( 2S)     1.05562
    18    C    2  S      Ryd( 3S)     0.00072
    19    C    2  S      Ryd( 4S)     0.00002
    20    C    2  px     Val( 2p)     1.06153
    21    C    2  px     Ryd( 3p)     0.00159
    22    C    2  py     Val( 2p)     1.09525
    23    C    2  py     Ryd( 3p)     0.00280
    24    C    2  pz     Val( 2p)     1.25030
    25    C    2  pz     Ryd( 3p)     0.00418
    26    C    2  dxy    Ryd( 3d)     0.00061
    27    C    2  dxz    Ryd( 3d)     0.00066
    28    C    2  dyz    Ryd( 3d)     0.00069
    29    C    2  dx2y2  Ryd( 3d)     0.00064
    30    C    2  dz2    Ryd( 3d)     0.00078

    31    C    3  S      Cor( 1S)     1.99936
    32    C    3  S      Val( 2S)     1.05562
    33    C    3  S      Ryd( 3S)     0.00072
    34    C    3  S      Ryd( 4S)     0.00002
    35    C    3  px     Val( 2p)     1.06158
    36    C    3  px     Ryd( 3p)     0.00159
    37    C    3  py     Val( 2p)     1.09521
    38    C    3  py     Ryd( 3p)     0.00280
    39    C    3  pz     Val( 2p)     1.25029
    40    C    3  pz     Ryd( 3p)     0.00418
    41    C    3  dxy    Ryd( 3d)     0.00061
    42    C    3  dxz    Ryd( 3d)     0.00066
    43    C    3  dyz    Ryd( 3d)     0.00069
    44    C    3  dx2y2  Ryd( 3d)     0.00064
    45    C    3  dz2    Ryd( 3d)     0.00078

    46    C    4  S      Cor( 1S)     1.99933
    47    C    4  S      Val( 2S)     1.06743
    48    C    4  S      Ryd( 3S)     0.00161
    49    C    4  S      Ryd( 4S)     0.00004
    50    C    4  px     Val( 2p)     1.04655
    51    C    4  px     Ryd( 3p)     0.00388
    52    C    4  py     Val( 2p)     1.01235
    53    C    4  py     Ryd( 3p)     0.00558
    54    C    4  pz     Val( 2p)     1.19705
    55    C    4  pz     Ryd( 3p)     0.00359
    56    C    4  dxy    Ryd( 3d)     0.00136
    57    C    4  dxz    Ryd( 3d)     0.00086
    58    C    4  dyz    Ryd( 3d)     0.00075
    59    C    4  dx2y2  Ryd( 3d)     0.00086
    60    C    4  dz2    Ryd( 3d)     0.00098

    61    N    5  S      Cor( 1S)     1.99931
    62    N    5  S      Val( 2S)     1.42821
    63    N    5  S      Ryd( 3S)     0.00751
    64    N    5  S      Ryd( 4S)     0.00007
    65    N    5  px     Val( 2p)     1.25707
    66    N    5  px     Ryd( 3p)     0.00108
    67    N    5  py     Val( 2p)     1.41243
    68    N    5  py     Ryd( 3p)     0.00248
    69    N    5  pz     Val( 2p)     1.09261
    70    N    5  pz     Ryd( 3p)     0.00128
    71    N    5  dxy    Ryd( 3d)     0.00050
    72    N    5  dxz    Ryd( 3d)     0.00087
    73    N    5  dyz    Ryd( 3d)     0.00088
    74    N    5  dx2y2  Ryd( 3d)     0.00107
    75    N    5  dz2    Ryd( 3d)     0.00012

    76    H    6  S      Val( 1S)     0.76356
    77    H    6  S      Ryd( 2S)     0.02160

    78    H    7  S      Val( 1S)     0.74265
    79    H    7  S      Ryd( 2S)     0.03897

    80    H    8  S      Val( 1S)     0.78674
    81    H    8  S      Ryd( 2S)     0.01931

    82    H    9  S      Val( 1S)     0.77086
    83    H    9  S      Ryd( 2S)     0.01140

    84    H   10  S      Val( 1S)     0.78673
    85    H   10  S      Ryd( 2S)     0.01931

    86    H   11  S      Val( 1S)     0.77086
    87    H   11  S      Ryd( 2S)     0.01139

    88    H   12  S      Val( 1S)     0.74264
    89    H   12  S      Ryd( 2S)     0.03897

    90    H   13  S      Val( 1S)     0.76357
    91    H   13  S      Ryd( 2S)     0.02160

    92    H   14  S      Val( 1S)     0.74004
    93    H   14  S      Ryd( 2S)     0.11035


 Summary of Natural Population Analysis:                  
                                                          
                                       Natural Population 
                Natural  -----------------------------------------------
    Atom  No    Charge         Core      Valence    Rydberg      Total
 -----------------------------------------------------------------------
      C    1   -0.34223      1.99933     4.32338    0.01951     6.34223
      C    2   -0.47476      1.99936     4.46271    0.01268     6.47476
      C    3   -0.47476      1.99936     4.46271    0.01268     6.47476
      C    4   -0.34223      1.99933     4.32338    0.01951     6.34223
      N    5   -0.20548      1.99931     5.19031    0.01585     7.20548
      H    6    0.21483      0.00000     0.76356    0.02160     0.78517
      H    7    0.21838      0.00000     0.74265    0.03897     0.78162
      H    8    0.19395      0.00000     0.78674    0.01931     0.80605
      H    9    0.21774      0.00000     0.77086    0.01140     0.78226
      H   10    0.19396      0.00000     0.78673    0.01931     0.80604
      H   11    0.21775      0.00000     0.77086    0.01139     0.78225
      H   12    0.21839      0.00000     0.74264    0.03897     0.78161
      H   13    0.21483      0.00000     0.76357    0.02160     0.78517
      H   14    0.14961      0.00000     0.74004    0.11035     0.85039
 =======================================================================
   * Total *    0.00000      9.99671    29.63015    0.37315    40.00000

                                 Natural Population      
 --------------------------------------------------------
   Core                       9.99671 ( 99.9671% of  10)
   Valence                   29.63015 ( 98.7672% of  30)
   Natural Minimal Basis     39.62685 ( 99.0671% of  40)
   Natural Rydberg Basis      0.37315 (  0.9329% of  40)
 --------------------------------------------------------

    Atom  No          Natural Electron Configuration
 ----------------------------------------------------------------------------
      C    1      [core]2S( 1.07)2p( 3.26)3p( 0.01)
      C    2      [core]2S( 1.06)2p( 3.41)3p( 0.01)
      C    3      [core]2S( 1.06)2p( 3.41)3p( 0.01)
      C    4      [core]2S( 1.07)2p( 3.26)3p( 0.01)
      N    5      [core]2S( 1.43)2p( 3.76)3S( 0.01)
      H    6            1S( 0.76)2S( 0.02)
      H    7            1S( 0.74)2S( 0.04)
      H    8            1S( 0.79)2S( 0.02)
      H    9            1S( 0.77)2S( 0.01)
      H   10            1S( 0.79)2S( 0.02)
      H   11            1S( 0.77)2S( 0.01)
      H   12            1S( 0.74)2S( 0.04)
      H   13            1S( 0.76)2S( 0.02)
      H   14            1S( 0.74)2S( 0.11)


 NBO analysis skipped by request.
 Leave Link  607 at Mon Oct  4 11:26:31 2021, MaxMem=  536870912 cpu:       5.2
 (Enter /sw/target/amd/app/gaussian/Gaussian09RevA.02_gcc-4.9.2/g09/l9999.exe)
 1\1\GINC-HERMITE\SP\RTD-B3LYP-FC\6-31G(d)\C4H9N1\JSCHLEINITZ\04-Oct-20
 21\0\\#p TD(NStates=10, Root=1) b3lyp/6-31G* volume pop=NPA density=cu
 rrent Geom=AllCheck Guess=Read\\C1CCCN1_conf_0\\0,1\C,0,-0.8763506948,
 -0.838626036,-0.1861235152\C,0,0.6058396475,-1.1859571646,0.0684027835
 \C,0,1.3342431644,0.1906377355,0.0472344821\C,0,0.210041136,1.21441387
 21,-0.2179534213\N,0,-0.9771656809,0.5366345302,0.3107312292\H,0,-1.57
 031697,-1.4968287144,0.3483425723\H,0,-1.0986132021,-0.9233717229,-1.2
 67496586\H,0,0.9913243195,-1.878278748,-0.6864178911\H,0,0.7235197823,
 -1.6657352148,1.0446672286\H,0,2.1139554523,0.2430447679,-0.7189004191
 \H,0,1.8092720077,0.3866508197,1.0131828703\H,0,0.141272448,1.41948453
 92,-1.3038493432\H,0,0.3705393839,2.1711147376,0.2913955986\H,0,-1.838
 6256422,0.9878152831,0.0094329737\\Version=AM64L-G09RevA.02\State=1-A\
 HF=-212.581729\RMSD=7.078e-10\Dipole=0.0656275,-0.0327485,0.1239908\Qu
 adrupole=-1.4491976,0.6903882,0.7588094,1.5683813,-0.154548,0.069849\P
 G=C01 [X(C4H9N1)]\\@


 I WOULD TAKE COUNSEL OF MYSELF.
 I WOULD STOP AND LOOK WITHIN
 AND LOOKING WITHIN, LOOK BACK, ALSO
 THAT I MAY LOOK AHEAD WITH CLEARER UNDERSTANDING
 OF THE WAY I HAVE BEEN MOVING, AND IN WHAT DIRECTION.
 I NEED TO KNOW IF I AM GOING FORWARD OR RETREATING,
 WHETHER I HAVE BEEN WASTING, OR ENJOYING
 THE PRECIOUS MOMENTS OF LIFE.  THERE HAVE BEEN FRICTIONS,
 ANNOYANCES AND SOMETIMES WRATH,
 BUT WERE THEY BECAUSE I WAS RIGHT AND OTHERS WRONG.....
 HAVE I HAD MY THOUGHTS TOO SHARPLY FOCUSED
 ON THAT WHICH PLEASED ME, SERVED MY SELF-ESTEEM,
 UNDERGIRDED MY SECURITY,
 OF WHICH I DID NOT INQUIRE WHETHER IT SERVED OR HAMPERED OTHERS.....
 HAVE I BEEN TRYING TO STOP THE CLOCK
 TO HOLD THE WORLD
 IN PERPETUATION OF WHAT WAS AN IS ALREADY SLIPPING AWAY.....
 HAVE I BEEN CRITICAL OF OTHERS FOR WHAT REALLY NEEDED CHANGING IN ME...
 LET ME INDEED TAKE COUNSEL OF MYSELF
 AND SET MY DIRECTIONS STRAIGHT.

                          R.T. WESTON AS ADAPTED BY D. OSBORN 1967
 Job cpu time:  0 days  0 hours 16 minutes 58.3 seconds.
 File lengths (MBytes):  RWF=     36 Int=      0 D2E=      0 Chk=      5 Scr=      1
 Normal termination of Gaussian 09 at Mon Oct  4 11:26:37 2021.
