 Entering Gaussian System, Link 0=g09
 Input=C4H9BrMg_415c_conf_0.com
 Output=C4H9BrMg_415c_conf_0.log
 Initial command:
 /sw/target/amd/app/gaussian/Gaussian09RevA.02_gcc-4.9.2/g09/l1.exe /home/jschleinitz/gaussian/Gau-3051.inp -scrdir=/home/jschleinitz/gaussian/
 Entering Link 1 = /sw/target/amd/app/gaussian/Gaussian09RevA.02_gcc-4.9.2/g09/l1.exe PID=      3080.
  
 Copyright (c) 1988,1990,1992,1993,1995,1998,2003,2009, Gaussian, Inc.
                  All Rights Reserved.
  
 This is part of the Gaussian(R) 09 program.  It is based on
 the Gaussian(R) 03 system (copyright 2003, Gaussian, Inc.),
 the Gaussian(R) 98 system (copyright 1998, Gaussian, Inc.),
 the Gaussian(R) 94 system (copyright 1995, Gaussian, Inc.),
 the Gaussian 92(TM) system (copyright 1992, Gaussian, Inc.),
 the Gaussian 90(TM) system (copyright 1990, Gaussian, Inc.),
 the Gaussian 88(TM) system (copyright 1988, Gaussian, Inc.),
 the Gaussian 86(TM) system (copyright 1986, Carnegie Mellon
 University), and the Gaussian 82(TM) system (copyright 1983,
 Carnegie Mellon University). Gaussian is a federally registered
 trademark of Gaussian, Inc.
  
 This software contains proprietary and confidential information,
 including trade secrets, belonging to Gaussian, Inc.
  
 This software is provided under written license and may be
 used, copied, transmitted, or stored only in accord with that
 written license.
  
 The following legend is applicable only to US Government
 contracts under FAR:
  
                    RESTRICTED RIGHTS LEGEND
  
 Use, reproduction and disclosure by the US Government is
 subject to restrictions as set forth in subparagraphs (a)
 and (c) of the Commercial Computer Software - Restricted
 Rights clause in FAR 52.227-19.
  
 Gaussian, Inc.
 340 Quinnipiac St., Bldg. 40, Wallingford CT 06492
  
  
 ---------------------------------------------------------------
 Warning -- This program may not be used in any manner that
 competes with the business of Gaussian, Inc. or will provide
 assistance to any competitor of Gaussian, Inc.  The licensee
 of this program is prohibited from giving any competitor of
 Gaussian, Inc. access to this program.  By using this program,
 the user acknowledges that Gaussian, Inc. is engaged in the
 business of creating and licensing software in the field of
 computational chemistry and represents and warrants to the
 licensee that it is not a competitor of Gaussian, Inc. and that
 it will not use this program in any manner prohibited above.
 ---------------------------------------------------------------
  

 Cite this work as:
 Gaussian 09, Revision A.02,
 M. J. Frisch, G. W. Trucks, H. B. Schlegel, G. E. Scuseria, 
 M. A. Robb, J. R. Cheeseman, G. Scalmani, V. Barone, B. Mennucci, 
 G. A. Petersson, H. Nakatsuji, M. Caricato, X. Li, H. P. Hratchian, 
 A. F. Izmaylov, J. Bloino, G. Zheng, J. L. Sonnenberg, M. Hada, 
 M. Ehara, K. Toyota, R. Fukuda, J. Hasegawa, M. Ishida, T. Nakajima, 
 Y. Honda, O. Kitao, H. Nakai, T. Vreven, J. A. Montgomery, Jr., 
 J. E. Peralta, F. Ogliaro, M. Bearpark, J. J. Heyd, E. Brothers, 
 K. N. Kudin, V. N. Staroverov, R. Kobayashi, J. Normand, 
 K. Raghavachari, A. Rendell, J. C. Burant, S. S. Iyengar, J. Tomasi, 
 M. Cossi, N. Rega, J. M. Millam, M. Klene, J. E. Knox, J. B. Cross, 
 V. Bakken, C. Adamo, J. Jaramillo, R. Gomperts, R. E. Stratmann, 
 O. Yazyev, A. J. Austin, R. Cammi, C. Pomelli, J. W. Ochterski, 
 R. L. Martin, K. Morokuma, V. G. Zakrzewski, G. A. Voth, 
 P. Salvador, J. J. Dannenberg, S. Dapprich, A. D. Daniels, 
 O. Farkas, J. B. Foresman, J. V. Ortiz, J. Cioslowski, 
 and D. J. Fox, Gaussian, Inc., Wallingford CT, 2009.
 
 ******************************************
 Gaussian 09:  AM64L-G09RevA.02 11-Jun-2009
                 5-Oct-2021 
 ******************************************
 %nproc=2
 Will use up to    2 processors via shared memory.
 %mem=4gb
 %chk=C4H9BrMg_415c_conf_0.chk
 -----------------------------------
 #p opt b3lyp/6-31G* scf=(xqc,tight)
 -----------------------------------
 1/14=-1,18=20,19=15,26=3,38=1/1,3;
 2/9=110,12=2,17=6,18=5,40=1/2;
 3/5=1,6=6,7=1,11=2,16=1,25=1,30=1,71=1,74=-5/1,2,3;
 4//1;
 5/5=2,8=3,13=1,32=2,38=5/2,8;
 6/7=2,8=2,9=2,10=2,28=1/1;
 7//1,2,3,16;
 1/14=-1,18=20,19=15/3(2);
 2/9=110/2;
 99//99;
 2/9=110/2;
 3/5=1,6=6,7=1,11=2,16=1,25=1,30=1,71=1,74=-5/1,2,3;
 4/5=5,16=3/1;
 5/5=2,8=3,13=1,32=2,38=5/2,8;
 7//1,2,3,16;
 1/14=-1,18=20,19=15/3(-5);
 2/9=110/2;
 6/7=2,8=2,9=2,10=2,19=2,28=1/1;
 99/9=1/99;
 Leave Link    1 at Tue Oct  5 16:43:30 2021, MaxMem=  536870912 cpu:       0.1
 (Enter /sw/target/amd/app/gaussian/Gaussian09RevA.02_gcc-4.9.2/g09/l101.exe)
 -------------------
 Br[Mg]CC(C)C_conf_0
 -------------------
 Symbolic Z-matrix:
 Charge =  0 Multiplicity = 1
 Br                    4.35858   3.54127  -0.69421 
 Mg                    6.29889   2.05079  -0.01894 
 C                     5.56448   0.04504   0.33795 
 C                     6.34271  -0.5802    1.49638 
 C                     5.82572  -1.99215   1.79226 
 C                     7.83783  -0.61149   1.16827 
 H                     5.68705  -0.55239  -0.59122 
 H                     4.48381   0.10887   0.5875 
 H                     6.19279   0.05061   2.39958 
 H                     5.95851  -2.65281   0.90838 
 H                     4.74667  -1.95737   2.05428 
 H                     6.37751  -2.42912   2.65179 
 H                     8.03018  -1.23143   0.26598 
 H                     8.40794  -1.03618   2.02199 
 H                     8.20977   0.41832   0.98084 
 
 NAtoms=     15 NQM=     15 NQMF=      0 NMic=      0 NMicF=      0 NTot=     15.
                    Isotopes and Nuclear Properties:
 (Nuclear quadrupole moments (NQMom) in fm**2, nuclear magnetic moments (NMagM)
  in nuclear magnetons)

  Atom         1           2           3           4           5           6           7           8           9          10
 IAtWgt=          79          24          12          12          12          12           1           1           1           1
 AtmWgt=  78.9183361  23.9850450  12.0000000  12.0000000  12.0000000  12.0000000   1.0078250   1.0078250   1.0078250   1.0078250
 NucSpn=           3           0           0           0           0           0           1           1           1           1
 AtZEff=   0.0000000   0.0000000   0.0000000   0.0000000   0.0000000   0.0000000   0.0000000   0.0000000   0.0000000   0.0000000
 NQMom=   31.3000000   0.0000000   0.0000000   0.0000000   0.0000000   0.0000000   0.0000000   0.0000000   0.0000000   0.0000000
 NMagM=    2.1063990   0.0000000   0.0000000   0.0000000   0.0000000   0.0000000   2.7928460   2.7928460   2.7928460   2.7928460

  Atom        11          12          13          14          15
 IAtWgt=           1           1           1           1           1
 AtmWgt=   1.0078250   1.0078250   1.0078250   1.0078250   1.0078250
 NucSpn=           1           1           1           1           1
 AtZEff=   0.0000000   0.0000000   0.0000000   0.0000000   0.0000000
 NQMom=    0.0000000   0.0000000   0.0000000   0.0000000   0.0000000
 NMagM=    2.7928460   2.7928460   2.7928460   2.7928460   2.7928460
 Leave Link  101 at Tue Oct  5 16:43:30 2021, MaxMem=  536870912 cpu:       0.2
 (Enter /sw/target/amd/app/gaussian/Gaussian09RevA.02_gcc-4.9.2/g09/l103.exe)

 GradGradGradGradGradGradGradGradGradGradGradGradGradGradGradGradGradGrad
 Berny optimization.
 Initialization pass.
                           ----------------------------
                           !    Initial Parameters    !
                           ! (Angstroms and Degrees)  !
 --------------------------                            --------------------------
 ! Name  Definition              Value          Derivative Info.                !
 --------------------------------------------------------------------------------
 ! R1    R(1,2)                  2.5382         estimate D2E/DX2                !
 ! R2    R(2,3)                  2.1656         estimate D2E/DX2                !
 ! R3    R(3,4)                  1.5292         estimate D2E/DX2                !
 ! R4    R(3,7)                  1.1114         estimate D2E/DX2                !
 ! R5    R(3,8)                  1.1109         estimate D2E/DX2                !
 ! R6    R(4,5)                  1.5325         estimate D2E/DX2                !
 ! R7    R(4,6)                  1.531          estimate D2E/DX2                !
 ! R8    R(4,9)                  1.1118         estimate D2E/DX2                !
 ! R9    R(5,10)                 1.1115         estimate D2E/DX2                !
 ! R10   R(5,11)                 1.1109         estimate D2E/DX2                !
 ! R11   R(5,12)                 1.1109         estimate D2E/DX2                !
 ! R12   R(6,13)                 1.1115         estimate D2E/DX2                !
 ! R13   R(6,14)                 1.111          estimate D2E/DX2                !
 ! R14   R(6,15)                 1.1109         estimate D2E/DX2                !
 ! A1    A(1,2,3)              109.1768         estimate D2E/DX2                !
 ! A2    A(2,3,4)              109.3261         estimate D2E/DX2                !
 ! A3    A(2,3,7)              108.8251         estimate D2E/DX2                !
 ! A4    A(2,3,8)              108.2818         estimate D2E/DX2                !
 ! A5    A(4,3,7)              110.9407         estimate D2E/DX2                !
 ! A6    A(4,3,8)              110.3875         estimate D2E/DX2                !
 ! A7    A(7,3,8)              109.0228         estimate D2E/DX2                !
 ! A8    A(3,4,5)              110.5659         estimate D2E/DX2                !
 ! A9    A(3,4,6)              110.0591         estimate D2E/DX2                !
 ! A10   A(3,4,9)              108.3481         estimate D2E/DX2                !
 ! A11   A(5,4,6)              110.6092         estimate D2E/DX2                !
 ! A12   A(5,4,9)              108.6876         estimate D2E/DX2                !
 ! A13   A(6,4,9)              108.5039         estimate D2E/DX2                !
 ! A14   A(4,5,10)             110.7207         estimate D2E/DX2                !
 ! A15   A(4,5,11)             110.1428         estimate D2E/DX2                !
 ! A16   A(4,5,12)             110.134          estimate D2E/DX2                !
 ! A17   A(10,5,11)            108.7966         estimate D2E/DX2                !
 ! A18   A(10,5,12)            108.7923         estimate D2E/DX2                !
 ! A19   A(11,5,12)            108.1957         estimate D2E/DX2                !
 ! A20   A(4,6,13)             110.7547         estimate D2E/DX2                !
 ! A21   A(4,6,14)             110.1371         estimate D2E/DX2                !
 ! A22   A(4,6,15)             110.132          estimate D2E/DX2                !
 ! A23   A(13,6,14)            108.7715         estimate D2E/DX2                !
 ! A24   A(13,6,15)            108.7925         estimate D2E/DX2                !
 ! A25   A(14,6,15)            108.1933         estimate D2E/DX2                !
 ! D1    D(1,2,3,4)           -144.0973         estimate D2E/DX2                !
 ! D2    D(1,2,3,7)             94.59           estimate D2E/DX2                !
 ! D3    D(1,2,3,8)            -23.7888         estimate D2E/DX2                !
 ! D4    D(2,3,4,5)            178.8475         estimate D2E/DX2                !
 ! D5    D(2,3,4,6)            -58.6573         estimate D2E/DX2                !
 ! D6    D(2,3,4,9)             59.8362         estimate D2E/DX2                !
 ! D7    D(7,3,4,5)            -61.1301         estimate D2E/DX2                !
 ! D8    D(7,3,4,6)             61.3651         estimate D2E/DX2                !
 ! D9    D(7,3,4,9)            179.8586         estimate D2E/DX2                !
 ! D10   D(8,3,4,5)             59.8365         estimate D2E/DX2                !
 ! D11   D(8,3,4,6)           -177.6682         estimate D2E/DX2                !
 ! D12   D(8,3,4,9)            -59.1748         estimate D2E/DX2                !
 ! D13   D(3,4,5,10)            61.125          estimate D2E/DX2                !
 ! D14   D(3,4,5,11)           -59.252          estimate D2E/DX2                !
 ! D15   D(3,4,5,12)          -178.5092         estimate D2E/DX2                !
 ! D16   D(6,4,5,10)           -61.0481         estimate D2E/DX2                !
 ! D17   D(6,4,5,11)           178.5749         estimate D2E/DX2                !
 ! D18   D(6,4,5,12)            59.3177         estimate D2E/DX2                !
 ! D19   D(9,4,5,10)           179.9304         estimate D2E/DX2                !
 ! D20   D(9,4,5,11)            59.5534         estimate D2E/DX2                !
 ! D21   D(9,4,5,12)           -59.7038         estimate D2E/DX2                !
 ! D22   D(3,4,6,13)           -61.4074         estimate D2E/DX2                !
 ! D23   D(3,4,6,14)           178.2287         estimate D2E/DX2                !
 ! D24   D(3,4,6,15)            58.9794         estimate D2E/DX2                !
 ! D25   D(5,4,6,13)            61.0623         estimate D2E/DX2                !
 ! D26   D(5,4,6,14)           -59.3016         estimate D2E/DX2                !
 ! D27   D(5,4,6,15)          -178.5509         estimate D2E/DX2                !
 ! D28   D(9,4,6,13)          -179.805          estimate D2E/DX2                !
 ! D29   D(9,4,6,14)            59.8311         estimate D2E/DX2                !
 ! D30   D(9,4,6,15)           -59.4182         estimate D2E/DX2                !
 --------------------------------------------------------------------------------
 Trust Radius=3.00D-01 FncErr=1.00D-07 GrdErr=1.00D-06
 Number of steps in this run=  79 maximum allowed number of steps= 100.
 GradGradGradGradGradGradGradGradGradGradGradGradGradGradGradGradGradGrad

 Leave Link  103 at Tue Oct  5 16:43:30 2021, MaxMem=  536870912 cpu:       0.0
 (Enter /sw/target/amd/app/gaussian/Gaussian09RevA.02_gcc-4.9.2/g09/l202.exe)
                          Input orientation:                          
 ---------------------------------------------------------------------
 Center     Atomic      Atomic             Coordinates (Angstroms)
 Number     Number       Type             X           Y           Z
 ---------------------------------------------------------------------
      1         35           0        4.358576    3.541273   -0.694212
      2         12           0        6.298886    2.050789   -0.018943
      3          6           0        5.564480    0.045043    0.337953
      4          6           0        6.342711   -0.580198    1.496379
      5          6           0        5.825721   -1.992152    1.792260
      6          6           0        7.837832   -0.611494    1.168272
      7          1           0        5.687045   -0.552389   -0.591219
      8          1           0        4.483808    0.108872    0.587503
      9          1           0        6.192794    0.050606    2.399577
     10          1           0        5.958510   -2.652807    0.908376
     11          1           0        4.746672   -1.957369    2.054275
     12          1           0        6.377511   -2.429119    2.651790
     13          1           0        8.030184   -1.231428    0.265981
     14          1           0        8.407945   -1.036183    2.021994
     15          1           0        8.209774    0.418322    0.980838
 ---------------------------------------------------------------------
                    Distance matrix (angstroms):
                    1          2          3          4          5
     1  Br   0.000000
     2  Mg   2.538176   0.000000
     3  C    3.839687   2.165582   0.000000
     4  C    5.071686   3.036480   1.529223   0.000000
     5  C    6.241302   4.455302   2.516629   1.532462   0.000000
     6  C    5.728834   3.296298   2.507708   1.531019   2.518763
     7  H    4.305056   2.734663   1.111443   2.188318   2.788031
     8  H    3.666041   2.726413   1.110946   2.180916   2.768839
     9  H    5.012049   3.140258   2.155250   1.111825   2.162508
    10  H    6.595052   4.806203   2.785505   2.188394   1.111462
    11  H    6.159534   4.772099   2.761200   2.180640   1.110949
    12  H    7.135644   5.216183   3.483725   2.180527   1.110948
    13  H    6.097652   3.721763   2.777455   2.187589   2.787093
    14  H    6.687919   4.259453   3.477116   2.179307   2.763066
    15  H    5.233578   2.704811   2.747766   2.179162   3.486044
                    6          7          8          9         10
     6  C    0.000000
     7  H    2.779421   0.000000
     8  H    3.479324   1.809539   0.000000
     9  H    2.158851   3.092611   2.491513   0.000000
    10  H    2.786818   2.595040   3.147154   3.096290   0.000000
    11  H    3.485921   3.139571   2.547522   2.498492   1.807006
    12  H    2.763534   3.809982   3.780051   2.499354   1.806955
    13  H    1.111506   2.585766   3.804808   3.093840   2.593226
    14  H    1.110960   3.803450   4.332177   2.496112   3.139004
    15  H    1.110853   3.126947   3.759427   2.493239   3.808579
                   11         12         13         14         15
    11  H    0.000000
    12  H    1.799780   0.000000
    13  H    3.808732   3.139725   0.000000
    14  H    3.775519   2.541569   1.806766   0.000000
    15  H    4.334656   3.775869   1.806917   1.799684   0.000000
 Stoichiometry    C4H9BrMg
 Framework group  C1[X(C4H9BrMg)]
 Deg. of freedom    39
 Full point group                 C1      NOp   1
 Largest Abelian subgroup         C1      NOp   1
 Largest concise Abelian subgroup C1      NOp   1
                         Standard orientation:                         
 ---------------------------------------------------------------------
 Center     Atomic      Atomic             Coordinates (Angstroms)
 Number     Number       Type             X           Y           Z
 ---------------------------------------------------------------------
      1         35           0        2.488246   -0.184143   -0.033876
      2         12           0        0.226933    0.967504    0.016199
      3          6           0       -1.308503   -0.498231    0.444917
      4          6           0       -2.574110   -0.149588   -0.339436
      5          6           0       -3.671865   -1.186584   -0.078639
      6          6           0       -3.056889    1.253104    0.039244
      7          1           0       -1.506885   -0.500427    1.538510
      8          1           0       -0.929605   -1.498162    0.143625
      9          1           0       -2.327240   -0.157105   -1.423480
     10          1           0       -3.944473   -1.208212    0.998656
     11          1           0       -3.322720   -2.197303   -0.379892
     12          1           0       -4.578315   -0.941448   -0.672322
     13          1           0       -3.311443    1.303633    1.120028
     14          1           0       -3.957939    1.520361   -0.553135
     15          1           0       -2.264970    2.001428   -0.177247
 ---------------------------------------------------------------------
 Rotational constants (GHZ):      5.4058312      0.5322075      0.4955289
 Leave Link  202 at Tue Oct  5 16:43:30 2021, MaxMem=  536870912 cpu:       0.0
 (Enter /sw/target/amd/app/gaussian/Gaussian09RevA.02_gcc-4.9.2/g09/l301.exe)
 Standard basis: 6-31G(d) (6D, 7F)
 Ernie: Thresh=  0.10000D-02 Tol=  0.10000D-05 Strict=F.
 There are   127 symmetry adapted basis functions of A   symmetry.
 Integral buffers will be    131072 words long.
 Raffenetti 2 integral format.
 Two-electron integral symmetry is turned on.
   127 basis functions,   283 primitive gaussians,   127 cartesian basis functions
    40 alpha electrons       40 beta electrons
       nuclear repulsion energy       398.7393215523 Hartrees.
 IExCor=  402 DFT=T Ex+Corr=B3LYP ExCW=0 ScaHFX=  0.200000
 ScaDFX=  0.800000  0.720000  1.000000  0.810000 ScalE2=  1.000000  1.000000
 IRadAn=      0 IRanWt=     -1 IRanGd=            0 ICorTp=0
 NAtoms=   15 NActive=   15 NUniq=   15 SFac= 7.50D-01 NAtFMM=   80 NAOKFM=F Big=F
 Leave Link  301 at Tue Oct  5 16:43:30 2021, MaxMem=  536870912 cpu:       0.1
 (Enter /sw/target/amd/app/gaussian/Gaussian09RevA.02_gcc-4.9.2/g09/l302.exe)
 NPDir=0 NMtPBC=     1 NCelOv=     1 NCel=       1 NClECP=     1 NCelD=      1
         NCelK=      1 NCelE2=     1 NClLst=     1 CellRange=     0.0.
 One-electron integrals computed using PRISM.
 NBasis=   127 RedAO= T  NBF=   127
 NBsUse=   127 1.00D-06 NBFU=   127
 Precomputing XC quadrature grid using
 IXCGrd= 2 IRadAn=           0 IRanWt=          -1 IRanGd=           0 AccXCQ= 1.00D-10.
 NRdTot=     955 NPtTot=      124840 NUsed=      131733 NTot=      131765
 NSgBfM=   126   126   126   126   126 NAtAll=    15    15.
 Leave Link  302 at Tue Oct  5 16:43:31 2021, MaxMem=  536870912 cpu:       0.7
 (Enter /sw/target/amd/app/gaussian/Gaussian09RevA.02_gcc-4.9.2/g09/l303.exe)
 DipDrv:  MaxL=1.
 Leave Link  303 at Tue Oct  5 16:43:31 2021, MaxMem=  536870912 cpu:       0.1
 (Enter /sw/target/amd/app/gaussian/Gaussian09RevA.02_gcc-4.9.2/g09/l401.exe)
 Harris functional with IExCor=  402 diagonalized for initial guess.
 ExpMin= 4.21D-02 ExpMax= 5.74D+05 ExpMxC= 5.74D+03 IAcc=2 IRadAn=         0 AccDes= 0.00D+00
 HarFok:  IExCor=  402 AccDes= 0.00D+00 IRadAn=         0 IDoV= 1
 ScaDFX=  1.000000  1.000000  1.000000  1.000000
 FoFCou: FMM=F IPFlag=           0 FMFlag=      100000 FMFlg1=           0
         NFxFlg=           0 DoJE=T BraDBF=F KetDBF=T FulRan=T
         Omega=  0.000000  0.000000  1.000000  0.000000  0.000000 ICntrl=     500 IOpCl=  0
         NMat0=    1 NMatS0=    1 NMatT0=    0 NMatD0=    1 NMtDS0=    0 NMtDT0=    0
         I1Cent=           4 NGrid=           0.
 Petite list used in FoFCou.
 Harris En= -2929.95148651034    
 Initial guess orbital symmetries:
       Occupied  (A) (A) (A) (A) (A) (A) (A) (A) (A) (A) (A) (A)
                 (A) (A) (A) (A) (A) (A) (A) (A) (A) (A) (A) (A)
                 (A) (A) (A) (A) (A) (A) (A) (A) (A) (A) (A) (A)
                 (A) (A) (A) (A)
       Virtual   (A) (A) (A) (A) (A) (A) (A) (A) (A) (A) (A) (A)
                 (A) (A) (A) (A) (A) (A) (A) (A) (A) (A) (A) (A)
                 (A) (A) (A) (A) (A) (A) (A) (A) (A) (A) (A) (A)
                 (A) (A) (A) (A) (A) (A) (A) (A) (A) (A) (A) (A)
                 (A) (A) (A) (A) (A) (A) (A) (A) (A) (A) (A) (A)
                 (A) (A) (A) (A) (A) (A) (A) (A) (A) (A) (A) (A)
                 (A) (A) (A) (A) (A) (A) (A) (A) (A) (A) (A) (A)
                 (A) (A) (A)
 The electronic state of the initial guess is 1-A.
 Leave Link  401 at Tue Oct  5 16:43:34 2021, MaxMem=  536870912 cpu:       5.6
 (Enter /sw/target/amd/app/gaussian/Gaussian09RevA.02_gcc-4.9.2/g09/l502.exe)
 Closed shell SCF:
 Requested convergence on RMS density matrix=1.00D-08 within  64 cycles.
 Requested convergence on MAX density matrix=1.00D-06.
 Requested convergence on             energy=1.00D-06.
 No special actions if energy rises.
 Using DIIS extrapolation, IDIIS=  1040.
 Integral symmetry usage will be decided dynamically.
       131585 words used for storage of precomputed grid.
 Keep R1 ints in memory in canonical form, NReq=34272024.
 IEnd=      187242 IEndB=      187242 NGot=   536870912 MDV=   503667867
 LenX=   503667867 LenY=   503651297
 Symmetry not used in FoFDir.
 MinBra= 0 MaxBra= 2 Meth= 1.
 IRaf=       0 NMat=   1 IRICut=       1 DoRegI=T DoRafI=F ISym2E= 0 JSym2E=0.

 Cycle   1  Pass 1  IDiag  1:
 E= -2929.34161154769    
 DIIS: error= 1.65D-01 at cycle   1 NSaved=   1.
 NSaved= 1 IEnMin= 1 EnMin= -2929.34161154769     IErMin= 1 ErrMin= 1.65D-01
 ErrMax= 1.65D-01 EMaxC= 1.00D-01 BMatC= 6.86D-01 BMatP= 6.86D-01
 IDIUse=3 WtCom= 0.00D+00 WtEn= 1.00D+00
 Coeff-Com:  0.100D+01
 Coeff-En:   0.100D+01
 Coeff:      0.100D+01
 Gap=     0.135 Goal=   None    Shift=    0.000
 GapD=    0.135 DampG=1.000 DampE=0.250 DampFc=0.2500 IDamp=-1.
 Damping current iteration by 2.50D-01
 RMSDP=1.34D-02 MaxDP=4.83D-01              OVMax= 7.62D-01

 Cycle   2  Pass 1  IDiag  1:
 E= -2929.46072976795     Delta-E=       -0.119118220257 Rises=F Damp=T
 DIIS: error= 1.22D-01 at cycle   2 NSaved=   2.
 NSaved= 2 IEnMin= 2 EnMin= -2929.46072976795     IErMin= 2 ErrMin= 1.22D-01
 ErrMax= 1.22D-01 EMaxC= 1.00D-01 BMatC= 2.64D-01 BMatP= 6.86D-01
 IDIUse=3 WtCom= 0.00D+00 WtEn= 1.00D+00
 Coeff-Com: -0.921D+00 0.192D+01
 Coeff-En:   0.000D+00 0.100D+01
 Coeff:      0.000D+00 0.100D+01
 Gap=     0.192 Goal=   None    Shift=    0.000
 RMSDP=4.87D-03 MaxDP=1.26D-01 DE=-1.19D-01 OVMax= 6.77D-01

 Cycle   3  Pass 1  IDiag  1:
 E= -2929.64127860491     Delta-E=       -0.180548836963 Rises=F Damp=F
 DIIS: error= 2.05D-02 at cycle   3 NSaved=   3.
 NSaved= 3 IEnMin= 3 EnMin= -2929.64127860491     IErMin= 3 ErrMin= 2.05D-02
 ErrMax= 2.05D-02 EMaxC= 1.00D-01 BMatC= 4.19D-02 BMatP= 2.64D-01
 IDIUse=3 WtCom= 7.95D-01 WtEn= 2.05D-01
 Coeff-Com:  0.555D+00-0.624D+00 0.107D+01
 Coeff-En:   0.676D-01 0.000D+00 0.932D+00
 Coeff:      0.455D+00-0.496D+00 0.104D+01
 Gap=     0.120 Goal=   None    Shift=    0.000
 RMSDP=2.01D-03 MaxDP=5.07D-02 DE=-1.81D-01 OVMax= 5.94D-02

 Cycle   4  Pass 1  IDiag  1:
 E= -2929.67112838343     Delta-E=       -0.029849778523 Rises=F Damp=F
 DIIS: error= 1.13D-02 at cycle   4 NSaved=   4.
 NSaved= 4 IEnMin= 4 EnMin= -2929.67112838343     IErMin= 4 ErrMin= 1.13D-02
 ErrMax= 1.13D-02 EMaxC= 1.00D-01 BMatC= 1.32D-02 BMatP= 4.19D-02
 IDIUse=3 WtCom= 8.87D-01 WtEn= 1.13D-01
 Coeff-Com:  0.351D+00-0.442D+00 0.611D+00 0.480D+00
 Coeff-En:   0.000D+00 0.000D+00 0.144D+00 0.856D+00
 Coeff:      0.311D+00-0.392D+00 0.559D+00 0.522D+00
 Gap=     0.125 Goal=   None    Shift=    0.000
 RMSDP=9.47D-04 MaxDP=2.54D-02 DE=-2.98D-02 OVMax= 3.86D-02

 Cycle   5  Pass 1  IDiag  1:
 E= -2929.68504344499     Delta-E=       -0.013915061559 Rises=F Damp=F
 DIIS: error= 2.24D-03 at cycle   5 NSaved=   5.
 NSaved= 5 IEnMin= 5 EnMin= -2929.68504344499     IErMin= 5 ErrMin= 2.24D-03
 ErrMax= 2.24D-03 EMaxC= 1.00D-01 BMatC= 5.01D-04 BMatP= 1.32D-02
 IDIUse=3 WtCom= 9.78D-01 WtEn= 2.24D-02
 Coeff-Com:  0.118D+00-0.154D+00 0.153D+00 0.185D+00 0.698D+00
 Coeff-En:   0.000D+00 0.000D+00 0.000D+00 0.000D+00 0.100D+01
 Coeff:      0.116D+00-0.151D+00 0.149D+00 0.181D+00 0.705D+00
 Gap=     0.126 Goal=   None    Shift=    0.000
 RMSDP=2.47D-04 MaxDP=7.15D-03 DE=-1.39D-02 OVMax= 1.11D-02

 Cycle   6  Pass 1  IDiag  1:
 E= -2929.68566749416     Delta-E=       -0.000624049163 Rises=F Damp=F
 DIIS: error= 3.64D-04 at cycle   6 NSaved=   6.
 NSaved= 6 IEnMin= 6 EnMin= -2929.68566749416     IErMin= 6 ErrMin= 3.64D-04
 ErrMax= 3.64D-04 EMaxC= 1.00D-01 BMatC= 4.44D-05 BMatP= 5.01D-04
 IDIUse=3 WtCom= 9.96D-01 WtEn= 3.64D-03
 Coeff-Com:  0.187D-01-0.259D-01 0.824D-03 0.498D-02 0.220D+00 0.781D+00
 Coeff-En:   0.000D+00 0.000D+00 0.000D+00 0.000D+00 0.000D+00 0.100D+01
 Coeff:      0.186D-01-0.258D-01 0.821D-03 0.496D-02 0.220D+00 0.782D+00
 Gap=     0.126 Goal=   None    Shift=    0.000
 RMSDP=1.00D-04 MaxDP=3.59D-03 DE=-6.24D-04 OVMax= 8.13D-03

 Cycle   7  Pass 1  IDiag  1:
 E= -2929.68571712841     Delta-E=       -0.000049634257 Rises=F Damp=F
 DIIS: error= 2.01D-04 at cycle   7 NSaved=   7.
 NSaved= 7 IEnMin= 7 EnMin= -2929.68571712841     IErMin= 7 ErrMin= 2.01D-04
 ErrMax= 2.01D-04 EMaxC= 1.00D-01 BMatC= 1.21D-05 BMatP= 4.44D-05
 IDIUse=3 WtCom= 9.98D-01 WtEn= 2.01D-03
 Coeff-Com:  0.284D-03-0.481D-03-0.243D-02-0.730D-02 0.129D-01 0.383D+00
 Coeff-Com:  0.614D+00
 Coeff-En:   0.000D+00 0.000D+00 0.000D+00 0.000D+00 0.000D+00 0.165D+00
 Coeff-En:   0.835D+00
 Coeff:      0.283D-03-0.480D-03-0.243D-02-0.729D-02 0.129D-01 0.382D+00
 Coeff:      0.615D+00
 Gap=     0.125 Goal=   None    Shift=    0.000
 RMSDP=2.76D-05 MaxDP=6.74D-04 DE=-4.96D-05 OVMax= 1.30D-03

 Cycle   8  Pass 1  IDiag  1:
 E= -2929.68572934353     Delta-E=       -0.000012215115 Rises=F Damp=F
 DIIS: error= 3.48D-05 at cycle   8 NSaved=   8.
 NSaved= 8 IEnMin= 8 EnMin= -2929.68572934353     IErMin= 8 ErrMin= 3.48D-05
 ErrMax= 3.48D-05 EMaxC= 1.00D-01 BMatC= 5.66D-07 BMatP= 1.21D-05
 IDIUse=1 WtCom= 1.00D+00 WtEn= 0.00D+00
 Coeff-Com: -0.119D-02 0.167D-02-0.184D-03-0.105D-02-0.242D-02 0.112D+00
 Coeff-Com:  0.221D+00 0.671D+00
 Coeff:     -0.119D-02 0.167D-02-0.184D-03-0.105D-02-0.242D-02 0.112D+00
 Coeff:      0.221D+00 0.671D+00
 Gap=     0.125 Goal=   None    Shift=    0.000
 RMSDP=7.08D-06 MaxDP=1.18D-04 DE=-1.22D-05 OVMax= 1.69D-04

 Cycle   9  Pass 1  IDiag  1:
 E= -2929.68572990163     Delta-E=       -0.000000558105 Rises=F Damp=F
 DIIS: error= 1.93D-05 at cycle   9 NSaved=   9.
 NSaved= 9 IEnMin= 9 EnMin= -2929.68572990163     IErMin= 9 ErrMin= 1.93D-05
 ErrMax= 1.93D-05 EMaxC= 1.00D-01 BMatC= 7.98D-08 BMatP= 5.66D-07
 IDIUse=1 WtCom= 1.00D+00 WtEn= 0.00D+00
 Coeff-Com: -0.383D-03 0.536D-03 0.503D-03 0.147D-02 0.255D-02 0.836D-02
 Coeff-Com: -0.393D-02 0.159D+00 0.831D+00
 Coeff:     -0.383D-03 0.536D-03 0.503D-03 0.147D-02 0.255D-02 0.836D-02
 Coeff:     -0.393D-02 0.159D+00 0.831D+00
 Gap=     0.125 Goal=   None    Shift=    0.000
 RMSDP=2.63D-06 MaxDP=9.37D-05 DE=-5.58D-07 OVMax= 1.50D-04

 Cycle  10  Pass 1  IDiag  1:
 E= -2929.68573000820     Delta-E=       -0.000000106563 Rises=F Damp=F
 DIIS: error= 4.89D-06 at cycle  10 NSaved=  10.
 NSaved=10 IEnMin=10 EnMin= -2929.68573000820     IErMin=10 ErrMin= 4.89D-06
 ErrMax= 4.89D-06 EMaxC= 1.00D-01 BMatC= 5.66D-09 BMatP= 7.98D-08
 IDIUse=1 WtCom= 1.00D+00 WtEn= 0.00D+00
 Coeff-Com: -0.153D-03 0.212D-03 0.241D-03 0.855D-03 0.190D-02 0.990D-03
 Coeff-Com: -0.122D-01 0.399D-01 0.347D+00 0.621D+00
 Coeff:     -0.153D-03 0.212D-03 0.241D-03 0.855D-03 0.190D-02 0.990D-03
 Coeff:     -0.122D-01 0.399D-01 0.347D+00 0.621D+00
 Gap=     0.125 Goal=   None    Shift=    0.000
 RMSDP=6.38D-07 MaxDP=2.63D-05 DE=-1.07D-07 OVMax= 3.27D-05

 Cycle  11  Pass 1  IDiag  1:
 E= -2929.68573001496     Delta-E=       -0.000000006760 Rises=F Damp=F
 DIIS: error= 1.97D-06 at cycle  11 NSaved=  11.
 NSaved=11 IEnMin=11 EnMin= -2929.68573001496     IErMin=11 ErrMin= 1.97D-06
 ErrMax= 1.97D-06 EMaxC= 1.00D-01 BMatC= 8.53D-10 BMatP= 5.66D-09
 IDIUse=1 WtCom= 1.00D+00 WtEn= 0.00D+00
 Coeff-Com: -0.362D-04 0.487D-04 0.686D-04 0.299D-03 0.794D-03-0.410D-03
 Coeff-Com: -0.643D-02-0.310D-02 0.512D-01 0.269D+00 0.689D+00
 Coeff:     -0.362D-04 0.487D-04 0.686D-04 0.299D-03 0.794D-03-0.410D-03
 Coeff:     -0.643D-02-0.310D-02 0.512D-01 0.269D+00 0.689D+00
 Gap=     0.125 Goal=   None    Shift=    0.000
 RMSDP=2.82D-07 MaxDP=9.70D-06 DE=-6.76D-09 OVMax= 1.72D-05

 Cycle  12  Pass 1  IDiag  1:
 E= -2929.68573001616     Delta-E=       -0.000000001207 Rises=F Damp=F
 DIIS: error= 4.62D-07 at cycle  12 NSaved=  12.
 NSaved=12 IEnMin=12 EnMin= -2929.68573001616     IErMin=12 ErrMin= 4.62D-07
 ErrMax= 4.62D-07 EMaxC= 1.00D-01 BMatC= 3.90D-11 BMatP= 8.53D-10
 IDIUse=1 WtCom= 1.00D+00 WtEn= 0.00D+00
 Coeff-Com: -0.514D-05 0.679D-05 0.232D-05 0.328D-04 0.136D-03 0.866D-04
 Coeff-Com: -0.703D-03-0.296D-02-0.115D-01 0.171D-01 0.155D+00 0.843D+00
 Coeff:     -0.514D-05 0.679D-05 0.232D-05 0.328D-04 0.136D-03 0.866D-04
 Coeff:     -0.703D-03-0.296D-02-0.115D-01 0.171D-01 0.155D+00 0.843D+00
 Gap=     0.125 Goal=   None    Shift=    0.000
 RMSDP=6.97D-08 MaxDP=3.41D-06 DE=-1.21D-09 OVMax= 3.81D-06

 Cycle  13  Pass 1  IDiag  1:
 E= -2929.68573001618     Delta-E=       -0.000000000018 Rises=F Damp=F
 DIIS: error= 6.30D-08 at cycle  13 NSaved=  13.
 NSaved=13 IEnMin=13 EnMin= -2929.68573001618     IErMin=13 ErrMin= 6.30D-08
 ErrMax= 6.30D-08 EMaxC= 1.00D-01 BMatC= 1.27D-12 BMatP= 3.90D-11
 IDIUse=1 WtCom= 1.00D+00 WtEn= 0.00D+00
 Coeff-Com: -0.142D-05 0.188D-05-0.271D-05-0.239D-05 0.114D-04 0.820D-04
 Coeff-Com:  0.111D-03-0.554D-03-0.554D-02-0.865D-02 0.755D-02 0.253D+00
 Coeff-Com:  0.754D+00
 Coeff:     -0.142D-05 0.188D-05-0.271D-05-0.239D-05 0.114D-04 0.820D-04
 Coeff:      0.111D-03-0.554D-03-0.554D-02-0.865D-02 0.755D-02 0.253D+00
 Coeff:      0.754D+00
 Gap=     0.125 Goal=   None    Shift=    0.000
 RMSDP=1.14D-08 MaxDP=1.78D-07 DE=-1.77D-11 OVMax= 5.15D-07

 Cycle  14  Pass 1  IDiag  1:
 E= -2929.68573001618     Delta-E=        0.000000000002 Rises=F Damp=F
 DIIS: error= 2.64D-08 at cycle  14 NSaved=  14.
 NSaved=14 IEnMin=13 EnMin= -2929.68573001618     IErMin=14 ErrMin= 2.64D-08
 ErrMax= 2.64D-08 EMaxC= 1.00D-01 BMatC= 1.01D-13 BMatP= 1.27D-12
 IDIUse=1 WtCom= 1.00D+00 WtEn= 0.00D+00
 Coeff-Com: -0.365D-06 0.500D-06-0.114D-05-0.207D-05 0.345D-06 0.317D-04
 Coeff-Com:  0.685D-04-0.949D-04-0.159D-02-0.396D-02-0.509D-02 0.467D-01
 Coeff-Com:  0.272D+00 0.692D+00
 Coeff:     -0.365D-06 0.500D-06-0.114D-05-0.207D-05 0.345D-06 0.317D-04
 Coeff:      0.685D-04-0.949D-04-0.159D-02-0.396D-02-0.509D-02 0.467D-01
 Coeff:      0.272D+00 0.692D+00
 Gap=     0.125 Goal=   None    Shift=    0.000
 RMSDP=3.97D-09 MaxDP=1.92D-07 DE= 2.27D-12 OVMax= 2.04D-07

 SCF Done:  E(RB3LYP) =  -2929.68573002     A.U. after   14 cycles
             Convg  =    0.3973D-08             -V/T =  2.0063
 KE= 2.911223973681D+03 PE=-7.775947980699D+03 EE= 1.536298955450D+03
 Leave Link  502 at Tue Oct  5 16:44:00 2021, MaxMem=  536870912 cpu:      47.2
 (Enter /sw/target/amd/app/gaussian/Gaussian09RevA.02_gcc-4.9.2/g09/l508.exe)
 QCSCF skips out because SCF is already converged.
 Leave Link  508 at Tue Oct  5 16:44:00 2021, MaxMem=  536870912 cpu:       0.0
 (Enter /sw/target/amd/app/gaussian/Gaussian09RevA.02_gcc-4.9.2/g09/l601.exe)
 Copying SCF densities to generalized density rwf, IOpCl= 0 IROHF=0.

 **********************************************************************

            Population analysis using the SCF density.

 **********************************************************************

 Orbital symmetries:
       Occupied  (A) (A) (A) (A) (A) (A) (A) (A) (A) (A) (A) (A)
                 (A) (A) (A) (A) (A) (A) (A) (A) (A) (A) (A) (A)
                 (A) (A) (A) (A) (A) (A) (A) (A) (A) (A) (A) (A)
                 (A) (A) (A) (A)
       Virtual   (A) (A) (A) (A) (A) (A) (A) (A) (A) (A) (A) (A)
                 (A) (A) (A) (A) (A) (A) (A) (A) (A) (A) (A) (A)
                 (A) (A) (A) (A) (A) (A) (A) (A) (A) (A) (A) (A)
                 (A) (A) (A) (A) (A) (A) (A) (A) (A) (A) (A) (A)
                 (A) (A) (A) (A) (A) (A) (A) (A) (A) (A) (A) (A)
                 (A) (A) (A) (A) (A) (A) (A) (A) (A) (A) (A) (A)
                 (A) (A) (A) (A) (A) (A) (A) (A) (A) (A) (A) (A)
                 (A) (A) (A)
 The electronic state is 1-A.
 Alpha  occ. eigenvalues -- -482.84683 -61.80904 -56.32663 -56.32542 -56.32538
 Alpha  occ. eigenvalues --  -46.85671 -10.19624 -10.19464 -10.17944 -10.16622
 Alpha  occ. eigenvalues --   -8.51825  -6.46597  -6.46192  -6.46159  -3.13967
 Alpha  occ. eigenvalues --   -2.58258  -2.58152  -2.58128  -2.57802  -2.57802
 Alpha  occ. eigenvalues --   -1.88541  -1.88391  -1.88015  -0.80374  -0.68861
 Alpha  occ. eigenvalues --   -0.68817  -0.65711  -0.55500  -0.46404  -0.44048
 Alpha  occ. eigenvalues --   -0.41665  -0.38972  -0.37686  -0.35176  -0.33024
 Alpha  occ. eigenvalues --   -0.32613  -0.29522  -0.24765  -0.24716  -0.22705
 Alpha virt. eigenvalues --   -0.10206  -0.02446   0.02525   0.04264   0.09238
 Alpha virt. eigenvalues --    0.10801   0.11498   0.13552   0.14473   0.15562
 Alpha virt. eigenvalues --    0.16470   0.16590   0.17458   0.19018   0.20226
 Alpha virt. eigenvalues --    0.21292   0.23250   0.23866   0.24521   0.26530
 Alpha virt. eigenvalues --    0.28889   0.30834   0.32443   0.35913   0.43122
 Alpha virt. eigenvalues --    0.44014   0.52086   0.52517   0.52703   0.52952
 Alpha virt. eigenvalues --    0.54782   0.55031   0.56621   0.59183   0.59674
 Alpha virt. eigenvalues --    0.64428   0.65664   0.66946   0.67870   0.71141
 Alpha virt. eigenvalues --    0.72694   0.76190   0.79413   0.83106   0.85436
 Alpha virt. eigenvalues --    0.88549   0.89266   0.89396   0.91767   0.92539
 Alpha virt. eigenvalues --    0.93640   0.95031   0.96681   0.99926   1.01788
 Alpha virt. eigenvalues --    1.02600   1.11309   1.42681   1.44027   1.48236
 Alpha virt. eigenvalues --    1.51455   1.68511   1.70291   1.75146   1.79574
 Alpha virt. eigenvalues --    1.79986   1.93713   1.95005   2.00463   2.02845
 Alpha virt. eigenvalues --    2.10206   2.13564   2.17874   2.21222   2.22610
 Alpha virt. eigenvalues --    2.24986   2.47082   2.48200   2.50616   2.71056
 Alpha virt. eigenvalues --    2.72057   4.15650   4.27797   4.32811   4.57087
 Alpha virt. eigenvalues --    8.76521  74.85629
          Condensed to atoms (all electrons):
              1          2          3          4          5          6
     1  Br  35.030988   0.352748  -0.007573   0.000155  -0.000004  -0.000001
     2  Mg   0.352748  10.841090   0.342875  -0.029677   0.010439  -0.012601
     3  C   -0.007573   0.342875   5.249568   0.369815  -0.060770  -0.065785
     4  C    0.000155  -0.029677   0.369815   4.847822   0.374556   0.379009
     5  C   -0.000004   0.010439  -0.060770   0.374556   5.123441  -0.051543
     6  C   -0.000001  -0.012601  -0.065785   0.379009  -0.051543   5.153875
     7  H   -0.000145  -0.021343   0.349093  -0.034651  -0.007016  -0.006927
     8  H   -0.000931  -0.018143   0.356284  -0.033467  -0.003816   0.005648
     9  H   -0.000032  -0.001856  -0.049254   0.380878  -0.048983  -0.046923
    10  H    0.000000   0.000657  -0.003970  -0.033763   0.368964  -0.006322
    11  H   -0.000001  -0.000514  -0.003941  -0.030326   0.371276   0.005322
    12  H    0.000000  -0.001927   0.006046  -0.029570   0.354291  -0.005041
    13  H   -0.000001   0.001886  -0.004958  -0.031574  -0.006053   0.372706
    14  H   -0.000000  -0.000444   0.005479  -0.031651  -0.001621   0.364528
    15  H   -0.000042   0.028712  -0.007441  -0.037107   0.005844   0.344727
              7          8          9         10         11         12
     1  Br  -0.000145  -0.000931  -0.000032   0.000000  -0.000001   0.000000
     2  Mg  -0.021343  -0.018143  -0.001856   0.000657  -0.000514  -0.001927
     3  C    0.349093   0.356284  -0.049254  -0.003970  -0.003941   0.006046
     4  C   -0.034651  -0.033467   0.380878  -0.033763  -0.030326  -0.029570
     5  C   -0.007016  -0.003816  -0.048983   0.368964   0.371276   0.354291
     6  C   -0.006927   0.005648  -0.046923  -0.006322   0.005322  -0.005041
     7  H    0.596390  -0.032346   0.005818   0.005206  -0.000249   0.000102
     8  H   -0.032346   0.563606  -0.004490  -0.000258   0.004002   0.000036
     9  H    0.005818  -0.004490   0.640453   0.005521  -0.003285  -0.001898
    10  H    0.005206  -0.000258   0.005521   0.578462  -0.028517  -0.029059
    11  H   -0.000249   0.004002  -0.003285  -0.028517   0.571293  -0.029518
    12  H    0.000102   0.000036  -0.001898  -0.029059  -0.029518   0.601145
    13  H    0.004768  -0.000050   0.005474   0.005072  -0.000023  -0.000076
    14  H   -0.000073  -0.000204  -0.003981  -0.000376  -0.000075   0.003368
    15  H   -0.000632   0.000079  -0.005623  -0.000076  -0.000208  -0.000057
             13         14         15
     1  Br  -0.000001  -0.000000  -0.000042
     2  Mg   0.001886  -0.000444   0.028712
     3  C   -0.004958   0.005479  -0.007441
     4  C   -0.031574  -0.031651  -0.037107
     5  C   -0.006053  -0.001621   0.005844
     6  C    0.372706   0.364528   0.344727
     7  H    0.004768  -0.000073  -0.000632
     8  H   -0.000050  -0.000204   0.000079
     9  H    0.005474  -0.003981  -0.005623
    10  H    0.005072  -0.000376  -0.000076
    11  H   -0.000023  -0.000075  -0.000208
    12  H   -0.000076   0.003368  -0.000057
    13  H    0.562791  -0.028666  -0.035009
    14  H   -0.028666   0.575195  -0.028600
    15  H   -0.035009  -0.028600   0.623238
 Mulliken atomic charges:
              1
     1  Br  -0.375160
     2  Mg   0.508098
     3  C   -0.475469
     4  C   -0.060449
     5  C   -0.429004
     6  C   -0.430671
     7  H    0.142005
     8  H    0.164052
     9  H    0.128182
    10  H    0.138461
    11  H    0.144764
    12  H    0.132160
    13  H    0.153715
    14  H    0.147121
    15  H    0.112195
 Sum of Mulliken atomic charges =  -0.00000
 Mulliken charges with hydrogens summed into heavy atoms:
              1
     1  Br  -0.375160
     2  Mg   0.508098
     3  C   -0.169411
     4  C    0.067733
     5  C   -0.013620
     6  C   -0.017641
 Sum of Mulliken charges with hydrogens summed into heavy atoms =  -0.00000
 Electronic spatial extent (au):  <R**2>=           2097.3379
 Charge=             -0.0000 electrons
 Dipole moment (field-independent basis, Debye):
    X=             -4.0294    Y=              3.6953    Z=             -0.4072  Tot=              5.4824
 Quadrupole moment (field-independent basis, Debye-Ang):
   XX=            -67.7790   YY=            -50.1458   ZZ=            -54.7156
   XY=              0.8739   XZ=              0.5557   YZ=             -0.1117
 Traceless Quadrupole moment (field-independent basis, Debye-Ang):
   XX=            -10.2322   YY=              7.4010   ZZ=              2.8312
   XY=              0.8739   XZ=              0.5557   YZ=             -0.1117
 Octapole moment (field-independent basis, Debye-Ang**2):
  XXX=             48.8165  YYY=              4.8349  ZZZ=             -0.7345  XYY=             29.2303
  XXY=             -2.2816  XXZ=             -0.1332  XZZ=             22.7135  YZZ=              1.0253
  YYZ=             -1.4649  XYZ=              0.2221
 Hexadecapole moment (field-independent basis, Debye-Ang**3):
 XXXX=          -2213.1433 YYYY=           -289.3874 ZZZZ=           -111.4306 XXXY=            -36.8437
 XXXZ=              5.1240 YYYX=             -6.9290 YYYZ=              1.3800 ZZZX=             -5.1185
 ZZZY=             -0.0579 XXYY=           -420.5122 XXZZ=           -374.5068 YYZZ=            -68.4478
 XXYZ=             -1.1039 YYXZ=              1.5107 ZZXY=             -4.8744
 N-N= 3.987393215523D+02 E-N=-7.775947973518D+03  KE= 2.911223973681D+03
 No NMR shielding tensors so no spin-rotation constants.
 Leave Link  601 at Tue Oct  5 16:44:00 2021, MaxMem=  536870912 cpu:       0.3
 (Enter /sw/target/amd/app/gaussian/Gaussian09RevA.02_gcc-4.9.2/g09/l701.exe)
 Compute integral first derivatives.
 ... and contract with generalized density number  0.
 Leave Link  701 at Tue Oct  5 16:44:00 2021, MaxMem=  536870912 cpu:       0.4
 (Enter /sw/target/amd/app/gaussian/Gaussian09RevA.02_gcc-4.9.2/g09/l702.exe)
 L702 exits ... SP integral derivatives will be done elsewhere.
 Leave Link  702 at Tue Oct  5 16:44:00 2021, MaxMem=  536870912 cpu:       0.1
 (Enter /sw/target/amd/app/gaussian/Gaussian09RevA.02_gcc-4.9.2/g09/l703.exe)
 Compute integral first derivatives, UseDBF=F ICtDFT=           0.
 Integral derivatives from FoFDir, PRISM(SPDF).
 Calling FoFJK, ICntrl=      2127 FMM=F ISym2X=0 I1Cent= 0 IOpClX= 0 NMat=1 NMatS=1 NMatT=0.
 FoFCou: FMM=F IPFlag=           0 FMFlag=      100000 FMFlg1=         800
         NFxFlg=           0 DoJE=F BraDBF=F KetDBF=F FulRan=T
         Omega=  0.000000  0.000000  1.000000  0.000000  0.000000 ICntrl=    2127 IOpCl=  0
         NMat0=    1 NMatS0=    1 NMatT0=    0 NMatD0=    1 NMtDS0=    0 NMtDT0=    0
         I1Cent=           0 NGrid=           0.
 Symmetry not used in FoFCou.
 Leave Link  703 at Tue Oct  5 16:44:08 2021, MaxMem=  536870912 cpu:      14.0
 (Enter /sw/target/amd/app/gaussian/Gaussian09RevA.02_gcc-4.9.2/g09/l716.exe)
 Dipole        =-1.58528412D+00 1.45382403D+00-1.60209179D-01
 ***** Axes restored to original set *****
 -------------------------------------------------------------------
 Center     Atomic                   Forces (Hartrees/Bohr)
 Number     Number              X              Y              Z
 -------------------------------------------------------------------
      1       35           0.021816381   -0.004372974    0.004760862
      2       12          -0.039934597    0.004394924   -0.010010562
      3        6           0.005618511    0.002072249    0.001408506
      4        6          -0.001215891    0.002254122   -0.005743874
      5        6          -0.002012795   -0.006948536    0.008021294
      6        6           0.004932703   -0.006869731    0.008439534
      7        1          -0.002545085    0.003849611    0.006724455
      8        1           0.008516754    0.004677063   -0.006524902
      9        1           0.001347123   -0.005772896   -0.003715548
     10        1          -0.001733982    0.004805399    0.007859360
     11        1           0.009442478   -0.002538776   -0.002887222
     12        1          -0.005515621   -0.000299165   -0.006587768
     13        1          -0.000091111    0.006432897    0.007204910
     14        1          -0.000533641    0.003790335   -0.009171644
     15        1           0.001908773   -0.005474522    0.000222598
 -------------------------------------------------------------------
 Cartesian Forces:  Max     0.039934597 RMS     0.008580036
 Leave Link  716 at Tue Oct  5 16:44:08 2021, MaxMem=  536870912 cpu:       0.0
 (Enter /sw/target/amd/app/gaussian/Gaussian09RevA.02_gcc-4.9.2/g09/l103.exe)

 GradGradGradGradGradGradGradGradGradGradGradGradGradGradGradGradGradGrad
 Berny optimization.
 Internal  Forces:  Max     0.047176685 RMS     0.007789137
 Search for a local minimum.
 Step number   1 out of a maximum of   79
 All quantities printed in internal units (Hartrees-Bohrs-Radians)
 RMS Force = .77891D-02 SwitMx=.10000D-02 MixMth= 1
 Mixed Optimization -- RFO/linear search
 Second derivative matrix not updated -- first step.
     Eigenvalues ---    0.00298   0.00337   0.00356   0.00379   0.03716
     Eigenvalues ---    0.04717   0.04817   0.05043   0.05578   0.05587
     Eigenvalues ---    0.05673   0.05676   0.05686   0.06601   0.10211
     Eigenvalues ---    0.11084   0.13595   0.16000   0.16000   0.16000
     Eigenvalues ---    0.16000   0.16000   0.16000   0.16477   0.16576
     Eigenvalues ---    0.22027   0.25000   0.29197   0.29330   0.29495
     Eigenvalues ---    0.32408   0.32441   0.32446   0.32448   0.32499
     Eigenvalues ---    0.32500   0.32500   0.32500   0.325101000.00000
     Eigenvalues --- 1000.000001000.000001000.000001000.000001000.00000
     Eigenvalues --- 1000.000001000.000001000.000001000.000001000.00000
     Eigenvalues --- 1000.000001000.000001000.000001000.000001000.00000
     Eigenvalues --- 1000.000001000.000001000.000001000.000001000.00000
     Eigenvalues --- 1000.000001000.000001000.000001000.000001000.00000
     Eigenvalues --- 1000.000001000.000001000.000001000.00000
 RFO step:  Lambda=-1.99550920D-02 EMin= 2.98063892D-03
 Linear search not attempted -- first point.
 Maximum step size (   0.300) exceeded in Quadratic search.
    -- Step size scaled by   0.836
 Iteration  1 RMS(Cart)=  0.05725540 RMS(Int)=  0.00256761
 Iteration  2 RMS(Cart)=  0.00382324 RMS(Int)=  0.00026169
 Iteration  3 RMS(Cart)=  0.00000725 RMS(Int)=  0.00026165
 Iteration  4 RMS(Cart)=  0.00000000 RMS(Int)=  0.00026165
 Variable       Old X    -DE/DX   Delta X   Delta X   Delta X     New X
                                 (Linear)    (Quad)   (Total)
    R1        4.79646  -0.02051   0.00000  -0.19939  -0.19939   4.59707
    R2        4.09236  -0.00527   0.00000  -0.03609  -0.03609   4.05626
    R3        2.88981   0.01043   0.00000   0.02767   0.02767   2.91749
    R4        2.10032  -0.00797   0.00000  -0.01935  -0.01935   2.08098
    R5        2.09938  -0.00948   0.00000  -0.02297  -0.02297   2.07641
    R6        2.89593   0.00576   0.00000   0.01545   0.01545   2.91138
    R7        2.89321   0.00468   0.00000   0.01250   0.01250   2.90570
    R8        2.10104  -0.00648   0.00000  -0.01573  -0.01573   2.08531
    R9        2.10036  -0.00931   0.00000  -0.02260  -0.02260   2.07776
   R10        2.09939  -0.00994   0.00000  -0.02408  -0.02408   2.07531
   R11        2.09939  -0.00772   0.00000  -0.01870  -0.01870   2.08069
   R12        2.10044  -0.00945   0.00000  -0.02295  -0.02295   2.07749
   R13        2.09941  -0.00877   0.00000  -0.02126  -0.02126   2.07815
   R14        2.09921  -0.00447   0.00000  -0.01083  -0.01083   2.08838
    A1        1.90550   0.04718   0.00000   0.14608   0.14608   2.05158
    A2        1.90810   0.01642   0.00000   0.06097   0.06066   1.96876
    A3        1.89936  -0.00427   0.00000  -0.00824  -0.00874   1.89061
    A4        1.88987  -0.01059   0.00000  -0.05060  -0.05139   1.83848
    A5        1.93628  -0.00419   0.00000  -0.00886  -0.00894   1.92734
    A6        1.92662   0.00270   0.00000   0.02224   0.02260   1.94923
    A7        1.90281  -0.00041   0.00000  -0.01723  -0.01758   1.88523
    A8        1.92974   0.00009   0.00000   0.00795   0.00794   1.93768
    A9        1.92089   0.00567   0.00000   0.03656   0.03659   1.95748
   A10        1.89103  -0.00100   0.00000   0.00030   0.00043   1.89146
   A11        1.93050  -0.00362   0.00000  -0.01277  -0.01329   1.91720
   A12        1.89696  -0.00014   0.00000  -0.02023  -0.02045   1.87651
   A13        1.89375  -0.00106   0.00000  -0.01273  -0.01312   1.88063
   A14        1.93244  -0.00017   0.00000  -0.00316  -0.00315   1.92929
   A15        1.92235   0.00213   0.00000   0.00998   0.00985   1.93221
   A16        1.92220   0.00511   0.00000   0.02601   0.02588   1.94808
   A17        1.89886  -0.00191   0.00000  -0.01327  -0.01325   1.88561
   A18        1.89878  -0.00262   0.00000  -0.01234  -0.01234   1.88644
   A19        1.88837  -0.00274   0.00000  -0.00805  -0.00831   1.88006
   A20        1.93303   0.00037   0.00000   0.00021   0.00019   1.93322
   A21        1.92226   0.00597   0.00000   0.02981   0.02958   1.95183
   A22        1.92217   0.00392   0.00000   0.01763   0.01745   1.93962
   A23        1.89842  -0.00311   0.00000  -0.01336  -0.01343   1.88499
   A24        1.89879  -0.00306   0.00000  -0.01823  -0.01820   1.88059
   A25        1.88833  -0.00440   0.00000  -0.01738  -0.01775   1.87058
    D1       -2.51497  -0.00125   0.00000   0.00295   0.00363  -2.51134
    D2        1.65091  -0.00354   0.00000  -0.01845  -0.01801   1.63290
    D3       -0.41519   0.00533   0.00000   0.03541   0.03429  -0.38090
    D4        3.12148  -0.00120   0.00000  -0.01895  -0.01892   3.10256
    D5       -1.02376  -0.00186   0.00000  -0.00496  -0.00466  -1.02843
    D6        1.04434  -0.00047   0.00000   0.00086   0.00111   1.04544
    D7       -1.06692   0.00147   0.00000   0.00458   0.00454  -1.06238
    D8        1.07102   0.00081   0.00000   0.01857   0.01879   1.08982
    D9        3.13912   0.00220   0.00000   0.02439   0.02456  -3.11950
   D10        1.04434  -0.00001   0.00000  -0.00811  -0.00858   1.03577
   D11       -3.10090  -0.00068   0.00000   0.00588   0.00567  -3.09522
   D12       -1.03279   0.00072   0.00000   0.01170   0.01144  -1.02135
   D13        1.06683   0.00168   0.00000   0.01365   0.01358   1.08042
   D14       -1.03414   0.00279   0.00000   0.02576   0.02577  -1.00837
   D15       -3.11557   0.00163   0.00000   0.01318   0.01305  -3.10252
   D16       -1.06549  -0.00310   0.00000  -0.02937  -0.02924  -1.09473
   D17        3.11672  -0.00200   0.00000  -0.01726  -0.01705   3.09967
   D18        1.03529  -0.00315   0.00000  -0.02984  -0.02977   1.00552
   D19        3.14038   0.00043   0.00000   0.00630   0.00622  -3.13659
   D20        1.03940   0.00153   0.00000   0.01841   0.01841   1.05781
   D21       -1.04203   0.00038   0.00000   0.00583   0.00569  -1.03634
   D22       -1.07176   0.00067   0.00000   0.01027   0.01029  -1.06147
   D23        3.11068   0.00041   0.00000   0.00735   0.00742   3.11810
   D24        1.02938  -0.00035   0.00000  -0.00085  -0.00096   1.02843
   D25        1.06574   0.00220   0.00000   0.03651   0.03646   1.10220
   D26       -1.03501   0.00194   0.00000   0.03359   0.03359  -1.00142
   D27       -3.11630   0.00118   0.00000   0.02539   0.02521  -3.09109
   D28       -3.13819  -0.00077   0.00000  -0.00363  -0.00352   3.14147
   D29        1.04425  -0.00103   0.00000  -0.00655  -0.00639   1.03786
   D30       -1.03704  -0.00179   0.00000  -0.01475  -0.01477  -1.05182
         Item               Value     Threshold  Converged?
 Maximum Force            0.047177     0.000450     NO 
 RMS     Force            0.007789     0.000300     NO 
 Maximum Displacement     0.286490     0.001800     NO 
 RMS     Displacement     0.055311     0.001200     NO 
 Predicted change in Energy=-1.059787D-02
 GradGradGradGradGradGradGradGradGradGradGradGradGradGradGradGradGradGrad

 Leave Link  103 at Tue Oct  5 16:44:08 2021, MaxMem=  536870912 cpu:       0.1
 (Enter /sw/target/amd/app/gaussian/Gaussian09RevA.02_gcc-4.9.2/g09/l202.exe)
                          Input orientation:                          
 ---------------------------------------------------------------------
 Center     Atomic      Atomic             Coordinates (Angstroms)
 Number     Number       Type             X           Y           Z
 ---------------------------------------------------------------------
      1         35           0        4.418560    3.650289   -0.736024
      2         12           0        6.147282    2.066435   -0.087353
      3          6           0        5.538907    0.052893    0.340322
      4          6           0        6.346941   -0.584649    1.491037
      5          6           0        5.840634   -2.006474    1.800277
      6          6           0        7.854417   -0.621204    1.190219
      7          1           0        5.644067   -0.543323   -0.579527
      8          1           0        4.469169    0.117788    0.582789
      9          1           0        6.199711    0.025111    2.398906
     10          1           0        5.969389   -2.660514    0.925886
     11          1           0        4.773477   -1.990934    2.059107
     12          1           0        6.384090   -2.455571    2.646023
     13          1           0        8.057930   -1.219156    0.290422
     14          1           0        8.427231   -1.054516    2.022975
     15          1           0        8.250644    0.395589    1.015765
 ---------------------------------------------------------------------
                    Distance matrix (angstroms):
                    1          2          3          4          5
     1  Br   0.000000
     2  Mg   2.432663   0.000000
     3  C    3.918540   2.146481   0.000000
     4  C    5.158793   3.091832   1.543867   0.000000
     5  C    6.360352   4.499530   2.542341   1.540637   0.000000
     6  C    5.810436   3.430729   2.557013   1.537631   2.519219
     7  H    4.371811   2.703016   1.101206   2.187002   2.800521
     8  H    3.770993   2.657514   1.098790   2.200991   2.806364
     9  H    5.112944   3.217334   2.162222   1.103499   2.148169
    10  H    6.707701   4.837597   2.809053   2.184299   1.099503
    11  H    6.305721   4.791334   2.778009   2.185437   1.098207
    12  H    7.251418   5.289230   3.510410   2.199027   1.101053
    13  H    6.165232   3.819476   2.822423   2.184390   2.795699
    14  H    6.768804   4.403634   3.521377   2.198031   2.765196
    15  H    5.324162   2.903916   2.815526   2.193361   3.491921
                    6          7          8          9         10
     6  C    0.000000
     7  H    2.832616   0.000000
     8  H    3.517809   1.780009   0.000000
     9  H    2.148651   3.082681   2.510308   0.000000
    10  H    2.789622   2.618130   3.176058   3.071713   0.000000
    11  H    3.481856   3.133033   2.592071   2.492799   1.778407
    12  H    2.765163   3.822106   3.813926   2.499768   1.781249
    13  H    1.099363   2.653355   3.840846   3.073578   2.615976
    14  H    1.099709   3.844521   4.372035   2.503750   3.134298
    15  H    1.105124   3.196992   3.816306   2.501331   3.814705
                   11         12         13         14         15
    11  H    0.000000
    12  H    1.776072   0.000000
    13  H    3.809399   3.143138   0.000000
    14  H    3.772016   2.554519   1.779110   0.000000
    15  H    4.344508   3.777681   1.780636   1.774390   0.000000
 Stoichiometry    C4H9BrMg
 Framework group  C1[X(C4H9BrMg)]
 Deg. of freedom    39
 Full point group                 C1      NOp   1
 Largest Abelian subgroup         C1      NOp   1
 Largest concise Abelian subgroup C1      NOp   1
                         Standard orientation:                         
 ---------------------------------------------------------------------
 Center     Atomic      Atomic             Coordinates (Angstroms)
 Number     Number       Type             X           Y           Z
 ---------------------------------------------------------------------
      1         35           0        2.522656   -0.155615   -0.042394
      2         12           0        0.292663    0.811152    0.059289
      3          6           0       -1.349636   -0.518756    0.435557
      4          6           0       -2.627712   -0.124275   -0.335437
      5          6           0       -3.761677   -1.135332   -0.079603
      6          6           0       -3.103604    1.294450    0.018191
      7          1           0       -1.543257   -0.531752    1.519529
      8          1           0       -0.989987   -1.514841    0.142627
      9          1           0       -2.402443   -0.144146   -1.415515
     10          1           0       -4.030340   -1.152108    0.986439
     11          1           0       -3.451016   -2.148441   -0.367975
     12          1           0       -4.665816   -0.885231   -0.656057
     13          1           0       -3.342837    1.369845    1.088556
     14          1           0       -4.000326    1.578856   -0.551338
     15          1           0       -2.323128    2.043986   -0.206198
 ---------------------------------------------------------------------
 Rotational constants (GHZ):      5.8742982      0.5140479      0.4829699
 Leave Link  202 at Tue Oct  5 16:44:08 2021, MaxMem=  536870912 cpu:       0.0
 (Enter /sw/target/amd/app/gaussian/Gaussian09RevA.02_gcc-4.9.2/g09/l301.exe)
 Standard basis: 6-31G(d) (6D, 7F)
 Ernie: Thresh=  0.10000D-02 Tol=  0.10000D-05 Strict=F.
 There are   127 symmetry adapted basis functions of A   symmetry.
 Integral buffers will be    131072 words long.
 Raffenetti 2 integral format.
 Two-electron integral symmetry is turned on.
   127 basis functions,   283 primitive gaussians,   127 cartesian basis functions
    40 alpha electrons       40 beta electrons
       nuclear repulsion energy       399.1808991958 Hartrees.
 IExCor=  402 DFT=T Ex+Corr=B3LYP ExCW=0 ScaHFX=  0.200000
 ScaDFX=  0.800000  0.720000  1.000000  0.810000 ScalE2=  1.000000  1.000000
 IRadAn=      0 IRanWt=     -1 IRanGd=            0 ICorTp=0
 NAtoms=   15 NActive=   15 NUniq=   15 SFac= 7.50D-01 NAtFMM=   80 NAOKFM=F Big=F
 Leave Link  301 at Tue Oct  5 16:44:08 2021, MaxMem=  536870912 cpu:       0.1
 (Enter /sw/target/amd/app/gaussian/Gaussian09RevA.02_gcc-4.9.2/g09/l302.exe)
 NPDir=0 NMtPBC=     1 NCelOv=     1 NCel=       1 NClECP=     1 NCelD=      1
         NCelK=      1 NCelE2=     1 NClLst=     1 CellRange=     0.0.
 One-electron integrals computed using PRISM.
 NBasis=   127 RedAO= T  NBF=   127
 NBsUse=   127 1.00D-06 NBFU=   127
 Precomputing XC quadrature grid using
 IXCGrd= 2 IRadAn=           0 IRanWt=          -1 IRanGd=           0 AccXCQ= 1.00D-10.
 NRdTot=     955 NPtTot=      124840 NUsed=      131733 NTot=      131765
 NSgBfM=   126   126   126   126   126 NAtAll=    15    15.
 Leave Link  302 at Tue Oct  5 16:44:08 2021, MaxMem=  536870912 cpu:       0.6
 (Enter /sw/target/amd/app/gaussian/Gaussian09RevA.02_gcc-4.9.2/g09/l303.exe)
 DipDrv:  MaxL=1.
 Leave Link  303 at Tue Oct  5 16:44:08 2021, MaxMem=  536870912 cpu:       0.1
 (Enter /sw/target/amd/app/gaussian/Gaussian09RevA.02_gcc-4.9.2/g09/l401.exe)
 Initial guess read from the read-write file.
 B after Tr=     0.000000    0.000000    0.000000
         Rot=    1.000000    0.000000    0.000000    0.000000 Ang=   0.00 deg.
 Guess basis will be translated and rotated to current coordinates.
 Initial guess orbital symmetries:
       Occupied  (A) (A) (A) (A) (A) (A) (A) (A) (A) (A) (A) (A)
                 (A) (A) (A) (A) (A) (A) (A) (A) (A) (A) (A) (A)
                 (A) (A) (A) (A) (A) (A) (A) (A) (A) (A) (A) (A)
                 (A) (A) (A) (A)
       Virtual   (A) (A) (A) (A) (A) (A) (A) (A) (A) (A) (A) (A)
                 (A) (A) (A) (A) (A) (A) (A) (A) (A) (A) (A) (A)
                 (A) (A) (A) (A) (A) (A) (A) (A) (A) (A) (A) (A)
                 (A) (A) (A) (A) (A) (A) (A) (A) (A) (A) (A) (A)
                 (A) (A) (A) (A) (A) (A) (A) (A) (A) (A) (A) (A)
                 (A) (A) (A) (A) (A) (A) (A) (A) (A) (A) (A) (A)
                 (A) (A) (A) (A) (A) (A) (A) (A) (A) (A) (A) (A)
                 (A) (A) (A)
 The electronic state of the initial guess is 1-A.
 Generating alternative initial guess.
 Harris functional with IExCor=  402 diagonalized for initial guess.
 ExpMin= 4.21D-02 ExpMax= 5.74D+05 ExpMxC= 5.74D+03 IAcc=2 IRadAn=         0 AccDes= 0.00D+00
 HarFok:  IExCor=  402 AccDes= 0.00D+00 IRadAn=         0 IDoV= 1
 ScaDFX=  1.000000  1.000000  1.000000  1.000000
 FoFCou: FMM=F IPFlag=           0 FMFlag=      100000 FMFlg1=           0
         NFxFlg=           0 DoJE=T BraDBF=F KetDBF=T FulRan=T
         Omega=  0.000000  0.000000  1.000000  0.000000  0.000000 ICntrl=     500 IOpCl=  0
         NMat0=    1 NMatS0=    1 NMatT0=    0 NMatD0=    1 NMtDS0=    0 NMtDT0=    0
         I1Cent=           4 NGrid=           0.
 Petite list used in FoFCou.
 Harris En= -2929.96169039583    
 Leave Link  401 at Tue Oct  5 16:44:11 2021, MaxMem=  536870912 cpu:       5.3
 (Enter /sw/target/amd/app/gaussian/Gaussian09RevA.02_gcc-4.9.2/g09/l502.exe)
 Closed shell SCF:
 Requested convergence on RMS density matrix=1.00D-08 within  64 cycles.
 Requested convergence on MAX density matrix=1.00D-06.
 Requested convergence on             energy=1.00D-06.
 No special actions if energy rises.
 Using DIIS extrapolation, IDIIS=  1040.
 Integral symmetry usage will be decided dynamically.
       131585 words used for storage of precomputed grid.
 Keep R1 ints in memory in canonical form, NReq=34272024.
 IEnd=      187242 IEndB=      187242 NGot=   536870912 MDV=   503667867
 LenX=   503667867 LenY=   503651297
 Symmetry not used in FoFDir.
 MinBra= 0 MaxBra= 2 Meth= 1.
 IRaf=       0 NMat=   1 IRICut=       1 DoRegI=T DoRafI=F ISym2E= 0 JSym2E=0.

 Cycle   1  Pass 1  IDiag  1:
 E= -2929.69644243249    
 DIIS: error= 8.58D-03 at cycle   1 NSaved=   1.
 NSaved= 1 IEnMin= 1 EnMin= -2929.69644243249     IErMin= 1 ErrMin= 8.58D-03
 ErrMax= 8.58D-03 EMaxC= 1.00D-01 BMatC= 1.88D-02 BMatP= 1.88D-02
 IDIUse=3 WtCom= 9.14D-01 WtEn= 8.58D-02
 Coeff-Com:  0.100D+01
 Coeff-En:   0.100D+01
 Coeff:      0.100D+01
 Gap=     0.163 Goal=   None    Shift=    0.000
 GapD=    0.163 DampG=1.000 DampE=1.000 DampFc=1.0000 IDamp=-1.
 RMSDP=9.19D-04 MaxDP=2.31D-02              OVMax= 3.21D-02

 Cycle   2  Pass 1  IDiag  1:
 E= -2929.69848881834     Delta-E=       -0.002046385852 Rises=F Damp=F
 DIIS: error= 1.30D-03 at cycle   2 NSaved=   2.
 NSaved= 2 IEnMin= 2 EnMin= -2929.69848881834     IErMin= 2 ErrMin= 1.30D-03
 ErrMax= 1.30D-03 EMaxC= 1.00D-01 BMatC= 3.43D-04 BMatP= 1.88D-02
 IDIUse=3 WtCom= 9.87D-01 WtEn= 1.30D-02
 Coeff-Com:  0.258D-01 0.974D+00
 Coeff-En:   0.000D+00 0.100D+01
 Coeff:      0.254D-01 0.975D+00
 Gap=     0.134 Goal=   None    Shift=    0.000
 RMSDP=4.33D-04 MaxDP=1.36D-02 DE=-2.05D-03 OVMax= 3.22D-02

 Cycle   3  Pass 1  IDiag  1:
 E= -2929.69786169077     Delta-E=        0.000627127572 Rises=F Damp=F
 DIIS: error= 2.06D-03 at cycle   3 NSaved=   3.
 NSaved= 3 IEnMin= 2 EnMin= -2929.69848881834     IErMin= 2 ErrMin= 1.30D-03
 ErrMax= 2.06D-03 EMaxC= 1.00D-01 BMatC= 8.63D-04 BMatP= 3.43D-04
 IDIUse=3 WtCom= 1.81D-01 WtEn= 8.19D-01
 Coeff-Com:  0.722D-03 0.616D+00 0.383D+00
 Coeff-En:   0.000D+00 0.683D+00 0.317D+00
 Coeff:      0.130D-03 0.671D+00 0.329D+00
 Gap=     0.139 Goal=   None    Shift=    0.000
 RMSDP=2.44D-04 MaxDP=8.66D-03 DE= 6.27D-04 OVMax= 1.95D-02

 Cycle   4  Pass 1  IDiag  1:
 E= -2929.69890115337     Delta-E=       -0.001039462598 Rises=F Damp=F
 DIIS: error= 2.34D-04 at cycle   4 NSaved=   4.
 NSaved= 4 IEnMin= 4 EnMin= -2929.69890115337     IErMin= 4 ErrMin= 2.34D-04
 ErrMax= 2.34D-04 EMaxC= 1.00D-01 BMatC= 1.75D-05 BMatP= 3.43D-04
 IDIUse=3 WtCom= 9.98D-01 WtEn= 2.34D-03
 Coeff-Com: -0.825D-03 0.288D+00 0.115D+00 0.598D+00
 Coeff-En:   0.000D+00 0.000D+00 0.000D+00 0.100D+01
 Coeff:     -0.823D-03 0.288D+00 0.114D+00 0.599D+00
 Gap=     0.140 Goal=   None    Shift=    0.000
 RMSDP=3.81D-05 MaxDP=7.51D-04 DE=-1.04D-03 OVMax= 1.54D-03

 Cycle   5  Pass 1  IDiag  1:
 E= -2929.69892052294     Delta-E=       -0.000019369570 Rises=F Damp=F
 DIIS: error= 3.63D-05 at cycle   5 NSaved=   5.
 NSaved= 5 IEnMin= 5 EnMin= -2929.69892052294     IErMin= 5 ErrMin= 3.63D-05
 ErrMax= 3.63D-05 EMaxC= 1.00D-01 BMatC= 4.42D-07 BMatP= 1.75D-05
 IDIUse=1 WtCom= 1.00D+00 WtEn= 0.00D+00
 Coeff-Com: -0.357D-03 0.719D-01 0.197D-01 0.232D+00 0.677D+00
 Coeff:     -0.357D-03 0.719D-01 0.197D-01 0.232D+00 0.677D+00
 Gap=     0.140 Goal=   None    Shift=    0.000
 RMSDP=6.26D-06 MaxDP=1.58D-04 DE=-1.94D-05 OVMax= 2.61D-04

 Cycle   6  Pass 1  IDiag  1:
 E= -2929.69892093937     Delta-E=       -0.000000416433 Rises=F Damp=F
 DIIS: error= 1.06D-05 at cycle   6 NSaved=   6.
 NSaved= 6 IEnMin= 6 EnMin= -2929.69892093937     IErMin= 6 ErrMin= 1.06D-05
 ErrMax= 1.06D-05 EMaxC= 1.00D-01 BMatC= 3.94D-08 BMatP= 4.42D-07
 IDIUse=1 WtCom= 1.00D+00 WtEn= 0.00D+00
 Coeff-Com: -0.448D-04-0.522D-02-0.508D-02 0.203D-01 0.256D+00 0.734D+00
 Coeff:     -0.448D-04-0.522D-02-0.508D-02 0.203D-01 0.256D+00 0.734D+00
 Gap=     0.140 Goal=   None    Shift=    0.000
 RMSDP=2.11D-06 MaxDP=4.17D-05 DE=-4.16D-07 OVMax= 8.20D-05

 Cycle   7  Pass 1  IDiag  1:
 E= -2929.69892098609     Delta-E=       -0.000000046720 Rises=F Damp=F
 DIIS: error= 1.52D-06 at cycle   7 NSaved=   7.
 NSaved= 7 IEnMin= 7 EnMin= -2929.69892098609     IErMin= 7 ErrMin= 1.52D-06
 ErrMax= 1.52D-06 EMaxC= 1.00D-01 BMatC= 1.01D-09 BMatP= 3.94D-08
 IDIUse=1 WtCom= 1.00D+00 WtEn= 0.00D+00
 Coeff-Com:  0.450D-05-0.470D-02-0.209D-02-0.468D-02 0.416D-01 0.211D+00
 Coeff-Com:  0.759D+00
 Coeff:      0.450D-05-0.470D-02-0.209D-02-0.468D-02 0.416D-01 0.211D+00
 Coeff:      0.759D+00
 Gap=     0.140 Goal=   None    Shift=    0.000
 RMSDP=4.43D-07 MaxDP=1.46D-05 DE=-4.67D-08 OVMax= 1.68D-05

 Cycle   8  Pass 1  IDiag  1:
 E= -2929.69892098735     Delta-E=       -0.000000001257 Rises=F Damp=F
 DIIS: error= 5.52D-07 at cycle   8 NSaved=   8.
 NSaved= 8 IEnMin= 8 EnMin= -2929.69892098735     IErMin= 8 ErrMin= 5.52D-07
 ErrMax= 5.52D-07 EMaxC= 1.00D-01 BMatC= 6.47D-11 BMatP= 1.01D-09
 IDIUse=1 WtCom= 1.00D+00 WtEn= 0.00D+00
 Coeff-Com:  0.234D-05-0.168D-02-0.669D-03-0.227D-02 0.999D-02 0.652D-01
 Coeff-Com:  0.309D+00 0.621D+00
 Coeff:      0.234D-05-0.168D-02-0.669D-03-0.227D-02 0.999D-02 0.652D-01
 Coeff:      0.309D+00 0.621D+00
 Gap=     0.140 Goal=   None    Shift=    0.000
 RMSDP=1.02D-07 MaxDP=1.88D-06 DE=-1.26D-09 OVMax= 3.78D-06

 Cycle   9  Pass 1  IDiag  1:
 E= -2929.69892098744     Delta-E=       -0.000000000086 Rises=F Damp=F
 DIIS: error= 2.10D-07 at cycle   9 NSaved=   9.
 NSaved= 9 IEnMin= 9 EnMin= -2929.69892098744     IErMin= 9 ErrMin= 2.10D-07
 ErrMax= 2.10D-07 EMaxC= 1.00D-01 BMatC= 8.48D-12 BMatP= 6.47D-11
 IDIUse=1 WtCom= 1.00D+00 WtEn= 0.00D+00
 Coeff-Com:  0.480D-06-0.898D-04-0.111D-05-0.369D-03-0.149D-02-0.828D-03
 Coeff-Com:  0.303D-01 0.274D+00 0.698D+00
 Coeff:      0.480D-06-0.898D-04-0.111D-05-0.369D-03-0.149D-02-0.828D-03
 Coeff:      0.303D-01 0.274D+00 0.698D+00
 Gap=     0.140 Goal=   None    Shift=    0.000
 RMSDP=3.43D-08 MaxDP=6.25D-07 DE=-8.64D-11 OVMax= 1.51D-06

 Cycle  10  Pass 1  IDiag  1:
 E= -2929.69892098745     Delta-E=       -0.000000000015 Rises=F Damp=F
 DIIS: error= 3.51D-08 at cycle  10 NSaved=  10.
 NSaved=10 IEnMin=10 EnMin= -2929.69892098745     IErMin=10 ErrMin= 3.51D-08
 ErrMax= 3.51D-08 EMaxC= 1.00D-01 BMatC= 3.61D-13 BMatP= 8.48D-12
 IDIUse=1 WtCom= 1.00D+00 WtEn= 0.00D+00
 Coeff-Com: -0.283D-08 0.102D-03 0.568D-04 0.351D-04-0.138D-02-0.563D-02
 Coeff-Com: -0.142D-01 0.492D-01 0.228D+00 0.743D+00
 Coeff:     -0.283D-08 0.102D-03 0.568D-04 0.351D-04-0.138D-02-0.563D-02
 Coeff:     -0.142D-01 0.492D-01 0.228D+00 0.743D+00
 Gap=     0.140 Goal=   None    Shift=    0.000
 RMSDP=9.69D-09 MaxDP=3.28D-07 DE=-1.55D-11 OVMax= 4.86D-07

 SCF Done:  E(RB3LYP) =  -2929.69892099     A.U. after   10 cycles
             Convg  =    0.9688D-08             -V/T =  2.0063
 KE= 2.911339229074D+03 PE=-7.776760878538D+03 EE= 1.536541829281D+03
 Leave Link  502 at Tue Oct  5 16:44:28 2021, MaxMem=  536870912 cpu:      31.8
 (Enter /sw/target/amd/app/gaussian/Gaussian09RevA.02_gcc-4.9.2/g09/l508.exe)
 QCSCF skips out because SCF is already converged.
 Leave Link  508 at Tue Oct  5 16:44:28 2021, MaxMem=  536870912 cpu:       0.0
 (Enter /sw/target/amd/app/gaussian/Gaussian09RevA.02_gcc-4.9.2/g09/l701.exe)
 Compute integral first derivatives.
 ... and contract with generalized density number  0.
 Leave Link  701 at Tue Oct  5 16:44:28 2021, MaxMem=  536870912 cpu:       0.4
 (Enter /sw/target/amd/app/gaussian/Gaussian09RevA.02_gcc-4.9.2/g09/l702.exe)
 L702 exits ... SP integral derivatives will be done elsewhere.
 Leave Link  702 at Tue Oct  5 16:44:28 2021, MaxMem=  536870912 cpu:       0.0
 (Enter /sw/target/amd/app/gaussian/Gaussian09RevA.02_gcc-4.9.2/g09/l703.exe)
 Compute integral first derivatives, UseDBF=F ICtDFT=           0.
 Integral derivatives from FoFDir, PRISM(SPDF).
 Calling FoFJK, ICntrl=      2127 FMM=F ISym2X=0 I1Cent= 0 IOpClX= 0 NMat=1 NMatS=1 NMatT=0.
 FoFCou: FMM=F IPFlag=           0 FMFlag=      100000 FMFlg1=         800
         NFxFlg=           0 DoJE=F BraDBF=F KetDBF=F FulRan=T
         Omega=  0.000000  0.000000  1.000000  0.000000  0.000000 ICntrl=    2127 IOpCl=  0
         NMat0=    1 NMatS0=    1 NMatT0=    0 NMatD0=    1 NMtDS0=    0 NMtDT0=    0
         I1Cent=           0 NGrid=           0.
 Symmetry not used in FoFCou.
 Leave Link  703 at Tue Oct  5 16:44:36 2021, MaxMem=  536870912 cpu:      14.0
 (Enter /sw/target/amd/app/gaussian/Gaussian09RevA.02_gcc-4.9.2/g09/l716.exe)
 Dipole        =-1.29853225D+00 1.26110606D+00-9.79410272D-02
 ***** Axes restored to original set *****
 -------------------------------------------------------------------
 Center     Atomic                   Forces (Hartrees/Bohr)
 Number     Number              X              Y              Z
 -------------------------------------------------------------------
      1       35           0.013180196   -0.000269629    0.001842376
      2       12          -0.027262298   -0.000397991   -0.005068311
      3        6           0.017396239    0.001564999    0.004597090
      4        6          -0.002495666   -0.002029235   -0.002490688
      5        6          -0.000264452   -0.001055493    0.002827800
      6        6          -0.000678006    0.000587524    0.001783889
      7        1          -0.001116759    0.000210580    0.001205926
      8        1           0.001474059    0.002536331   -0.001148179
      9        1           0.000218510   -0.001390058   -0.000746076
     10        1          -0.000452213    0.000494231    0.001248862
     11        1           0.001462391   -0.000635286   -0.000896013
     12        1          -0.000949133    0.000218245   -0.001734032
     13        1           0.000326343    0.001222851    0.000771440
     14        1          -0.000975703    0.000507692   -0.001953736
     15        1           0.000136493   -0.001564762   -0.000240348
 -------------------------------------------------------------------
 Cartesian Forces:  Max     0.027262298 RMS     0.005449682
 Leave Link  716 at Tue Oct  5 16:44:36 2021, MaxMem=  536870912 cpu:       0.0
 (Enter /sw/target/amd/app/gaussian/Gaussian09RevA.02_gcc-4.9.2/g09/l103.exe)

 GradGradGradGradGradGradGradGradGradGradGradGradGradGradGradGradGradGrad
 Berny optimization.
 Using GEDIIS/GDIIS optimizer.
 Internal  Forces:  Max     0.040158068 RMS     0.005303494
 Search for a local minimum.
 Step number   2 out of a maximum of   79
 All quantities printed in internal units (Hartrees-Bohrs-Radians)
 RMS Force = .53035D-02 SwitMx=.10000D-02 MixMth= 1
 Mixed Optimization -- RFO/linear search
 Update second derivatives using D2CorX and points    1    2
 DE= -1.32D-02 DEPred=-1.06D-02 R= 1.24D+00
 SS=  1.41D+00  RLast= 3.00D-01 DXNew= 5.0454D-01 8.9993D-01
 Trust test= 1.24D+00 RLast= 3.00D-01 DXMaxT set to 5.05D-01
 Use linear search instead of GDIIS.
     Eigenvalues ---    0.00298   0.00337   0.00357   0.00379   0.03594
     Eigenvalues ---    0.04511   0.04719   0.04995   0.05370   0.05430
     Eigenvalues ---    0.05464   0.05525   0.05574   0.05643   0.09856
     Eigenvalues ---    0.11271   0.13003   0.14383   0.16000   0.16000
     Eigenvalues ---    0.16000   0.16000   0.16023   0.16397   0.16897
     Eigenvalues ---    0.18060   0.22569   0.29208   0.29361   0.30275
     Eigenvalues ---    0.32410   0.32443   0.32447   0.32469   0.32496
     Eigenvalues ---    0.32499   0.32500   0.32509   0.379251000.00000
     Eigenvalues --- 1000.000001000.000001000.000001000.000001000.00000
     Eigenvalues --- 1000.000001000.000001000.000001000.000001000.00000
     Eigenvalues --- 1000.000001000.000001000.000001000.000001000.00000
     Eigenvalues --- 1000.000001000.000001000.000001000.000001000.00000
     Eigenvalues --- 1000.000001000.000001000.000001000.000001000.00000
     Eigenvalues --- 1000.000001000.000001000.000001000.00000
 RFO step:  Lambda=-9.03547665D-03 EMin= 2.98394778D-03
 Quartic linear search produced a step of  1.15763.
 Iteration  1 RMS(Cart)=  0.07239902 RMS(Int)=  0.02271517
 Iteration  2 RMS(Cart)=  0.06666197 RMS(Int)=  0.00507711
 Iteration  3 RMS(Cart)=  0.00521302 RMS(Int)=  0.00078032
 Iteration  4 RMS(Cart)=  0.00000867 RMS(Int)=  0.00078032
 Iteration  5 RMS(Cart)=  0.00000000 RMS(Int)=  0.00078032
 Variable       Old X    -DE/DX   Delta X   Delta X   Delta X     New X
                                 (Linear)    (Quad)   (Total)
    R1        4.59707  -0.01003  -0.23082  -0.03849  -0.26931   4.32776
    R2        4.05626  -0.00399  -0.04178  -0.03707  -0.07886   3.97740
    R3        2.91749  -0.00148   0.03204  -0.03496  -0.00293   2.91456
    R4        2.08098  -0.00123  -0.02240   0.00920  -0.01320   2.06778
    R5        2.07641  -0.00154  -0.02659   0.01044  -0.01615   2.06026
    R6        2.91138   0.00126   0.01788  -0.00489   0.01299   2.92437
    R7        2.90570  -0.00125   0.01447  -0.01992  -0.00545   2.90025
    R8        2.08531  -0.00141  -0.01821   0.00485  -0.01337   2.07194
    R9        2.07776  -0.00134  -0.02616   0.01134  -0.01482   2.06294
   R10        2.07531  -0.00165  -0.02788   0.01072  -0.01716   2.05815
   R11        2.08069  -0.00189  -0.02164   0.00446  -0.01719   2.06350
   R12        2.07749  -0.00123  -0.02656   0.01233  -0.01424   2.06326
   R13        2.07815  -0.00219  -0.02461   0.00477  -0.01985   2.05830
   R14        2.08838  -0.00135  -0.01253   0.00095  -0.01159   2.07679
    A1        2.05158   0.04016   0.16911   0.19659   0.36570   2.41727
    A2        1.96876   0.01071   0.07022   0.04784   0.11687   2.08563
    A3        1.89061  -0.00285  -0.01012  -0.00165  -0.01429   1.87632
    A4        1.83848  -0.00588  -0.05949  -0.02420  -0.08484   1.75364
    A5        1.92734  -0.00252  -0.01035  -0.00481  -0.01652   1.91081
    A6        1.94923  -0.00053   0.02616  -0.02361   0.00428   1.95351
    A7        1.88523   0.00058  -0.02035   0.00489  -0.01667   1.86856
    A8        1.93768   0.00075   0.00919   0.00075   0.00994   1.94762
    A9        1.95748  -0.00067   0.04235  -0.04648  -0.00409   1.95339
   A10        1.89146   0.00027   0.00050   0.00514   0.00578   1.89724
   A11        1.91720   0.00020  -0.01539   0.01218  -0.00382   1.91338
   A12        1.87651  -0.00062  -0.02367   0.01902  -0.00496   1.87155
   A13        1.88063   0.00005  -0.01519   0.01243  -0.00324   1.87739
   A14        1.92929   0.00026  -0.00364   0.00497   0.00135   1.93064
   A15        1.93221   0.00062   0.01140  -0.00117   0.01002   1.94222
   A16        1.94808   0.00058   0.02996  -0.01736   0.01237   1.96045
   A17        1.88561  -0.00070  -0.01534   0.00292  -0.01238   1.87324
   A18        1.88644  -0.00055  -0.01429   0.00380  -0.01048   1.87596
   A19        1.88006  -0.00028  -0.00962   0.00758  -0.00246   1.87760
   A20        1.93322   0.00055   0.00022   0.00595   0.00613   1.93935
   A21        1.95183   0.00014   0.03424  -0.02678   0.00714   1.95898
   A22        1.93962   0.00090   0.02020  -0.00511   0.01482   1.95444
   A23        1.88499  -0.00041  -0.01555   0.00705  -0.00858   1.87642
   A24        1.88059  -0.00097  -0.02107   0.00505  -0.01600   1.86459
   A25        1.87058  -0.00032  -0.02054   0.01547  -0.00558   1.86501
    D1       -2.51134  -0.00007   0.00421  -0.03044  -0.02363  -2.53496
    D2        1.63290  -0.00193  -0.02085  -0.05479  -0.07446   1.55844
    D3       -0.38090   0.00165   0.03969  -0.04763  -0.01172  -0.39262
    D4        3.10256  -0.00085  -0.02190   0.01413  -0.00777   3.09479
    D5       -1.02843  -0.00053  -0.00540  -0.00327  -0.00838  -1.03681
    D6        1.04544  -0.00069   0.00128  -0.01260  -0.01112   1.03432
    D7       -1.06238   0.00109   0.00526   0.04167   0.04729  -1.01509
    D8        1.08982   0.00141   0.02176   0.02427   0.04668   1.13649
    D9       -3.11950   0.00125   0.02843   0.01494   0.04394  -3.07556
   D10        1.03577  -0.00024  -0.00993   0.02896   0.01817   1.05394
   D11       -3.09522   0.00009   0.00657   0.01156   0.01756  -3.07766
   D12       -1.02135  -0.00008   0.01325   0.00222   0.01482  -1.00653
   D13        1.08042  -0.00023   0.01573  -0.01915  -0.00350   1.07692
   D14       -1.00837   0.00008   0.02984  -0.02527   0.00462  -1.00375
   D15       -3.10252  -0.00036   0.01511  -0.02253  -0.00759  -3.11011
   D16       -1.09473  -0.00004  -0.03385   0.03118  -0.00251  -1.09724
   D17        3.09967   0.00027  -0.01974   0.02506   0.00562   3.10528
   D18        1.00552  -0.00017  -0.03447   0.02781  -0.00660   0.99892
   D19       -3.13659   0.00014   0.00720  -0.00094   0.00614  -3.13045
   D20        1.05781   0.00046   0.02131  -0.00706   0.01426   1.07207
   D21       -1.03634   0.00001   0.00658  -0.00432   0.00205  -1.03430
   D22       -1.06147  -0.00002   0.01192  -0.01247  -0.00054  -1.06201
   D23        3.11810   0.00002   0.00860  -0.00742   0.00128   3.11938
   D24        1.02843  -0.00028  -0.00111  -0.00555  -0.00681   1.02162
   D25        1.10220   0.00062   0.04221  -0.03554   0.00659   1.10879
   D26       -1.00142   0.00066   0.03889  -0.03049   0.00841  -0.99301
   D27       -3.09109   0.00036   0.02918  -0.02862   0.00033  -3.09077
   D28        3.14147   0.00001  -0.00408   0.00079  -0.00316   3.13832
   D29        1.03786   0.00006  -0.00740   0.00584  -0.00134   1.03652
   D30       -1.05182  -0.00025  -0.01710   0.00771  -0.00943  -1.06124
         Item               Value     Threshold  Converged?
 Maximum Force            0.040158     0.000450     NO 
 RMS     Force            0.005303     0.000300     NO 
 Maximum Displacement     0.520682     0.001800     NO 
 RMS     Displacement     0.118276     0.001200     NO 
 Predicted change in Energy=-1.150081D-02
 GradGradGradGradGradGradGradGradGradGradGradGradGradGradGradGradGradGrad

 Leave Link  103 at Tue Oct  5 16:44:36 2021, MaxMem=  536870912 cpu:       0.1
 (Enter /sw/target/amd/app/gaussian/Gaussian09RevA.02_gcc-4.9.2/g09/l202.exe)
                          Input orientation:                          
 ---------------------------------------------------------------------
 Center     Atomic      Atomic             Coordinates (Angstroms)
 Number     Number       Type             X           Y           Z
 ---------------------------------------------------------------------
[...]
                 (A) (A) (A) (A)
       Virtual   (A) (A) (A) (A) (A) (A) (A) (A) (A) (A) (A) (A)
                 (A) (A) (A) (A) (A) (A) (A) (A) (A) (A) (A) (A)
                 (A) (A) (A) (A) (A) (A) (A) (A) (A) (A) (A) (A)
                 (A) (A) (A) (A) (A) (A) (A) (A) (A) (A) (A) (A)
                 (A) (A) (A) (A) (A) (A) (A) (A) (A) (A) (A) (A)
                 (A) (A) (A) (A) (A) (A) (A) (A) (A) (A) (A) (A)
                 (A) (A) (A) (A) (A) (A) (A) (A) (A) (A) (A) (A)
                 (A) (A) (A)
 The electronic state is 1-A.
 Alpha  occ. eigenvalues -- -482.87411 -61.83653 -56.35336 -56.35216 -56.35213
 Alpha  occ. eigenvalues --  -46.83501 -10.19350 -10.18174 -10.17125 -10.15981
 Alpha  occ. eigenvalues --   -8.54544  -6.49267  -6.48884  -6.48882  -3.12351
 Alpha  occ. eigenvalues --   -2.60945  -2.60824  -2.60823  -2.60518  -2.60518
 Alpha  occ. eigenvalues --   -1.86956  -1.86945  -1.86311  -0.79565  -0.72026
 Alpha  occ. eigenvalues --   -0.68427  -0.65883  -0.55555  -0.45831  -0.43293
 Alpha  occ. eigenvalues --   -0.41122  -0.38483  -0.37459  -0.34585  -0.32720
 Alpha  occ. eigenvalues --   -0.32422  -0.32128  -0.27578  -0.27572  -0.24304
 Alpha virt. eigenvalues --   -0.03877  -0.01268  -0.00797   0.05886   0.11155
 Alpha virt. eigenvalues --    0.11378   0.12788   0.13389   0.14933   0.15977
 Alpha virt. eigenvalues --    0.16389   0.18025   0.18279   0.19393   0.20190
 Alpha virt. eigenvalues --    0.22382   0.23482   0.24170   0.25714   0.28653
 Alpha virt. eigenvalues --    0.30426   0.31178   0.31808   0.33935   0.42135
 Alpha virt. eigenvalues --    0.44791   0.50621   0.50767   0.51622   0.52602
 Alpha virt. eigenvalues --    0.53535   0.54502   0.55130   0.59123   0.60376
 Alpha virt. eigenvalues --    0.65584   0.66846   0.68852   0.70402   0.72306
 Alpha virt. eigenvalues --    0.72817   0.76941   0.82001   0.84684   0.86822
 Alpha virt. eigenvalues --    0.89563   0.90149   0.91002   0.92809   0.93461
 Alpha virt. eigenvalues --    0.94824   0.97037   0.99719   1.02200   1.03963
 Alpha virt. eigenvalues --    1.10464   1.16197   1.43580   1.44744   1.49063
 Alpha virt. eigenvalues --    1.53096   1.69976   1.74218   1.75068   1.79477
 Alpha virt. eigenvalues --    1.80448   1.94885   1.96033   2.01565   2.04136
 Alpha virt. eigenvalues --    2.10179   2.13654   2.21075   2.23779   2.25554
 Alpha virt. eigenvalues --    2.27995   2.48591   2.49177   2.51332   2.70997
 Alpha virt. eigenvalues --    2.71130   4.15617   4.28529   4.33086   4.57141
 Alpha virt. eigenvalues --    8.78941  75.84221
          Condensed to atoms (all electrons):
              1          2          3          4          5          6
     1  Br  34.978546   0.185583   0.005990   0.000046   0.000002   0.000127
     2  Mg   0.185583  11.673850   0.014334  -0.042526  -0.013666  -0.036320
     3  C    0.005990   0.014334   5.605998   0.376366  -0.040978  -0.043653
     4  C    0.000046  -0.042526   0.376366   4.909223   0.373107   0.373521
     5  C    0.000002  -0.013666  -0.040978   0.373107   5.162662  -0.053807
     6  C    0.000127  -0.036320  -0.043653   0.373521  -0.053807   5.192243
     7  H   -0.000398   0.033259   0.295893  -0.034214  -0.004781  -0.008575
     8  H   -0.000367   0.030982   0.305428  -0.033289  -0.002014   0.004396
     9  H   -0.000104   0.030596  -0.051142   0.360355  -0.047831  -0.049006
    10  H   -0.000000   0.002065  -0.006225  -0.033261   0.370375  -0.005111
    11  H   -0.000000   0.003291  -0.003098  -0.032120   0.360989   0.005167
    12  H   -0.000000   0.004164   0.004963  -0.032176   0.338221  -0.002599
    13  H   -0.000026   0.010223  -0.006104  -0.035798  -0.006160   0.363916
    14  H   -0.000002   0.002385   0.004565  -0.031411  -0.005594   0.365411
    15  H   -0.000518   0.031695  -0.010891  -0.030970   0.003914   0.352310
              7          8          9         10         11         12
     1  Br  -0.000398  -0.000367  -0.000104  -0.000000  -0.000000  -0.000000
     2  Mg   0.033259   0.030982   0.030596   0.002065   0.003291   0.004164
     3  C    0.295893   0.305428  -0.051142  -0.006225  -0.003098   0.004963
     4  C   -0.034214  -0.033289   0.360355  -0.033261  -0.032120  -0.032176
     5  C   -0.004781  -0.002014  -0.047831   0.370375   0.360989   0.338221
     6  C   -0.008575   0.004396  -0.049006  -0.005111   0.005167  -0.002599
     7  H    0.552183  -0.036427   0.005631   0.005000   0.000121   0.000213
     8  H   -0.036427   0.536603  -0.004050  -0.000423   0.004648   0.000148
     9  H    0.005631  -0.004050   0.582326   0.005299  -0.002225  -0.000768
    10  H    0.005000  -0.000423   0.005299   0.556013  -0.029189  -0.029126
    11  H    0.000121   0.004648  -0.002225  -0.029189   0.554545  -0.023570
    12  H    0.000213   0.000148  -0.000768  -0.029126  -0.023570   0.567235
    13  H    0.004550  -0.000004   0.005503   0.004400  -0.000013   0.000185
    14  H    0.000101  -0.000121  -0.001555  -0.000187   0.000074   0.005580
    15  H    0.000298   0.000175  -0.003262  -0.000025  -0.000143   0.000271
             13         14         15
     1  Br  -0.000026  -0.000002  -0.000518
     2  Mg   0.010223   0.002385   0.031695
     3  C   -0.006104   0.004565  -0.010891
     4  C   -0.035798  -0.031411  -0.030970
     5  C   -0.006160  -0.005594   0.003914
     6  C    0.363916   0.365411   0.352310
     7  H    0.004550   0.000101   0.000298
     8  H   -0.000004  -0.000121   0.000175
     9  H    0.005503  -0.001555  -0.003262
    10  H    0.004400  -0.000187  -0.000025
    11  H   -0.000013   0.000074  -0.000143
    12  H    0.000185   0.005580   0.000271
    13  H    0.562305  -0.027347  -0.031743
    14  H   -0.027347   0.551612  -0.023567
    15  H   -0.031743  -0.023567   0.539937
 Mulliken atomic charges:
              1
     1  Br  -0.168878
     2  Mg   0.070086
     3  C   -0.451447
     4  C   -0.086854
     5  C   -0.434439
     6  C   -0.458020
     7  H    0.187145
     8  H    0.194316
     9  H    0.170232
    10  H    0.160395
    11  H    0.161521
    12  H    0.167258
    13  H    0.156112
    14  H    0.160055
    15  H    0.172518
 Sum of Mulliken atomic charges =  -0.00000
 Mulliken charges with hydrogens summed into heavy atoms:
              1
     1  Br  -0.168878
     2  Mg   0.070086
     3  C   -0.069986
     4  C    0.083378
     5  C    0.054736
     6  C    0.030665
 Sum of Mulliken charges with hydrogens summed into heavy atoms =  -0.00000
 Electronic spatial extent (au):  <R**2>=           2217.8529
 Charge=             -0.0000 electrons
 Dipole moment (field-independent basis, Debye):
    X=             -6.5674    Y=             -0.8523    Z=              1.1883  Tot=              6.7282
 Quadrupole moment (field-independent basis, Debye-Ang):
   XX=            -57.5748   YY=            -58.2557   ZZ=            -59.5288
   XY=              0.3179   XZ=              0.7468   YZ=             -0.7596
 Traceless Quadrupole moment (field-independent basis, Debye-Ang):
   XX=              0.8783   YY=              0.1974   ZZ=             -1.0757
   XY=              0.3179   XZ=              0.7468   YZ=             -0.7596
 Octapole moment (field-independent basis, Debye-Ang**2):
  XXX=             20.6652  YYY=              4.3093  ZZZ=              4.7275  XYY=             19.1137
  XXY=              3.6454  XXZ=             -3.2543  XZZ=             20.5986  YZZ=              1.5827
  YYZ=              0.6163  XYZ=              0.1932
 Hexadecapole moment (field-independent basis, Debye-Ang**3):
 XXXX=          -2199.1984 YYYY=           -292.1168 ZZZZ=           -145.2661 XXXY=              9.2026
 XXXZ=              8.1272 YYYX=              9.4420 YYYZ=             -2.3061 ZZZX=             -5.5230
 ZZZY=             -2.8329 XXYY=           -426.3905 XXZZ=           -406.3738 YYZZ=            -74.3176
 XXYZ=             -3.6715 YYXZ=              2.7413 ZZXY=              3.0053
 N-N= 3.991240611648D+02 E-N=-7.774703533378D+03  KE= 2.911381993378D+03
 No NMR shielding tensors so no spin-rotation constants.
 Leave Link  601 at Tue Oct  5 16:57:16 2021, MaxMem=  536870912 cpu:       0.4
 (Enter /sw/target/amd/app/gaussian/Gaussian09RevA.02_gcc-4.9.2/g09/l604.exe)
 Evaluate density.
 Using the total density.
 Monte-Carlo method of calculating molar volume:
 based on  0.001 e/bohr**3 density envelope.
 Number of points per bohr**3 =   20 CutOff= 1.00D-04
 Using the CI density.
 There are       511 points.  Will hold       511 in memory.
 LenV=   536787715 MDV=   536870912.
 Box volume =16742.767 fraction occupied=0.063
 Integrated density= 3.6235499131358921D+01 error=-4.3764500868641079D+01
 Molar volume = 1048.471 bohr**3/mol ( 93.564 cm**3/mol)
 Recommended a0 for SCRF calculation =  4.17 angstrom (  7.88 bohr)
 Leave Link  604 at Tue Oct  5 16:57:16 2021, MaxMem=  536870912 cpu:       0.2
 (Enter /sw/target/amd/app/gaussian/Gaussian09RevA.02_gcc-4.9.2/g09/l607.exe)
 ******************************Gaussian NBO Version 3.1******************************
             N A T U R A L   A T O M I C   O R B I T A L   A N D
          N A T U R A L   B O N D   O R B I T A L   A N A L Y S I S
 ******************************Gaussian NBO Version 3.1******************************
       /RESON  / : Allow strongly delocalized NBO set

 Analyzing the CI density

 Job title: Br[Mg]CC(C)C_conf_0                                             

 Storage needed:     49204 in NPA ( 536869637 available)


 NATURAL POPULATIONS:  Natural atomic orbital occupancies 
                                                          
   NAO  Atom  No  lang   Type(AO)    Occupancy
 --------------------------------------------
     1   Br    1  S      Cor( 1S)     2.00000
     2   Br    1  S      Cor( 2S)     1.99995
     3   Br    1  S      Cor( 3S)     1.99990
     4   Br    1  S      Val( 4S)     1.93844
     5   Br    1  S      Ryd( 5S)     0.00231
     6   Br    1  S      Ryd( 6S)     0.00002
     7   Br    1  S      Ryd( 7S)     0.00000
     8   Br    1  S      Ryd( 8S)     0.00000
     9   Br    1  px     Cor( 2p)     1.99999
    10   Br    1  px     Cor( 3p)     1.99993
    11   Br    1  px     Val( 4p)     1.80500
    12   Br    1  px     Ryd( 5p)     0.00062
    13   Br    1  py     Cor( 2p)     2.00000
    14   Br    1  py     Cor( 3p)     1.99999
    15   Br    1  py     Val( 4p)     1.91535
    16   Br    1  py     Ryd( 5p)     0.00003
    17   Br    1  pz     Cor( 2p)     2.00000
    18   Br    1  pz     Cor( 3p)     1.99999
    19   Br    1  pz     Val( 4p)     1.91871
    20   Br    1  pz     Ryd( 5p)     0.00002
    21   Br    1  dxy    Cor( 3d)     1.99999
    22   Br    1  dxy    Ryd( 4d)     0.00207
    23   Br    1  dxz    Cor( 3d)     1.99999
    24   Br    1  dxz    Ryd( 4d)     0.00169
    25   Br    1  dyz    Cor( 3d)     2.00000
    26   Br    1  dyz    Ryd( 4d)     0.00011
    27   Br    1  dx2y2  Cor( 3d)     1.99999
    28   Br    1  dx2y2  Ryd( 4d)     0.00391
    29   Br    1  dz2    Cor( 3d)     2.00000
    30   Br    1  dz2    Ryd( 4d)     0.00145

    31   Mg    2  S      Cor( 1S)     2.00000
    32   Mg    2  S      Cor( 2S)     1.99846
    33   Mg    2  S      Val( 3S)     0.80430
    34   Mg    2  S      Ryd( 4S)     0.03306
    35   Mg    2  S      Ryd( 5S)     0.00029
    36   Mg    2  px     Cor( 2p)     1.99778
    37   Mg    2  px     Val( 3p)     0.10479
    38   Mg    2  px     Ryd( 4p)     0.00306
    39   Mg    2  py     Cor( 2p)     1.99974
    40   Mg    2  py     Val( 3p)     0.08573
    41   Mg    2  py     Ryd( 4p)     0.00078
    42   Mg    2  pz     Cor( 2p)     1.99987
    43   Mg    2  pz     Val( 3p)     0.10095
    44   Mg    2  pz     Ryd( 4p)     0.00093
    45   Mg    2  dxy    Ryd( 3d)     0.00254
    46   Mg    2  dxz    Ryd( 3d)     0.00263
    47   Mg    2  dyz    Ryd( 3d)     0.00020
    48   Mg    2  dx2y2  Ryd( 3d)     0.00231
    49   Mg    2  dz2    Ryd( 3d)     0.00104

    50    C    3  S      Cor( 1S)     1.99936
    51    C    3  S      Val( 2S)     1.26456
    52    C    3  S      Ryd( 3S)     0.00913
    53    C    3  S      Ryd( 4S)     0.00002
    54    C    3  px     Val( 2p)     1.16787
    55    C    3  px     Ryd( 3p)     0.01465
    56    C    3  py     Val( 2p)     1.13497
    57    C    3  py     Ryd( 3p)     0.00486
    58    C    3  pz     Val( 2p)     1.18699
    59    C    3  pz     Ryd( 3p)     0.00313
    60    C    3  dxy    Ryd( 3d)     0.00038
    61    C    3  dxz    Ryd( 3d)     0.00029
    62    C    3  dyz    Ryd( 3d)     0.00054
    63    C    3  dx2y2  Ryd( 3d)     0.00077
    64    C    3  dz2    Ryd( 3d)     0.00110

    65    C    4  S      Cor( 1S)     1.99927
    66    C    4  S      Val( 2S)     0.99459
    67    C    4  S      Ryd( 3S)     0.00097
    68    C    4  S      Ryd( 4S)     0.00002
    69    C    4  px     Val( 2p)     1.01838
    70    C    4  px     Ryd( 3p)     0.00201
    71    C    4  py     Val( 2p)     1.05182
    72    C    4  py     Ryd( 3p)     0.00212
    73    C    4  pz     Val( 2p)     1.21601
    74    C    4  pz     Ryd( 3p)     0.00264
    75    C    4  dxy    Ryd( 3d)     0.00074
    76    C    4  dxz    Ryd( 3d)     0.00044
    77    C    4  dyz    Ryd( 3d)     0.00049
    78    C    4  dx2y2  Ryd( 3d)     0.00079
    79    C    4  dz2    Ryd( 3d)     0.00133

    80    C    5  S      Cor( 1S)     1.99934
    81    C    5  S      Val( 2S)     1.11260
    82    C    5  S      Ryd( 3S)     0.00099
    83    C    5  S      Ryd( 4S)     0.00002
    84    C    5  px     Val( 2p)     1.03751
    85    C    5  px     Ryd( 3p)     0.00157
    86    C    5  py     Val( 2p)     1.24208
    87    C    5  py     Ryd( 3p)     0.00219
    88    C    5  pz     Val( 2p)     1.24950
    89    C    5  pz     Ryd( 3p)     0.00157
    90    C    5  dxy    Ryd( 3d)     0.00071
    91    C    5  dxz    Ryd( 3d)     0.00053
    92    C    5  dyz    Ryd( 3d)     0.00050
    93    C    5  dx2y2  Ryd( 3d)     0.00076
    94    C    5  dz2    Ryd( 3d)     0.00097

    95    C    6  S      Cor( 1S)     1.99941
    96    C    6  S      Val( 2S)     1.09972
    97    C    6  S      Ryd( 3S)     0.00064
    98    C    6  S      Ryd( 4S)     0.00002
    99    C    6  px     Val( 2p)     1.24779
   100    C    6  px     Ryd( 3p)     0.00240
   101    C    6  py     Val( 2p)     1.10199
   102    C    6  py     Ryd( 3p)     0.00182
   103    C    6  pz     Val( 2p)     1.22513
   104    C    6  pz     Ryd( 3p)     0.00157
   105    C    6  dxy    Ryd( 3d)     0.00088
   106    C    6  dxz    Ryd( 3d)     0.00029
   107    C    6  dyz    Ryd( 3d)     0.00039
   108    C    6  dx2y2  Ryd( 3d)     0.00062
   109    C    6  dz2    Ryd( 3d)     0.00116

   110    H    7  S      Val( 1S)     0.77130
   111    H    7  S      Ryd( 2S)     0.00241

   112    H    8  S      Val( 1S)     0.76284
   113    H    8  S      Ryd( 2S)     0.00228

   114    H    9  S      Val( 1S)     0.74035
   115    H    9  S      Ryd( 2S)     0.00419

   116    H   10  S      Val( 1S)     0.76230
   117    H   10  S      Ryd( 2S)     0.00134

   118    H   11  S      Val( 1S)     0.75731
   119    H   11  S      Ryd( 2S)     0.00128

   120    H   12  S      Val( 1S)     0.74916
   121    H   12  S      Ryd( 2S)     0.00202

   122    H   13  S      Val( 1S)     0.76824
   123    H   13  S      Ryd( 2S)     0.00176

   124    H   14  S      Val( 1S)     0.75515
   125    H   14  S      Ryd( 2S)     0.00108

   126    H   15  S      Val( 1S)     0.77206
   127    H   15  S      Ryd( 2S)     0.00211

 WARNING:  2 low occupancy (<1.9990e) core orbitals found on Mg    2


 Summary of Natural Population Analysis:                  
                                                          
                                       Natural Population 
                Natural  -----------------------------------------------
    Atom  No    Charge         Core      Valence    Rydberg      Total
 -----------------------------------------------------------------------
     Br    1   -0.58946     27.99973     7.57750    0.01224    35.58946
     Mg    2    0.86156      9.99584     1.09576    0.04684    11.13844
      C    3   -0.78861      1.99936     4.75438    0.03487     6.78861
      C    4   -0.29163      1.99927     4.28080    0.01156     6.29163
      C    5   -0.65084      1.99934     4.64170    0.00979     6.65084
      C    6   -0.68385      1.99941     4.67464    0.00980     6.68385
      H    7    0.22629      0.00000     0.77130    0.00241     0.77371
      H    8    0.23488      0.00000     0.76284    0.00228     0.76512
      H    9    0.25546      0.00000     0.74035    0.00419     0.74454
      H   10    0.23636      0.00000     0.76230    0.00134     0.76364
      H   11    0.24141      0.00000     0.75731    0.00128     0.75859
      H   12    0.24882      0.00000     0.74916    0.00202     0.75118
      H   13    0.23000      0.00000     0.76824    0.00176     0.77000
      H   14    0.24377      0.00000     0.75515    0.00108     0.75623
      H   15    0.22583      0.00000     0.77206    0.00211     0.77417
 =======================================================================
   * Total *    0.00000     45.99295    33.86348    0.14357    80.00000

                                 Natural Population      
 --------------------------------------------------------
   Core                      45.99295 ( 99.9847% of  46)
   Valence                   33.86348 ( 99.5985% of  34)
   Natural Minimal Basis     79.85643 ( 99.8205% of  80)
   Natural Rydberg Basis      0.14357 (  0.1795% of  80)
 --------------------------------------------------------

    Atom  No          Natural Electron Configuration
 ----------------------------------------------------------------------------
     Br    1      [core]4S( 1.94)4p( 5.64)4d( 0.01)
     Mg    2      [core]3S( 0.80)3p( 0.29)4S( 0.03)3d( 0.01)
      C    3      [core]2S( 1.26)2p( 3.49)3S( 0.01)3p( 0.02)
      C    4      [core]2S( 0.99)2p( 3.29)3p( 0.01)
      C    5      [core]2S( 1.11)2p( 3.53)3p( 0.01)
      C    6      [core]2S( 1.10)2p( 3.57)3p( 0.01)
      H    7            1S( 0.77)
      H    8            1S( 0.76)
      H    9            1S( 0.74)
      H   10            1S( 0.76)
      H   11            1S( 0.76)
      H   12            1S( 0.75)
      H   13            1S( 0.77)
      H   14            1S( 0.76)
      H   15            1S( 0.77)


 NBO analysis skipped by request.
 Leave Link  607 at Tue Oct  5 16:57:19 2021, MaxMem=  536870912 cpu:       4.3
 (Enter /sw/target/amd/app/gaussian/Gaussian09RevA.02_gcc-4.9.2/g09/l9999.exe)
 1\1\GINC-HERMITE\SP\RTD-B3LYP-FC\6-31G(d)\C4H9Br1Mg1\JSCHLEINITZ\05-Oc
 t-2021\0\\#p TD(NStates=10, Root=1) b3lyp/6-31G* volume pop=NPA densit
 y=current Geom=AllCheck Guess=Read\\Br[Mg]CC(C)C_conf_0\\0,1\Br,0,5.77
 05347803,4.1110522052,-0.8588193422\Mg,0,5.5662308955,1.8819031362,-0.
 1677810392\C,0,5.2801305567,-0.1100220335,0.4236683186\C,0,6.245611822
 7,-0.6254390455,1.5126017903\C,0,5.9914082883,-2.1100747845,1.83191476
 46\C,0,7.7157776233,-0.4094569868,1.1226511464\H,0,5.3783686319,-0.740
 0491145,-0.4756163868\H,0,4.2392278238,-0.2379270625,0.7555168402\H,0,
 6.061503929,-0.0562196017,2.4373740419\H,0,6.1765961899,-2.7336549184,
 0.9474002856\H,0,4.9525339517,-2.2736156256,2.1406653071\H,0,6.6437296
 751,-2.4696675633,2.6383593093\H,0,7.9467389422,-0.9124418551,0.174110
 9938\H,0,8.4026190156,-0.801471694,1.8821847902\H,0,7.9514369438,0.658
 8495128,0.9965953551\\Version=AM64L-G09RevA.02\State=1-A\HF=-2929.7209
 868\RMSD=8.811e-10\Dipole=0.0261037,-2.5891365,0.5502459\Quadrupole=-0
 .1514794,0.2025513,-0.051072,0.5261774,0.5856826,-0.7574095\PG=C01 [X(
 C4H9Br1Mg1)]\\@


 THE MORE POWERFUL THE METHOD, THE MORE CATASTROPHIC THE ERRORS.
     -- M.D. KAMEN
 Job cpu time:  0 days  0 hours 10 minutes  4.9 seconds.
 File lengths (MBytes):  RWF=     42 Int=      0 D2E=      0 Chk=      8 Scr=      1
 Normal termination of Gaussian 09 at Tue Oct  5 16:57:19 2021.
