 Entering Gaussian System, Link 0=g09
 Input=C5H13N_475c_conf_0.com
 Output=C5H13N_475c_conf_0.log
 Initial command:
 /sw/target/amd/app/gaussian/Gaussian09RevA.02_gcc-4.9.2/g09/l1.exe /home/jschleinitz/gaussian/Gau-1467362.inp -scrdir=/home/jschleinitz/gaussian/
 Entering Link 1 = /sw/target/amd/app/gaussian/Gaussian09RevA.02_gcc-4.9.2/g09/l1.exe PID=   1467364.
  
 Copyright (c) 1988,1990,1992,1993,1995,1998,2003,2009, Gaussian, Inc.
                  All Rights Reserved.
  
 This is part of the Gaussian(R) 09 program.  It is based on
 the Gaussian(R) 03 system (copyright 2003, Gaussian, Inc.),
 the Gaussian(R) 98 system (copyright 1998, Gaussian, Inc.),
 the Gaussian(R) 94 system (copyright 1995, Gaussian, Inc.),
 the Gaussian 92(TM) system (copyright 1992, Gaussian, Inc.),
 the Gaussian 90(TM) system (copyright 1990, Gaussian, Inc.),
 the Gaussian 88(TM) system (copyright 1988, Gaussian, Inc.),
 the Gaussian 86(TM) system (copyright 1986, Carnegie Mellon
 University), and the Gaussian 82(TM) system (copyright 1983,
 Carnegie Mellon University). Gaussian is a federally registered
 trademark of Gaussian, Inc.
  
 This software contains proprietary and confidential information,
 including trade secrets, belonging to Gaussian, Inc.
  
 This software is provided under written license and may be
 used, copied, transmitted, or stored only in accord with that
 written license.
  
 The following legend is applicable only to US Government
 contracts under FAR:
  
                    RESTRICTED RIGHTS LEGEND
  
 Use, reproduction and disclosure by the US Government is
 subject to restrictions as set forth in subparagraphs (a)
 and (c) of the Commercial Computer Software - Restricted
 Rights clause in FAR 52.227-19.
  
 Gaussian, Inc.
 340 Quinnipiac St., Bldg. 40, Wallingford CT 06492
  
  
 ---------------------------------------------------------------
 Warning -- This program may not be used in any manner that
 competes with the business of Gaussian, Inc. or will provide
 assistance to any competitor of Gaussian, Inc.  The licensee
 of this program is prohibited from giving any competitor of
 Gaussian, Inc. access to this program.  By using this program,
 the user acknowledges that Gaussian, Inc. is engaged in the
 business of creating and licensing software in the field of
 computational chemistry and represents and warrants to the
 licensee that it is not a competitor of Gaussian, Inc. and that
 it will not use this program in any manner prohibited above.
 ---------------------------------------------------------------
  

 Cite this work as:
 Gaussian 09, Revision A.02,
 M. J. Frisch, G. W. Trucks, H. B. Schlegel, G. E. Scuseria, 
 M. A. Robb, J. R. Cheeseman, G. Scalmani, V. Barone, B. Mennucci, 
 G. A. Petersson, H. Nakatsuji, M. Caricato, X. Li, H. P. Hratchian, 
 A. F. Izmaylov, J. Bloino, G. Zheng, J. L. Sonnenberg, M. Hada, 
 M. Ehara, K. Toyota, R. Fukuda, J. Hasegawa, M. Ishida, T. Nakajima, 
 Y. Honda, O. Kitao, H. Nakai, T. Vreven, J. A. Montgomery, Jr., 
 J. E. Peralta, F. Ogliaro, M. Bearpark, J. J. Heyd, E. Brothers, 
 K. N. Kudin, V. N. Staroverov, R. Kobayashi, J. Normand, 
 K. Raghavachari, A. Rendell, J. C. Burant, S. S. Iyengar, J. Tomasi, 
 M. Cossi, N. Rega, J. M. Millam, M. Klene, J. E. Knox, J. B. Cross, 
 V. Bakken, C. Adamo, J. Jaramillo, R. Gomperts, R. E. Stratmann, 
 O. Yazyev, A. J. Austin, R. Cammi, C. Pomelli, J. W. Ochterski, 
 R. L. Martin, K. Morokuma, V. G. Zakrzewski, G. A. Voth, 
 P. Salvador, J. J. Dannenberg, S. Dapprich, A. D. Daniels, 
 O. Farkas, J. B. Foresman, J. V. Ortiz, J. Cioslowski, 
 and D. J. Fox, Gaussian, Inc., Wallingford CT, 2009.
 
 ******************************************
 Gaussian 09:  AM64L-G09RevA.02 11-Jun-2009
                 4-Oct-2021 
 ******************************************
 %nproc=3
 Will use up to    3 processors via shared memory.
 %mem=6gb
 %chk=C5H13N_475c_conf_0.chk
 -----------------------------------
 #p opt b3lyp/6-31G* scf=(xqc,tight)
 -----------------------------------
 1/14=-1,18=20,19=15,26=3,38=1/1,3;
 2/9=110,12=2,17=6,18=5,40=1/2;
 3/5=1,6=6,7=1,11=2,16=1,25=1,30=1,71=1,74=-5/1,2,3;
 4//1;
 5/5=2,8=3,13=1,32=2,38=5/2,8;
 6/7=2,8=2,9=2,10=2,28=1/1;
 7//1,2,3,16;
 1/14=-1,18=20,19=15/3(2);
 2/9=110/2;
 99//99;
 2/9=110/2;
 3/5=1,6=6,7=1,11=2,16=1,25=1,30=1,71=1,74=-5/1,2,3;
 4/5=5,16=3/1;
 5/5=2,8=3,13=1,32=2,38=5/2,8;
 7//1,2,3,16;
 1/14=-1,18=20,19=15/3(-5);
 2/9=110/2;
 6/7=2,8=2,9=2,10=2,19=2,28=1/1;
 99/9=1/99;
 Leave Link    1 at Mon Oct  4 10:33:41 2021, MaxMem=  805306368 cpu:       0.1
 (Enter /sw/target/amd/app/gaussian/Gaussian09RevA.02_gcc-4.9.2/g09/l101.exe)
 -------------
 CCCCNC_conf_0
 -------------
 Symbolic Z-matrix:
 Charge =  0 Multiplicity = 1
 C                     0.91285   0.03711   0.02234 
 C                     2.43168  -0.02529   0.05367 
 C                     2.98615  -0.90337  -1.06897 
 C                     4.51556  -0.9473   -1.0274 
 N                     5.01984  -1.80075  -2.10357 
 C                     6.47599  -1.85676  -2.08519 
 H                     0.54304   0.66659   0.83757 
 H                     0.47676  -0.96033   0.13848 
 H                     0.55662   0.46042  -0.92276 
 H                     2.75435  -0.41675   1.02532 
 H                     2.83363   0.99118  -0.0357 
 H                     2.65016  -0.51341  -2.03801 
 H                     2.58253  -1.91934  -0.97164 
 H                     4.84089  -1.33879  -0.05664 
 H                     4.91289   0.06955  -1.1341 
 H                     4.70765  -1.43509  -3.00282 
 H                     6.84232  -2.29878  -1.15311 
 H                     6.91852  -0.86328  -2.20948 
 H                     6.8274   -2.48623  -2.90856 
 
 NAtoms=     19 NQM=     19 NQMF=      0 NMic=      0 NMicF=      0 NTot=     19.
                    Isotopes and Nuclear Properties:
 (Nuclear quadrupole moments (NQMom) in fm**2, nuclear magnetic moments (NMagM)
  in nuclear magnetons)

  Atom         1           2           3           4           5           6           7           8           9          10
 IAtWgt=          12          12          12          12          14          12           1           1           1           1
 AtmWgt=  12.0000000  12.0000000  12.0000000  12.0000000  14.0030740  12.0000000   1.0078250   1.0078250   1.0078250   1.0078250
 NucSpn=           0           0           0           0           2           0           1           1           1           1
 AtZEff=   0.0000000   0.0000000   0.0000000   0.0000000   0.0000000   0.0000000   0.0000000   0.0000000   0.0000000   0.0000000
 NQMom=    0.0000000   0.0000000   0.0000000   0.0000000   2.0440000   0.0000000   0.0000000   0.0000000   0.0000000   0.0000000
 NMagM=    0.0000000   0.0000000   0.0000000   0.0000000   0.4037610   0.0000000   2.7928460   2.7928460   2.7928460   2.7928460

  Atom        11          12          13          14          15          16          17          18          19
 IAtWgt=           1           1           1           1           1           1           1           1           1
 AtmWgt=   1.0078250   1.0078250   1.0078250   1.0078250   1.0078250   1.0078250   1.0078250   1.0078250   1.0078250
 NucSpn=           1           1           1           1           1           1           1           1           1
 AtZEff=   0.0000000   0.0000000   0.0000000   0.0000000   0.0000000   0.0000000   0.0000000   0.0000000   0.0000000
 NQMom=    0.0000000   0.0000000   0.0000000   0.0000000   0.0000000   0.0000000   0.0000000   0.0000000   0.0000000
 NMagM=    2.7928460   2.7928460   2.7928460   2.7928460   2.7928460   2.7928460   2.7928460   2.7928460   2.7928460
 Leave Link  101 at Mon Oct  4 10:33:43 2021, MaxMem=  805306368 cpu:       0.2
 (Enter /sw/target/amd/app/gaussian/Gaussian09RevA.02_gcc-4.9.2/g09/l103.exe)

 GradGradGradGradGradGradGradGradGradGradGradGradGradGradGradGradGradGrad
 Berny optimization.
 Initialization pass.
                           ----------------------------
                           !    Initial Parameters    !
                           ! (Angstroms and Degrees)  !
 --------------------------                            --------------------------
 ! Name  Definition              Value          Derivative Info.                !
 --------------------------------------------------------------------------------
 ! R1    R(1,2)                  1.5204         estimate D2E/DX2                !
 ! R2    R(1,7)                  1.0944         estimate D2E/DX2                !
 ! R3    R(1,8)                  1.0948         estimate D2E/DX2                !
 ! R4    R(1,9)                  1.0951         estimate D2E/DX2                !
 ! R5    R(2,3)                  1.5293         estimate D2E/DX2                !
 ! R6    R(2,10)                 1.0961         estimate D2E/DX2                !
 ! R7    R(2,11)                 1.0967         estimate D2E/DX2                !
 ! R8    R(3,4)                  1.5306         estimate D2E/DX2                !
 ! R9    R(3,12)                 1.0973         estimate D2E/DX2                !
 ! R10   R(3,13)                 1.0975         estimate D2E/DX2                !
 ! R11   R(4,5)                  1.4632         estimate D2E/DX2                !
 ! R12   R(4,14)                 1.0961         estimate D2E/DX2                !
 ! R13   R(4,15)                 1.0969         estimate D2E/DX2                !
 ! R14   R(5,6)                  1.4573         estimate D2E/DX2                !
 ! R15   R(5,16)                 1.0197         estimate D2E/DX2                !
 ! R16   R(6,17)                 1.0947         estimate D2E/DX2                !
 ! R17   R(6,18)                 1.0947         estimate D2E/DX2                !
 ! R18   R(6,19)                 1.0944         estimate D2E/DX2                !
 ! A1    A(2,1,7)              110.2318         estimate D2E/DX2                !
 ! A2    A(2,1,8)              110.9983         estimate D2E/DX2                !
 ! A3    A(2,1,9)              111.0137         estimate D2E/DX2                !
 ! A4    A(7,1,8)              108.0852         estimate D2E/DX2                !
 ! A5    A(7,1,9)              108.0968         estimate D2E/DX2                !
 ! A6    A(8,1,9)              108.3096         estimate D2E/DX2                !
 ! A7    A(1,2,3)              111.7533         estimate D2E/DX2                !
 ! A8    A(1,2,10)             109.0865         estimate D2E/DX2                !
 ! A9    A(1,2,11)             109.0505         estimate D2E/DX2                !
 ! A10   A(3,2,10)             109.8126         estimate D2E/DX2                !
 ! A11   A(3,2,11)             109.8443         estimate D2E/DX2                !
 ! A12   A(10,2,11)            107.1785         estimate D2E/DX2                !
 ! A13   A(2,3,4)              111.0274         estimate D2E/DX2                !
 ! A14   A(2,3,12)             109.4647         estimate D2E/DX2                !
 ! A15   A(2,3,13)             109.4548         estimate D2E/DX2                !
 ! A16   A(4,3,12)             109.8861         estimate D2E/DX2                !
 ! A17   A(4,3,13)             109.7848         estimate D2E/DX2                !
 ! A18   A(12,3,13)            107.1396         estimate D2E/DX2                !
 ! A19   A(3,4,5)              109.9466         estimate D2E/DX2                !
 ! A20   A(3,4,14)             109.3215         estimate D2E/DX2                !
 ! A21   A(3,4,15)             109.4324         estimate D2E/DX2                !
 ! A22   A(5,4,14)             109.9238         estimate D2E/DX2                !
 ! A23   A(5,4,15)             110.1414         estimate D2E/DX2                !
 ! A24   A(14,4,15)            108.0429         estimate D2E/DX2                !
 ! A25   A(4,5,6)              110.9475         estimate D2E/DX2                !
 ! A26   A(4,5,16)             109.5081         estimate D2E/DX2                !
 ! A27   A(6,5,16)             109.3174         estimate D2E/DX2                !
 ! A28   A(5,6,17)             111.1381         estimate D2E/DX2                !
 ! A29   A(5,6,18)             111.5688         estimate D2E/DX2                !
 ! A30   A(5,6,19)             109.4791         estimate D2E/DX2                !
 ! A31   A(17,6,18)            109.1387         estimate D2E/DX2                !
 ! A32   A(17,6,19)            107.5113         estimate D2E/DX2                !
 ! A33   A(18,6,19)            107.866          estimate D2E/DX2                !
 ! D1    D(7,1,2,3)            179.7199         estimate D2E/DX2                !
 ! D2    D(7,1,2,10)            58.1034         estimate D2E/DX2                !
 ! D3    D(7,1,2,11)           -58.6482         estimate D2E/DX2                !
 ! D4    D(8,1,2,3)             59.9947         estimate D2E/DX2                !
 ! D5    D(8,1,2,10)           -61.6218         estimate D2E/DX2                !
 ! D6    D(8,1,2,11)          -178.3735         estimate D2E/DX2                !
 ! D7    D(9,1,2,3)            -60.5304         estimate D2E/DX2                !
 ! D8    D(9,1,2,10)           177.8531         estimate D2E/DX2                !
 ! D9    D(9,1,2,11)            61.1014         estimate D2E/DX2                !
 ! D10   D(1,2,3,4)            179.637          estimate D2E/DX2                !
 ! D11   D(1,2,3,12)            58.1456         estimate D2E/DX2                !
 ! D12   D(1,2,3,13)           -59.0051         estimate D2E/DX2                !
 ! D13   D(10,2,3,4)           -59.1664         estimate D2E/DX2                !
 ! D14   D(10,2,3,12)          179.3422         estimate D2E/DX2                !
 ! D15   D(10,2,3,13)           62.1915         estimate D2E/DX2                !
 ! D16   D(11,2,3,4)            58.4642         estimate D2E/DX2                !
 ! D17   D(11,2,3,12)          -63.0271         estimate D2E/DX2                !
 ! D18   D(11,2,3,13)          179.8222         estimate D2E/DX2                !
 ! D19   D(2,3,4,5)            179.5664         estimate D2E/DX2                !
 ! D20   D(2,3,4,14)            58.8095         estimate D2E/DX2                !
 ! D21   D(2,3,4,15)           -59.3376         estimate D2E/DX2                !
 ! D22   D(12,3,4,5)           -59.1895         estimate D2E/DX2                !
 ! D23   D(12,3,4,14)         -179.9464         estimate D2E/DX2                !
 ! D24   D(12,3,4,15)           61.9065         estimate D2E/DX2                !
 ! D25   D(13,3,4,5)            58.4022         estimate D2E/DX2                !
 ! D26   D(13,3,4,14)          -62.3547         estimate D2E/DX2                !
 ! D27   D(13,3,4,15)          179.4982         estimate D2E/DX2                !
 ! D28   D(3,4,5,6)            179.9287         estimate D2E/DX2                !
 ! D29   D(3,4,5,16)            59.1712         estimate D2E/DX2                !
 ! D30   D(14,4,5,6)           -59.6778         estimate D2E/DX2                !
 ! D31   D(14,4,5,16)          179.5647         estimate D2E/DX2                !
 ! D32   D(15,4,5,6)            59.2592         estimate D2E/DX2                !
 ! D33   D(15,4,5,16)          -61.4983         estimate D2E/DX2                !
 ! D34   D(4,5,6,17)            62.344          estimate D2E/DX2                !
 ! D35   D(4,5,6,18)           -59.7162         estimate D2E/DX2                !
 ! D36   D(4,5,6,19)          -179.0397         estimate D2E/DX2                !
 ! D37   D(16,5,6,17)         -176.7858         estimate D2E/DX2                !
 ! D38   D(16,5,6,18)           61.154          estimate D2E/DX2                !
 ! D39   D(16,5,6,19)          -58.1695         estimate D2E/DX2                !
 --------------------------------------------------------------------------------
 Trust Radius=3.00D-01 FncErr=1.00D-07 GrdErr=1.00D-06
 Number of steps in this run= 100 maximum allowed number of steps= 114.
 GradGradGradGradGradGradGradGradGradGradGradGradGradGradGradGradGradGrad

 Leave Link  103 at Mon Oct  4 10:33:49 2021, MaxMem=  805306368 cpu:       0.0
 (Enter /sw/target/amd/app/gaussian/Gaussian09RevA.02_gcc-4.9.2/g09/l202.exe)
                          Input orientation:                          
 ---------------------------------------------------------------------
 Center     Atomic      Atomic             Coordinates (Angstroms)
 Number     Number       Type             X           Y           Z
 ---------------------------------------------------------------------
      1          6           0        0.912846    0.037105    0.022336
      2          6           0        2.431681   -0.025290    0.053671
      3          6           0        2.986148   -0.903372   -1.068975
      4          6           0        4.515561   -0.947296   -1.027402
      5          7           0        5.019838   -1.800750   -2.103567
      6          6           0        6.475990   -1.856757   -2.085192
      7          1           0        0.543037    0.666592    0.837571
      8          1           0        0.476759   -0.960326    0.138475
      9          1           0        0.556619    0.460417   -0.922757
     10          1           0        2.754355   -0.416747    1.025315
     11          1           0        2.833628    0.991183   -0.035696
     12          1           0        2.650159   -0.513409   -2.038014
     13          1           0        2.582533   -1.919338   -0.971637
     14          1           0        4.840885   -1.338792   -0.056638
     15          1           0        4.912889    0.069553   -1.134096
     16          1           0        4.707650   -1.435089   -3.002819
     17          1           0        6.842315   -2.298780   -1.153115
     18          1           0        6.918517   -0.863275   -2.209477
     19          1           0        6.827403   -2.486231   -2.908564
 ---------------------------------------------------------------------
                    Distance matrix (angstroms):
                    1          2          3          4          5
     1  C    0.000000
     2  C    1.520439   0.000000
     3  C    2.524686   1.529312   0.000000
     4  C    3.879504   2.522175   1.530608   0.000000
     5  N    4.976400   3.808476   2.451849   1.463151   0.000000
     6  C    6.243154   4.928027   3.757744   2.406102   1.457344
     7  H    1.094359   2.158744   3.473974   4.675864   5.897442
     8  H    1.094773   2.168687   2.785357   4.203731   5.135429
     9  H    1.095122   2.169143   2.789966   4.203074   5.140770
    10  H    2.145484   1.096106   2.162541   2.756261   4.103387
    11  H    2.145469   1.096707   2.163392   2.751377   4.104935
    12  H    2.750703   2.158967   1.097268   2.165484   2.697578
    13  H    2.757446   2.159034   1.097527   2.164387   2.689941
    14  H    4.162790   2.746219   2.157422   1.096124   2.106027
    15  H    4.163980   2.752486   2.159434   1.096920   2.109347
    16  H    5.071435   4.063213   2.643113   2.043799   1.019717
    17  H    6.480482   5.106739   4.101740   2.693715   2.114903
    18  H    6.469912   5.094679   4.094616   2.679283   2.120155
    19  H    7.066780   5.844094   4.543651   3.354356   2.094085
                    6          7          8          9         10
     6  C    0.000000
     7  H    7.078826   0.000000
     8  H    6.460577   1.772002   0.000000
     9  H    6.462160   1.772413   1.775134   0.000000
    10  H    5.059591   2.469574   2.503877   3.065036   0.000000
    11  H    5.057470   2.472805   3.064890   2.500672   1.764737
    12  H    4.055095   3.755178   3.108136   2.564185   3.066625
    13  H    4.050053   3.757634   2.566386   3.125692   2.505019
    14  H    2.656481   4.826249   4.384849   4.726760   2.524757
    15  H    2.656792   4.831101   4.728566   4.378873   3.091733
    16  H    2.036386   6.042323   5.290895   5.015044   4.591105
    17  H    1.094690   7.241352   6.631740   6.868494   4.999903
    18  H    1.094661   7.229920   6.857007   6.624316   5.291835
    19  H    1.094380   7.966622   7.207184   7.207558   6.028921
                   11         12         13         14         15
    11  H    0.000000
    12  H    2.511321   0.000000
    13  H    3.067599   1.765891   0.000000
    14  H    3.075435   3.066984   2.504878   0.000000
    15  H    2.525709   2.505366   3.068002   1.774693   0.000000
    16  H    4.266447   2.452267   2.979315   2.950764   2.407944
    17  H    5.304908   4.641635   4.280497   2.475795   3.054840
    18  H    4.985043   4.286104   4.631228   3.029420   2.459504
    19  H    6.024617   4.700983   4.700210   3.660103   3.653235
                   16         17         18         19
    16  H    0.000000
    17  H    2.953669   0.000000
    18  H    2.417498   1.783923   0.000000
    19  H    2.367938   1.765492   1.769466   0.000000
 Stoichiometry    C5H13N
 Framework group  C1[X(C5H13N)]
 Deg. of freedom    51
 Full point group                 C1      NOp   1
 Largest Abelian subgroup         C1      NOp   1
 Largest concise Abelian subgroup C1      NOp   1
                         Standard orientation:                         
 ---------------------------------------------------------------------
 Center     Atomic      Atomic             Coordinates (Angstroms)
 Number     Number       Type             X           Y           Z
 ---------------------------------------------------------------------
      1          6           0        3.144193   -0.208514   -0.016061
      2          6           0        1.825514    0.545895    0.044659
      3          6           0        0.626964   -0.399066   -0.051884
      4          6           0       -0.690824    0.376206    0.019875
      5          7           0       -1.820123   -0.548196   -0.084887
      6          6           0       -3.087603    0.167887   -0.017262
      7          1           0        3.983544    0.490593    0.049982
      8          1           0        3.236371   -0.762393   -0.955875
      9          1           0        3.228092   -0.919981    0.812231
     10          1           0        1.791247    1.274234   -0.773753
     11          1           0        1.779337    1.111073    0.983385
     12          1           0        0.673225   -1.132712    0.762746
     13          1           0        0.677807   -0.958840   -0.994558
     14          1           0       -0.727729    1.105185   -0.797875
     15          1           0       -0.739545    0.926153    0.967725
     16          1           0       -1.775606   -1.227596    0.674230
     17          1           0       -3.191372    0.866599   -0.853551
     18          1           0       -3.189764    0.717145    0.924100
     19          1           0       -3.914203   -0.546533   -0.080547
 ---------------------------------------------------------------------
 Rotational constants (GHZ):     15.4322852      1.1947865      1.1520492
 Leave Link  202 at Mon Oct  4 10:33:50 2021, MaxMem=  805306368 cpu:       0.0
 (Enter /sw/target/amd/app/gaussian/Gaussian09RevA.02_gcc-4.9.2/g09/l301.exe)
 Standard basis: 6-31G(d) (6D, 7F)
 Ernie: Thresh=  0.10000D-02 Tol=  0.10000D-05 Strict=F.
 There are   116 symmetry adapted basis functions of A   symmetry.
 Integral buffers will be    131072 words long.
 Raffenetti 2 integral format.
 Two-electron integral symmetry is turned on.
   116 basis functions,   220 primitive gaussians,   116 cartesian basis functions
    25 alpha electrons       25 beta electrons
       nuclear repulsion energy       247.9218003852 Hartrees.
 IExCor=  402 DFT=T Ex+Corr=B3LYP ExCW=0 ScaHFX=  0.200000
 ScaDFX=  0.800000  0.720000  1.000000  0.810000 ScalE2=  1.000000  1.000000
 IRadAn=      0 IRanWt=     -1 IRanGd=            0 ICorTp=0
 NAtoms=   19 NActive=   19 NUniq=   19 SFac= 7.50D-01 NAtFMM=   80 NAOKFM=F Big=F
 Leave Link  301 at Mon Oct  4 10:33:50 2021, MaxMem=  805306368 cpu:       0.1
 (Enter /sw/target/amd/app/gaussian/Gaussian09RevA.02_gcc-4.9.2/g09/l302.exe)
 NPDir=0 NMtPBC=     1 NCelOv=     1 NCel=       1 NClECP=     1 NCelD=      1
         NCelK=      1 NCelE2=     1 NClLst=     1 CellRange=     0.0.
 One-electron integrals computed using PRISM.
 NBasis=   116 RedAO= T  NBF=   116
 NBsUse=   116 1.00D-06 NBFU=   116
 Precomputing XC quadrature grid using
 IXCGrd= 2 IRadAn=           0 IRanWt=          -1 IRanGd=           0 AccXCQ= 1.00D-10.
 NRdTot=    1196 NPtTot=      151248 NUsed=      159880 NTot=      159912
 NSgBfM=   116   116   116   116   116 NAtAll=    19    19.
 Leave Link  302 at Mon Oct  4 10:33:54 2021, MaxMem=  805306368 cpu:       1.1
 (Enter /sw/target/amd/app/gaussian/Gaussian09RevA.02_gcc-4.9.2/g09/l303.exe)
 DipDrv:  MaxL=1.
 Leave Link  303 at Mon Oct  4 10:33:54 2021, MaxMem=  805306368 cpu:       0.1
 (Enter /sw/target/amd/app/gaussian/Gaussian09RevA.02_gcc-4.9.2/g09/l401.exe)
 Harris functional with IExCor=  402 diagonalized for initial guess.
 ExpMin= 1.61D-01 ExpMax= 4.17D+03 ExpMxC= 6.27D+02 IAcc=1 IRadAn=         1 AccDes= 0.00D+00
 HarFok:  IExCor=  402 AccDes= 0.00D+00 IRadAn=         1 IDoV= 1
 ScaDFX=  1.000000  1.000000  1.000000  1.000000
 FoFCou: FMM=F IPFlag=           0 FMFlag=      100000 FMFlg1=           0
         NFxFlg=           0 DoJE=T BraDBF=F KetDBF=T FulRan=T
         Omega=  0.000000  0.000000  1.000000  0.000000  0.000000 ICntrl=     500 IOpCl=  0
         NMat0=    1 NMatS0=    1 NMatT0=    0 NMatD0=    1 NMtDS0=    0 NMtDT0=    0
         I1Cent=           4 NGrid=           0.
 Petite list used in FoFCou.
 Harris En= -253.193528380616    
 Initial guess orbital symmetries:
       Occupied  (A) (A) (A) (A) (A) (A) (A) (A) (A) (A) (A) (A)
                 (A) (A) (A) (A) (A) (A) (A) (A) (A) (A) (A) (A)
                 (A)
       Virtual   (A) (A) (A) (A) (A) (A) (A) (A) (A) (A) (A) (A)
                 (A) (A) (A) (A) (A) (A) (A) (A) (A) (A) (A) (A)
                 (A) (A) (A) (A) (A) (A) (A) (A) (A) (A) (A) (A)
                 (A) (A) (A) (A) (A) (A) (A) (A) (A) (A) (A) (A)
                 (A) (A) (A) (A) (A) (A) (A) (A) (A) (A) (A) (A)
                 (A) (A) (A) (A) (A) (A) (A) (A) (A) (A) (A) (A)
                 (A) (A) (A) (A) (A) (A) (A) (A) (A) (A) (A) (A)
                 (A) (A) (A) (A) (A) (A) (A)
 The electronic state of the initial guess is 1-A.
 Leave Link  401 at Mon Oct  4 10:34:03 2021, MaxMem=  805306368 cpu:       4.2
 (Enter /sw/target/amd/app/gaussian/Gaussian09RevA.02_gcc-4.9.2/g09/l502.exe)
 Closed shell SCF:
 Requested convergence on RMS density matrix=1.00D-08 within  64 cycles.
 Requested convergence on MAX density matrix=1.00D-06.
 Requested convergence on             energy=1.00D-06.
 No special actions if energy rises.
 Using DIIS extrapolation, IDIIS=  1040.
 Integral symmetry usage will be decided dynamically.
       159696 words used for storage of precomputed grid.
 Keep R1 ints in memory in canonical form, NReq=24174567.
 IEnd=      207198 IEndB=      207198 NGot=   805306368 MDV=   782088648
 LenX=   782088648 LenY=   782074751
 Symmetry not used in FoFDir.
 MinBra= 0 MaxBra= 2 Meth= 1.
 IRaf=       0 NMat=   1 IRICut=       1 DoRegI=T DoRafI=F ISym2E= 0 JSym2E=0.
 Integral accuracy reduced to 1.0D-05 until final iterations.

 Cycle   1  Pass 0  IDiag  1:
 E= -252.841224388383    
 DIIS: error= 5.44D-02 at cycle   1 NSaved=   1.
 NSaved= 1 IEnMin= 1 EnMin= -252.841224388383     IErMin= 1 ErrMin= 5.44D-02
 ErrMax= 5.44D-02 EMaxC= 1.00D-01 BMatC= 2.36D-01 BMatP= 2.36D-01
 IDIUse=3 WtCom= 4.56D-01 WtEn= 5.44D-01
 Coeff-Com:  0.100D+01
 Coeff-En:   0.100D+01
 Coeff:      0.100D+01
 Gap=     0.251 Goal=   None    Shift=    0.000
 GapD=    0.251 DampG=1.000 DampE=0.500 DampFc=0.5000 IDamp=-1.
 Damping current iteration by 5.00D-01
 RMSDP=1.02D-02 MaxDP=1.70D-01              OVMax= 1.81D-01

 Cycle   2  Pass 0  IDiag  1:
 E= -252.958020747979     Delta-E=       -0.116796359596 Rises=F Damp=T
 DIIS: error= 7.87D-03 at cycle   2 NSaved=   2.
 NSaved= 2 IEnMin= 2 EnMin= -252.958020747979     IErMin= 2 ErrMin= 7.87D-03
 ErrMax= 7.87D-03 EMaxC= 1.00D-01 BMatC= 9.34D-03 BMatP= 2.36D-01
 IDIUse=3 WtCom= 9.21D-01 WtEn= 7.87D-02
 Coeff-Com:  0.826D-01 0.917D+00
 Coeff-En:   0.129D+00 0.871D+00
 Coeff:      0.862D-01 0.914D+00
 Gap=     0.305 Goal=   None    Shift=    0.000
 RMSDP=1.55D-03 MaxDP=2.37D-02 DE=-1.17D-01 OVMax= 1.11D-01

 Cycle   3  Pass 0  IDiag  1:
 E= -253.103228675480     Delta-E=       -0.145207927501 Rises=F Damp=F
 DIIS: error= 2.85D-03 at cycle   3 NSaved=   3.
 NSaved= 3 IEnMin= 3 EnMin= -253.103228675480     IErMin= 3 ErrMin= 2.85D-03
 ErrMax= 2.85D-03 EMaxC= 1.00D-01 BMatC= 1.51D-03 BMatP= 9.34D-03
 IDIUse=3 WtCom= 9.71D-01 WtEn= 2.85D-02
 Coeff-Com:  0.904D-02 0.233D+00 0.758D+00
 Coeff-En:   0.000D+00 0.000D+00 0.100D+01
 Coeff:      0.878D-02 0.226D+00 0.765D+00
 Gap=     0.293 Goal=   None    Shift=    0.000
 RMSDP=5.01D-04 MaxDP=1.29D-02 DE=-1.45D-01 OVMax= 1.36D-02

 Cycle   4  Pass 0  IDiag  1:
 E= -253.103816776739     Delta-E=       -0.000588101258 Rises=F Damp=F
 DIIS: error= 1.89D-03 at cycle   4 NSaved=   4.
 NSaved= 4 IEnMin= 4 EnMin= -253.103816776739     IErMin= 4 ErrMin= 1.89D-03
 ErrMax= 1.89D-03 EMaxC= 1.00D-01 BMatC= 8.70D-04 BMatP= 1.51D-03
 IDIUse=3 WtCom= 9.81D-01 WtEn= 1.89D-02
 Coeff-Com: -0.641D-03 0.412D-01 0.433D+00 0.526D+00
 Coeff-En:   0.000D+00 0.000D+00 0.361D+00 0.639D+00
 Coeff:     -0.629D-03 0.404D-01 0.432D+00 0.528D+00
 Gap=     0.300 Goal=   None    Shift=    0.000
 RMSDP=2.26D-04 MaxDP=6.49D-03 DE=-5.88D-04 OVMax= 6.71D-03

 Cycle   5  Pass 0  IDiag  1:
 E= -253.104525822047     Delta-E=       -0.000709045308 Rises=F Damp=F
 DIIS: error= 2.98D-04 at cycle   5 NSaved=   5.
 NSaved= 5 IEnMin= 5 EnMin= -253.104525822047     IErMin= 5 ErrMin= 2.98D-04
 ErrMax= 2.98D-04 EMaxC= 1.00D-01 BMatC= 1.35D-05 BMatP= 8.70D-04
 IDIUse=3 WtCom= 9.97D-01 WtEn= 2.98D-03
 Coeff-Com: -0.322D-04 0.173D-03 0.106D+00 0.184D+00 0.709D+00
 Coeff-En:   0.000D+00 0.000D+00 0.000D+00 0.000D+00 0.100D+01
 Coeff:     -0.321D-04 0.172D-03 0.106D+00 0.184D+00 0.710D+00
 Gap=     0.299 Goal=   None    Shift=    0.000
 RMSDP=3.67D-05 MaxDP=6.05D-04 DE=-7.09D-04 OVMax= 7.76D-04

 Cycle   6  Pass 0  IDiag  1:
 E= -253.104536819206     Delta-E=       -0.000010997160 Rises=F Damp=F
 DIIS: error= 7.55D-05 at cycle   6 NSaved=   6.
 NSaved= 6 IEnMin= 6 EnMin= -253.104536819206     IErMin= 6 ErrMin= 7.55D-05
 ErrMax= 7.55D-05 EMaxC= 1.00D-01 BMatC= 1.08D-06 BMatP= 1.35D-05
 IDIUse=1 WtCom= 1.00D+00 WtEn= 0.00D+00
 Coeff-Com:  0.800D-04-0.120D-02 0.414D-01 0.777D-01 0.354D+00 0.528D+00
 Coeff:      0.800D-04-0.120D-02 0.414D-01 0.777D-01 0.354D+00 0.528D+00
 Gap=     0.299 Goal=   None    Shift=    0.000
 RMSDP=9.45D-06 MaxDP=2.06D-04 DE=-1.10D-05 OVMax= 2.07D-04

 Initial convergence to 1.0D-05 achieved.  Increase integral accuracy.
 Cycle   7  Pass 1  IDiag  1:
 E= -253.104539708537     Delta-E=       -0.000002889331 Rises=F Damp=F
 DIIS: error= 1.23D-05 at cycle   1 NSaved=   1.
 NSaved= 1 IEnMin= 1 EnMin= -253.104539708537     IErMin= 1 ErrMin= 1.23D-05
 ErrMax= 1.23D-05 EMaxC= 1.00D-01 BMatC= 4.82D-08 BMatP= 4.82D-08
 IDIUse=1 WtCom= 1.00D+00 WtEn= 0.00D+00
 Coeff-Com:  0.100D+01
 Coeff:      0.100D+01
 Gap=     0.299 Goal=   None    Shift=    0.000
 RMSDP=9.45D-06 MaxDP=2.06D-04 DE=-2.89D-06 OVMax= 7.68D-05

 Cycle   8  Pass 1  IDiag  1:
 E= -253.104539726993     Delta-E=       -0.000000018456 Rises=F Damp=F
 DIIS: error= 1.79D-05 at cycle   2 NSaved=   2.
 NSaved= 2 IEnMin= 2 EnMin= -253.104539726993     IErMin= 1 ErrMin= 1.23D-05
 ErrMax= 1.79D-05 EMaxC= 1.00D-01 BMatC= 3.74D-08 BMatP= 4.82D-08
 IDIUse=1 WtCom= 1.00D+00 WtEn= 0.00D+00
 Coeff-Com:  0.463D+00 0.537D+00
 Coeff:      0.463D+00 0.537D+00
 Gap=     0.299 Goal=   None    Shift=    0.000
 RMSDP=1.97D-06 MaxDP=4.12D-05 DE=-1.85D-08 OVMax= 4.31D-05

 Cycle   9  Pass 1  IDiag  1:
 E= -253.104539762284     Delta-E=       -0.000000035291 Rises=F Damp=F
 DIIS: error= 4.06D-06 at cycle   3 NSaved=   3.
 NSaved= 3 IEnMin= 3 EnMin= -253.104539762284     IErMin= 3 ErrMin= 4.06D-06
 ErrMax= 4.06D-06 EMaxC= 1.00D-01 BMatC= 2.00D-09 BMatP= 3.74D-08
 IDIUse=1 WtCom= 1.00D+00 WtEn= 0.00D+00
 Coeff-Com:  0.235D-01 0.189D+00 0.787D+00
 Coeff:      0.235D-01 0.189D+00 0.787D+00
 Gap=     0.299 Goal=   None    Shift=    0.000
 RMSDP=4.57D-07 MaxDP=7.71D-06 DE=-3.53D-08 OVMax= 9.74D-06

 Cycle  10  Pass 1  IDiag  1:
 E= -253.104539764149     Delta-E=       -0.000000001865 Rises=F Damp=F
 DIIS: error= 9.90D-07 at cycle   4 NSaved=   4.
 NSaved= 4 IEnMin= 4 EnMin= -253.104539764149     IErMin= 4 ErrMin= 9.90D-07
 ErrMax= 9.90D-07 EMaxC= 1.00D-01 BMatC= 1.39D-10 BMatP= 2.00D-09
 IDIUse=1 WtCom= 1.00D+00 WtEn= 0.00D+00
 Coeff-Com: -0.765D-02 0.607D-01 0.341D+00 0.606D+00
 Coeff:     -0.765D-02 0.607D-01 0.341D+00 0.606D+00
 Gap=     0.299 Goal=   None    Shift=    0.000
 RMSDP=1.28D-07 MaxDP=3.06D-06 DE=-1.87D-09 OVMax= 3.68D-06

 Cycle  11  Pass 1  IDiag  1:
 E= -253.104539764256     Delta-E=       -0.000000000107 Rises=F Damp=F
 DIIS: error= 2.72D-07 at cycle   5 NSaved=   5.
 NSaved= 5 IEnMin= 5 EnMin= -253.104539764256     IErMin= 5 ErrMin= 2.72D-07
 ErrMax= 2.72D-07 EMaxC= 1.00D-01 BMatC= 1.72D-11 BMatP= 1.39D-10
 IDIUse=1 WtCom= 1.00D+00 WtEn= 0.00D+00
 Coeff-Com: -0.574D-02 0.239D-01 0.151D+00 0.341D+00 0.490D+00
 Coeff:     -0.574D-02 0.239D-01 0.151D+00 0.341D+00 0.490D+00
 Gap=     0.299 Goal=   None    Shift=    0.000
 RMSDP=3.10D-08 MaxDP=9.12D-07 DE=-1.07D-10 OVMax= 8.70D-07

 Cycle  12  Pass 1  IDiag  1:
 E= -253.104539764268     Delta-E=       -0.000000000012 Rises=F Damp=F
 DIIS: error= 1.35D-08 at cycle   6 NSaved=   6.
 NSaved= 6 IEnMin= 6 EnMin= -253.104539764268     IErMin= 6 ErrMin= 1.35D-08
 ErrMax= 1.35D-08 EMaxC= 1.00D-01 BMatC= 5.61D-14 BMatP= 1.72D-11
 IDIUse=1 WtCom= 1.00D+00 WtEn= 0.00D+00
 Coeff-Com: -0.700D-03 0.183D-02 0.133D-01 0.361D-01 0.811D-01 0.868D+00
 Coeff:     -0.700D-03 0.183D-02 0.133D-01 0.361D-01 0.811D-01 0.868D+00
 Gap=     0.299 Goal=   None    Shift=    0.000
 RMSDP=3.66D-09 MaxDP=5.80D-08 DE=-1.19D-11 OVMax= 8.94D-08

 SCF Done:  E(RB3LYP) =  -253.104539764     A.U. after   12 cycles
             Convg  =    0.3663D-08             -V/T =  2.0097
 KE= 2.506671891672D+02 PE=-1.081402779107D+03 EE= 3.297092497906D+02
 Leave Link  502 at Mon Oct  4 10:35:30 2021, MaxMem=  805306368 cpu:      43.1
 (Enter /sw/target/amd/app/gaussian/Gaussian09RevA.02_gcc-4.9.2/g09/l508.exe)
 QCSCF skips out because SCF is already converged.
 Leave Link  508 at Mon Oct  4 10:35:31 2021, MaxMem=  805306368 cpu:       0.0
 (Enter /sw/target/amd/app/gaussian/Gaussian09RevA.02_gcc-4.9.2/g09/l601.exe)
 Copying SCF densities to generalized density rwf, IOpCl= 0 IROHF=0.

 **********************************************************************

            Population analysis using the SCF density.

 **********************************************************************

 Orbital symmetries:
       Occupied  (A) (A) (A) (A) (A) (A) (A) (A) (A) (A) (A) (A)
                 (A) (A) (A) (A) (A) (A) (A) (A) (A) (A) (A) (A)
                 (A)
       Virtual   (A) (A) (A) (A) (A) (A) (A) (A) (A) (A) (A) (A)
                 (A) (A) (A) (A) (A) (A) (A) (A) (A) (A) (A) (A)
                 (A) (A) (A) (A) (A) (A) (A) (A) (A) (A) (A) (A)
                 (A) (A) (A) (A) (A) (A) (A) (A) (A) (A) (A) (A)
                 (A) (A) (A) (A) (A) (A) (A) (A) (A) (A) (A) (A)
                 (A) (A) (A) (A) (A) (A) (A) (A) (A) (A) (A) (A)
                 (A) (A) (A) (A) (A) (A) (A) (A) (A) (A) (A) (A)
                 (A) (A) (A) (A) (A) (A) (A)
 The electronic state is 1-A.
 Alpha  occ. eigenvalues --  -14.30809 -10.19705 -10.19362 -10.17563 -10.17283
 Alpha  occ. eigenvalues --  -10.16880  -0.89314  -0.78696  -0.71575  -0.65177
 Alpha  occ. eigenvalues --   -0.60598  -0.57660  -0.48501  -0.46006  -0.43678
 Alpha  occ. eigenvalues --   -0.43343  -0.40184  -0.39769  -0.37728  -0.36272
 Alpha  occ. eigenvalues --   -0.34922  -0.33190  -0.32405  -0.31192  -0.21180
 Alpha virt. eigenvalues --    0.08712   0.09798   0.11871   0.13679   0.14077
 Alpha virt. eigenvalues --    0.15752   0.16662   0.17633   0.18050   0.19248
 Alpha virt. eigenvalues --    0.19679   0.20677   0.21215   0.23076   0.24046
 Alpha virt. eigenvalues --    0.25861   0.27335   0.30700   0.50014   0.51234
 Alpha virt. eigenvalues --    0.52953   0.55792   0.57536   0.58773   0.59631
 Alpha virt. eigenvalues --    0.61472   0.63875   0.68269   0.69499   0.72208
 Alpha virt. eigenvalues --    0.76345   0.80088   0.80821   0.81521   0.82916
 Alpha virt. eigenvalues --    0.86303   0.86839   0.90019   0.91483   0.91932
 Alpha virt. eigenvalues --    0.92924   0.94568   0.95046   0.96744   0.97384
 Alpha virt. eigenvalues --    0.98118   0.99201   0.99881   1.08908   1.15629
 Alpha virt. eigenvalues --    1.30204   1.38133   1.42337   1.42629   1.44960
 Alpha virt. eigenvalues --    1.51196   1.53156   1.67991   1.73651   1.80298
 Alpha virt. eigenvalues --    1.87086   1.91132   1.91700   1.95875   1.97540
 Alpha virt. eigenvalues --    2.00139   2.02783   2.05604   2.07417   2.10660
 Alpha virt. eigenvalues --    2.11600   2.22398   2.24434   2.25823   2.32868
 Alpha virt. eigenvalues --    2.35149   2.35864   2.43622   2.46692   2.51424
 Alpha virt. eigenvalues --    2.57348   2.63776   2.65440   2.82301   2.88482
 Alpha virt. eigenvalues --    3.91711   4.15871   4.26121   4.27997   4.39040
 Alpha virt. eigenvalues --    4.54288
          Condensed to atoms (all electrons):
              1          2          3          4          5          6
     1  C    5.063558   0.374893  -0.046084   0.003882  -0.000086   0.000002
     2  C    0.374893   4.963673   0.372693  -0.039031   0.003546  -0.000179
     3  C   -0.046084   0.372693   5.010310   0.384647  -0.048481   0.005373
     4  C    0.003882  -0.039031   0.384647   4.892440   0.319538  -0.055109
     5  N   -0.000086   0.003546  -0.048481   0.319538   6.863948   0.321909
     6  C    0.000002  -0.000179   0.005373  -0.055109   0.321909   4.952740
     7  H    0.371268  -0.029883   0.004542  -0.000153   0.000001  -0.000000
     8  H    0.378749  -0.035621  -0.004528   0.000053  -0.000002   0.000000
     9  H    0.378516  -0.035299  -0.005243   0.000048   0.000000   0.000000
    10  H   -0.039547   0.379111  -0.039675  -0.004266   0.000026   0.000001
    11  H   -0.039695   0.377107  -0.039729  -0.003769   0.000002  -0.000000
    12  H   -0.003379  -0.039719   0.372758  -0.038066  -0.003539   0.000035
    13  H   -0.003298  -0.036015   0.369456  -0.034867   0.004574   0.000037
    14  H   -0.000022  -0.004893  -0.029006   0.374455  -0.042024  -0.003684
    15  H   -0.000009   0.000686  -0.048941   0.358766  -0.057388  -0.004684
    16  H    0.000000  -0.000185  -0.003564  -0.039796   0.307271  -0.040442
    17  H    0.000000  -0.000008   0.000140  -0.004387  -0.038959   0.383908
    18  H    0.000000   0.000031  -0.000072  -0.007555  -0.053431   0.360572
    19  H   -0.000000   0.000002  -0.000241   0.005658  -0.034418   0.378342
              7          8          9         10         11         12
     1  C    0.371268   0.378749   0.378516  -0.039547  -0.039695  -0.003379
     2  C   -0.029883  -0.035621  -0.035299   0.379111   0.377107  -0.039719
     3  C    0.004542  -0.004528  -0.005243  -0.039675  -0.039729   0.372758
     4  C   -0.000153   0.000053   0.000048  -0.004266  -0.003769  -0.038066
     5  N    0.000001  -0.000002   0.000000   0.000026   0.000002  -0.003539
     6  C   -0.000000   0.000000   0.000000   0.000001  -0.000000   0.000035
     7  H    0.582186  -0.030864  -0.030794  -0.002947  -0.002924  -0.000025
     8  H   -0.030864   0.576619  -0.032121  -0.004741   0.005525  -0.000417
     9  H   -0.030794  -0.032121   0.579399   0.005488  -0.004817   0.005109
    10  H   -0.002947  -0.004741   0.005488   0.608790  -0.039222   0.005948
    11  H   -0.002924   0.005525  -0.004817  -0.039222   0.612056  -0.005406
    12  H   -0.000025  -0.000417   0.005109   0.005948  -0.005406   0.620201
    13  H   -0.000014   0.004894  -0.000381  -0.005487   0.005788  -0.039745
    14  H    0.000002   0.000009   0.000006   0.005100  -0.000513   0.005724
    15  H    0.000007   0.000002   0.000010  -0.000488   0.005474  -0.006967
    16  H    0.000000   0.000001  -0.000002   0.000012   0.000002   0.005909
    17  H   -0.000000   0.000000  -0.000000  -0.000003   0.000000   0.000007
    18  H    0.000000  -0.000000   0.000000   0.000001  -0.000001  -0.000034
    19  H    0.000000   0.000000   0.000000   0.000000   0.000000   0.000008
             13         14         15         16         17         18
     1  C   -0.003298  -0.000022  -0.000009   0.000000   0.000000   0.000000
     2  C   -0.036015  -0.004893   0.000686  -0.000185  -0.000008   0.000031
     3  C    0.369456  -0.029006  -0.048941  -0.003564   0.000140  -0.000072
     4  C   -0.034867   0.374455   0.358766  -0.039796  -0.004387  -0.007555
     5  N    0.004574  -0.042024  -0.057388   0.307271  -0.038959  -0.053431
     6  C    0.000037  -0.003684  -0.004684  -0.040442   0.383908   0.360572
     7  H   -0.000014   0.000002   0.000007   0.000000  -0.000000   0.000000
     8  H    0.004894   0.000009   0.000002   0.000001   0.000000  -0.000000
     9  H   -0.000381   0.000006   0.000010  -0.000002  -0.000000   0.000000
    10  H   -0.005487   0.005100  -0.000488   0.000012  -0.000003   0.000001
    11  H    0.005788  -0.000513   0.005474   0.000002   0.000000  -0.000001
    12  H   -0.039745   0.005724  -0.006967   0.005909   0.000007  -0.000034
    13  H    0.591327  -0.006865   0.006692  -0.000718  -0.000027   0.000038
    14  H   -0.006865   0.606482  -0.053694   0.006841   0.006947  -0.002264
    15  H    0.006692  -0.053694   0.686686  -0.006079  -0.001954   0.015232
    16  H   -0.000718   0.006841  -0.006079   0.482739   0.006096  -0.005395
    17  H   -0.000027   0.006947  -0.001954   0.006096   0.569874  -0.045251
    18  H    0.000038  -0.002264   0.015232  -0.005395  -0.045251   0.660886
    19  H   -0.000002   0.000117  -0.000300  -0.002758  -0.026985  -0.040610
             19
     1  C   -0.000000
     2  C    0.000002
     3  C   -0.000241
     4  C    0.005658
     5  N   -0.034418
     6  C    0.378342
     7  H    0.000000
     8  H    0.000000
     9  H    0.000000
    10  H    0.000000
    11  H    0.000000
    12  H    0.000008
    13  H   -0.000002
    14  H    0.000117
    15  H   -0.000300
    16  H   -0.002758
    17  H   -0.026985
    18  H   -0.040610
    19  H    0.576496
 Mulliken atomic charges:
              1
     1  C   -0.438747
     2  C   -0.250908
     3  C   -0.254351
     4  C   -0.112488
     5  N   -0.542485
     6  C   -0.298818
     7  H    0.139599
     8  H    0.142441
     9  H    0.140081
    10  H    0.131899
    11  H    0.130121
    12  H    0.121596
    13  H    0.144615
    14  H    0.137282
    15  H    0.106949
    16  H    0.290066
    17  H    0.150603
    18  H    0.117853
    19  H    0.144692
 Sum of Mulliken atomic charges =  -0.00000
 Mulliken charges with hydrogens summed into heavy atoms:
              1
     1  C   -0.016626
     2  C    0.011113
     3  C    0.011860
     4  C    0.131744
     5  N   -0.252419
     6  C    0.114329
 Sum of Mulliken charges with hydrogens summed into heavy atoms =  -0.00000
 Electronic spatial extent (au):  <R**2>=           1073.1786
 Charge=              0.0000 electrons
 Dipole moment (field-independent basis, Debye):
    X=              0.0013    Y=              0.3388    Z=              0.9273  Tot=              0.9872
 Quadrupole moment (field-independent basis, Debye-Ang):
   XX=            -40.1990   YY=            -40.6511   ZZ=            -40.2823
   XY=             -0.2141   XZ=             -1.7432   YZ=             -2.1647
 Traceless Quadrupole moment (field-independent basis, Debye-Ang):
   XX=              0.1785   YY=             -0.2737   ZZ=              0.0952
   XY=             -0.2141   XZ=             -1.7432   YZ=             -2.1647
 Octapole moment (field-independent basis, Debye-Ang**2):
  XXX=            -13.0635  YYY=             -2.2073  ZZZ=              0.4618  XYY=             -1.5907
  XXY=              0.4218  XXZ=              2.0307  XZZ=             -0.2811  YZZ=             -0.3624
  YYZ=              1.5076  XYZ=              3.8322
 Hexadecapole moment (field-independent basis, Debye-Ang**3):
 XXXX=          -1253.4611 YYYY=           -127.1826 ZZZZ=            -78.2383 XXXY=             15.7980
 XXXZ=             -0.0797 YYYX=              4.9213 YYYZ=             -4.8329 ZZZX=             -1.7897
 ZZZY=             -2.0726 XXYY=           -228.9713 XXZZ=           -223.3734 YYZZ=            -31.9150
 XXYZ=             -7.7648 YYXZ=             -2.6042 ZZXY=             -1.4545
 N-N= 2.479218003852D+02 E-N=-1.081402780880D+03  KE= 2.506671891672D+02
 No NMR shielding tensors so no spin-rotation constants.
 Leave Link  601 at Mon Oct  4 10:35:33 2021, MaxMem=  805306368 cpu:       0.8
 (Enter /sw/target/amd/app/gaussian/Gaussian09RevA.02_gcc-4.9.2/g09/l701.exe)
 Compute integral first derivatives.
 ... and contract with generalized density number  0.
 Leave Link  701 at Mon Oct  4 10:35:35 2021, MaxMem=  805306368 cpu:       0.7
 (Enter /sw/target/amd/app/gaussian/Gaussian09RevA.02_gcc-4.9.2/g09/l702.exe)
 L702 exits ... SP integral derivatives will be done elsewhere.
 Leave Link  702 at Mon Oct  4 10:35:35 2021, MaxMem=  805306368 cpu:       0.1
 (Enter /sw/target/amd/app/gaussian/Gaussian09RevA.02_gcc-4.9.2/g09/l703.exe)
 Compute integral first derivatives, UseDBF=F ICtDFT=           0.
 Integral derivatives from FoFDir, PRISM(SPDF).
 Calling FoFJK, ICntrl=      2127 FMM=F ISym2X=0 I1Cent= 0 IOpClX= 0 NMat=1 NMatS=1 NMatT=0.
 FoFCou: FMM=F IPFlag=           0 FMFlag=      100000 FMFlg1=         800
         NFxFlg=           0 DoJE=F BraDBF=F KetDBF=F FulRan=T
         Omega=  0.000000  0.000000  1.000000  0.000000  0.000000 ICntrl=    2127 IOpCl=  0
         NMat0=    1 NMatS0=    1 NMatT0=    0 NMatD0=    1 NMtDS0=    0 NMtDT0=    0
         I1Cent=           0 NGrid=           0.
 Symmetry not used in FoFCou.
 Leave Link  703 at Mon Oct  4 10:36:06 2021, MaxMem=  805306368 cpu:      15.5
 (Enter /sw/target/amd/app/gaussian/Gaussian09RevA.02_gcc-4.9.2/g09/l716.exe)
 Dipole        = 5.17899758D-04 1.33277015D-01 3.64823165D-01
 ***** Axes restored to original set *****
 -------------------------------------------------------------------
 Center     Atomic                   Forces (Hartrees/Bohr)
 Number     Number              X              Y              Z
 -------------------------------------------------------------------
      1        6          -0.003066147    0.002911472    0.003680802
      2        6          -0.003489123   -0.000876366   -0.003987557
      3        6           0.005239046    0.003026067    0.008904753
      4        6          -0.010747991   -0.005299757   -0.016062759
      5        7           0.003997185   -0.009044527    0.010790725
      6        6          -0.003387636   -0.002394889   -0.010154652
      7        1          -0.003174204    0.000431648    0.000254267
      8        1          -0.001528352   -0.000676792   -0.000353145
      9        1          -0.001448667   -0.000079490   -0.000682500
     10        1           0.002173587   -0.000060622    0.001118322
     11        1           0.002009680    0.000835021    0.000854075
     12        1          -0.000300155    0.000236934   -0.001720785
     13        1           0.001605885   -0.000478129   -0.001460488
     14        1           0.002648264   -0.001718748   -0.001082961
     15        1           0.002027128    0.007644879    0.005160472
     16        1           0.000247073    0.000575143    0.001891680
     17        1          -0.001969920    0.000732635    0.001379303
     18        1           0.008161968    0.005169941    0.002128848
     19        1           0.001002381   -0.000934420   -0.000658401
 -------------------------------------------------------------------
 Cartesian Forces:  Max     0.016062759 RMS     0.004508176
 Leave Link  716 at Mon Oct  4 10:36:08 2021, MaxMem=  805306368 cpu:       0.1
 (Enter /sw/target/amd/app/gaussian/Gaussian09RevA.02_gcc-4.9.2/g09/l103.exe)

 GradGradGradGradGradGradGradGradGradGradGradGradGradGradGradGradGradGrad
 Berny optimization.
 Internal  Forces:  Max     0.009767192 RMS     0.003084150
 Search for a local minimum.
 Step number   1 out of a maximum of  100
 All quantities printed in internal units (Hartrees-Bohrs-Radians)
 RMS Force = .30842D-02 SwitMx=.10000D-02 MixMth= 1
 Mixed Optimization -- RFO/linear search
 Second derivative matrix not updated -- first step.
     Eigenvalues ---    0.00361   0.00378   0.00496   0.00856   0.00933
     Eigenvalues ---    0.03006   0.03692   0.03702   0.04477   0.04885
     Eigenvalues ---    0.04917   0.05562   0.05606   0.05705   0.07225
     Eigenvalues ---    0.07537   0.08058   0.08208   0.08983   0.10809
     Eigenvalues ---    0.11996   0.12099   0.12560   0.16000   0.16000
     Eigenvalues ---    0.16000   0.16000   0.16000   0.16000   0.21891
     Eigenvalues ---    0.21911   0.21938   0.23423   0.29367   0.29487
     Eigenvalues ---    0.30324   0.33957   0.33986   0.34025   0.34049
     Eigenvalues ---    0.34114   0.34116   0.34227   0.34267   0.34276
     Eigenvalues ---    0.34279   0.34311   0.34314   0.36573   0.37299
     Eigenvalues ---    0.443831000.000001000.000001000.000001000.00000
     Eigenvalues --- 1000.000001000.000001000.000001000.000001000.00000
     Eigenvalues --- 1000.000001000.000001000.000001000.000001000.00000
     Eigenvalues --- 1000.000001000.000001000.000001000.000001000.00000
     Eigenvalues --- 1000.000001000.000001000.000001000.000001000.00000
     Eigenvalues --- 1000.000001000.000001000.000001000.000001000.00000
     Eigenvalues --- 1000.000001000.000001000.000001000.000001000.00000
     Eigenvalues --- 1000.000001000.000001000.000001000.000001000.00000
 RFO step:  Lambda=-4.98057827D-03 EMin= 3.61059016D-03
 Linear search not attempted -- first point.
 Iteration  1 RMS(Cart)=  0.04250603 RMS(Int)=  0.00072616
 Iteration  2 RMS(Cart)=  0.00110846 RMS(Int)=  0.00037922
 Iteration  3 RMS(Cart)=  0.00000172 RMS(Int)=  0.00037922
 Iteration  4 RMS(Cart)=  0.00000000 RMS(Int)=  0.00037922
 Variable       Old X    -DE/DX   Delta X   Delta X   Delta X     New X
                                 (Linear)    (Quad)   (Total)
    R1        2.87321   0.00926   0.00000   0.03004   0.03004   2.90325
    R2        2.06804   0.00151   0.00000   0.00433   0.00433   2.07237
    R3        2.06882   0.00119   0.00000   0.00342   0.00342   2.07224
    R4        2.06948   0.00103   0.00000   0.00297   0.00297   2.07245
    R5        2.88998   0.00516   0.00000   0.01720   0.01720   2.90718
    R6        2.07134   0.00165   0.00000   0.00476   0.00476   2.07610
    R7        2.07248   0.00144   0.00000   0.00418   0.00418   2.07666
    R8        2.89243   0.00196   0.00000   0.00655   0.00655   2.89898
    R9        2.07354   0.00169   0.00000   0.00491   0.00491   2.07845
   R10        2.07403  -0.00027   0.00000  -0.00080  -0.00080   2.07323
   R11        2.76496   0.00225   0.00000   0.00608   0.00608   2.77103
   R12        2.07137   0.00044   0.00000   0.00127   0.00127   2.07265
   R13        2.07288   0.00732   0.00000   0.02121   0.02121   2.09409
   R14        2.75398   0.00362   0.00000   0.00957   0.00957   2.76356
   R15        1.92699  -0.00154   0.00000  -0.00344  -0.00344   1.92355
   R16        2.06866   0.00022   0.00000   0.00064   0.00064   2.06931
   R17        2.06861   0.00775   0.00000   0.02229   0.02229   2.09089
   R18        2.06808   0.00135   0.00000   0.00389   0.00389   2.07196
    A1        1.92391   0.00380   0.00000   0.02592   0.02580   1.94971
    A2        1.93729   0.00065   0.00000   0.00257   0.00251   1.93980
    A3        1.93755   0.00066   0.00000   0.00247   0.00242   1.93997
    A4        1.88644  -0.00196   0.00000  -0.00898  -0.00910   1.87735
    A5        1.88664  -0.00200   0.00000  -0.00952  -0.00963   1.87702
    A6        1.89036  -0.00137   0.00000  -0.01371  -0.01370   1.87666
    A7        1.95046   0.00541   0.00000   0.02945   0.02936   1.97982
    A8        1.90392  -0.00069   0.00000   0.00394   0.00404   1.90796
    A9        1.90329  -0.00085   0.00000   0.00494   0.00493   1.90822
   A10        1.91659  -0.00231   0.00000  -0.01440  -0.01462   1.90198
   A11        1.91714  -0.00188   0.00000  -0.00877  -0.00907   1.90807
   A12        1.87062   0.00011   0.00000  -0.01692  -0.01709   1.85353
   A13        1.93779   0.00857   0.00000   0.04296   0.04291   1.98070
   A14        1.91052  -0.00261   0.00000  -0.00782  -0.00771   1.90281
   A15        1.91035  -0.00094   0.00000   0.00789   0.00804   1.91839
   A16        1.91787  -0.00253   0.00000  -0.01298  -0.01317   1.90470
   A17        1.91611  -0.00390   0.00000  -0.02167  -0.02215   1.89395
   A18        1.86994   0.00112   0.00000  -0.01029  -0.01058   1.85936
   A19        1.91893   0.00667   0.00000   0.03692   0.03609   1.95502
   A20        1.90802   0.00046   0.00000  -0.00408  -0.00371   1.90431
   A21        1.90996  -0.00333   0.00000  -0.00239  -0.00420   1.90575
   A22        1.91853  -0.00586   0.00000  -0.05289  -0.05235   1.86618
   A23        1.92233   0.00241   0.00000   0.04737   0.04660   1.96893
   A24        1.88571  -0.00051   0.00000  -0.02624  -0.02576   1.85994
   A25        1.93640   0.00977   0.00000   0.03861   0.03874   1.97514
   A26        1.91128  -0.00401   0.00000  -0.02545  -0.02531   1.88597
   A27        1.90795  -0.00270   0.00000  -0.01380  -0.01353   1.89442
   A28        1.93973  -0.00576   0.00000  -0.04270  -0.04244   1.89729
   A29        1.94724   0.00880   0.00000   0.05700   0.05671   2.00395
   A30        1.91077   0.00076   0.00000   0.00873   0.00801   1.91878
   A31        1.90483  -0.00303   0.00000  -0.02569  -0.02510   1.87973
   A32        1.87643   0.00095   0.00000  -0.00181  -0.00197   1.87446
   A33        1.88262  -0.00190   0.00000   0.00370   0.00261   1.88522
    D1        3.13670  -0.00012   0.00000  -0.00124  -0.00125   3.13546
    D2        1.01410  -0.00027   0.00000  -0.00501  -0.00508   1.00901
    D3       -1.02360   0.00047   0.00000   0.01027   0.01035  -1.01325
    D4        1.04710  -0.00057   0.00000  -0.00858  -0.00862   1.03849
    D5       -1.07550  -0.00072   0.00000  -0.01234  -0.01245  -1.08796
    D6       -3.11320   0.00002   0.00000   0.00293   0.00299  -3.11022
    D7       -1.05646   0.00028   0.00000   0.00537   0.00539  -1.05106
    D8        3.10412   0.00013   0.00000   0.00161   0.00156   3.10568
    D9        1.06642   0.00087   0.00000   0.01688   0.01700   1.08342
   D10        3.13526   0.00024   0.00000   0.00227   0.00218   3.13743
   D11        1.01483  -0.00041   0.00000  -0.00417  -0.00419   1.01064
   D12       -1.02983   0.00028   0.00000   0.00822   0.00841  -1.02142
   D13       -1.03265   0.00137   0.00000   0.01692   0.01668  -1.01597
   D14        3.13011   0.00072   0.00000   0.01047   0.01030   3.14042
   D15        1.08545   0.00141   0.00000   0.02287   0.02291   1.10836
   D16        1.02039  -0.00099   0.00000  -0.01750  -0.01752   1.00287
   D17       -1.10003  -0.00164   0.00000  -0.02394  -0.02390  -1.12393
   D18        3.13849  -0.00095   0.00000  -0.01155  -0.01129   3.12720
   D19        3.13402  -0.00222   0.00000  -0.03638  -0.03647   3.09756
   D20        1.02642   0.00055   0.00000   0.00839   0.00834   1.03476
   D21       -1.03564   0.00286   0.00000   0.04398   0.04387  -0.99176
   D22       -1.03305  -0.00158   0.00000  -0.02669  -0.02683  -1.05989
   D23       -3.14066   0.00120   0.00000   0.01807   0.01797  -3.12268
   D24        1.08047   0.00350   0.00000   0.05367   0.05351   1.13398
   D25        1.01931  -0.00404   0.00000  -0.05987  -0.05966   0.95965
   D26       -1.08830  -0.00126   0.00000  -0.01511  -0.01485  -1.10315
   D27        3.13283   0.00104   0.00000   0.02049   0.02068  -3.12967
   D28        3.14035   0.00005   0.00000  -0.00365  -0.00289   3.13746
   D29        1.03273  -0.00021   0.00000   0.00556   0.00647   1.03920
   D30       -1.04157   0.00113   0.00000  -0.01882  -0.01883  -1.06040
   D31        3.13399   0.00087   0.00000  -0.00961  -0.00947   3.12453
   D32        1.03427  -0.00164   0.00000  -0.05466  -0.05564   0.97863
   D33       -1.07335  -0.00190   0.00000  -0.04545  -0.04628  -1.11963
   D34        1.08811   0.00068   0.00000   0.03434   0.03405   1.12215
   D35       -1.04224   0.00246   0.00000   0.05750   0.05813  -0.98411
   D36       -3.12483  -0.00120   0.00000   0.01142   0.01107  -3.11376
   D37       -3.08549   0.00014   0.00000   0.01819   0.01790  -3.06760
   D38        1.06734   0.00192   0.00000   0.04134   0.04199   1.10933
   D39       -1.01525  -0.00173   0.00000  -0.00473  -0.00508  -1.02033
         Item               Value     Threshold  Converged?
 Maximum Force            0.009767     0.000450     NO 
 RMS     Force            0.003084     0.000300     NO 
 Maximum Displacement     0.189721     0.001800     NO 
 RMS     Displacement     0.042764     0.001200     NO 
 Predicted change in Energy=-2.633993D-03
 GradGradGradGradGradGradGradGradGradGradGradGradGradGradGradGradGradGrad

 Leave Link  103 at Mon Oct  4 10:36:18 2021, MaxMem=  805306368 cpu:       2.7
 (Enter /sw/target/amd/app/gaussian/Gaussian09RevA.02_gcc-4.9.2/g09/l202.exe)
                          Input orientation:                          
 ---------------------------------------------------------------------
 Center     Atomic      Atomic             Coordinates (Angstroms)
 Number     Number       Type             X           Y           Z
 ---------------------------------------------------------------------
      1          6           0        0.864307    0.043355    0.046292
      2          6           0        2.399599   -0.011325    0.060859
      3          6           0        2.991571   -0.880374   -1.062102
      4          6           0        4.524772   -0.931110   -1.052150
      5          7           0        5.052301   -1.814043   -2.097316
      6          6           0        6.513267   -1.876836   -2.114075
      7          1           0        0.472754    0.664369    0.860954
      8          1           0        0.431801   -0.958287    0.156500
      9          1           0        0.492148    0.461838   -0.896632
     10          1           0        2.740254   -0.399751    1.030424
     11          1           0        2.800739    1.008654   -0.018847
     12          1           0        2.650024   -0.492901   -2.033142
     13          1           0        2.608539   -1.905376   -0.982752
     14          1           0        4.864405   -1.335730   -0.090956
     15          1           0        4.923832    0.100492   -1.119443
     16          1           0        4.733049   -1.462876   -2.997801
     17          1           0        6.856306   -2.325166   -1.175771
     18          1           0        7.018913   -0.898866   -2.224248
     19          1           0        6.850234   -2.526667   -2.930374
 ---------------------------------------------------------------------
                    Distance matrix (angstroms):
                    1          2          3          4          5
     1  C    0.000000
     2  C    1.536334   0.000000
     3  C    2.570421   1.538414   0.000000
     4  C    3.944004   2.569272   1.534073   0.000000
     5  N    5.058091   3.865792   2.487975   1.466366   0.000000
     6  C    6.345476   5.013256   3.808140   2.444625   1.462411
     7  H    1.096652   2.193045   3.525452   4.756509   5.988835
     8  H    1.096583   2.185890   2.836103   4.267785   5.211625
     9  H    1.096694   2.186102   2.841836   4.269257   5.236056
    10  H    2.164264   1.098625   2.161672   2.793557   4.138664
    11  H    2.164674   1.098919   2.166386   2.793330   4.166196
    12  H    2.792920   2.163208   1.099867   2.160799   2.742348
    13  H    2.810486   2.172605   1.097105   2.150805   2.687484
    14  H    4.233379   2.802208   2.158236   1.096797   2.071128
    15  H    4.223973   2.788794   2.167723   1.108142   2.153645
    16  H    5.148048   4.111860   2.668143   2.027736   1.017897
    17  H    6.558001   5.171591   4.127532   2.719324   2.089240
    18  H    6.627391   5.229484   4.191708   2.756010   2.172838
    19  H    7.162184   5.923055   4.592385   3.388407   2.105797
                    6          7          8          9         10
     6  C    0.000000
     7  H    7.196966   0.000000
     8  H    6.556179   1.769447   0.000000
     9  H    6.573085   1.769323   1.769035   0.000000
    10  H    5.128867   2.510504   2.530744   3.083807   0.000000
    11  H    5.147708   2.512389   3.084068   2.529646   1.757337
    12  H    4.104446   3.802048   3.151448   2.619086   3.066309
    13  H    4.065416   3.816336   2.633071   3.176513   2.517367
    14  H    2.665437   4.918651   4.455522   4.795519   2.577899
    15  H    2.724963   4.904287   4.788255   4.451971   3.104865
    16  H    2.030151   6.129052   5.357701   5.109274   4.618232
    17  H    1.095029   7.337254   6.702057   6.953260   5.051376
    18  H    1.106454   7.403673   7.004394   6.797996   5.398974
    19  H    1.096436   8.076455   7.292797   7.313859   6.091275
                   11         12         13         14         15
    11  H    0.000000
    12  H    2.516897   0.000000
    13  H    3.075326   1.760717   0.000000
    14  H    3.124109   3.063647   2.491733   0.000000
    15  H    2.558046   2.521342   3.066395   1.767499   0.000000
    16  H    4.326252   2.492070   2.961380   2.912589   2.451275
    17  H    5.375915   4.667450   4.272821   2.474566   3.101845
    18  H    5.127906   4.391870   4.691031   3.063281   2.570734
    19  H    6.113420   4.752157   4.708632   3.663897   3.727259
                   16         17         18         19
    16  H    0.000000
    17  H    2.927722   0.000000
    18  H    2.478239   1.777661   0.000000
    19  H    2.370374   1.766146   1.782359   0.000000
 Stoichiometry    C5H13N
 Framework group  C1[X(C5H13N)]
 Deg. of freedom    51
 Full point group                 C1      NOp   1
 Largest Abelian subgroup         C1      NOp   1
 Largest concise Abelian subgroup C1      NOp   1
                         Standard orientation:                         
 ---------------------------------------------------------------------
 Center     Atomic      Atomic             Coordinates (Angstroms)
 Number     Number       Type             X           Y           Z
 ---------------------------------------------------------------------
      1          6           0        3.197773   -0.213151   -0.024561
      2          6           0        1.860906    0.541596    0.034314
      3          6           0        0.632975   -0.383029   -0.028705
      4          6           0       -0.702562    0.369006    0.035835
      5          7           0       -1.849607   -0.536325   -0.086200
      6          6           0       -3.137052    0.154362   -0.022308
      7          1           0        4.052782    0.472380    0.016069
      8          1           0        3.283371   -0.794409   -0.950469
      9          1           0        3.294644   -0.912579    0.814578
     10          1           0        1.811337    1.258431   -0.796751
     11          1           0        1.820114    1.137969    0.956431
     12          1           0        0.682433   -1.101829    0.802311
     13          1           0        0.656355   -0.972844   -0.953481
     14          1           0       -0.759794    1.071897   -0.804185
     15          1           0       -0.732967    0.978732    0.960653
     16          1           0       -1.804251   -1.207795    0.677465
     17          1           0       -3.220402    0.822479   -0.885883
     18          1           0       -3.293527    0.761692    0.889233
     19          1           0       -3.955089   -0.572551   -0.090020
 ---------------------------------------------------------------------
 Rotational constants (GHZ):     15.6918116      1.1566993      1.1176664
 Leave Link  202 at Mon Oct  4 10:36:18 2021, MaxMem=  805306368 cpu:       0.0
 (Enter /sw/target/amd/app/gaussian/Gaussian09RevA.02_gcc-4.9.2/g09/l301.exe)
 Standard basis: 6-31G(d) (6D, 7F)
 Ernie: Thresh=  0.10000D-02 Tol=  0.10000D-05 Strict=F.
 There are   116 symmetry adapted basis functions of A   symmetry.
 Integral buffers will be    131072 words long.
 Raffenetti 2 integral format.
 Two-electron integral symmetry is turned on.
   116 basis functions,   220 primitive gaussians,   116 cartesian basis functions
    25 alpha electrons       25 beta electrons
       nuclear repulsion energy       245.7960305577 Hartrees.
 IExCor=  402 DFT=T Ex+Corr=B3LYP ExCW=0 ScaHFX=  0.200000
 ScaDFX=  0.800000  0.720000  1.000000  0.810000 ScalE2=  1.000000  1.000000
 IRadAn=      0 IRanWt=     -1 IRanGd=            0 ICorTp=0
 NAtoms=   19 NActive=   19 NUniq=   19 SFac= 7.50D-01 NAtFMM=   80 NAOKFM=F Big=F
 Leave Link  301 at Mon Oct  4 10:36:19 2021, MaxMem=  805306368 cpu:       0.1
 (Enter /sw/target/amd/app/gaussian/Gaussian09RevA.02_gcc-4.9.2/g09/l302.exe)
 NPDir=0 NMtPBC=     1 NCelOv=     1 NCel=       1 NClECP=     1 NCelD=      1
         NCelK=      1 NCelE2=     1 NClLst=     1 CellRange=     0.0.
 One-electron integrals computed using PRISM.
 NBasis=   116 RedAO= T  NBF=   116
 NBsUse=   116 1.00D-06 NBFU=   116
 Precomputing XC quadrature grid using
 IXCGrd= 2 IRadAn=           0 IRanWt=          -1 IRanGd=           0 AccXCQ= 1.00D-10.
 NRdTot=    1196 NPtTot=      151248 NUsed=      159880 NTot=      159912
 NSgBfM=   116   116   116   116   116 NAtAll=    19    19.
 Leave Link  302 at Mon Oct  4 10:36:22 2021, MaxMem=  805306368 cpu:       1.1
 (Enter /sw/target/amd/app/gaussian/Gaussian09RevA.02_gcc-4.9.2/g09/l303.exe)
 DipDrv:  MaxL=1.
 Leave Link  303 at Mon Oct  4 10:36:22 2021, MaxMem=  805306368 cpu:       0.1
 (Enter /sw/target/amd/app/gaussian/Gaussian09RevA.02_gcc-4.9.2/g09/l401.exe)
 Initial guess read from the read-write file.
 B after Tr=     0.000000    0.000000    0.000000
         Rot=    1.000000    0.000000    0.000000    0.000000 Ang=   0.00 deg.
 Guess basis will be translated and rotated to current coordinates.
 Initial guess orbital symmetries:
       Occupied  (A) (A) (A) (A) (A) (A) (A) (A) (A) (A) (A) (A)
                 (A) (A) (A) (A) (A) (A) (A) (A) (A) (A) (A) (A)
                 (A)
       Virtual   (A) (A) (A) (A) (A) (A) (A) (A) (A) (A) (A) (A)
                 (A) (A) (A) (A) (A) (A) (A) (A) (A) (A) (A) (A)
                 (A) (A) (A) (A) (A) (A) (A) (A) (A) (A) (A) (A)
                 (A) (A) (A) (A) (A) (A) (A) (A) (A) (A) (A) (A)
                 (A) (A) (A) (A) (A) (A) (A) (A) (A) (A) (A) (A)
                 (A) (A) (A) (A) (A) (A) (A) (A) (A) (A) (A) (A)
                 (A) (A) (A) (A) (A) (A) (A) (A) (A) (A) (A) (A)
                 (A) (A) (A) (A) (A) (A) (A)
 The electronic state of the initial guess is 1-A.
 Generating alternative initial guess.
 Harris functional with IExCor=  402 diagonalized for initial guess.
 ExpMin= 1.61D-01 ExpMax= 4.17D+03 ExpMxC= 6.27D+02 IAcc=1 IRadAn=         1 AccDes= 0.00D+00
 HarFok:  IExCor=  402 AccDes= 0.00D+00 IRadAn=         1 IDoV= 1
 ScaDFX=  1.000000  1.000000  1.000000  1.000000
 FoFCou: FMM=F IPFlag=           0 FMFlag=      100000 FMFlg1=           0
         NFxFlg=           0 DoJE=T BraDBF=F KetDBF=T FulRan=T
         Omega=  0.000000  0.000000  1.000000  0.000000  0.000000 ICntrl=     500 IOpCl=  0
         NMat0=    1 NMatS0=    1 NMatT0=    0 NMatD0=    1 NMtDS0=    0 NMtDT0=    0
         I1Cent=           4 NGrid=           0.
 Petite list used in FoFCou.
 Harris En= -253.190415527054    
 Leave Link  401 at Mon Oct  4 10:36:31 2021, MaxMem=  805306368 cpu:       4.5
 (Enter /sw/target/amd/app/gaussian/Gaussian09RevA.02_gcc-4.9.2/g09/l502.exe)
 Closed shell SCF:
 Requested convergence on RMS density matrix=1.00D-08 within  64 cycles.
 Requested convergence on MAX density matrix=1.00D-06.
 Requested convergence on             energy=1.00D-06.
 No special actions if energy rises.
 Using DIIS extrapolation, IDIIS=  1040.
 Integral symmetry usage will be decided dynamically.
       159696 words used for storage of precomputed grid.
 Keep R1 ints in memory in canonical form, NReq=24174567.
 IEnd=      207198 IEndB=      207198 NGot=   805306368 MDV=   782088648
 LenX=   782088648 LenY=   782074751
 Symmetry not used in FoFDir.
 MinBra= 0 MaxBra= 2 Meth= 1.
 IRaf=       0 NMat=   1 IRICut=       1 DoRegI=T DoRafI=F ISym2E= 0 JSym2E=0.
 Integral accuracy reduced to 1.0D-05 until final iterations.

 Cycle   1  Pass 0  IDiag  1:
 E= -253.104882183536    
 DIIS: error= 2.51D-03 at cycle   1 NSaved=   1.
 NSaved= 1 IEnMin= 1 EnMin= -253.104882183536     IErMin= 1 ErrMin= 2.51D-03
 ErrMax= 2.51D-03 EMaxC= 1.00D-01 BMatC= 9.22D-04 BMatP= 9.22D-04
 IDIUse=3 WtCom= 9.75D-01 WtEn= 2.51D-02
 Coeff-Com:  0.100D+01
 Coeff-En:   0.100D+01
 Coeff:      0.100D+01
 Gap=     0.306 Goal=   None    Shift=    0.000
 GapD=    0.306 DampG=1.000 DampE=1.000 DampFc=1.0000 IDamp=-1.
 RMSDP=4.07D-04 MaxDP=4.46D-03              OVMax= 1.03D-02

 Cycle   2  Pass 0  IDiag  1:
 E= -253.106463004972     Delta-E=       -0.001580821436 Rises=F Damp=F
 DIIS: error= 5.77D-04 at cycle   2 NSaved=   2.
 NSaved= 2 IEnMin= 2 EnMin= -253.106463004972     IErMin= 2 ErrMin= 5.77D-04
 ErrMax= 5.77D-04 EMaxC= 1.00D-01 BMatC= 4.89D-05 BMatP= 9.22D-04
 IDIUse=3 WtCom= 9.94D-01 WtEn= 5.77D-03
 Coeff-Com:  0.430D-01 0.957D+00
 Coeff-En:   0.000D+00 0.100D+01
 Coeff:      0.428D-01 0.957D+00
 Gap=     0.303 Goal=   None    Shift=    0.000
 RMSDP=1.15D-04 MaxDP=1.87D-03 DE=-1.58D-03 OVMax= 2.59D-03

 Cycle   3  Pass 0  IDiag  1:
 E= -253.106467616807     Delta-E=       -0.000004611835 Rises=F Damp=F
 DIIS: error= 5.32D-04 at cycle   3 NSaved=   3.
 NSaved= 3 IEnMin= 3 EnMin= -253.106467616807     IErMin= 3 ErrMin= 5.32D-04
 ErrMax= 5.32D-04 EMaxC= 1.00D-01 BMatC= 5.50D-05 BMatP= 4.89D-05
 IDIUse=3 WtCom= 3.02D-01 WtEn= 6.98D-01
 Coeff-Com: -0.295D-01 0.524D+00 0.505D+00
 Coeff-En:   0.000D+00 0.476D+00 0.524D+00
 Coeff:     -0.892D-02 0.490D+00 0.519D+00
 Gap=     0.305 Goal=   None    Shift=    0.000
 RMSDP=6.26D-05 MaxDP=1.37D-03 DE=-4.61D-06 OVMax= 1.38D-03

 Cycle   4  Pass 0  IDiag  1:
 E= -253.106515507268     Delta-E=       -0.000047890461 Rises=F Damp=F
 DIIS: error= 9.85D-05 at cycle   4 NSaved=   4.
 NSaved= 4 IEnMin= 4 EnMin= -253.106515507268     IErMin= 4 ErrMin= 9.85D-05
 ErrMax= 9.85D-05 EMaxC= 1.00D-01 BMatC= 2.17D-06 BMatP= 4.89D-05
 IDIUse=1 WtCom= 1.00D+00 WtEn= 0.00D+00
 Coeff-Com: -0.145D-01 0.155D+00 0.241D+00 0.618D+00
 Coeff:     -0.145D-01 0.155D+00 0.241D+00 0.618D+00
 Gap=     0.304 Goal=   None    Shift=    0.000
 RMSDP=1.36D-05 MaxDP=3.76D-04 DE=-4.79D-05 OVMax= 4.22D-04

 Cycle   5  Pass 0  IDiag  1:
 E= -253.106517256795     Delta-E=       -0.000001749527 Rises=F Damp=F
 DIIS: error= 2.43D-05 at cycle   5 NSaved=   5.
 NSaved= 5 IEnMin= 5 EnMin= -253.106517256795     IErMin= 5 ErrMin= 2.43D-05
 ErrMax= 2.43D-05 EMaxC= 1.00D-01 BMatC= 1.27D-07 BMatP= 2.17D-06
 IDIUse=1 WtCom= 1.00D+00 WtEn= 0.00D+00
 Coeff-Com: -0.487D-02 0.370D-01 0.794D-01 0.298D+00 0.590D+00
 Coeff:     -0.487D-02 0.370D-01 0.794D-01 0.298D+00 0.590D+00
 Gap=     0.304 Goal=   None    Shift=    0.000
 RMSDP=3.51D-06 MaxDP=8.04D-05 DE=-1.75D-06 OVMax= 8.99D-05

 Initial convergence to 1.0D-05 achieved.  Increase integral accuracy.
 Cycle   6  Pass 1  IDiag  1:
 E= -253.106559980029     Delta-E=       -0.000042723234 Rises=F Damp=F
 DIIS: error= 7.43D-06 at cycle   1 NSaved=   1.
 NSaved= 1 IEnMin= 1 EnMin= -253.106559980029     IErMin= 1 ErrMin= 7.43D-06
 ErrMax= 7.43D-06 EMaxC= 1.00D-01 BMatC= 2.10D-08 BMatP= 2.10D-08
 IDIUse=1 WtCom= 1.00D+00 WtEn= 0.00D+00
 Coeff-Com:  0.100D+01
 Coeff:      0.100D+01
 Gap=     0.304 Goal=   None    Shift=    0.000
 RMSDP=3.51D-06 MaxDP=8.04D-05 DE=-4.27D-05 OVMax= 3.68D-05

 Cycle   7  Pass 1  IDiag  1:
 E= -253.106560001339     Delta-E=       -0.000000021309 Rises=F Damp=F
 DIIS: error= 4.43D-06 at cycle   2 NSaved=   2.
 NSaved= 2 IEnMin= 2 EnMin= -253.106560001339     IErMin= 2 ErrMin= 4.43D-06
 ErrMax= 4.43D-06 EMaxC= 1.00D-01 BMatC= 5.81D-09 BMatP= 2.10D-08
 IDIUse=1 WtCom= 1.00D+00 WtEn= 0.00D+00
 Coeff-Com:  0.281D+00 0.719D+00
 Coeff:      0.281D+00 0.719D+00
 Gap=     0.304 Goal=   None    Shift=    0.000
 RMSDP=1.08D-06 MaxDP=2.46D-05 DE=-2.13D-08 OVMax= 2.89D-05

 Cycle   8  Pass 1  IDiag  1:
 E= -253.106560004483     Delta-E=       -0.000000003145 Rises=F Damp=F
 DIIS: error= 3.33D-06 at cycle   3 NSaved=   3.
 NSaved= 3 IEnMin= 3 EnMin= -253.106560004483     IErMin= 3 ErrMin= 3.33D-06
 ErrMax= 3.33D-06 EMaxC= 1.00D-01 BMatC= 2.66D-09 BMatP= 5.81D-09
 IDIUse=1 WtCom= 1.00D+00 WtEn= 0.00D+00
 Coeff-Com: -0.782D-02 0.401D+00 0.607D+00
 Coeff:     -0.782D-02 0.401D+00 0.607D+00
 Gap=     0.304 Goal=   None    Shift=    0.000
 RMSDP=4.37D-07 MaxDP=1.20D-05 DE=-3.14D-09 OVMax= 1.30D-05

 Cycle   9  Pass 1  IDiag  1:
 E= -253.106560006799     Delta-E=       -0.000000002316 Rises=F Damp=F
 DIIS: error= 5.69D-07 at cycle   4 NSaved=   4.
 NSaved= 4 IEnMin= 4 EnMin= -253.106560006799     IErMin= 4 ErrMin= 5.69D-07
 ErrMax= 5.69D-07 EMaxC= 1.00D-01 BMatC= 7.34D-11 BMatP= 2.66D-09
 IDIUse=1 WtCom= 1.00D+00 WtEn= 0.00D+00
 Coeff-Com: -0.123D-01 0.173D+00 0.292D+00 0.547D+00
 Coeff:     -0.123D-01 0.173D+00 0.292D+00 0.547D+00
 Gap=     0.304 Goal=   None    Shift=    0.000
 RMSDP=7.85D-08 MaxDP=1.63D-06 DE=-2.32D-09 OVMax= 1.75D-06

 Cycle  10  Pass 1  IDiag  1:
 E= -253.106560006865     Delta-E=       -0.000000000066 Rises=F Damp=F
 DIIS: error= 1.53D-07 at cycle   5 NSaved=   5.
 NSaved= 5 IEnMin= 5 EnMin= -253.106560006865     IErMin= 5 ErrMin= 1.53D-07
 ErrMax= 1.53D-07 EMaxC= 1.00D-01 BMatC= 3.30D-12 BMatP= 7.34D-11
 IDIUse=1 WtCom= 1.00D+00 WtEn= 0.00D+00
 Coeff-Com: -0.536D-02 0.596D-01 0.103D+00 0.253D+00 0.590D+00
 Coeff:     -0.536D-02 0.596D-01 0.103D+00 0.253D+00 0.590D+00
 Gap=     0.304 Goal=   None    Shift=    0.000
 RMSDP=1.60D-08 MaxDP=2.59D-07 DE=-6.57D-11 OVMax= 3.32D-07

 Cycle  11  Pass 1  IDiag  1:
 E= -253.106560006868     Delta-E=       -0.000000000003 Rises=F Damp=F
 DIIS: error= 2.20D-08 at cycle   6 NSaved=   6.
 NSaved= 6 IEnMin= 6 EnMin= -253.106560006868     IErMin= 6 ErrMin= 2.20D-08
 ErrMax= 2.20D-08 EMaxC= 1.00D-01 BMatC= 9.20D-14 BMatP= 3.30D-12
 IDIUse=1 WtCom= 1.00D+00 WtEn= 0.00D+00
 Coeff-Com: -0.720D-03 0.575D-02 0.102D-01 0.355D-01 0.177D+00 0.773D+00
 Coeff:     -0.720D-03 0.575D-02 0.102D-01 0.355D-01 0.177D+00 0.773D+00
 Gap=     0.304 Goal=   None    Shift=    0.000
 RMSDP=3.73D-09 MaxDP=5.81D-08 DE=-2.67D-12 OVMax= 8.11D-08

 SCF Done:  E(RB3LYP) =  -253.106560007     A.U. after   11 cycles
             Convg  =    0.3733D-08             -V/T =  2.0103
 KE= 2.505345946467D+02 PE=-1.077019018560D+03 EE= 3.275818333486D+02
 Leave Link  502 at Mon Oct  4 10:37:58 2021, MaxMem=  805306368 cpu:      42.4
 (Enter /sw/target/amd/app/gaussian/Gaussian09RevA.02_gcc-4.9.2/g09/l508.exe)
 QCSCF skips out because SCF is already converged.
 Leave Link  508 at Mon Oct  4 10:38:01 2021, MaxMem=  805306368 cpu:       0.0
 (Enter /sw/target/amd/app/gaussian/Gaussian09RevA.02_gcc-4.9.2/g09/l701.exe)
 Compute integral first derivatives.
 ... and contract with generalized density number  0.
 Leave Link  701 at Mon Oct  4 10:38:03 2021, MaxMem=  805306368 cpu:       0.7
 (Enter /sw/target/amd/app/gaussian/Gaussian09RevA.02_gcc-4.9.2/g09/l702.exe)
 L702 exits ... SP integral derivatives will be done elsewhere.
 Leave Link  702 at Mon Oct  4 10:38:03 2021, MaxMem=  805306368 cpu:       0.1
 (Enter /sw/target/amd/app/gaussian/Gaussian09RevA.02_gcc-4.9.2/g09/l703.exe)
 Compute integral first derivatives, UseDBF=F ICtDFT=           0.
 Integral derivatives from FoFDir, PRISM(SPDF).
 Calling FoFJK, ICntrl=      2127 FMM=F ISym2X=0 I1Cent= 0 IOpClX= 0 NMat=1 NMatS=1 NMatT=0.
 FoFCou: FMM=F IPFlag=           0 FMFlag=      100000 FMFlg1=         800
         NFxFlg=           0 DoJE=F BraDBF=F KetDBF=F FulRan=T
         Omega=  0.000000  0.000000  1.000000  0.000000  0.000000 ICntrl=    2127 IOpCl=  0
         NMat0=    1 NMatS0=    1 NMatT0=    0 NMatD0=    1 NMtDS0=    0 NMtDT0=    0
         I1Cent=           0 NGrid=           0.
 Symmetry not used in FoFCou.
 Leave Link  703 at Mon Oct  4 10:38:36 2021, MaxMem=  805306368 cpu:      16.9
 (Enter /sw/target/amd/app/gaussian/Gaussian09RevA.02_gcc-4.9.2/g09/l716.exe)
 Dipole        = 4.96140597D-03 1.19980696D-01 3.60145360D-01
 ***** Axes restored to original set *****
 -------------------------------------------------------------------
 Center     Atomic                   Forces (Hartrees/Bohr)
 Number     Number              X              Y              Z
 -------------------------------------------------------------------
      1        6           0.001631573   -0.000480166   -0.000529261
      2        6          -0.000085817   -0.000700581   -0.000855645
      3        6           0.000484869    0.000164087    0.000397634
      4        6          -0.000564966   -0.001553724   -0.000444144
      5        7          -0.000084321    0.002572321    0.000323063
      6        6          -0.001927220   -0.000711698    0.000486478
      7        1           0.000958575   -0.000104020   -0.000125179
      8        1           0.000030308   -0.000217960   -0.000117164
      9        1          -0.000009104   -0.000039659   -0.000277665
     10        1           0.000068811    0.000163082    0.000403208
     11        1           0.000119710    0.000157769    0.000184624
     12        1          -0.000432831   -0.000034386   -0.000771693
     13        1          -0.000258829   -0.000376669   -0.000345521
     14        1           0.000608139    0.000550713    0.001750734
     15        1           0.000890811    0.000259137    0.000224611
     16        1          -0.000825258   -0.000473269   -0.001740566
     17        1           0.001090090    0.000006070    0.000823222
     18        1          -0.000431606    0.000352654    0.000501176
     19        1          -0.001262934    0.000466298    0.000112088
 -------------------------------------------------------------------
 Cartesian Forces:  Max     0.002572321 RMS     0.000775071
 Leave Link  716 at Mon Oct  4 10:38:38 2021, MaxMem=  805306368 cpu:       0.1
 (Enter /sw/target/amd/app/gaussian/Gaussian09RevA.02_gcc-4.9.2/g09/l103.exe)

 GradGradGradGradGradGradGradGradGradGradGradGradGradGradGradGradGradGrad
 Berny optimization.
 Using GEDIIS/GDIIS optimizer.
 Internal  Forces:  Max     0.003353783 RMS     0.000991869
 Search for a local minimum.
 Step number   2 out of a maximum of  100
 All quantities printed in internal units (Hartrees-Bohrs-Radians)
 RMS Force = .99187D-03 SwitMx=.10000D-02 MixMth= 2
 Mixed Optimization -- En-DIIS/RFO-DIIS
 Update second derivatives using D2CorX and points    1    2
 DE= -2.02D-03 DEPred=-2.63D-03 R= 7.67D-01
 SS=  1.41D+00  RLast= 2.22D-01 DXNew= 5.0454D-01 6.6623D-01
 Trust test= 7.67D-01 RLast= 2.22D-01 DXMaxT set to 5.05D-01
 Use linear search instead of GDIIS.
     Eigenvalues ---    0.00361   0.00378   0.00496   0.00856   0.00932
     Eigenvalues ---    0.02959   0.03461   0.03507   0.04345   0.04815
     Eigenvalues ---    0.04871   0.05501   0.05516   0.05586   0.06984
     Eigenvalues ---    0.07670   0.08443   0.08510   0.09329   0.11046
     Eigenvalues ---    0.12283   0.12326   0.12808   0.15686   0.16000
     Eigenvalues ---    0.16000   0.16000   0.16000   0.16507   0.21757
     Eigenvalues ---    0.21914   0.22868   0.24790   0.29365   0.29780
     Eigenvalues ---    0.31643   0.33312   0.33961   0.34001   0.34048
[...]
 Alpha virt. eigenvalues --    1.99446   2.02022   2.05166   2.07614   2.07905
 Alpha virt. eigenvalues --    2.12033   2.21330   2.23493   2.25722   2.32091
 Alpha virt. eigenvalues --    2.34710   2.35681   2.43043   2.46630   2.49857
 Alpha virt. eigenvalues --    2.57991   2.64565   2.66154   2.82478   2.86870
 Alpha virt. eigenvalues --    3.91100   4.14648   4.25727   4.27614   4.39051
 Alpha virt. eigenvalues --    4.53462
          Condensed to atoms (all electrons):
              1          2          3          4          5          6
     1  C    5.053338   0.374301  -0.029980   0.003963  -0.000032  -0.000000
     2  C    0.374301   4.970026   0.335375  -0.041152   0.000319   0.000001
     3  C   -0.029980   0.335375   5.357831   0.307681  -0.013242   0.005154
     4  C    0.003963  -0.041152   0.307681   5.687814   0.227508  -0.053878
     5  N   -0.000032   0.000319  -0.013242   0.227508   8.463419   0.270773
     6  C   -0.000000   0.000001   0.005154  -0.053878   0.270773   5.864508
     7  H    0.372879  -0.027584   0.004402  -0.000086   0.000001  -0.000000
     8  H    0.377901  -0.034075  -0.005417  -0.000003  -0.000001   0.000000
     9  H    0.377170  -0.033210  -0.008115  -0.000138  -0.000008   0.000000
    10  H   -0.038214   0.376796  -0.041000  -0.002842   0.000026  -0.000000
    11  H   -0.038002   0.365550  -0.048100  -0.023826  -0.000580   0.000052
    12  H   -0.008310  -0.008362   0.144612  -0.091100  -0.068831   0.002721
    13  H   -0.004579  -0.025265   0.318693  -0.062986  -0.020919   0.001053
    14  H   -0.000135   0.000851  -0.013814   0.156032  -0.098420  -0.004490
    15  H   -0.000210  -0.003068  -0.018701   0.064693  -0.157534  -0.000553
    16  H   -0.000084   0.002625  -0.056289  -0.006992  -1.072472  -0.033217
    17  H   -0.000000   0.000029   0.001298  -0.016186  -0.097090   0.124638
    18  H   -0.000000   0.000008   0.001063  -0.015197  -0.132245   0.114166
    19  H   -0.000000   0.000008  -0.000005   0.008949  -0.180579   0.018948
              7          8          9         10         11         12
     1  C    0.372879   0.377901   0.377170  -0.038214  -0.038002  -0.008310
     2  C   -0.027584  -0.034075  -0.033210   0.376796   0.365550  -0.008362
     3  C    0.004402  -0.005417  -0.008115  -0.041000  -0.048100   0.144612
     4  C   -0.000086  -0.000003  -0.000138  -0.002842  -0.023826  -0.091100
     5  N    0.000001  -0.000001  -0.000008   0.000026  -0.000580  -0.068831
     6  C   -0.000000   0.000000   0.000000  -0.000000   0.000052   0.002721
     7  H    0.576811  -0.031323  -0.031363  -0.002707  -0.003152  -0.000147
     8  H   -0.031323   0.576552  -0.032069  -0.004543   0.005265  -0.000184
     9  H   -0.031363  -0.032069   0.572003   0.005198  -0.003685   0.007118
    10  H   -0.002707  -0.004543   0.005198   0.616859  -0.041679   0.005368
    11  H   -0.003152   0.005265  -0.003685  -0.041679   0.628526   0.005064
    12  H   -0.000147  -0.000184   0.007118   0.005368   0.005064   0.768985
    13  H   -0.000078   0.004804  -0.000053  -0.005703   0.007243  -0.002661
    14  H   -0.000004   0.000010   0.000026   0.004466   0.002563   0.015971
    15  H   -0.000009   0.000016   0.000058  -0.000831   0.015295   0.032944
    16  H   -0.000000   0.000003   0.000027  -0.000000   0.000751   0.100186
    17  H   -0.000000   0.000000   0.000000  -0.000004   0.000013   0.000338
    18  H   -0.000000   0.000000   0.000000  -0.000000   0.000031   0.000878
    19  H   -0.000000   0.000000   0.000000  -0.000000   0.000002   0.000419
             13         14         15         16         17         18
     1  C   -0.004579  -0.000135  -0.000210  -0.000084  -0.000000  -0.000000
     2  C   -0.025265   0.000851  -0.003068   0.002625   0.000029   0.000008
     3  C    0.318693  -0.013814  -0.018701  -0.056289   0.001298   0.001063
     4  C   -0.062986   0.156032   0.064693  -0.006992  -0.016186  -0.015197
     5  N   -0.020919  -0.098420  -0.157534  -1.072472  -0.097090  -0.132245
     6  C    0.001053  -0.004490  -0.000553  -0.033217   0.124638   0.114166
     7  H   -0.000078  -0.000004  -0.000009  -0.000000  -0.000000  -0.000000
     8  H    0.004804   0.000010   0.000016   0.000003   0.000000   0.000000
     9  H   -0.000053   0.000026   0.000058   0.000027   0.000000   0.000000
    10  H   -0.005703   0.004466  -0.000831  -0.000000  -0.000004  -0.000000
    11  H    0.007243   0.002563   0.015295   0.000751   0.000013   0.000031
    12  H   -0.002661   0.015971   0.032944   0.100186   0.000338   0.000878
    13  H    0.627812   0.005963   0.010515   0.017662   0.000379   0.000127
    14  H    0.005963   0.678391   0.042819   0.039862   0.026207   0.011005
    15  H    0.010515   0.042819   0.735156   0.102377   0.012770   0.031005
    16  H    0.017662   0.039862   0.102377   1.722162   0.040996   0.084060
    17  H    0.000379   0.026207   0.012770   0.040996   0.670307   0.042917
    18  H    0.000127   0.011005   0.031005   0.084060   0.042917   0.636533
    19  H    0.000176   0.003714   0.005265   0.122263   0.054650   0.068360
             19
     1  C   -0.000000
     2  C    0.000008
     3  C   -0.000005
     4  C    0.008949
     5  N   -0.180579
     6  C    0.018948
     7  H   -0.000000
     8  H    0.000000
     9  H    0.000000
    10  H   -0.000000
    11  H    0.000002
    12  H    0.000419
    13  H    0.000176
    14  H    0.003714
    15  H    0.005265
    16  H    0.122263
    17  H    0.054650
    18  H    0.068360
    19  H    0.792822
 Mulliken atomic charges:
              1
     1  C   -0.440006
     2  C   -0.253171
     3  C   -0.241445
     4  C   -0.142254
     5  N   -0.120094
     6  C   -0.309875
     7  H    0.142361
     8  H    0.143065
     9  H    0.147040
    10  H    0.128812
    11  H    0.128669
    12  H    0.094989
    13  H    0.127817
    14  H    0.128983
    15  H    0.127992
    16  H   -0.063920
    17  H    0.138738
    18  H    0.157289
    19  H    0.105009
 Sum of Mulliken atomic charges =  -0.00000
 Mulliken charges with hydrogens summed into heavy atoms:
              1
     1  C   -0.007540
     2  C    0.004310
     3  C   -0.018638
     4  C    0.114722
     5  N   -0.184014
     6  C    0.091161
 Sum of Mulliken charges with hydrogens summed into heavy atoms =  -0.00000
 Electronic spatial extent (au):  <R**2>=           1098.6847
 Charge=             -0.0000 electrons
 Dipole moment (field-independent basis, Debye):
    X=             -0.2088    Y=              1.6295    Z=             -1.0514  Tot=              1.9504
 Quadrupole moment (field-independent basis, Debye-Ang):
   XX=            -40.5279   YY=            -44.0999   ZZ=            -43.3913
   XY=             -2.8778   XZ=              1.5552   YZ=              1.9722
 Traceless Quadrupole moment (field-independent basis, Debye-Ang):
   XX=              2.1451   YY=             -1.4269   ZZ=             -0.7182
   XY=             -2.8778   XZ=              1.5552   YZ=              1.9722
 Octapole moment (field-independent basis, Debye-Ang**2):
  XXX=             -4.1541  YYY=              6.0694  ZZZ=             -4.8070  XYY=              4.4671
  XXY=              9.1070  XXZ=             -2.9121  XZZ=              3.5938  YZZ=              2.6437
  YYZ=             -3.5396  XYZ=             -3.1872
 Hexadecapole moment (field-independent basis, Debye-Ang**3):
 XXXX=          -1303.6407 YYYY=           -147.9735 ZZZZ=            -92.1393 XXXY=            -21.2894
 XXXZ=              8.1228 YYYX=            -10.2892 YYYZ=              7.1786 ZZZX=              6.4812
 ZZZY=              5.6102 XXYY=           -250.0048 XXZZ=           -238.2395 YYZZ=            -38.8068
 XXYZ=              7.9673 YYXZ=              5.5327 ZZXY=             -6.4386
 N-N= 2.464723762610D+02 E-N=-1.077015996807D+03  KE= 2.507081897472D+02
 No NMR shielding tensors so no spin-rotation constants.
 Leave Link  601 at Mon Oct  4 12:47:29 2021, MaxMem=  805306368 cpu:       0.8
 (Enter /sw/target/amd/app/gaussian/Gaussian09RevA.02_gcc-4.9.2/g09/l604.exe)
 Evaluate density.
 Using the total density.
 Monte-Carlo method of calculating molar volume:
 based on  0.001 e/bohr**3 density envelope.
 Number of points per bohr**3 =   20 CutOff= 1.00D-04
 Using the CI density.
 There are       338 points.  Will hold       338 in memory.
 LenV=   805252236 MDV=   805306368.
 Box volume = 4844.058 fraction occupied=0.249
 Integrated density= 4.3448608252608167D+01 error=-6.5513917473918326D+00
 Molar volume = 1203.849 bohr**3/mol (107.430 cm**3/mol)
 Recommended a0 for SCRF calculation =  4.34 angstrom (  8.21 bohr)
 Leave Link  604 at Mon Oct  4 12:47:30 2021, MaxMem=  805306368 cpu:       0.2
 (Enter /sw/target/amd/app/gaussian/Gaussian09RevA.02_gcc-4.9.2/g09/l607.exe)
 ******************************Gaussian NBO Version 3.1******************************
             N A T U R A L   A T O M I C   O R B I T A L   A N D
          N A T U R A L   B O N D   O R B I T A L   A N A L Y S I S
 ******************************Gaussian NBO Version 3.1******************************
       /RESON  / : Allow strongly delocalized NBO set

 Analyzing the CI density

 Job title: CCCCNC_conf_0                                                   

 Storage needed:     41586 in NPA ( 805304373 available)


 NATURAL POPULATIONS:  Natural atomic orbital occupancies 
                                                          
   NAO  Atom  No  lang   Type(AO)    Occupancy
 --------------------------------------------
     1    C    1  S      Cor( 1S)     1.99947
     2    C    1  S      Val( 2S)     1.10138
     3    C    1  S      Ryd( 3S)     0.00032
     4    C    1  S      Ryd( 4S)     0.00001
     5    C    1  px     Val( 2p)     1.12154
     6    C    1  px     Ryd( 3p)     0.00134
     7    C    1  py     Val( 2p)     1.20124
     8    C    1  py     Ryd( 3p)     0.00152
     9    C    1  pz     Val( 2p)     1.23999
    10    C    1  pz     Ryd( 3p)     0.00111
    11    C    1  dxy    Ryd( 3d)     0.00089
    12    C    1  dxz    Ryd( 3d)     0.00016
    13    C    1  dyz    Ryd( 3d)     0.00117
    14    C    1  dx2y2  Ryd( 3d)     0.00042
    15    C    1  dz2    Ryd( 3d)     0.00067

    16    C    2  S      Cor( 1S)     1.99935
    17    C    2  S      Val( 2S)     1.03325
    18    C    2  S      Ryd( 3S)     0.00076
    19    C    2  S      Ryd( 4S)     0.00002
    20    C    2  px     Val( 2p)     1.03405
    21    C    2  px     Ryd( 3p)     0.00170
    22    C    2  py     Val( 2p)     1.14630
    23    C    2  py     Ryd( 3p)     0.00254
    24    C    2  pz     Val( 2p)     1.23438
    25    C    2  pz     Ryd( 3p)     0.00266
    26    C    2  dxy    Ryd( 3d)     0.00064
    27    C    2  dxz    Ryd( 3d)     0.00026
    28    C    2  dyz    Ryd( 3d)     0.00142
    29    C    2  dx2y2  Ryd( 3d)     0.00061
    30    C    2  dz2    Ryd( 3d)     0.00059

    31    C    3  S      Cor( 1S)     1.99932
    32    C    3  S      Val( 2S)     1.03758
    33    C    3  S      Ryd( 3S)     0.00119
    34    C    3  S      Ryd( 4S)     0.00003
    35    C    3  px     Val( 2p)     1.02513
    36    C    3  px     Ryd( 3p)     0.00614
    37    C    3  py     Val( 2p)     1.15752
    38    C    3  py     Ryd( 3p)     0.00347
    39    C    3  pz     Val( 2p)     1.25055
    40    C    3  pz     Ryd( 3p)     0.00316
    41    C    3  dxy    Ryd( 3d)     0.00068
    42    C    3  dxz    Ryd( 3d)     0.00022
    43    C    3  dyz    Ryd( 3d)     0.00133
    44    C    3  dx2y2  Ryd( 3d)     0.00051
    45    C    3  dz2    Ryd( 3d)     0.00061

    46    C    4  S      Cor( 1S)     1.99932
    47    C    4  S      Val( 2S)     1.04824
    48    C    4  S      Ryd( 3S)     0.00284
    49    C    4  S      Ryd( 4S)     0.00003
    50    C    4  px     Val( 2p)     0.94084
    51    C    4  px     Ryd( 3p)     0.00764
    52    C    4  py     Val( 2p)     1.09457
    53    C    4  py     Ryd( 3p)     0.00524
    54    C    4  pz     Val( 2p)     1.23944
    55    C    4  pz     Ryd( 3p)     0.00239
    56    C    4  dxy    Ryd( 3d)     0.00144
    57    C    4  dxz    Ryd( 3d)     0.00046
    58    C    4  dyz    Ryd( 3d)     0.00130
    59    C    4  dx2y2  Ryd( 3d)     0.00080
    60    C    4  dz2    Ryd( 3d)     0.00084

    61    N    5  S      Cor( 1S)     1.99931
    62    N    5  S      Val( 2S)     1.41862
    63    N    5  S      Ryd( 3S)     0.01154
    64    N    5  S      Ryd( 4S)     0.00005
    65    N    5  px     Val( 2p)     1.24292
    66    N    5  px     Ryd( 3p)     0.00110
    67    N    5  py     Val( 2p)     1.30979
    68    N    5  py     Ryd( 3p)     0.00255
    69    N    5  pz     Val( 2p)     1.21781
    70    N    5  pz     Ryd( 3p)     0.00490
    71    N    5  dxy    Ryd( 3d)     0.00088
    72    N    5  dxz    Ryd( 3d)     0.00036
    73    N    5  dyz    Ryd( 3d)     0.00081
    74    N    5  dx2y2  Ryd( 3d)     0.00072
    75    N    5  dz2    Ryd( 3d)     0.00014

    76    C    6  S      Cor( 1S)     1.99948
    77    C    6  S      Val( 2S)     1.12223
    78    C    6  S      Ryd( 3S)     0.00185
    79    C    6  S      Ryd( 4S)     0.00002
    80    C    6  px     Val( 2p)     1.00574
    81    C    6  px     Ryd( 3p)     0.01093
    82    C    6  py     Val( 2p)     1.18686
    83    C    6  py     Ryd( 3p)     0.00521
    84    C    6  pz     Val( 2p)     1.23861
    85    C    6  pz     Ryd( 3p)     0.00115
    86    C    6  dxy    Ryd( 3d)     0.00153
    87    C    6  dxz    Ryd( 3d)     0.00025
    88    C    6  dyz    Ryd( 3d)     0.00105
    89    C    6  dx2y2  Ryd( 3d)     0.00074
    90    C    6  dz2    Ryd( 3d)     0.00093

    91    H    7  S      Val( 1S)     0.76721
    92    H    7  S      Ryd( 2S)     0.00080

    93    H    8  S      Val( 1S)     0.77361
    94    H    8  S      Ryd( 2S)     0.00108

    95    H    9  S      Val( 1S)     0.77156
    96    H    9  S      Ryd( 2S)     0.00126

    97    H   10  S      Val( 1S)     0.77369
    98    H   10  S      Ryd( 2S)     0.00166

    99    H   11  S      Val( 1S)     0.77391
   100    H   11  S      Ryd( 2S)     0.00353

   101    H   12  S      Val( 1S)     0.77275
   102    H   12  S      Ryd( 2S)     0.02754

   103    H   13  S      Val( 1S)     0.76759
   104    H   13  S      Ryd( 2S)     0.00498

   105    H   14  S      Val( 1S)     0.76269
   106    H   14  S      Ryd( 2S)     0.01544

   107    H   15  S      Val( 1S)     0.74225
   108    H   15  S      Ryd( 2S)     0.03088

   109    H   16  S      Val( 1S)     0.78426
   110    H   16  S      Ryd( 2S)     0.12027

   111    H   17  S      Val( 1S)     0.76812
   112    H   17  S      Ryd( 2S)     0.01493

   113    H   18  S      Val( 1S)     0.73834
   114    H   18  S      Ryd( 2S)     0.02244

   115    H   19  S      Val( 1S)     0.78106
   116    H   19  S      Ryd( 2S)     0.02744


 Summary of Natural Population Analysis:                  
                                                          
                                       Natural Population 
                Natural  -----------------------------------------------
    Atom  No    Charge         Core      Valence    Rydberg      Total
 -----------------------------------------------------------------------
      C    1   -0.67123      1.99947     4.66415    0.00761     6.67123
      C    2   -0.45854      1.99935     4.44799    0.01120     6.45854
      C    3   -0.48744      1.99932     4.47078    0.01734     6.48744
      C    4   -0.34540      1.99932     4.32310    0.02298     6.34540
      N    5   -0.21152      1.99931     5.18914    0.02307     7.21152
      C    6   -0.57658      1.99948     4.55344    0.02366     6.57658
      H    7    0.23200      0.00000     0.76721    0.00080     0.76800
      H    8    0.22531      0.00000     0.77361    0.00108     0.77469
      H    9    0.22718      0.00000     0.77156    0.00126     0.77282
      H   10    0.22465      0.00000     0.77369    0.00166     0.77535
      H   11    0.22257      0.00000     0.77391    0.00353     0.77743
      H   12    0.19972      0.00000     0.77275    0.02754     0.80028
      H   13    0.22743      0.00000     0.76759    0.00498     0.77257
      H   14    0.22186      0.00000     0.76269    0.01544     0.77814
      H   15    0.22687      0.00000     0.74225    0.03088     0.77313
      H   16    0.09547      0.00000     0.78426    0.12027     0.90453
      H   17    0.21695      0.00000     0.76812    0.01493     0.78305
      H   18    0.23922      0.00000     0.73834    0.02244     0.76078
      H   19    0.19150      0.00000     0.78106    0.02744     0.80850
 =======================================================================
   * Total *   -0.00000     11.99624    37.62565    0.37811    50.00000

                                 Natural Population      
 --------------------------------------------------------
   Core                      11.99624 ( 99.9687% of  12)
   Valence                   37.62565 ( 99.0149% of  38)
   Natural Minimal Basis     49.62189 ( 99.2438% of  50)
   Natural Rydberg Basis      0.37811 (  0.7562% of  50)
 --------------------------------------------------------

    Atom  No          Natural Electron Configuration
 ----------------------------------------------------------------------------
      C    1      [core]2S( 1.10)2p( 3.56)
      C    2      [core]2S( 1.03)2p( 3.41)3p( 0.01)
      C    3      [core]2S( 1.04)2p( 3.43)3p( 0.01)
      C    4      [core]2S( 1.05)2p( 3.27)3p( 0.02)
      N    5      [core]2S( 1.42)2p( 3.77)3S( 0.01)3p( 0.01)
      C    6      [core]2S( 1.12)2p( 3.43)3p( 0.02)
      H    7            1S( 0.77)
      H    8            1S( 0.77)
      H    9            1S( 0.77)
      H   10            1S( 0.77)
      H   11            1S( 0.77)
      H   12            1S( 0.77)2S( 0.03)
      H   13            1S( 0.77)
      H   14            1S( 0.76)2S( 0.02)
      H   15            1S( 0.74)2S( 0.03)
      H   16            1S( 0.78)2S( 0.12)
      H   17            1S( 0.77)2S( 0.01)
      H   18            1S( 0.74)2S( 0.02)
      H   19            1S( 0.78)2S( 0.03)


 NBO analysis skipped by request.
 Leave Link  607 at Mon Oct  4 12:48:28 2021, MaxMem=  805306368 cpu:      11.0
 (Enter /sw/target/amd/app/gaussian/Gaussian09RevA.02_gcc-4.9.2/g09/l9999.exe)
 1\1\GINC-HERMITE\SP\RTD-B3LYP-FC\6-31G(d)\C5H13N1\JSCHLEINITZ\04-Oct-2
 021\0\\#p TD(NStates=10, Root=1) b3lyp/6-31G* volume pop=NPA density=c
 urrent Geom=AllCheck Guess=Read\\CCCCNC_conf_0\\0,1\C,0,0.8752436989,0
 .0433376398,0.0297225965\C,0,2.4060167445,-0.0123929287,0.0597865569\C
 ,0,2.9978215575,-0.885053126,-1.0537965793\C,0,4.5265173607,-0.9385793
 95,-1.0335721161\N,0,5.0434246427,-1.8158707116,-2.0806470046\C,0,6.49
 97794529,-1.8667829917,-2.1179713601\H,0,0.4818716171,0.6729531256,0.8
 35950041\H,0,0.440238717,-0.9569507464,0.1449942966\H,0,0.5120466546,0
 .4535314496,-0.9207352699\H,0,2.7382951111,-0.3956003551,1.034976496\H
 ,0,2.8106428726,1.0065903416,-0.0203874255\H,0,2.6620524401,-0.5008550
 866,-2.0298114084\H,0,2.6105985133,-1.9094670644,-0.976421307\H,0,4.86
 55162381,-1.3390412423,-0.067392891\H,0,4.9342905424,0.0916542858,-1.0
 983041564\H,0,4.6992238026,-1.4873200347,-2.9819442036\H,0,6.870444285
 7,-2.3327542538,-1.1968663467\H,0,6.9907073365,-0.8786464388,-2.209524
 418\H,0,6.8240830618,-2.4893540524,-2.9586353118\\Version=AM64L-G09Rev
 A.02\State=1-A\HF=-253.1067523\RMSD=7.931e-10\Dipole=0.3613872,-0.0837
 754,0.671726\Quadrupole=2.7273998,0.6851349,-3.4125347,-0.3939409,0.31
 66917,-0.0968289\PG=C01 [X(C5H13N1)]\\@


 EVERYTHING'S GOT A MORAL, IF ONLY YOU CAN FIND IT.

                                    -- LEWIS CARROL, ALICE IN WONDERLAND
 Job cpu time:  0 days  0 hours 38 minutes 43.5 seconds.
 File lengths (MBytes):  RWF=     52 Int=      0 D2E=      0 Chk=      7 Scr=      1
 Normal termination of Gaussian 09 at Mon Oct  4 12:48:53 2021.
