 Entering Gaussian System, Link 0=g09
 Input=C5H7NS_8233_conf_0.com
 Output=C5H7NS_8233_conf_0.log
 Initial command:
 /sw/target/amd/app/gaussian/Gaussian09RevA.02_gcc-4.9.2/g09/l1.exe /home/jschleinitz/gaussian/Gau-3098265.inp -scrdir=/home/jschleinitz/gaussian/
 Entering Link 1 = /sw/target/amd/app/gaussian/Gaussian09RevA.02_gcc-4.9.2/g09/l1.exe PID=   3098284.
  
 Copyright (c) 1988,1990,1992,1993,1995,1998,2003,2009, Gaussian, Inc.
                  All Rights Reserved.
  
 This is part of the Gaussian(R) 09 program.  It is based on
 the Gaussian(R) 03 system (copyright 2003, Gaussian, Inc.),
 the Gaussian(R) 98 system (copyright 1998, Gaussian, Inc.),
 the Gaussian(R) 94 system (copyright 1995, Gaussian, Inc.),
 the Gaussian 92(TM) system (copyright 1992, Gaussian, Inc.),
 the Gaussian 90(TM) system (copyright 1990, Gaussian, Inc.),
 the Gaussian 88(TM) system (copyright 1988, Gaussian, Inc.),
 the Gaussian 86(TM) system (copyright 1986, Carnegie Mellon
 University), and the Gaussian 82(TM) system (copyright 1983,
 Carnegie Mellon University). Gaussian is a federally registered
 trademark of Gaussian, Inc.
  
 This software contains proprietary and confidential information,
 including trade secrets, belonging to Gaussian, Inc.
  
 This software is provided under written license and may be
 used, copied, transmitted, or stored only in accord with that
 written license.
  
 The following legend is applicable only to US Government
 contracts under FAR:
  
                    RESTRICTED RIGHTS LEGEND
  
 Use, reproduction and disclosure by the US Government is
 subject to restrictions as set forth in subparagraphs (a)
 and (c) of the Commercial Computer Software - Restricted
 Rights clause in FAR 52.227-19.
  
 Gaussian, Inc.
 340 Quinnipiac St., Bldg. 40, Wallingford CT 06492
  
  
 ---------------------------------------------------------------
 Warning -- This program may not be used in any manner that
 competes with the business of Gaussian, Inc. or will provide
 assistance to any competitor of Gaussian, Inc.  The licensee
 of this program is prohibited from giving any competitor of
 Gaussian, Inc. access to this program.  By using this program,
 the user acknowledges that Gaussian, Inc. is engaged in the
 business of creating and licensing software in the field of
 computational chemistry and represents and warrants to the
 licensee that it is not a competitor of Gaussian, Inc. and that
 it will not use this program in any manner prohibited above.
 ---------------------------------------------------------------
  

 Cite this work as:
 Gaussian 09, Revision A.02,
 M. J. Frisch, G. W. Trucks, H. B. Schlegel, G. E. Scuseria, 
 M. A. Robb, J. R. Cheeseman, G. Scalmani, V. Barone, B. Mennucci, 
 G. A. Petersson, H. Nakatsuji, M. Caricato, X. Li, H. P. Hratchian, 
 A. F. Izmaylov, J. Bloino, G. Zheng, J. L. Sonnenberg, M. Hada, 
 M. Ehara, K. Toyota, R. Fukuda, J. Hasegawa, M. Ishida, T. Nakajima, 
 Y. Honda, O. Kitao, H. Nakai, T. Vreven, J. A. Montgomery, Jr., 
 J. E. Peralta, F. Ogliaro, M. Bearpark, J. J. Heyd, E. Brothers, 
 K. N. Kudin, V. N. Staroverov, R. Kobayashi, J. Normand, 
 K. Raghavachari, A. Rendell, J. C. Burant, S. S. Iyengar, J. Tomasi, 
 M. Cossi, N. Rega, J. M. Millam, M. Klene, J. E. Knox, J. B. Cross, 
 V. Bakken, C. Adamo, J. Jaramillo, R. Gomperts, R. E. Stratmann, 
 O. Yazyev, A. J. Austin, R. Cammi, C. Pomelli, J. W. Ochterski, 
 R. L. Martin, K. Morokuma, V. G. Zakrzewski, G. A. Voth, 
 P. Salvador, J. J. Dannenberg, S. Dapprich, A. D. Daniels, 
 O. Farkas, J. B. Foresman, J. V. Ortiz, J. Cioslowski, 
 and D. J. Fox, Gaussian, Inc., Wallingford CT, 2009.
 
 ******************************************
 Gaussian 09:  AM64L-G09RevA.02 11-Jun-2009
                 4-Oct-2021 
 ******************************************
 %nproc=2
 Will use up to    2 processors via shared memory.
 %mem=4gb
 %chk=C5H7NS_8233_conf_0.chk
 -----------------------------------
 #p opt b3lyp/6-31G* scf=(xqc,tight)
 -----------------------------------
 1/14=-1,18=20,19=15,26=3,38=1/1,3;
 2/9=110,12=2,17=6,18=5,40=1/2;
 3/5=1,6=6,7=1,11=2,16=1,25=1,30=1,71=1,74=-5/1,2,3;
 4//1;
 5/5=2,8=3,13=1,32=2,38=5/2,8;
 6/7=2,8=2,9=2,10=2,28=1/1;
 7//1,2,3,16;
 1/14=-1,18=20,19=15/3(2);
 2/9=110/2;
 99//99;
 2/9=110/2;
 3/5=1,6=6,7=1,11=2,16=1,25=1,30=1,71=1,74=-5/1,2,3;
 4/5=5,16=3/1;
 5/5=2,8=3,13=1,32=2,38=5/2,8;
 7//1,2,3,16;
 1/14=-1,18=20,19=15/3(-5);
 2/9=110/2;
 6/7=2,8=2,9=2,10=2,19=2,28=1/1;
 99/9=1/99;
 Leave Link    1 at Mon Oct  4 21:19:17 2021, MaxMem=  536870912 cpu:       0.1
 (Enter /sw/target/amd/app/gaussian/Gaussian09RevA.02_gcc-4.9.2/g09/l101.exe)
 ----------------
 Cc1scnc1C_conf_0
 ----------------
 Symbolic Z-matrix:
 Charge =  0 Multiplicity = 1
 C                     0.52515  -2.23358   0.00807 
 C                     0.18335  -0.78607   0.00572 
 S                    -1.44912  -0.25998   0.00822 
 C                    -0.90946   1.36454   0.01073 
 N                     0.39205   1.54145   0.00694 
 C                     1.03051   0.31113   0.00408 
 C                     2.51668   0.28342   0.00203 
 H                    -0.36318  -2.873    -0.00434 
 H                     1.10561  -2.4826    0.90283 
 H                     1.12899  -2.48153  -0.87126 
 H                    -1.60484   2.19336   0.01529 
 H                     2.92908   1.2972    0.00066 
 H                     2.88837  -0.23605  -0.88674 
 H                     2.89017  -0.23444   0.89099 
 
 NAtoms=     14 NQM=     14 NQMF=      0 NMic=      0 NMicF=      0 NTot=     14.
                    Isotopes and Nuclear Properties:
 (Nuclear quadrupole moments (NQMom) in fm**2, nuclear magnetic moments (NMagM)
  in nuclear magnetons)

  Atom         1           2           3           4           5           6           7           8           9          10
 IAtWgt=          12          12          32          12          14          12          12           1           1           1
 AtmWgt=  12.0000000  12.0000000  31.9720718  12.0000000  14.0030740  12.0000000  12.0000000   1.0078250   1.0078250   1.0078250
 NucSpn=           0           0           0           0           2           0           0           1           1           1
 AtZEff=   0.0000000   0.0000000   0.0000000   0.0000000   0.0000000   0.0000000   0.0000000   0.0000000   0.0000000   0.0000000
 NQMom=    0.0000000   0.0000000   0.0000000   0.0000000   2.0440000   0.0000000   0.0000000   0.0000000   0.0000000   0.0000000
 NMagM=    0.0000000   0.0000000   0.0000000   0.0000000   0.4037610   0.0000000   0.0000000   2.7928460   2.7928460   2.7928460

  Atom        11          12          13          14
 IAtWgt=           1           1           1           1
 AtmWgt=   1.0078250   1.0078250   1.0078250   1.0078250
 NucSpn=           1           1           1           1
 AtZEff=   0.0000000   0.0000000   0.0000000   0.0000000
 NQMom=    0.0000000   0.0000000   0.0000000   0.0000000
 NMagM=    2.7928460   2.7928460   2.7928460   2.7928460
 Leave Link  101 at Mon Oct  4 21:19:18 2021, MaxMem=  536870912 cpu:       0.2
 (Enter /sw/target/amd/app/gaussian/Gaussian09RevA.02_gcc-4.9.2/g09/l103.exe)

 GradGradGradGradGradGradGradGradGradGradGradGradGradGradGradGradGradGrad
 Berny optimization.
 Initialization pass.
                           ----------------------------
                           !    Initial Parameters    !
                           ! (Angstroms and Degrees)  !
 --------------------------                            --------------------------
 ! Name  Definition              Value          Derivative Info.                !
 --------------------------------------------------------------------------------
 ! R1    R(1,2)                  1.4873         estimate D2E/DX2                !
 ! R2    R(1,8)                  1.0946         estimate D2E/DX2                !
 ! R3    R(1,9)                  1.0952         estimate D2E/DX2                !
 ! R4    R(1,10)                 1.0951         estimate D2E/DX2                !
 ! R5    R(2,3)                  1.7151         estimate D2E/DX2                !
 ! R6    R(2,6)                  1.3862         estimate D2E/DX2                !
 ! R7    R(3,4)                  1.7118         estimate D2E/DX2                !
 ! R8    R(4,5)                  1.3135         estimate D2E/DX2                !
 ! R9    R(4,11)                 1.0819         estimate D2E/DX2                !
 ! R10   R(5,6)                  1.3861         estimate D2E/DX2                !
 ! R11   R(6,7)                  1.4864         estimate D2E/DX2                !
 ! R12   R(7,12)                 1.0945         estimate D2E/DX2                !
 ! R13   R(7,13)                 1.0945         estimate D2E/DX2                !
 ! R14   R(7,14)                 1.0945         estimate D2E/DX2                !
 ! A1    A(2,1,8)              112.4577         estimate D2E/DX2                !
 ! A2    A(2,1,9)              110.1429         estimate D2E/DX2                !
 ! A3    A(2,1,10)             110.2303         estimate D2E/DX2                !
 ! A4    A(8,1,9)              107.8523         estimate D2E/DX2                !
 ! A5    A(8,1,10)             107.8258         estimate D2E/DX2                !
 ! A6    A(9,1,10)             108.1955         estimate D2E/DX2                !
 ! A7    A(1,2,3)              121.148          estimate D2E/DX2                !
 ! A8    A(1,2,6)              129.0422         estimate D2E/DX2                !
 ! A9    A(3,2,6)              109.8098         estimate D2E/DX2                !
 ! A10   A(2,3,4)               89.4865         estimate D2E/DX2                !
 ! A11   A(3,4,5)              116.1162         estimate D2E/DX2                !
 ! A12   A(3,4,11)             121.6275         estimate D2E/DX2                !
 ! A13   A(5,4,11)             122.2563         estimate D2E/DX2                !
 ! A14   A(4,5,6)              109.6861         estimate D2E/DX2                !
 ! A15   A(2,6,5)              114.9012         estimate D2E/DX2                !
 ! A16   A(2,6,7)              126.6041         estimate D2E/DX2                !
 ! A17   A(5,6,7)              118.4946         estimate D2E/DX2                !
 ! A18   A(6,7,12)             111.068          estimate D2E/DX2                !
 ! A19   A(6,7,13)             110.4577         estimate D2E/DX2                !
 ! A20   A(6,7,14)             110.4186         estimate D2E/DX2                !
 ! A21   A(12,7,13)            108.0989         estimate D2E/DX2                !
 ! A22   A(12,7,14)            108.1018         estimate D2E/DX2                !
 ! A23   A(13,7,14)            108.608          estimate D2E/DX2                !
 ! D1    D(8,1,2,3)              0.8923         estimate D2E/DX2                !
 ! D2    D(8,1,2,6)           -179.246          estimate D2E/DX2                !
 ! D3    D(9,1,2,3)           -119.4356         estimate D2E/DX2                !
 ! D4    D(9,1,2,6)             60.4261         estimate D2E/DX2                !
 ! D5    D(10,1,2,3)           121.2471         estimate D2E/DX2                !
 ! D6    D(10,1,2,6)           -58.8912         estimate D2E/DX2                !
 ! D7    D(1,2,3,4)            179.7592         estimate D2E/DX2                !
 ! D8    D(6,2,3,4)             -0.1266         estimate D2E/DX2                !
 ! D9    D(1,2,6,5)           -179.7771         estimate D2E/DX2                !
 ! D10   D(1,2,6,7)              0.11           estimate D2E/DX2                !
 ! D11   D(3,2,6,5)              0.0971         estimate D2E/DX2                !
 ! D12   D(3,2,6,7)            179.9842         estimate D2E/DX2                !
 ! D13   D(2,3,4,5)              0.1411         estimate D2E/DX2                !
 ! D14   D(2,3,4,11)          -179.852          estimate D2E/DX2                !
 ! D15   D(3,4,5,6)             -0.1085         estimate D2E/DX2                !
 ! D16   D(11,4,5,6)           179.8846         estimate D2E/DX2                !
 ! D17   D(4,5,6,2)              0.0041         estimate D2E/DX2                !
 ! D18   D(4,5,6,7)           -179.8928         estimate D2E/DX2                !
 ! D19   D(2,6,7,12)           179.9793         estimate D2E/DX2                !
 ! D20   D(2,6,7,13)            60.0436         estimate D2E/DX2                !
 ! D21   D(2,6,7,14)           -60.1071         estimate D2E/DX2                !
 ! D22   D(5,6,7,12)            -0.1372         estimate D2E/DX2                !
 ! D23   D(5,6,7,13)          -120.0729         estimate D2E/DX2                !
 ! D24   D(5,6,7,14)           119.7764         estimate D2E/DX2                !
 --------------------------------------------------------------------------------
 Trust Radius=3.00D-01 FncErr=1.00D-07 GrdErr=1.00D-06
 Number of steps in this run=  71 maximum allowed number of steps= 100.
 GradGradGradGradGradGradGradGradGradGradGradGradGradGradGradGradGradGrad

 Leave Link  103 at Mon Oct  4 21:19:18 2021, MaxMem=  536870912 cpu:       0.0
 (Enter /sw/target/amd/app/gaussian/Gaussian09RevA.02_gcc-4.9.2/g09/l202.exe)
                          Input orientation:                          
 ---------------------------------------------------------------------
 Center     Atomic      Atomic             Coordinates (Angstroms)
 Number     Number       Type             X           Y           Z
 ---------------------------------------------------------------------
      1          6           0        0.525150   -2.233580    0.008069
      2          6           0        0.183353   -0.786069    0.005722
      3         16           0       -1.449115   -0.259978    0.008220
      4          6           0       -0.909462    1.364540    0.010728
      5          7           0        0.392051    1.541449    0.006936
      6          6           0        1.030509    0.311126    0.004084
      7          6           0        2.516679    0.283418    0.002026
      8          1           0       -0.363182   -2.872996   -0.004339
      9          1           0        1.105614   -2.482597    0.902828
     10          1           0        1.128995   -2.481530   -0.871265
     11          1           0       -1.604838    2.193360    0.015293
     12          1           0        2.929076    1.297200    0.000660
     13          1           0        2.888372   -0.236049   -0.886739
     14          1           0        2.890166   -0.234442    0.890988
 ---------------------------------------------------------------------
                    Distance matrix (angstroms):
                    1          2          3          4          5
     1  C    0.000000
     2  C    1.487320   0.000000
     3  S    2.791564   1.715147   0.000000
     4  C    3.873575   2.412340   1.711808   0.000000
     5  N    3.777375   2.336856   2.575855   1.313487   0.000000
     6  C    2.594404   1.386186   2.544545   2.207536   1.386121
     7  C    3.209596   2.566754   4.002854   3.592680   2.469152
     8  H    1.094595   2.157328   2.829712   4.272629   4.478596
     9  H    1.095237   2.129219   3.502428   4.433603   4.183866
    10  H    1.095142   2.130243   3.515030   4.441336   4.183142
    11  H    4.912708   3.474869   2.458285   1.081901   2.100624
    12  H    4.271454   3.446597   4.646871   3.839142   2.548763
    13  H    3.221123   2.901058   4.428918   4.217923   3.192142
    14  H    3.220155   2.900832   4.428238   4.215303   3.189971
                    6          7          8          9         10
     6  C    0.000000
     7  C    1.486430   0.000000
     8  H    3.475784   4.272773   0.000000
     9  H    2.935689   3.233169   1.769951   0.000000
    10  H    2.928286   3.214536   1.769576   1.774248   0.000000
    11  H    3.238516   4.542572   5.216326   5.477120   5.487661
    12  H    2.139371   1.094453   5.313146   4.292526   4.275435
    13  H    2.131812   1.094488   4.278402   3.380496   2.852689
    14  H    2.131330   1.094497   4.283438   2.870359   3.355094
                   11         12         13         14
    11  H    0.000000
    12  H    4.621654   0.000000
    13  H    5.186967   1.772000   0.000000
    14  H    5.183254   1.772040   1.777728   0.000000
 Stoichiometry    C5H7NS
 Framework group  C1[X(C5H7NS)]
 Deg. of freedom    36
 Full point group                 C1      NOp   1
 Largest Abelian subgroup         C1      NOp   1
 Largest concise Abelian subgroup C1      NOp   1
                         Standard orientation:                         
 ---------------------------------------------------------------------
 Center     Atomic      Atomic             Coordinates (Angstroms)
 Number     Number       Type             X           Y           Z
 ---------------------------------------------------------------------
      1          6           0       -0.699693    2.076526    0.001214
      2          6           0       -0.145500    0.696314   -0.001133
      3         16           0        1.547239    0.419986    0.001365
      4          6           0        1.256314   -1.266918    0.003873
      5          7           0       -0.004169   -1.636263    0.000082
      6          6           0       -0.819251   -0.515119   -0.002770
      7          6           0       -2.292885   -0.709727   -0.004828
      8          1           0        0.083155    2.841467   -0.011193
      9          1           0       -1.310843    2.236038    0.895974
     10          1           0       -1.333802    2.231490   -0.878119
     11          1           0        2.067697   -1.982563    0.008438
     12          1           0       -2.549214   -1.773739   -0.006194
     13          1           0       -2.738006   -0.251613   -0.893593
     14          1           0       -2.739539   -0.253470    0.884133
 ---------------------------------------------------------------------
 Rotational constants (GHZ):      3.2109987      2.4633657      1.4188475
 Leave Link  202 at Mon Oct  4 21:19:18 2021, MaxMem=  536870912 cpu:       0.0
 (Enter /sw/target/amd/app/gaussian/Gaussian09RevA.02_gcc-4.9.2/g09/l301.exe)
 Standard basis: 6-31G(d) (6D, 7F)
 Ernie: Thresh=  0.10000D-02 Tol=  0.10000D-05 Strict=F.
 There are   123 symmetry adapted basis functions of A   symmetry.
 Integral buffers will be    131072 words long.
 Raffenetti 2 integral format.
 Two-electron integral symmetry is turned on.
   123 basis functions,   248 primitive gaussians,   123 cartesian basis functions
    30 alpha electrons       30 beta electrons
       nuclear repulsion energy       354.6692294056 Hartrees.
 IExCor=  402 DFT=T Ex+Corr=B3LYP ExCW=0 ScaHFX=  0.200000
 ScaDFX=  0.800000  0.720000  1.000000  0.810000 ScalE2=  1.000000  1.000000
 IRadAn=      0 IRanWt=     -1 IRanGd=            0 ICorTp=0
 NAtoms=   14 NActive=   14 NUniq=   14 SFac= 7.50D-01 NAtFMM=   80 NAOKFM=F Big=F
 Leave Link  301 at Mon Oct  4 21:19:18 2021, MaxMem=  536870912 cpu:       0.1
 (Enter /sw/target/amd/app/gaussian/Gaussian09RevA.02_gcc-4.9.2/g09/l302.exe)
 NPDir=0 NMtPBC=     1 NCelOv=     1 NCel=       1 NClECP=     1 NCelD=      1
         NCelK=      1 NCelE2=     1 NClLst=     1 CellRange=     0.0.
 One-electron integrals computed using PRISM.
 NBasis=   123 RedAO= T  NBF=   123
 NBsUse=   123 1.00D-06 NBFU=   123
 Precomputing XC quadrature grid using
 IXCGrd= 2 IRadAn=           0 IRanWt=          -1 IRanGd=           0 AccXCQ= 1.00D-10.
 NRdTot=     870 NPtTot=      110480 NUsed=      116765 NTot=      116797
 NSgBfM=   123   123   123   123   123 NAtAll=    14    14.
 Leave Link  302 at Mon Oct  4 21:19:19 2021, MaxMem=  536870912 cpu:       0.6
 (Enter /sw/target/amd/app/gaussian/Gaussian09RevA.02_gcc-4.9.2/g09/l303.exe)
 DipDrv:  MaxL=1.
 Leave Link  303 at Mon Oct  4 21:19:19 2021, MaxMem=  536870912 cpu:       0.1
 (Enter /sw/target/amd/app/gaussian/Gaussian09RevA.02_gcc-4.9.2/g09/l401.exe)
 Harris functional with IExCor=  402 diagonalized for initial guess.
 ExpMin= 1.17D-01 ExpMax= 2.19D+04 ExpMxC= 3.30D+03 IAcc=1 IRadAn=         1 AccDes= 0.00D+00
 HarFok:  IExCor=  402 AccDes= 0.00D+00 IRadAn=         1 IDoV= 1
 ScaDFX=  1.000000  1.000000  1.000000  1.000000
 FoFCou: FMM=F IPFlag=           0 FMFlag=      100000 FMFlg1=           0
         NFxFlg=           0 DoJE=T BraDBF=F KetDBF=T FulRan=T
         Omega=  0.000000  0.000000  1.000000  0.000000  0.000000 ICntrl=     500 IOpCl=  0
         NMat0=    1 NMatS0=    1 NMatT0=    0 NMatD0=    1 NMtDS0=    0 NMtDT0=    0
         I1Cent=           4 NGrid=           0.
 Petite list used in FoFCou.
 Harris En= -647.741499911932    
 Initial guess orbital symmetries:
       Occupied  (A) (A) (A) (A) (A) (A) (A) (A) (A) (A) (A) (A)
                 (A) (A) (A) (A) (A) (A) (A) (A) (A) (A) (A) (A)
                 (A) (A) (A) (A) (A) (A)
       Virtual   (A) (A) (A) (A) (A) (A) (A) (A) (A) (A) (A) (A)
                 (A) (A) (A) (A) (A) (A) (A) (A) (A) (A) (A) (A)
                 (A) (A) (A) (A) (A) (A) (A) (A) (A) (A) (A) (A)
                 (A) (A) (A) (A) (A) (A) (A) (A) (A) (A) (A) (A)
                 (A) (A) (A) (A) (A) (A) (A) (A) (A) (A) (A) (A)
                 (A) (A) (A) (A) (A) (A) (A) (A) (A) (A) (A) (A)
                 (A) (A) (A) (A) (A) (A) (A) (A) (A) (A) (A) (A)
                 (A) (A) (A) (A) (A) (A) (A) (A) (A)
 The electronic state of the initial guess is 1-A.
 Leave Link  401 at Mon Oct  4 21:19:25 2021, MaxMem=  536870912 cpu:       2.4
 (Enter /sw/target/amd/app/gaussian/Gaussian09RevA.02_gcc-4.9.2/g09/l502.exe)
 Closed shell SCF:
 Requested convergence on RMS density matrix=1.00D-08 within  64 cycles.
 Requested convergence on MAX density matrix=1.00D-06.
 Requested convergence on             energy=1.00D-06.
 No special actions if energy rises.
 Using DIIS extrapolation, IDIIS=  1040.
 Integral symmetry usage will be decided dynamically.
       116626 words used for storage of precomputed grid.
 Keep R1 ints in memory in canonical form, NReq=30204236.
 IEnd=      169221 IEndB=      169221 NGot=   536870912 MDV=   507639389
 LenX=   507639389 LenY=   507623819
 Symmetry not used in FoFDir.
 MinBra= 0 MaxBra= 2 Meth= 1.
 IRaf=       0 NMat=   1 IRICut=       1 DoRegI=T DoRafI=F ISym2E= 0 JSym2E=0.
 Integral accuracy reduced to 1.0D-05 until final iterations.

 Cycle   1  Pass 0  IDiag  1:
 E= -647.391379160135    
 DIIS: error= 5.07D-02 at cycle   1 NSaved=   1.
 NSaved= 1 IEnMin= 1 EnMin= -647.391379160135     IErMin= 1 ErrMin= 5.07D-02
 ErrMax= 5.07D-02 EMaxC= 1.00D-01 BMatC= 2.66D-01 BMatP= 2.66D-01
 IDIUse=3 WtCom= 4.93D-01 WtEn= 5.07D-01
 Coeff-Com:  0.100D+01
 Coeff-En:   0.100D+01
 Coeff:      0.100D+01
 Gap=     0.201 Goal=   None    Shift=    0.000
 GapD=    0.201 DampG=1.000 DampE=0.500 DampFc=0.5000 IDamp=-1.
 Damping current iteration by 5.00D-01
 RMSDP=1.57D-02 MaxDP=2.97D-01              OVMax= 4.35D-01

 Cycle   2  Pass 0  IDiag  1:
 E= -647.387330191959     Delta-E=        0.004048968177 Rises=F Damp=T
 DIIS: error= 2.29D-02 at cycle   2 NSaved=   2.
 NSaved= 2 IEnMin= 1 EnMin= -647.391379160135     IErMin= 2 ErrMin= 2.29D-02
 ErrMax= 2.29D-02 EMaxC= 1.00D-01 BMatC= 7.59D-02 BMatP= 2.66D-01
 IDIUse=3 WtCom= 7.71D-01 WtEn= 2.29D-01
 Coeff-Com:  0.306D+00 0.694D+00
 Coeff-En:   0.505D+00 0.495D+00
 Coeff:      0.352D+00 0.648D+00
 Gap=     0.241 Goal=   None    Shift=    0.000
 RMSDP=6.22D-03 MaxDP=1.51D-01 DE= 4.05D-03 OVMax= 4.01D-01

 Cycle   3  Pass 0  IDiag  1:
 E= -647.633411820969     Delta-E=       -0.246081629011 Rises=F Damp=F
 DIIS: error= 1.38D-02 at cycle   3 NSaved=   3.
 NSaved= 3 IEnMin= 3 EnMin= -647.633411820969     IErMin= 3 ErrMin= 1.38D-02
 ErrMax= 1.38D-02 EMaxC= 1.00D-01 BMatC= 5.01D-02 BMatP= 7.59D-02
 IDIUse=3 WtCom= 8.62D-01 WtEn= 1.38D-01
 Coeff-Com:  0.148D+00 0.423D+00 0.428D+00
 Coeff-En:   0.000D+00 0.000D+00 0.100D+01
 Coeff:      0.128D+00 0.365D+00 0.507D+00
 Gap=     0.208 Goal=   None    Shift=    0.000
 RMSDP=2.21D-03 MaxDP=5.41D-02 DE=-2.46D-01 OVMax= 8.23D-02

 Cycle   4  Pass 0  IDiag  1:
 E= -647.676881324234     Delta-E=       -0.043469503265 Rises=F Damp=F
 DIIS: error= 5.67D-03 at cycle   4 NSaved=   4.
 NSaved= 4 IEnMin= 4 EnMin= -647.676881324234     IErMin= 4 ErrMin= 5.67D-03
 ErrMax= 5.67D-03 EMaxC= 1.00D-01 BMatC= 6.44D-03 BMatP= 5.01D-02
 IDIUse=3 WtCom= 9.43D-01 WtEn= 5.67D-02
 Coeff-Com:  0.141D-01 0.533D-01 0.267D+00 0.665D+00
 Coeff-En:   0.000D+00 0.000D+00 0.105D+00 0.895D+00
 Coeff:      0.133D-01 0.503D-01 0.258D+00 0.678D+00
 Gap=     0.207 Goal=   None    Shift=    0.000
 RMSDP=7.58D-04 MaxDP=1.55D-02 DE=-4.35D-02 OVMax= 2.25D-02

 Cycle   5  Pass 0  IDiag  1:
 E= -647.682249373020     Delta-E=       -0.005368048786 Rises=F Damp=F
 DIIS: error= 1.75D-03 at cycle   5 NSaved=   5.
 NSaved= 5 IEnMin= 5 EnMin= -647.682249373020     IErMin= 5 ErrMin= 1.75D-03
 ErrMax= 1.75D-03 EMaxC= 1.00D-01 BMatC= 5.48D-04 BMatP= 6.44D-03
 IDIUse=3 WtCom= 9.82D-01 WtEn= 1.75D-02
 Coeff-Com:  0.693D-03 0.152D-02 0.113D+00 0.375D+00 0.509D+00
 Coeff-En:   0.000D+00 0.000D+00 0.000D+00 0.000D+00 0.100D+01
 Coeff:      0.680D-03 0.149D-02 0.111D+00 0.369D+00 0.518D+00
 Gap=     0.210 Goal=   None    Shift=    0.000
 RMSDP=2.59D-04 MaxDP=7.38D-03 DE=-5.37D-03 OVMax= 1.00D-02

 Cycle   6  Pass 0  IDiag  1:
 E= -647.682759622053     Delta-E=       -0.000510249033 Rises=F Damp=F
 DIIS: error= 7.42D-04 at cycle   6 NSaved=   6.
 NSaved= 6 IEnMin= 6 EnMin= -647.682759622053     IErMin= 6 ErrMin= 7.42D-04
 ErrMax= 7.42D-04 EMaxC= 1.00D-01 BMatC= 6.16D-05 BMatP= 5.48D-04
 IDIUse=3 WtCom= 9.93D-01 WtEn= 7.42D-03
 Coeff-Com:  0.223D-03-0.554D-02 0.376D-01 0.137D+00 0.293D+00 0.537D+00
 Coeff-En:   0.000D+00 0.000D+00 0.000D+00 0.000D+00 0.433D-01 0.957D+00
 Coeff:      0.222D-03-0.550D-02 0.374D-01 0.136D+00 0.291D+00 0.540D+00
 Gap=     0.210 Goal=   None    Shift=    0.000
 RMSDP=9.57D-05 MaxDP=2.49D-03 DE=-5.10D-04 OVMax= 5.50D-03

 Cycle   7  Pass 0  IDiag  1:
 E= -647.682816157895     Delta-E=       -0.000056535842 Rises=F Damp=F
 DIIS: error= 2.38D-04 at cycle   7 NSaved=   7.
 NSaved= 7 IEnMin= 7 EnMin= -647.682816157895     IErMin= 7 ErrMin= 2.38D-04
 ErrMax= 2.38D-04 EMaxC= 1.00D-01 BMatC= 1.09D-05 BMatP= 6.16D-05
 IDIUse=3 WtCom= 9.98D-01 WtEn= 2.38D-03
 Coeff-Com:  0.414D-03-0.375D-02 0.131D-01 0.469D-01 0.127D+00 0.348D+00
 Coeff-Com:  0.468D+00
 Coeff-En:   0.000D+00 0.000D+00 0.000D+00 0.000D+00 0.000D+00 0.130D+00
 Coeff-En:   0.870D+00
 Coeff:      0.413D-03-0.374D-02 0.131D-01 0.468D-01 0.127D+00 0.348D+00
 Coeff:      0.469D+00
 Gap=     0.210 Goal=   None    Shift=    0.000
 RMSDP=2.98D-05 MaxDP=8.60D-04 DE=-5.65D-05 OVMax= 1.70D-03

 Cycle   8  Pass 0  IDiag  1:
 E= -647.682827256349     Delta-E=       -0.000011098454 Rises=F Damp=F
 DIIS: error= 4.95D-05 at cycle   8 NSaved=   8.
 NSaved= 8 IEnMin= 8 EnMin= -647.682827256349     IErMin= 8 ErrMin= 4.95D-05
 ErrMax= 4.95D-05 EMaxC= 1.00D-01 BMatC= 3.73D-07 BMatP= 1.09D-05
 IDIUse=1 WtCom= 1.00D+00 WtEn= 0.00D+00
 Coeff-Com:  0.305D-03-0.137D-02 0.222D-02 0.547D-02 0.232D-01 0.927D-01
 Coeff-Com:  0.186D+00 0.692D+00
 Coeff:      0.305D-03-0.137D-02 0.222D-02 0.547D-02 0.232D-01 0.927D-01
 Coeff:      0.186D+00 0.692D+00
 Gap=     0.210 Goal=   None    Shift=    0.000
 RMSDP=7.57D-06 MaxDP=1.18D-04 DE=-1.11D-05 OVMax= 2.17D-04

 Initial convergence to 1.0D-05 achieved.  Increase integral accuracy.
 Cycle   9  Pass 1  IDiag  1:
 E= -647.682880874077     Delta-E=       -0.000053617728 Rises=F Damp=F
 DIIS: error= 1.45D-05 at cycle   1 NSaved=   1.
 NSaved= 1 IEnMin= 1 EnMin= -647.682880874077     IErMin= 1 ErrMin= 1.45D-05
 ErrMax= 1.45D-05 EMaxC= 1.00D-01 BMatC= 6.57D-08 BMatP= 6.57D-08
 IDIUse=1 WtCom= 1.00D+00 WtEn= 0.00D+00
 Coeff-Com:  0.100D+01
 Coeff:      0.100D+01
 Gap=     0.210 Goal=   None    Shift=    0.000
 RMSDP=7.57D-06 MaxDP=1.18D-04 DE=-5.36D-05 OVMax= 1.52D-04

 Cycle  10  Pass 1  IDiag  1:
 E= -647.682880873920     Delta-E=        0.000000000158 Rises=F Damp=F
 DIIS: error= 1.95D-05 at cycle   2 NSaved=   2.
 NSaved= 2 IEnMin= 1 EnMin= -647.682880874077     IErMin= 1 ErrMin= 1.45D-05
 ErrMax= 1.95D-05 EMaxC= 1.00D-01 BMatC= 8.65D-08 BMatP= 6.57D-08
 IDIUse=1 WtCom= 1.00D+00 WtEn= 0.00D+00
 Coeff-Com:  0.541D+00 0.459D+00
 Coeff:      0.541D+00 0.459D+00
 Gap=     0.210 Goal=   None    Shift=    0.000
 RMSDP=3.14D-06 MaxDP=7.91D-05 DE= 1.58D-10 OVMax= 1.36D-04

 Cycle  11  Pass 1  IDiag  1:
 E= -647.682880946764     Delta-E=       -0.000000072844 Rises=F Damp=F
 DIIS: error= 9.99D-06 at cycle   3 NSaved=   3.
 NSaved= 3 IEnMin= 3 EnMin= -647.682880946764     IErMin= 3 ErrMin= 9.99D-06
 ErrMax= 9.99D-06 EMaxC= 1.00D-01 BMatC= 1.34D-08 BMatP= 6.57D-08
 IDIUse=1 WtCom= 1.00D+00 WtEn= 0.00D+00
 Coeff-Com:  0.116D+00 0.281D+00 0.602D+00
 Coeff:      0.116D+00 0.281D+00 0.602D+00
 Gap=     0.210 Goal=   None    Shift=    0.000
 RMSDP=1.30D-06 MaxDP=3.17D-05 DE=-7.28D-08 OVMax= 4.86D-05

 Cycle  12  Pass 1  IDiag  1:
 E= -647.682880957711     Delta-E=       -0.000000010947 Rises=F Damp=F
 DIIS: error= 2.96D-06 at cycle   4 NSaved=   4.
 NSaved= 4 IEnMin= 4 EnMin= -647.682880957711     IErMin= 4 ErrMin= 2.96D-06
 ErrMax= 2.96D-06 EMaxC= 1.00D-01 BMatC= 1.74D-09 BMatP= 1.34D-08
 IDIUse=1 WtCom= 1.00D+00 WtEn= 0.00D+00
 Coeff-Com: -0.125D-01 0.968D-01 0.345D+00 0.571D+00
 Coeff:     -0.125D-01 0.968D-01 0.345D+00 0.571D+00
 Gap=     0.210 Goal=   None    Shift=    0.000
 RMSDP=4.80D-07 MaxDP=7.17D-06 DE=-1.09D-08 OVMax= 1.48D-05

 Cycle  13  Pass 1  IDiag  1:
 E= -647.682880959405     Delta-E=       -0.000000001695 Rises=F Damp=F
 DIIS: error= 7.87D-07 at cycle   5 NSaved=   5.
 NSaved= 5 IEnMin= 5 EnMin= -647.682880959405     IErMin= 5 ErrMin= 7.87D-07
 ErrMax= 7.87D-07 EMaxC= 1.00D-01 BMatC= 9.67D-11 BMatP= 1.74D-09
 IDIUse=1 WtCom= 1.00D+00 WtEn= 0.00D+00
 Coeff-Com: -0.103D-01 0.479D-01 0.179D+00 0.331D+00 0.452D+00
 Coeff:     -0.103D-01 0.479D-01 0.179D+00 0.331D+00 0.452D+00
 Gap=     0.210 Goal=   None    Shift=    0.000
 RMSDP=1.20D-07 MaxDP=4.19D-06 DE=-1.69D-09 OVMax= 5.57D-06

 Cycle  14  Pass 1  IDiag  1:
 E= -647.682880959514     Delta-E=       -0.000000000109 Rises=F Damp=F
 DIIS: error= 2.89D-07 at cycle   6 NSaved=   6.
 NSaved= 6 IEnMin= 6 EnMin= -647.682880959514     IErMin= 6 ErrMin= 2.89D-07
 ErrMax= 2.89D-07 EMaxC= 1.00D-01 BMatC= 7.22D-12 BMatP= 9.67D-11
 IDIUse=1 WtCom= 1.00D+00 WtEn= 0.00D+00
 Coeff-Com: -0.525D-02 0.193D-01 0.737D-01 0.143D+00 0.266D+00 0.504D+00
 Coeff:     -0.525D-02 0.193D-01 0.737D-01 0.143D+00 0.266D+00 0.504D+00
 Gap=     0.210 Goal=   None    Shift=    0.000
 RMSDP=2.92D-08 MaxDP=8.62D-07 DE=-1.09D-10 OVMax= 1.79D-06

 Cycle  15  Pass 1  IDiag  1:
 E= -647.682880959529     Delta-E=       -0.000000000014 Rises=F Damp=F
 DIIS: error= 7.48D-08 at cycle   7 NSaved=   7.
 NSaved= 7 IEnMin= 7 EnMin= -647.682880959529     IErMin= 7 ErrMin= 7.48D-08
 ErrMax= 7.48D-08 EMaxC= 1.00D-01 BMatC= 9.73D-13 BMatP= 7.22D-12
 IDIUse=1 WtCom= 1.00D+00 WtEn= 0.00D+00
 Coeff-Com: -0.892D-03 0.242D-02 0.899D-02 0.208D-01 0.757D-01 0.298D+00
 Coeff-Com:  0.595D+00
 Coeff:     -0.892D-03 0.242D-02 0.899D-02 0.208D-01 0.757D-01 0.298D+00
 Coeff:      0.595D+00
 Gap=     0.210 Goal=   None    Shift=    0.000
 RMSDP=1.11D-08 MaxDP=3.15D-07 DE=-1.43D-11 OVMax= 4.37D-07

 Cycle  16  Pass 1  IDiag  1:
 E= -647.682880959523     Delta-E=        0.000000000005 Rises=F Damp=F
 DIIS: error= 1.80D-08 at cycle   8 NSaved=   8.
 NSaved= 8 IEnMin= 7 EnMin= -647.682880959529     IErMin= 8 ErrMin= 1.80D-08
 ErrMax= 1.80D-08 EMaxC= 1.00D-01 BMatC= 7.06D-14 BMatP= 9.73D-13
 IDIUse=1 WtCom= 1.00D+00 WtEn= 0.00D+00
 Coeff-Com: -0.814D-04-0.112D-03-0.934D-03 0.452D-03 0.162D-01 0.964D-01
 Coeff-Com:  0.294D+00 0.594D+00
 Coeff:     -0.814D-04-0.112D-03-0.934D-03 0.452D-03 0.162D-01 0.964D-01
 Coeff:      0.294D+00 0.594D+00
 Gap=     0.210 Goal=   None    Shift=    0.000
 RMSDP=3.19D-09 MaxDP=6.73D-08 DE= 5.23D-12 OVMax= 8.98D-08

 SCF Done:  E(RB3LYP) =  -647.682880960     A.U. after   16 cycles
             Convg  =    0.3189D-08             -V/T =  2.0056
 KE= 6.440665949324D+02 PE=-2.233636913101D+03 EE= 5.872182078029D+02
 Leave Link  502 at Mon Oct  4 21:32:20 2021, MaxMem=  536870912 cpu:      50.7
 (Enter /sw/target/amd/app/gaussian/Gaussian09RevA.02_gcc-4.9.2/g09/l508.exe)
 QCSCF skips out because SCF is already converged.
 Leave Link  508 at Mon Oct  4 21:32:29 2021, MaxMem=  536870912 cpu:       0.0
 (Enter /sw/target/amd/app/gaussian/Gaussian09RevA.02_gcc-4.9.2/g09/l601.exe)
 Copying SCF densities to generalized density rwf, IOpCl= 0 IROHF=0.

 **********************************************************************

            Population analysis using the SCF density.

 **********************************************************************

 Orbital symmetries:
       Occupied  (A) (A) (A) (A) (A) (A) (A) (A) (A) (A) (A) (A)
                 (A) (A) (A) (A) (A) (A) (A) (A) (A) (A) (A) (A)
                 (A) (A) (A) (A) (A) (A)
       Virtual   (A) (A) (A) (A) (A) (A) (A) (A) (A) (A) (A) (A)
                 (A) (A) (A) (A) (A) (A) (A) (A) (A) (A) (A) (A)
                 (A) (A) (A) (A) (A) (A) (A) (A) (A) (A) (A) (A)
                 (A) (A) (A) (A) (A) (A) (A) (A) (A) (A) (A) (A)
                 (A) (A) (A) (A) (A) (A) (A) (A) (A) (A) (A) (A)
                 (A) (A) (A) (A) (A) (A) (A) (A) (A) (A) (A) (A)
                 (A) (A) (A) (A) (A) (A) (A) (A) (A) (A) (A) (A)
                 (A) (A) (A) (A) (A) (A) (A) (A) (A)
 The electronic state is 1-A.
 Alpha  occ. eigenvalues --  -88.91073 -14.32789 -10.23787 -10.21707 -10.21505
 Alpha  occ. eigenvalues --  -10.19913 -10.18208  -7.97360  -5.93718  -5.93371
 Alpha  occ. eigenvalues --   -5.93099  -0.95339  -0.81160  -0.77713  -0.71942
 Alpha  occ. eigenvalues --   -0.66424  -0.57632  -0.53355  -0.47966  -0.44641
 Alpha  occ. eigenvalues --   -0.42943  -0.41395  -0.41366  -0.38855  -0.37925
 Alpha  occ. eigenvalues --   -0.37739  -0.34851  -0.27450  -0.26743  -0.22550
 Alpha virt. eigenvalues --   -0.01593   0.01990   0.05370   0.09593   0.11576
 Alpha virt. eigenvalues --    0.13645   0.13967   0.15512   0.16398   0.16728
 Alpha virt. eigenvalues --    0.20891   0.22378   0.25976   0.26521   0.28754
 Alpha virt. eigenvalues --    0.33308   0.35317   0.38795   0.42352   0.44903
 Alpha virt. eigenvalues --    0.49281   0.51499   0.54267   0.55422   0.57239
 Alpha virt. eigenvalues --    0.60794   0.62190   0.63104   0.66863   0.70697
 Alpha virt. eigenvalues --    0.71164   0.72669   0.76611   0.77866   0.81224
 Alpha virt. eigenvalues --    0.83072   0.83897   0.85361   0.86885   0.87274
 Alpha virt. eigenvalues --    0.87424   0.89062   0.90772   0.93273   0.94712
 Alpha virt. eigenvalues --    0.96629   0.99218   1.03508   1.04367   1.05840
 Alpha virt. eigenvalues --    1.14635   1.20492   1.31047   1.35504   1.37258
 Alpha virt. eigenvalues --    1.42067   1.49061   1.49965   1.57385   1.58817
 Alpha virt. eigenvalues --    1.76114   1.76406   1.77607   1.89153   1.90456
 Alpha virt. eigenvalues --    1.94986   1.96636   2.05964   2.07600   2.11820
 Alpha virt. eigenvalues --    2.14162   2.20293   2.23261   2.26240   2.26274
 Alpha virt. eigenvalues --    2.33949   2.36667   2.44023   2.46482   2.48464
 Alpha virt. eigenvalues --    2.57289   2.58492   2.66814   2.78163   3.01522
 Alpha virt. eigenvalues --    3.10096   3.94696   4.00583   4.08268   4.21479
 Alpha virt. eigenvalues --    4.23340   4.32996   4.54285
          Condensed to atoms (all electrons):
              1          2          3          4          5          6
     1  C    5.123285   0.339504  -0.057117   0.003280   0.006567  -0.029589
     2  C    0.339504   5.241534   0.313616  -0.062275  -0.059209   0.571491
     3  S   -0.057117   0.313616  15.419595   0.296110  -0.088229  -0.079180
     4  C    0.003280  -0.062275   0.296110   5.114780   0.495693  -0.086998
     5  N    0.006567  -0.059209  -0.088229   0.495693   6.700073   0.443204
     6  C   -0.029589   0.571491  -0.079180  -0.086998   0.443204   4.607067
     7  C   -0.006844  -0.092206   0.007924   0.010416  -0.073284   0.373229
     8  H    0.370548  -0.022650  -0.003926   0.000023  -0.000117   0.003353
     9  H    0.372975  -0.035340   0.002118   0.000027  -0.000014  -0.006102
    10  H    0.372805  -0.034981   0.002204   0.000021  -0.000011  -0.006144
    11  H   -0.000062   0.002872  -0.054723   0.365912  -0.037469   0.006370
    12  H   -0.000050   0.005818  -0.000064   0.000127   0.002952  -0.020812
    13  H    0.001058  -0.003822   0.000115  -0.000195   0.001790  -0.030281
    14  H    0.001098  -0.003887   0.000118  -0.000196   0.001773  -0.030316
              7          8          9         10         11         12
     1  C   -0.006844   0.370548   0.372975   0.372805  -0.000062  -0.000050
     2  C   -0.092206  -0.022650  -0.035340  -0.034981   0.002872   0.005818
     3  S    0.007924  -0.003926   0.002118   0.002204  -0.054723  -0.000064
     4  C    0.010416   0.000023   0.000027   0.000021   0.365912   0.000127
     5  N   -0.073284  -0.000117  -0.000014  -0.000011  -0.037469   0.002952
     6  C    0.373229   0.003353  -0.006102  -0.006144   0.006370  -0.020812
     7  C    5.213861  -0.000007   0.001496   0.001584  -0.000217   0.358900
     8  H   -0.000007   0.543400  -0.028122  -0.027993  -0.000002  -0.000000
     9  H    0.001496  -0.028122   0.550054  -0.031999   0.000002  -0.000017
    10  H    0.001584  -0.027993  -0.031999   0.549792   0.000002  -0.000018
    11  H   -0.000217  -0.000002   0.000002   0.000002   0.543004  -0.000023
    12  H    0.358900  -0.000000  -0.000017  -0.000018  -0.000023   0.523318
    13  H    0.363914  -0.000001  -0.000667   0.002504   0.000004  -0.025084
    14  H    0.364016  -0.000003   0.002431  -0.000691   0.000004  -0.025104
             13         14
     1  C    0.001058   0.001098
     2  C   -0.003822  -0.003887
     3  S    0.000115   0.000118
     4  C   -0.000195  -0.000196
     5  N    0.001790   0.001773
     6  C   -0.030281  -0.030316
     7  C    0.363914   0.364016
     8  H   -0.000001  -0.000003
     9  H   -0.000667   0.002431
    10  H    0.002504  -0.000691
    11  H    0.000004   0.000004
    12  H   -0.025084  -0.025104
    13  H    0.563723  -0.032560
    14  H   -0.032560   0.563769
 Mulliken atomic charges:
              1
     1  C   -0.497458
     2  C   -0.160466
     3  S    0.241439
     4  C   -0.136726
     5  N   -0.393719
     6  C    0.284709
     7  C   -0.522782
     8  H    0.165497
     9  H    0.173157
    10  H    0.172924
    11  H    0.174324
    12  H    0.180054
    13  H    0.159501
    14  H    0.159547
 Sum of Mulliken atomic charges =  -0.00000
 Mulliken charges with hydrogens summed into heavy atoms:
              1
     1  C    0.014120
     2  C   -0.160466
     3  S    0.241439
     4  C    0.037599
     5  N   -0.393719
     6  C    0.284709
     7  C   -0.023680
 Sum of Mulliken charges with hydrogens summed into heavy atoms =  -0.00000
 Electronic spatial extent (au):  <R**2>=            852.1818
 Charge=              0.0000 electrons
 Dipole moment (field-independent basis, Debye):
    X=             -0.2494    Y=              1.8021    Z=              0.0039  Tot=              1.8193
 Quadrupole moment (field-independent basis, Debye-Ang):
   XX=            -44.4499   YY=            -49.4807   ZZ=            -49.9015
   XY=             -2.7425   XZ=              0.0147   YZ=             -0.0096
 Traceless Quadrupole moment (field-independent basis, Debye-Ang):
   XX=              3.4941   YY=             -1.5367   ZZ=             -1.9574
   XY=             -2.7425   XZ=              0.0147   YZ=             -0.0096
 Octapole moment (field-independent basis, Debye-Ang**2):
  XXX=              3.3609  YYY=             12.4845  ZZZ=              0.0249  XYY=              4.5100
  XXY=             -7.9660  XXZ=              0.0014  XZZ=             -2.3513  YZZ=              1.1219
  YYZ=              0.0046  XYZ=             -0.0425
 Hexadecapole moment (field-independent basis, Debye-Ang**3):
 XXXX=           -592.7096 YYYY=           -492.7045 ZZZZ=            -66.9940 XXXY=            -11.6048
 XXXZ=             -0.3404 YYYX=             -5.2651 YYYZ=             -0.1649 ZZZX=             -0.4998
 ZZZY=             -0.0033 XXYY=           -166.4335 XXZZ=           -111.8364 YYZZ=            -93.4663
 XXYZ=             -0.1156 YYXZ=             -0.1063 ZZXY=             -2.2615
 N-N= 3.546692294056D+02 E-N=-2.233636914963D+03  KE= 6.440665949324D+02
 No NMR shielding tensors so no spin-rotation constants.
 Leave Link  601 at Mon Oct  4 21:32:30 2021, MaxMem=  536870912 cpu:       0.4
 (Enter /sw/target/amd/app/gaussian/Gaussian09RevA.02_gcc-4.9.2/g09/l701.exe)
 Compute integral first derivatives.
 ... and contract with generalized density number  0.
 Leave Link  701 at Mon Oct  4 21:32:30 2021, MaxMem=  536870912 cpu:       0.6
 (Enter /sw/target/amd/app/gaussian/Gaussian09RevA.02_gcc-4.9.2/g09/l702.exe)
 L702 exits ... SP integral derivatives will be done elsewhere.
 Leave Link  702 at Mon Oct  4 21:32:30 2021, MaxMem=  536870912 cpu:       0.1
 (Enter /sw/target/amd/app/gaussian/Gaussian09RevA.02_gcc-4.9.2/g09/l703.exe)
 Compute integral first derivatives, UseDBF=F ICtDFT=           0.
 Integral derivatives from FoFDir, PRISM(SPDF).
 Calling FoFJK, ICntrl=      2127 FMM=F ISym2X=0 I1Cent= 0 IOpClX= 0 NMat=1 NMatS=1 NMatT=0.
 FoFCou: FMM=F IPFlag=           0 FMFlag=      100000 FMFlg1=         800
         NFxFlg=           0 DoJE=F BraDBF=F KetDBF=F FulRan=T
         Omega=  0.000000  0.000000  1.000000  0.000000  0.000000 ICntrl=    2127 IOpCl=  0
         NMat0=    1 NMatS0=    1 NMatT0=    0 NMatD0=    1 NMtDS0=    0 NMtDT0=    0
         I1Cent=           0 NGrid=           0.
 Symmetry not used in FoFCou.
 Leave Link  703 at Mon Oct  4 21:32:47 2021, MaxMem=  536870912 cpu:      18.5
 (Enter /sw/target/amd/app/gaussian/Gaussian09RevA.02_gcc-4.9.2/g09/l716.exe)
 Dipole        =-9.81300089D-02 7.09009756D-01 1.55061061D-03
 ***** Axes restored to original set *****
 -------------------------------------------------------------------
 Center     Atomic                   Forces (Hartrees/Bohr)
 Number     Number              X              Y              Z
 -------------------------------------------------------------------
      1        6           0.003850363   -0.004526878   -0.000008348
      2        6           0.012954984    0.006802686   -0.000273222
      3       16          -0.012292545   -0.003373333    0.000222390
      4        6           0.010358598    0.020019230   -0.000132875
      5        7          -0.011065583   -0.010132149    0.000140637
      6        6          -0.016550828    0.003178523    0.000103882
      7        6           0.006320249   -0.002537364   -0.000011126
      8        1           0.000710308    0.000558457    0.000031754
      9        1           0.001550056   -0.002893627    0.000176597
     10        1           0.001582008   -0.002736373   -0.000157605
     11        1          -0.002198596    0.000278125   -0.000089658
     12        1          -0.002750656   -0.000756149    0.000008006
     13        1           0.003744687   -0.001952232    0.000042716
     14        1           0.003786955   -0.001928917   -0.000053149
 -------------------------------------------------------------------
 Cartesian Forces:  Max     0.020019230 RMS     0.006067627
 Leave Link  716 at Mon Oct  4 21:32:48 2021, MaxMem=  536870912 cpu:       0.1
 (Enter /sw/target/amd/app/gaussian/Gaussian09RevA.02_gcc-4.9.2/g09/l103.exe)

 GradGradGradGradGradGradGradGradGradGradGradGradGradGradGradGradGradGrad
 Berny optimization.
 Internal  Forces:  Max     0.013599922 RMS     0.004314354
 Search for a local minimum.
 Step number   1 out of a maximum of   71
 All quantities printed in internal units (Hartrees-Bohrs-Radians)
 RMS Force = .43144D-02 SwitMx=.10000D-02 MixMth= 1
 Mixed Optimization -- RFO/linear search
 Second derivative matrix not updated -- first step.
     Eigenvalues ---    0.00934   0.00945   0.01444   0.01516   0.01968
     Eigenvalues ---    0.02101   0.02274   0.07213   0.07384   0.07433
     Eigenvalues ---    0.07469   0.16000   0.16000   0.16000   0.16000
     Eigenvalues ---    0.16000   0.16000   0.16000   0.23446   0.25000
     Eigenvalues ---    0.25000   0.25000   0.33277   0.33653   0.33745
     Eigenvalues ---    0.33844   0.34214   0.34225   0.34287   0.34298
     Eigenvalues ---    0.34299   0.34303   0.35766   0.45582   0.47005
     Eigenvalues ---    0.609731000.000001000.000001000.000001000.00000
     Eigenvalues --- 1000.000001000.000001000.000001000.000001000.00000
     Eigenvalues --- 1000.000001000.000001000.000001000.000001000.00000
     Eigenvalues --- 1000.000001000.000001000.000001000.000001000.00000
     Eigenvalues --- 1000.000001000.000001000.000001000.000001000.00000
     Eigenvalues --- 1000.00000
 RFO step:  Lambda=-3.82653991D-03 EMin= 9.33682044D-03
 Linear search not attempted -- first point.
 Iteration  1 RMS(Cart)=  0.02861449 RMS(Int)=  0.00022768
 Iteration  2 RMS(Cart)=  0.00039153 RMS(Int)=  0.00010731
 Iteration  3 RMS(Cart)=  0.00000005 RMS(Int)=  0.00010731
 Variable       Old X    -DE/DX   Delta X   Delta X   Delta X     New X
                                 (Linear)    (Quad)   (Total)
    R1        2.81063   0.01111   0.00000   0.03256   0.03256   2.84319
    R2        2.06849  -0.00090   0.00000  -0.00261  -0.00261   2.06588
    R3        2.06970   0.00162   0.00000   0.00470   0.00470   2.07439
    R4        2.06952   0.00162   0.00000   0.00468   0.00468   2.07420
    R5        3.24116   0.01360   0.00000   0.04034   0.04027   3.28143
    R6        2.61951  -0.00930   0.00000  -0.01988  -0.01988   2.59963
    R7        3.23485   0.01067   0.00000   0.03188   0.03186   3.26671
    R8        2.48213  -0.00884   0.00000  -0.01397  -0.01391   2.46822
    R9        2.04450   0.00163   0.00000   0.00450   0.00450   2.04899
   R10        2.61939   0.00075   0.00000   0.00041   0.00048   2.61987
   R11        2.80895   0.01123   0.00000   0.03281   0.03281   2.84176
   R12        2.06822  -0.00174   0.00000  -0.00500  -0.00500   2.06321
   R13        2.06828   0.00216   0.00000   0.00624   0.00624   2.07452
   R14        2.06830   0.00216   0.00000   0.00623   0.00623   2.07453
    A1        1.96276  -0.00136   0.00000  -0.00889  -0.00884   1.95391
    A2        1.92236   0.00346   0.00000   0.02148   0.02138   1.94374
    A3        1.92388   0.00320   0.00000   0.01980   0.01971   1.94359
    A4        1.88238  -0.00127   0.00000  -0.00827  -0.00823   1.87415
    A5        1.88192  -0.00116   0.00000  -0.00778  -0.00774   1.87417
    A6        1.88837  -0.00316   0.00000  -0.01805  -0.01827   1.87010
    A7        2.11443   0.00710   0.00000   0.02767   0.02771   2.14214
    A8        2.25221  -0.00286   0.00000  -0.01158  -0.01154   2.24067
    A9        1.91654  -0.00423   0.00000  -0.01609  -0.01617   1.90037
   A10        1.56183   0.00072   0.00000   0.00950   0.00931   1.57115
   A11        2.02661  -0.00708   0.00000  -0.02974  -0.02971   1.99690
   A12        2.12280   0.00200   0.00000   0.00546   0.00545   2.12825
   A13        2.13377   0.00508   0.00000   0.02428   0.02427   2.15804
   A14        1.91438   0.00792   0.00000   0.02837   0.02853   1.94291
   A15        2.00540   0.00267   0.00000   0.00799   0.00804   2.01344
   A16        2.20966  -0.00645   0.00000  -0.02412  -0.02414   2.18552
   A17        2.06812   0.00377   0.00000   0.01613   0.01611   2.08423
   A18        1.93850  -0.00470   0.00000  -0.02936  -0.02915   1.90935
   A19        1.92785   0.00441   0.00000   0.02723   0.02712   1.95497
   A20        1.92717   0.00449   0.00000   0.02774   0.02763   1.95480
   A21        1.88668  -0.00000   0.00000  -0.00067  -0.00048   1.88620
   A22        1.88673  -0.00003   0.00000  -0.00081  -0.00061   1.88612
   A23        1.89557  -0.00437   0.00000  -0.02539  -0.02577   1.86979
    D1        0.01557   0.00003   0.00000   0.00129   0.00130   0.01687
    D2       -3.12843   0.00001   0.00000   0.00031   0.00030  -3.12813
    D3       -2.08454   0.00015   0.00000   0.00282   0.00294  -2.08161
    D4        1.05463   0.00013   0.00000   0.00185   0.00194   1.05657
    D5        2.11616  -0.00013   0.00000  -0.00079  -0.00089   2.11527
    D6       -1.02785  -0.00015   0.00000  -0.00177  -0.00189  -1.02973
    D7        3.13739   0.00010   0.00000   0.00466   0.00466  -3.14114
    D8       -0.00221   0.00012   0.00000   0.00547   0.00549   0.00328
    D9       -3.13770  -0.00007   0.00000  -0.00326  -0.00327  -3.14097
   D10        0.00192  -0.00003   0.00000  -0.00062  -0.00065   0.00127
   D11        0.00169  -0.00008   0.00000  -0.00410  -0.00411  -0.00241
   D12        3.14132  -0.00003   0.00000  -0.00146  -0.00148   3.13983
   D13        0.00246  -0.00015   0.00000  -0.00624  -0.00619  -0.00372
   D14       -3.13901  -0.00010   0.00000  -0.00416  -0.00415   3.14002
   D15       -0.00189   0.00012   0.00000   0.00488   0.00487   0.00298
   D16        3.13958   0.00007   0.00000   0.00279   0.00280  -3.14081
   D17        0.00007  -0.00002   0.00000  -0.00035  -0.00037  -0.00030
   D18       -3.13972  -0.00005   0.00000  -0.00272  -0.00278   3.14068
   D19        3.14123  -0.00003   0.00000  -0.00180  -0.00179   3.13944
   D20        1.04796   0.00013   0.00000   0.00024   0.00046   1.04842
   D21       -1.04907  -0.00018   0.00000  -0.00365  -0.00388  -1.05294
   D22       -0.00239   0.00001   0.00000   0.00092   0.00092  -0.00148
   D23       -2.09567   0.00017   0.00000   0.00295   0.00317  -2.09249
   D24        2.09049  -0.00013   0.00000  -0.00094  -0.00117   2.08933
         Item               Value     Threshold  Converged?
 Maximum Force            0.013600     0.000450     NO 
 RMS     Force            0.004314     0.000300     NO 
 Maximum Displacement     0.090739     0.001800     NO 
 RMS     Displacement     0.028703     0.001200     NO 
 Predicted change in Energy=-1.942154D-03
 GradGradGradGradGradGradGradGradGradGradGradGradGradGradGradGradGradGrad

 Leave Link  103 at Mon Oct  4 21:32:51 2021, MaxMem=  536870912 cpu:       0.6
 (Enter /sw/target/amd/app/gaussian/Gaussian09RevA.02_gcc-4.9.2/g09/l202.exe)
                          Input orientation:                          
 ---------------------------------------------------------------------
 Center     Atomic      Atomic             Coordinates (Angstroms)
 Number     Number       Type             X           Y           Z
 ---------------------------------------------------------------------
      1          6           0        0.548734   -2.237611    0.007393
      2          6           0        0.175009   -0.780217    0.007496
      3         16           0       -1.473108   -0.233460    0.014355
      4          6           0       -0.929392    1.407468    0.009322
      5          7           0        0.369383    1.545835    0.007478
      6          6           0        1.007432    0.315013    0.006219
      7          6           0        2.510292    0.262123    0.002837
      8          1           0       -0.331867   -2.885305   -0.005028
      9          1           0        1.136215   -2.499930    0.896801
     10          1           0        1.156965   -2.494283   -0.869499
     11          1           0       -1.622401    2.241377    0.009844
     12          1           0        2.908895    1.278561    0.000270
     13          1           0        2.901654   -0.259370   -0.880350
     14          1           0        2.905557   -0.256348    0.886073
 ---------------------------------------------------------------------
                    Distance matrix (angstroms):
                    1          2          3          4          5
     1  C    0.000000
     2  C    1.504549   0.000000
     3  S    2.846843   1.736456   0.000000
     4  C    3.933378   2.450647   1.728669   0.000000
     5  N    3.787695   2.334159   2.561389   1.306126   0.000000
     6  C    2.593510   1.375666   2.540466   2.223681   1.386374
     7  C    3.177484   2.557350   4.014126   3.625367   2.496283
     8  H    1.093215   2.165289   2.887055   4.334183   4.486303
     9  H    1.097722   2.161526   3.567095   4.508005   4.212736
    10  H    1.097617   2.161337   3.579078   4.510972   4.208554
    11  H    4.977466   3.515781   2.479341   1.084281   2.109736
    12  H    4.234841   3.422389   4.635553   3.840462   2.553548
    13  H    3.199650   2.914471   4.465390   4.271625   3.234100
    14  H    3.201889   2.915858   4.464652   4.271278   3.232951
                    6          7          8          9         10
     6  C    0.000000
     7  C    1.503794   0.000000
     8  H    3.469277   4.240782   0.000000
     9  H    2.955270   3.211883   1.765525   0.000000
    10  H    2.946418   3.192215   1.765454   1.766431   0.000000
    11  H    3.259895   4.582210   5.286641   5.556676   5.560988
    12  H    2.131671   1.091805   5.276395   4.268859   4.249718
    13  H    2.168870   1.097788   4.256452   3.360826   2.835294
    14  H    2.168750   1.097794   4.264550   2.857331   3.338855
                   11         12         13         14
    11  H    0.000000
    12  H    4.632466   0.000000
    13  H    5.245308   1.772223   0.000000
    14  H    5.244884   1.772175   1.766430   0.000000
 Stoichiometry    C5H7NS
 Framework group  C1[X(C5H7NS)]
 Deg. of freedom    36
 Full point group                 C1      NOp   1
 Largest Abelian subgroup         C1      NOp   1
 Largest concise Abelian subgroup C1      NOp   1
                         Standard orientation:                         
 ---------------------------------------------------------------------
 Center     Atomic      Atomic             Coordinates (Angstroms)
 Number     Number       Type             X           Y           Z
 ---------------------------------------------------------------------
      1          6           0       -0.911613    2.013973   -0.000866
      2          6           0       -0.208038    0.684067   -0.001292
      3         16           0        1.522186    0.537108    0.001244
      4          6           0        1.376492   -1.185408   -0.001746
      5          7           0        0.145888   -1.623103    0.000010
      6          6           0       -0.761827   -0.575207    0.000080
      7          6           0       -2.235524   -0.874566    0.000792
      8          1           0       -0.206551    2.849306   -0.015916
      9          1           0       -1.541798    2.132782    0.890057
     10          1           0       -1.565215    2.120738   -0.876177
     11          1           0        2.245002   -1.834526   -0.002837
     12          1           0       -2.385872   -1.955969   -0.000341
     13          1           0       -2.740077   -0.459681   -0.881498
     14          1           0       -2.738608   -0.461820    0.884930
 ---------------------------------------------------------------------
 Rotational constants (GHZ):      3.1962067      2.4272220      1.4036682
 Leave Link  202 at Mon Oct  4 21:32:51 2021, MaxMem=  536870912 cpu:       0.0
 (Enter /sw/target/amd/app/gaussian/Gaussian09RevA.02_gcc-4.9.2/g09/l301.exe)
 Standard basis: 6-31G(d) (6D, 7F)
 Ernie: Thresh=  0.10000D-02 Tol=  0.10000D-05 Strict=F.
 There are   123 symmetry adapted basis functions of A   symmetry.
 Integral buffers will be    131072 words long.
 Raffenetti 2 integral format.
 Two-electron integral symmetry is turned on.
   123 basis functions,   248 primitive gaussians,   123 cartesian basis functions
    30 alpha electrons       30 beta electrons
       nuclear repulsion energy       352.9350264715 Hartrees.
 IExCor=  402 DFT=T Ex+Corr=B3LYP ExCW=0 ScaHFX=  0.200000
 ScaDFX=  0.800000  0.720000  1.000000  0.810000 ScalE2=  1.000000  1.000000
 IRadAn=      0 IRanWt=     -1 IRanGd=            0 ICorTp=0
 NAtoms=   14 NActive=   14 NUniq=   14 SFac= 7.50D-01 NAtFMM=   80 NAOKFM=F Big=F
 Leave Link  301 at Mon Oct  4 21:32:51 2021, MaxMem=  536870912 cpu:       0.1
 (Enter /sw/target/amd/app/gaussian/Gaussian09RevA.02_gcc-4.9.2/g09/l302.exe)
 NPDir=0 NMtPBC=     1 NCelOv=     1 NCel=       1 NClECP=     1 NCelD=      1
         NCelK=      1 NCelE2=     1 NClLst=     1 CellRange=     0.0.
 One-electron integrals computed using PRISM.
 NBasis=   123 RedAO= T  NBF=   123
 NBsUse=   123 1.00D-06 NBFU=   123
 Precomputing XC quadrature grid using
 IXCGrd= 2 IRadAn=           0 IRanWt=          -1 IRanGd=           0 AccXCQ= 1.00D-10.
 NRdTot=     870 NPtTot=      110480 NUsed=      116765 NTot=      116797
 NSgBfM=   123   123   123   123   123 NAtAll=    14    14.
 Leave Link  302 at Mon Oct  4 21:32:53 2021, MaxMem=  536870912 cpu:       0.7
 (Enter /sw/target/amd/app/gaussian/Gaussian09RevA.02_gcc-4.9.2/g09/l303.exe)
 DipDrv:  MaxL=1.
 Leave Link  303 at Mon Oct  4 21:32:54 2021, MaxMem=  536870912 cpu:       0.1
 (Enter /sw/target/amd/app/gaussian/Gaussian09RevA.02_gcc-4.9.2/g09/l401.exe)
 Initial guess read from the read-write file.
 B after Tr=     0.000000    0.000000    0.000000
         Rot=    1.000000    0.000000    0.000000    0.000000 Ang=   0.00 deg.
 Guess basis will be translated and rotated to current coordinates.
 Initial guess orbital symmetries:
       Occupied  (A) (A) (A) (A) (A) (A) (A) (A) (A) (A) (A) (A)
                 (A) (A) (A) (A) (A) (A) (A) (A) (A) (A) (A) (A)
                 (A) (A) (A) (A) (A) (A)
       Virtual   (A) (A) (A) (A) (A) (A) (A) (A) (A) (A) (A) (A)
                 (A) (A) (A) (A) (A) (A) (A) (A) (A) (A) (A) (A)
                 (A) (A) (A) (A) (A) (A) (A) (A) (A) (A) (A) (A)
                 (A) (A) (A) (A) (A) (A) (A) (A) (A) (A) (A) (A)
                 (A) (A) (A) (A) (A) (A) (A) (A) (A) (A) (A) (A)
                 (A) (A) (A) (A) (A) (A) (A) (A) (A) (A) (A) (A)
                 (A) (A) (A) (A) (A) (A) (A) (A) (A) (A) (A) (A)
                 (A) (A) (A) (A) (A) (A) (A) (A) (A)
 The electronic state of the initial guess is 1-A.
 Generating alternative initial guess.
 Harris functional with IExCor=  402 diagonalized for initial guess.
 ExpMin= 1.17D-01 ExpMax= 2.19D+04 ExpMxC= 3.30D+03 IAcc=1 IRadAn=         1 AccDes= 0.00D+00
 HarFok:  IExCor=  402 AccDes= 0.00D+00 IRadAn=         1 IDoV= 1
 ScaDFX=  1.000000  1.000000  1.000000  1.000000
 FoFCou: FMM=F IPFlag=           0 FMFlag=      100000 FMFlg1=           0
         NFxFlg=           0 DoJE=T BraDBF=F KetDBF=T FulRan=T
         Omega=  0.000000  0.000000  1.000000  0.000000  0.000000 ICntrl=     500 IOpCl=  0
         NMat0=    1 NMatS0=    1 NMatT0=    0 NMatD0=    1 NMtDS0=    0 NMtDT0=    0
         I1Cent=           4 NGrid=           0.
 Petite list used in FoFCou.
 Harris En= -647.740293540371    
 Leave Link  401 at Mon Oct  4 21:32:58 2021, MaxMem=  536870912 cpu:       2.7
 (Enter /sw/target/amd/app/gaussian/Gaussian09RevA.02_gcc-4.9.2/g09/l502.exe)
 Closed shell SCF:
 Requested convergence on RMS density matrix=1.00D-08 within  64 cycles.
 Requested convergence on MAX density matrix=1.00D-06.
 Requested convergence on             energy=1.00D-06.
 No special actions if energy rises.
 Using DIIS extrapolation, IDIIS=  1040.
 Integral symmetry usage will be decided dynamically.
       116626 words used for storage of precomputed grid.
 Keep R1 ints in memory in canonical form, NReq=30204236.
 IEnd=      169221 IEndB=      169221 NGot=   536870912 MDV=   507639389
 LenX=   507639389 LenY=   507623819
 Symmetry not used in FoFDir.
 MinBra= 0 MaxBra= 2 Meth= 1.
 IRaf=       0 NMat=   1 IRICut=       1 DoRegI=T DoRafI=F ISym2E= 0 JSym2E=0.
 Integral accuracy reduced to 1.0D-05 until final iterations.

 Cycle   1  Pass 0  IDiag  1:
 E= -647.669285274652    
 DIIS: error= 8.38D-03 at cycle   1 NSaved=   1.
 NSaved= 1 IEnMin= 1 EnMin= -647.669285274652     IErMin= 1 ErrMin= 8.38D-03
 ErrMax= 8.38D-03 EMaxC= 1.00D-01 BMatC= 8.80D-03 BMatP= 8.80D-03
 IDIUse=3 WtCom= 9.16D-01 WtEn= 8.38D-02
 Coeff-Com:  0.100D+01
 Coeff-En:   0.100D+01
 Coeff:      0.100D+01
 Gap=     0.213 Goal=   None    Shift=    0.000
 GapD=    0.213 DampG=1.000 DampE=1.000 DampFc=1.0000 IDamp=-1.
 RMSDP=1.17D-03 MaxDP=1.84D-02              OVMax= 3.15D-02

 Cycle   2  Pass 0  IDiag  1:
 E= -647.684464411882     Delta-E=       -0.015179137230 Rises=F Damp=F
 DIIS: error= 9.36D-04 at cycle   2 NSaved=   2.
 NSaved= 2 IEnMin= 2 EnMin= -647.684464411882     IErMin= 2 ErrMin= 9.36D-04
 ErrMax= 9.36D-04 EMaxC= 1.00D-01 BMatC= 1.52D-04 BMatP= 8.80D-03
 IDIUse=3 WtCom= 9.91D-01 WtEn= 9.36D-03
 Coeff-Com: -0.519D-01 0.105D+01
 Coeff-En:   0.000D+00 0.100D+01
 Coeff:     -0.515D-01 0.105D+01
 Gap=     0.213 Goal=   None    Shift=    0.000
 RMSDP=2.03D-04 MaxDP=3.84D-03 DE=-1.52D-02 OVMax= 6.48D-03

 Cycle   3  Pass 0  IDiag  1:
 E= -647.684496121725     Delta-E=       -0.000031709843 Rises=F Damp=F
 DIIS: error= 1.12D-03 at cycle   3 NSaved=   3.
 NSaved= 3 IEnMin= 3 EnMin= -647.684496121725     IErMin= 2 ErrMin= 9.36D-04
 ErrMax= 1.12D-03 EMaxC= 1.00D-01 BMatC= 1.66D-04 BMatP= 1.52D-04
 IDIUse=3 WtCom= 9.89D-01 WtEn= 1.12D-02
 Coeff-Com: -0.392D-01 0.566D+00 0.473D+00
 Coeff-En:   0.000D+00 0.438D+00 0.562D+00
 Coeff:     -0.387D-01 0.565D+00 0.474D+00
 Gap=     0.212 Goal=   None    Shift=    0.000
 RMSDP=1.21D-04 MaxDP=2.86D-03 DE=-3.17D-05 OVMax= 5.17D-03

 Cycle   4  Pass 0  IDiag  1:
 E= -647.684653681774     Delta-E=       -0.000157560049 Rises=F Damp=F
 DIIS: error= 2.94D-04 at cycle   4 NSaved=   4.
 NSaved= 4 IEnMin= 4 EnMin= -647.684653681774     IErMin= 4 ErrMin= 2.94D-04
 ErrMax= 2.94D-04 EMaxC= 1.00D-01 BMatC= 8.85D-06 BMatP= 1.52D-04
 IDIUse=3 WtCom= 9.97D-01 WtEn= 2.94D-03
 Coeff-Com: -0.155D-01 0.204D+00 0.240D+00 0.571D+00
 Coeff-En:   0.000D+00 0.000D+00 0.000D+00 0.100D+01
 Coeff:     -0.155D-01 0.203D+00 0.239D+00 0.573D+00
 Gap=     0.212 Goal=   None    Shift=    0.000
 RMSDP=3.37D-05 MaxDP=1.00D-03 DE=-1.58D-04 OVMax= 2.05D-03

 Cycle   5  Pass 0  IDiag  1:
 E= -647.684660735920     Delta-E=       -0.000007054146 Rises=F Damp=F
 DIIS: error= 1.21D-04 at cycle   5 NSaved=   5.
 NSaved= 5 IEnMin= 5 EnMin= -647.684660735920     IErMin= 5 ErrMin= 1.21D-04
 ErrMax= 1.21D-04 EMaxC= 1.00D-01 BMatC= 2.06D-06 BMatP= 8.85D-06
 IDIUse=3 WtCom= 9.99D-01 WtEn= 1.21D-03
 Coeff-Com: -0.541D-02 0.680D-01 0.104D+00 0.373D+00 0.461D+00
 Coeff-En:   0.000D+00 0.000D+00 0.000D+00 0.187D+00 0.813D+00
 Coeff:     -0.541D-02 0.679D-01 0.104D+00 0.373D+00 0.461D+00
 Gap=     0.212 Goal=   None    Shift=    0.000
 RMSDP=1.50D-05 MaxDP=2.76D-04 DE=-7.05D-06 OVMax= 6.63D-04

 Cycle   6  Pass 0  IDiag  1:
 E= -647.684662738700     Delta-E=       -0.000002002780 Rises=F Damp=F
 DIIS: error= 3.57D-05 at cycle   6 NSaved=   6.
 NSaved= 6 IEnMin= 6 EnMin= -647.684662738700     IErMin= 6 ErrMin= 3.57D-05
 ErrMax= 3.57D-05 EMaxC= 1.00D-01 BMatC= 1.46D-07 BMatP= 2.06D-06
 IDIUse=1 WtCom= 1.00D+00 WtEn= 0.00D+00
 Coeff-Com: -0.136D-02 0.151D-01 0.317D-01 0.149D+00 0.265D+00 0.540D+00
 Coeff:     -0.136D-02 0.151D-01 0.317D-01 0.149D+00 0.265D+00 0.540D+00
 Gap=     0.212 Goal=   None    Shift=    0.000
 RMSDP=3.89D-06 MaxDP=1.05D-04 DE=-2.00D-06 OVMax= 1.68D-04

 Initial convergence to 1.0D-05 achieved.  Increase integral accuracy.
 Cycle   7  Pass 1  IDiag  1:
 E= -647.684698059258     Delta-E=       -0.000035320558 Rises=F Damp=F
 DIIS: error= 1.11D-05 at cycle   1 NSaved=   1.
 NSaved= 1 IEnMin= 1 EnMin= -647.684698059258     IErMin= 1 ErrMin= 1.11D-05
 ErrMax= 1.11D-05 EMaxC= 1.00D-01 BMatC= 3.16D-08 BMatP= 3.16D-08
 IDIUse=1 WtCom= 1.00D+00 WtEn= 0.00D+00
 Coeff-Com:  0.100D+01
 Coeff:      0.100D+01
 Gap=     0.212 Goal=   None    Shift=    0.000
 RMSDP=3.89D-06 MaxDP=1.05D-04 DE=-3.53D-05 OVMax= 1.07D-04

 Cycle   8  Pass 1  IDiag  1:
 E= -647.684698061046     Delta-E=       -0.000000001788 Rises=F Damp=F
 DIIS: error= 1.65D-05 at cycle   2 NSaved=   2.
 NSaved= 2 IEnMin= 2 EnMin= -647.684698061046     IErMin= 1 ErrMin= 1.11D-05
 ErrMax= 1.65D-05 EMaxC= 1.00D-01 BMatC= 3.64D-08 BMatP= 3.16D-08
 IDIUse=1 WtCom= 1.00D+00 WtEn= 0.00D+00
 Coeff-Com:  0.522D+00 0.478D+00
 Coeff:      0.522D+00 0.478D+00
 Gap=     0.212 Goal=   None    Shift=    0.000
 RMSDP=2.03D-06 MaxDP=5.35D-05 DE=-1.79D-09 OVMax= 8.72D-05

 Cycle   9  Pass 1  IDiag  1:
 E= -647.684698089739     Delta-E=       -0.000000028693 Rises=F Damp=F
 DIIS: error= 6.73D-06 at cycle   3 NSaved=   3.
 NSaved= 3 IEnMin= 3 EnMin= -647.684698089739     IErMin= 3 ErrMin= 6.73D-06
 ErrMax= 6.73D-06 EMaxC= 1.00D-01 BMatC= 5.08D-09 BMatP= 3.16D-08
 IDIUse=1 WtCom= 1.00D+00 WtEn= 0.00D+00
 Coeff-Com:  0.694D-01 0.269D+00 0.662D+00
 Coeff:      0.694D-01 0.269D+00 0.662D+00
 Gap=     0.212 Goal=   None    Shift=    0.000
 RMSDP=9.18D-07 MaxDP=2.00D-05 DE=-2.87D-08 OVMax= 3.70D-05

 Cycle  10  Pass 1  IDiag  1:
 E= -647.684698093198     Delta-E=       -0.000000003459 Rises=F Damp=F
 DIIS: error= 3.20D-06 at cycle   4 NSaved=   4.
 NSaved= 4 IEnMin= 4 EnMin= -647.684698093198     IErMin= 4 ErrMin= 3.20D-06
 ErrMax= 3.20D-06 EMaxC= 1.00D-01 BMatC= 1.60D-09 BMatP= 5.08D-09
 IDIUse=1 WtCom= 1.00D+00 WtEn= 0.00D+00
 Coeff-Com: -0.112D-01 0.126D+00 0.453D+00 0.432D+00
 Coeff:     -0.112D-01 0.126D+00 0.453D+00 0.432D+00
 Gap=     0.212 Goal=   None    Shift=    0.000
 RMSDP=3.50D-07 MaxDP=8.93D-06 DE=-3.46D-09 OVMax= 1.88D-05

 Cycle  11  Pass 1  IDiag  1:
 E= -647.684698094820     Delta-E=       -0.000000001621 Rises=F Damp=F
 DIIS: error= 4.09D-07 at cycle   5 NSaved=   5.
 NSaved= 5 IEnMin= 5 EnMin= -647.684698094820     IErMin= 5 ErrMin= 4.09D-07
 ErrMax= 4.09D-07 EMaxC= 1.00D-01 BMatC= 2.74D-11 BMatP= 1.60D-09
 IDIUse=1 WtCom= 1.00D+00 WtEn= 0.00D+00
 Coeff-Com: -0.848D-02 0.556D-01 0.214D+00 0.222D+00 0.516D+00
 Coeff:     -0.848D-02 0.556D-01 0.214D+00 0.222D+00 0.516D+00
 Gap=     0.212 Goal=   None    Shift=    0.000
 RMSDP=4.68D-08 MaxDP=1.36D-06 DE=-1.62D-09 OVMax= 2.25D-06

 Cycle  12  Pass 1  IDiag  1:
 E= -647.684698094847     Delta-E=       -0.000000000027 Rises=F Damp=F
 DIIS: error= 1.07D-07 at cycle   6 NSaved=   6.
 NSaved= 6 IEnMin= 6 EnMin= -647.684698094847     IErMin= 6 ErrMin= 1.07D-07
 ErrMax= 1.07D-07 EMaxC= 1.00D-01 BMatC= 1.77D-12 BMatP= 2.74D-11
 IDIUse=1 WtCom= 1.00D+00 WtEn= 0.00D+00
 Coeff-Com: -0.261D-02 0.109D-01 0.476D-01 0.510D-01 0.236D+00 0.657D+00
 Coeff:     -0.261D-02 0.109D-01 0.476D-01 0.510D-01 0.236D+00 0.657D+00
 Gap=     0.212 Goal=   None    Shift=    0.000
 RMSDP=1.36D-08 MaxDP=2.91D-07 DE=-2.74D-11 OVMax= 5.86D-07

 Cycle  13  Pass 1  IDiag  1:
 E= -647.684698094854     Delta-E=       -0.000000000007 Rises=F Damp=F
 DIIS: error= 1.46D-08 at cycle   7 NSaved=   7.
 NSaved= 7 IEnMin= 7 EnMin= -647.684698094854     IErMin= 7 ErrMin= 1.46D-08
 ErrMax= 1.46D-08 EMaxC= 1.00D-01 BMatC= 4.03D-14 BMatP= 1.77D-12
 IDIUse=1 WtCom= 1.00D+00 WtEn= 0.00D+00
 Coeff-Com: -0.723D-04-0.872D-03-0.188D-02-0.125D-02 0.203D-01 0.157D+00
 Coeff-Com:  0.827D+00
 Coeff:     -0.723D-04-0.872D-03-0.188D-02-0.125D-02 0.203D-01 0.157D+00
 Coeff:      0.827D+00
 Gap=     0.212 Goal=   None    Shift=    0.000
 RMSDP=3.50D-09 MaxDP=7.97D-08 DE=-6.59D-12 OVMax= 1.73D-07

 SCF Done:  E(RB3LYP) =  -647.684698095     A.U. after   13 cycles
             Convg  =    0.3503D-08             -V/T =  2.0058
 KE= 6.439541035742D+02 PE=-2.230088044819D+03 EE= 5.855142166789D+02
 Leave Link  502 at Mon Oct  4 21:33:35 2021, MaxMem=  536870912 cpu:      40.9
 (Enter /sw/target/amd/app/gaussian/Gaussian09RevA.02_gcc-4.9.2/g09/l508.exe)
 QCSCF skips out because SCF is already converged.
 Leave Link  508 at Mon Oct  4 21:33:36 2021, MaxMem=  536870912 cpu:       0.0
 (Enter /sw/target/amd/app/gaussian/Gaussian09RevA.02_gcc-4.9.2/g09/l701.exe)
 Compute integral first derivatives.
 ... and contract with generalized density number  0.
 Leave Link  701 at Mon Oct  4 21:33:36 2021, MaxMem=  536870912 cpu:       0.4
 (Enter /sw/target/amd/app/gaussian/Gaussian09RevA.02_gcc-4.9.2/g09/l702.exe)
 L702 exits ... SP integral derivatives will be done elsewhere.
 Leave Link  702 at Mon Oct  4 21:33:36 2021, MaxMem=  536870912 cpu:       0.1
 (Enter /sw/target/amd/app/gaussian/Gaussian09RevA.02_gcc-4.9.2/g09/l703.exe)
 Compute integral first derivatives, UseDBF=F ICtDFT=           0.
 Integral derivatives from FoFDir, PRISM(SPDF).
 Calling FoFJK, ICntrl=      2127 FMM=F ISym2X=0 I1Cent= 0 IOpClX= 0 NMat=1 NMatS=1 NMatT=0.
 FoFCou: FMM=F IPFlag=           0 FMFlag=      100000 FMFlg1=         800
         NFxFlg=           0 DoJE=F BraDBF=F KetDBF=F FulRan=T
         Omega=  0.000000  0.000000  1.000000  0.000000  0.000000 ICntrl=    2127 IOpCl=  0
         NMat0=    1 NMatS0=    1 NMatT0=    0 NMatD0=    1 NMtDS0=    0 NMtDT0=    0
         I1Cent=           0 NGrid=           0.
 Symmetry not used in FoFCou.
 Leave Link  703 at Mon Oct  4 21:33:55 2021, MaxMem=  536870912 cpu:      18.9
 (Enter /sw/target/amd/app/gaussian/Gaussian09RevA.02_gcc-4.9.2/g09/l716.exe)
 Dipole        =-1.80261411D-01 6.63568767D-01 2.89375857D-04
 ***** Axes restored to original set *****
 -------------------------------------------------------------------
 Center     Atomic                   Forces (Hartrees/Bohr)
 Number     Number              X              Y              Z
 -------------------------------------------------------------------
      1        6          -0.000037660    0.000586866    0.000081593
      2        6           0.003370350   -0.000041580    0.000200924
      3       16          -0.007986051   -0.005975327   -0.000281709
      4        6           0.010183401    0.003337810    0.000290121
      5        7          -0.000839419   -0.001606021   -0.000226621
      6        6          -0.003443829    0.002655853   -0.000089425
      7        6           0.000783454    0.000278635    0.000016574
      8        1          -0.000409489    0.000067134   -0.000010892
      9        1          -0.000112882    0.000657192    0.000041672
     10        1          -0.000111400    0.000740807   -0.000051062
     11        1          -0.000407892   -0.000971822    0.000041201
     12        1           0.000077470    0.000488143   -0.000009912
     13        1          -0.000539605   -0.000113237    0.000130868
     14        1          -0.000526447   -0.000104453   -0.000133332
 -------------------------------------------------------------------
 Cartesian Forces:  Max     0.010183401 RMS     0.002451221
 Leave Link  716 at Mon Oct  4 21:33:55 2021, MaxMem=  536870912 cpu:       0.0
 (Enter /sw/target/amd/app/gaussian/Gaussian09RevA.02_gcc-4.9.2/g09/l103.exe)

 GradGradGradGradGradGradGradGradGradGradGradGradGradGradGradGradGradGrad
 Berny optimization.
 Using GEDIIS/GDIIS optimizer.
 Internal  Forces:  Max     0.005881063 RMS     0.001575241
 Search for a local minimum.
 Step number   2 out of a maximum of   71
 All quantities printed in internal units (Hartrees-Bohrs-Radians)
 RMS Force = .15752D-02 SwitMx=.10000D-02 MixMth= 1
 Mixed Optimization -- RFO/linear search
 Update second derivatives using D2CorX and points    1    2
 DE= -1.82D-03 DEPred=-1.94D-03 R= 9.36D-01
 SS=  1.41D+00  RLast= 1.21D-01 DXNew= 5.0454D-01 3.6290D-01
 Trust test= 9.36D-01 RLast= 1.21D-01 DXMaxT set to 3.63D-01
 Use linear search instead of GDIIS.
     Eigenvalues ---    0.00934   0.00945   0.01434   0.01516   0.01971
     Eigenvalues ---    0.02103   0.02276   0.07181   0.07187   0.07271
     Eigenvalues ---    0.07443   0.15400   0.16000   0.16000   0.16000
     Eigenvalues ---    0.16000   0.16000   0.16428   0.23379   0.24965
     Eigenvalues ---    0.25000   0.27542   0.28136   0.33379   0.33807
     Eigenvalues ---    0.34205   0.34221   0.34271   0.34289   0.34299
     Eigenvalues ---    0.34301   0.35711   0.37713   0.45242   0.49994
     Eigenvalues ---    0.597601000.000001000.000001000.000001000.00000
     Eigenvalues --- 1000.000001000.000001000.000001000.000001000.00000
     Eigenvalues --- 1000.000001000.000001000.000001000.000001000.00000
     Eigenvalues --- 1000.000001000.000001000.000001000.000001000.00000
     Eigenvalues --- 1000.000001000.000001000.000001000.000001000.00000
     Eigenvalues --- 1000.00000
 RFO step:  Lambda=-4.55127717D-04 EMin= 9.33674504D-03
 Quartic linear search produced a step of -0.03370.
 Iteration  1 RMS(Cart)=  0.00872066 RMS(Int)=  0.00004485
 Iteration  2 RMS(Cart)=  0.00006574 RMS(Int)=  0.00001919
 Iteration  3 RMS(Cart)=  0.00000000 RMS(Int)=  0.00001919
 Variable       Old X    -DE/DX   Delta X   Delta X   Delta X     New X
                                 (Linear)    (Quad)   (Total)
    R1        2.84319  -0.00216  -0.00110  -0.00120  -0.00230   2.84089
    R2        2.06588   0.00029   0.00009   0.00042   0.00051   2.06639
    R3        2.07439  -0.00018  -0.00016   0.00020   0.00004   2.07443
    R4        2.07420  -0.00020  -0.00016   0.00016   0.00001   2.07420
    R5        3.28143   0.00205  -0.00136   0.01290   0.01156   3.29299
    R6        2.59963  -0.00039   0.00067  -0.00374  -0.00308   2.59655
    R7        3.26671   0.00588  -0.00107   0.02151   0.02045   3.28717
    R8        2.46822  -0.00422   0.00047  -0.00896  -0.00851   2.45972
    R9        2.04899  -0.00049  -0.00015  -0.00063  -0.00078   2.04822
   R10        2.61987  -0.00493  -0.00002  -0.01043  -0.01047   2.60940
   R11        2.84176  -0.00022  -0.00111   0.00437   0.00327   2.84503
   R12        2.06321   0.00048   0.00017   0.00059   0.00076   2.06397
   R13        2.07452  -0.00024  -0.00021   0.00027   0.00006   2.07458
   R14        2.07453  -0.00025  -0.00021   0.00026   0.00005   2.07458
    A1        1.95391  -0.00006   0.00030  -0.00125  -0.00095   1.95296
    A2        1.94374  -0.00070  -0.00072  -0.00115  -0.00187   1.94188
    A3        1.94359  -0.00085  -0.00066  -0.00241  -0.00308   1.94051
    A4        1.87415   0.00050   0.00028   0.00228   0.00256   1.87671
    A5        1.87417   0.00054   0.00026   0.00239   0.00265   1.87682
    A6        1.87010   0.00068   0.00062   0.00047   0.00109   1.87119
    A7        2.14214  -0.00060  -0.00093   0.00131   0.00037   2.14251
    A8        2.24067  -0.00103   0.00039  -0.00631  -0.00593   2.23474
    A9        1.90037   0.00163   0.00054   0.00501   0.00556   1.90593
   A10        1.57115  -0.00532  -0.00031  -0.01640  -0.01666   1.55449
   A11        1.99690   0.00376   0.00100   0.01080   0.01179   2.00868
   A12        2.12825  -0.00284  -0.00018  -0.01257  -0.01275   2.11549
   A13        2.15804  -0.00093  -0.00082   0.00178   0.00095   2.15900
   A14        1.94291  -0.00154  -0.00096  -0.00515  -0.00617   1.93674
   A15        2.01344   0.00147  -0.00027   0.00578   0.00548   2.01892
   A16        2.18552  -0.00048   0.00081  -0.00495  -0.00412   2.18140
   A17        2.08423  -0.00100  -0.00054  -0.00083  -0.00136   2.08287
   A18        1.90935   0.00016   0.00098  -0.00258  -0.00160   1.90775
   A19        1.95497  -0.00061  -0.00091  -0.00000  -0.00092   1.95406
   A20        1.95480  -0.00058  -0.00093   0.00030  -0.00063   1.95416
   A21        1.88620   0.00036   0.00002   0.00284   0.00285   1.88905
   A22        1.88612   0.00035   0.00002   0.00286   0.00288   1.88900
   A23        1.86979   0.00038   0.00087  -0.00317  -0.00229   1.86750
    D1        0.01687  -0.00001  -0.00004  -0.00134  -0.00138   0.01549
    D2       -3.12813   0.00006  -0.00001   0.00318   0.00317  -3.12496
    D3       -2.08161  -0.00013  -0.00010  -0.00261  -0.00270  -2.08431
    D4        1.05657  -0.00006  -0.00007   0.00192   0.00185   1.05842
    D5        2.11527   0.00005   0.00003  -0.00082  -0.00078   2.11449
    D6       -1.02973   0.00013   0.00006   0.00371   0.00377  -1.02596
    D7       -3.14114  -0.00011  -0.00016  -0.00400  -0.00408   3.13796
    D8        0.00328  -0.00017  -0.00019  -0.00773  -0.00786  -0.00458
    D9       -3.14097   0.00003   0.00011   0.00120   0.00134  -3.13963
   D10        0.00127   0.00002   0.00002  -0.00011  -0.00008   0.00120
   D11       -0.00241   0.00009   0.00014   0.00522   0.00539   0.00297
   D12        3.13983   0.00008   0.00005   0.00391   0.00397  -3.13938
   D13       -0.00372   0.00020   0.00021   0.00919   0.00940   0.00568
   D14        3.14002   0.00004   0.00014   0.00197   0.00213  -3.14104
   D15        0.00298  -0.00018  -0.00016  -0.00774  -0.00795  -0.00497
   D16       -3.14081  -0.00002  -0.00009  -0.00041  -0.00049  -3.14129
   D17       -0.00030   0.00005   0.00001   0.00148   0.00149   0.00119
   D18        3.14068   0.00006   0.00009   0.00270   0.00281  -3.13969
   D19        3.13944  -0.00000   0.00006   0.00010   0.00017   3.13961
   D20        1.04842  -0.00017  -0.00002  -0.00172  -0.00174   1.04668
   D21       -1.05294   0.00018   0.00013   0.00216   0.00230  -1.05064
   D22       -0.00148  -0.00002  -0.00003  -0.00126  -0.00129  -0.00277
   D23       -2.09249  -0.00018  -0.00011  -0.00309  -0.00321  -2.09570
   D24        2.08933   0.00017   0.00004   0.00080   0.00084   2.09016
         Item               Value     Threshold  Converged?
 Maximum Force            0.005881     0.000450     NO 
 RMS     Force            0.001575     0.000300     NO 
 Maximum Displacement     0.025199     0.001800     NO 
 RMS     Displacement     0.008734     0.001200     NO 
 Predicted change in Energy=-2.302888D-04
 GradGradGradGradGradGradGradGradGradGradGradGradGradGradGradGradGradGrad

 Leave Link  103 at Mon Oct  4 21:33:57 2021, MaxMem=  536870912 cpu:       0.7
 (Enter /sw/target/amd/app/gaussian/Gaussian09RevA.02_gcc-4.9.2/g09/l202.exe)
                          Input orientation:                          
 ---------------------------------------------------------------------
 Center     Atomic      Atomic             Coordinates (Angstroms)
 Number     Number       Type             X           Y           Z
 ---------------------------------------------------------------------
      1          6           0        0.553050   -2.231733    0.008613
      2          6           0        0.170651   -0.777849    0.007471
      3         16           0       -1.486443   -0.238767    0.007276
      4          6           0       -0.921409    1.406393    0.012146
      5          7           0        0.372752    1.545498    0.007072
      6          6           0        1.001822    0.316285    0.005213
      7          6           0        2.506194    0.257496    0.001919
      8          1           0       -0.324335   -2.884176   -0.006434
      9          1           0        1.140460   -2.488137    0.899816
     10          1           0        1.165828   -2.481364   -0.867148
     11          1           0       -1.615729    2.238672    0.014174
     12          1           0        2.907256    1.273397   -0.001404
     13          1           0        2.894566   -0.268029   -0.880236
     14          1           0        2.898702   -0.263833    0.884732
 ---------------------------------------------------------------------
                    Distance matrix (angstroms):
                    1          2          3          4          5
     1  C    0.000000
     2  C    1.503333   0.000000
     3  S    2.851569   1.742576   0.000000
     4  C    3.925558   2.442034   1.739493   0.000000
     5  N    3.781533   2.332121   2.576860   1.301625   0.000000
     6  C    2.587239   1.374037   2.549421   2.210701   1.380833
     7  C    3.164030   2.554747   4.023363   3.615042   2.492098
     8  H    1.093486   2.163750   2.889441   4.331953   4.484208
     9  H    1.097741   2.159142   3.571682   4.495178   4.201974
    10  H    1.097620   2.158078   3.581675   4.499374   4.196290
    11  H    4.968718   3.505795   2.480820   1.083870   2.105848
    12  H    4.222360   3.420043   4.646644   3.830998   2.549083
    13  H    3.182591   2.909923   4.470097   4.261655   3.230440
    14  H    3.184698   2.911367   4.472142   4.259614   3.228683
                    6          7          8          9         10
     6  C    0.000000
     7  C    1.505524   0.000000
     8  H    3.464358   4.228719   0.000000
[...]
 (Enter /sw/target/amd/app/gaussian/Gaussian09RevA.02_gcc-4.9.2/g09/l601.exe)
 Copying SCF densities to generalized density rwf, IOpCl= 0 IROHF=0.

 **********************************************************************

            Population analysis using the CI density.

 **********************************************************************

 Orbital symmetries:
       Occupied  (A) (A) (A) (A) (A) (A) (A) (A) (A) (A) (A) (A)
                 (A) (A) (A) (A) (A) (A) (A) (A) (A) (A) (A) (A)
                 (A) (A) (A) (A) (A) (A)
       Virtual   (A) (A) (A) (A) (A) (A) (A) (A) (A) (A) (A) (A)
                 (A) (A) (A) (A) (A) (A) (A) (A) (A) (A) (A) (A)
                 (A) (A) (A) (A) (A) (A) (A) (A) (A) (A) (A) (A)
                 (A) (A) (A) (A) (A) (A) (A) (A) (A) (A) (A) (A)
                 (A) (A) (A) (A) (A) (A) (A) (A) (A) (A) (A) (A)
                 (A) (A) (A) (A) (A) (A) (A) (A) (A) (A) (A) (A)
                 (A) (A) (A) (A) (A) (A) (A) (A) (A) (A) (A) (A)
                 (A) (A) (A) (A) (A) (A) (A) (A) (A)
 The electronic state is 1-A.
 Alpha  occ. eigenvalues --  -88.90912 -14.32949 -10.24228 -10.21997 -10.21611
 Alpha  occ. eigenvalues --  -10.20097 -10.18386  -7.97110  -5.93479  -5.93138
 Alpha  occ. eigenvalues --   -5.92839  -0.95519  -0.80679  -0.77348  -0.71701
 Alpha  occ. eigenvalues --   -0.66611  -0.57907  -0.53232  -0.47952  -0.44353
 Alpha  occ. eigenvalues --   -0.43053  -0.41014  -0.40968  -0.39037  -0.38338
 Alpha  occ. eigenvalues --   -0.37882  -0.34487  -0.27411  -0.26614  -0.22843
 Alpha virt. eigenvalues --   -0.01783   0.01675   0.05587   0.09230   0.10937
 Alpha virt. eigenvalues --    0.13483   0.13905   0.15520   0.16729   0.16839
 Alpha virt. eigenvalues --    0.20274   0.22430   0.25892   0.26319   0.28804
 Alpha virt. eigenvalues --    0.33598   0.35766   0.38581   0.41947   0.44445
 Alpha virt. eigenvalues --    0.49165   0.51410   0.53937   0.54920   0.57067
 Alpha virt. eigenvalues --    0.60613   0.61914   0.62711   0.66795   0.70240
 Alpha virt. eigenvalues --    0.71720   0.73534   0.76828   0.77039   0.81244
 Alpha virt. eigenvalues --    0.82844   0.83332   0.85618   0.86759   0.87195
 Alpha virt. eigenvalues --    0.87604   0.88649   0.90843   0.93291   0.94794
 Alpha virt. eigenvalues --    0.96446   0.99250   1.02762   1.03635   1.04518
 Alpha virt. eigenvalues --    1.14509   1.21067   1.30161   1.35803   1.37255
 Alpha virt. eigenvalues --    1.41297   1.49227   1.50152   1.58022   1.58331
 Alpha virt. eigenvalues --    1.75016   1.75340   1.78337   1.86916   1.89224
 Alpha virt. eigenvalues --    1.93858   1.95342   2.05295   2.07606   2.10678
 Alpha virt. eigenvalues --    2.13210   2.19833   2.23710   2.25846   2.26159
 Alpha virt. eigenvalues --    2.33526   2.36864   2.44555   2.45084   2.48282
 Alpha virt. eigenvalues --    2.57862   2.58546   2.67024   2.78091   3.02114
 Alpha virt. eigenvalues --    3.10000   3.93766   4.01553   4.07575   4.20727
 Alpha virt. eigenvalues --    4.22659   4.32807   4.53661
          Condensed to atoms (all electrons):
              1          2          3          4          5          6
     1  C    5.079093   0.386590  -0.051185   0.001585   0.005085  -0.040910
     2  C    0.386590   5.272018   0.172329   0.010407  -0.063039   0.610553
     3  S   -0.051185   0.172329  15.474420   0.239048  -0.047877  -0.030579
     4  C    0.001585   0.010407   0.239048   5.400376   0.326529  -0.118695
     5  N    0.005085  -0.063039  -0.047877   0.326529   6.770954   0.390744
     6  C   -0.040910   0.610553  -0.030579  -0.118695   0.390744   4.586421
     7  C   -0.009227  -0.074363   0.009678   0.007136  -0.059943   0.374665
     8  H    0.370105  -0.024855  -0.000845   0.000051  -0.000065   0.003980
     9  H    0.371084  -0.041557   0.003289  -0.000102   0.000035  -0.005410
    10  H    0.371341  -0.041428   0.003537  -0.000081   0.000048  -0.005449
    11  H   -0.000091   0.002851  -0.028061   0.357781  -0.030102   0.004659
    12  H    0.000166   0.004562  -0.000409   0.000362  -0.003827  -0.025055
    13  H    0.001341  -0.002905  -0.000171   0.000096   0.000842  -0.030772
    14  H    0.001351  -0.002676  -0.000142   0.000108   0.000794  -0.031026
              7          8          9         10         11         12
     1  C   -0.009227   0.370105   0.371084   0.371341  -0.000091   0.000166
     2  C   -0.074363  -0.024855  -0.041557  -0.041428   0.002851   0.004562
     3  S    0.009678  -0.000845   0.003289   0.003537  -0.028061  -0.000409
     4  C    0.007136   0.000051  -0.000102  -0.000081   0.357781   0.000362
     5  N   -0.059943  -0.000065   0.000035   0.000048  -0.030102  -0.003827
     6  C    0.374665   0.003980  -0.005410  -0.005449   0.004659  -0.025055
     7  C    5.173756   0.000022   0.001758   0.001984  -0.000262   0.367038
     8  H    0.000022   0.548028  -0.029179  -0.027800   0.000000  -0.000002
     9  H    0.001758  -0.029179   0.580177  -0.041940   0.000002  -0.000014
    10  H    0.001984  -0.027800  -0.041940   0.577779   0.000002  -0.000012
    11  H   -0.000262   0.000000   0.000002   0.000002   0.512969   0.000003
    12  H    0.367038  -0.000002  -0.000014  -0.000012   0.000003   0.546134
    13  H    0.364260  -0.000013  -0.000187   0.001373   0.000004  -0.026515
    14  H    0.363749  -0.000004   0.001186  -0.000231   0.000004  -0.026070
             13         14
     1  C    0.001341   0.001351
     2  C   -0.002905  -0.002676
     3  S   -0.000171  -0.000142
     4  C    0.000096   0.000108
     5  N    0.000842   0.000794
     6  C   -0.030772  -0.031026
     7  C    0.364260   0.363749
     8  H   -0.000013  -0.000004
     9  H   -0.000187   0.001186
    10  H    0.001373  -0.000231
    11  H    0.000004   0.000004
    12  H   -0.026515  -0.026070
    13  H    0.568168  -0.040535
    14  H   -0.040535   0.568698
 Mulliken atomic charges:
              1
     1  C   -0.486329
     2  C   -0.208486
     3  S    0.256969
     4  C   -0.224600
     5  N   -0.290177
     6  C    0.316874
     7  C   -0.520251
     8  H    0.160577
     9  H    0.160857
    10  H    0.160875
    11  H    0.180241
    12  H    0.163639
    13  H    0.165014
    14  H    0.164795
 Sum of Mulliken atomic charges =   0.00000
 Mulliken charges with hydrogens summed into heavy atoms:
              1
     1  C   -0.004019
     2  C   -0.208486
     3  S    0.256969
     4  C   -0.044359
     5  N   -0.290177
     6  C    0.316874
     7  C   -0.026802
 Sum of Mulliken charges with hydrogens summed into heavy atoms =   0.00000
 Electronic spatial extent (au):  <R**2>=            859.9732
 Charge=              0.0000 electrons
 Dipole moment (field-independent basis, Debye):
    X=             -1.0088    Y=             -0.2080    Z=              0.0045  Tot=              1.0301
 Quadrupole moment (field-independent basis, Debye-Ang):
   XX=            -45.9434   YY=            -45.1217   ZZ=            -51.6992
   XY=             -1.5482   XZ=              0.0048   YZ=             -0.0024
 Traceless Quadrupole moment (field-independent basis, Debye-Ang):
   XX=              1.6447   YY=              2.4664   ZZ=             -4.1111
   XY=             -1.5482   XZ=              0.0048   YZ=             -0.0024
 Octapole moment (field-independent basis, Debye-Ang**2):
  XXX=              2.0985  YYY=             -0.8532  ZZZ=              0.0612  XYY=              2.9007
  XXY=             -7.0792  XXZ=             -0.0600  XZZ=             -3.7840  YZZ=              0.6844
  YYZ=             -0.0196  XYZ=              0.0159
 Hexadecapole moment (field-independent basis, Debye-Ang**3):
 XXXX=           -605.5543 YYYY=           -456.5869 ZZZZ=            -70.3325 XXXY=            -13.4162
 XXXZ=              0.1647 YYYX=              1.6994 YYYZ=             -0.1839 ZZZX=             -0.0816
 ZZZY=              0.0804 XXYY=           -172.9994 XXZZ=           -118.1375 YYZZ=            -95.9807
 XXYZ=             -0.0523 YYXZ=              0.0796 ZZXY=             -1.3655
 N-N= 3.526595204122D+02 E-N=-2.229239933216D+03  KE= 6.439795433399D+02
 No NMR shielding tensors so no spin-rotation constants.
 Leave Link  601 at Mon Oct  4 22:29:40 2021, MaxMem=  536870912 cpu:       0.4
 (Enter /sw/target/amd/app/gaussian/Gaussian09RevA.02_gcc-4.9.2/g09/l604.exe)
 Evaluate density.
 Using the total density.
 Monte-Carlo method of calculating molar volume:
 based on  0.001 e/bohr**3 density envelope.
 Number of points per bohr**3 =   20 CutOff= 1.00D-04
 Using the CI density.
 There are       387 points.  Will hold       387 in memory.
 LenV=   536806511 MDV=   536870912.
 Box volume = 7280.098 fraction occupied=0.168
 Integrated density= 6.0762378632670938D+01 error= 7.6237863267093786D-01
 Molar volume = 1222.756 bohr**3/mol (109.117 cm**3/mol)
 Recommended a0 for SCRF calculation =  4.36 angstrom (  8.25 bohr)
 Leave Link  604 at Mon Oct  4 22:29:40 2021, MaxMem=  536870912 cpu:       0.2
 (Enter /sw/target/amd/app/gaussian/Gaussian09RevA.02_gcc-4.9.2/g09/l607.exe)
 ******************************Gaussian NBO Version 3.1******************************
             N A T U R A L   A T O M I C   O R B I T A L   A N D
          N A T U R A L   B O N D   O R B I T A L   A N A L Y S I S
 ******************************Gaussian NBO Version 3.1******************************
       /RESON  / : Allow strongly delocalized NBO set

 Analyzing the CI density

 Job title: Cc1scnc1C_conf_0                                                

 Storage needed:     46112 in NPA ( 536869792 available)


 NATURAL POPULATIONS:  Natural atomic orbital occupancies 
                                                          
   NAO  Atom  No  lang   Type(AO)    Occupancy
 --------------------------------------------
     1    C    1  S      Cor( 1S)     1.99935
     2    C    1  S      Val( 2S)     1.09322
     3    C    1  S      Ryd( 3S)     0.00074
     4    C    1  S      Ryd( 4S)     0.00000
     5    C    1  px     Val( 2p)     1.22263
     6    C    1  px     Ryd( 3p)     0.00259
     7    C    1  py     Val( 2p)     1.11761
     8    C    1  py     Ryd( 3p)     0.00140
     9    C    1  pz     Val( 2p)     1.24775
    10    C    1  pz     Ryd( 3p)     0.00106
    11    C    1  dxy    Ryd( 3d)     0.00084
    12    C    1  dxz    Ryd( 3d)     0.00120
    13    C    1  dyz    Ryd( 3d)     0.00042
    14    C    1  dx2y2  Ryd( 3d)     0.00033
    15    C    1  dz2    Ryd( 3d)     0.00065

    16    C    2  S      Cor( 1S)     1.99882
    17    C    2  S      Val( 2S)     0.93599
    18    C    2  S      Ryd( 3S)     0.00196
    19    C    2  S      Ryd( 4S)     0.00006
    20    C    2  px     Val( 2p)     1.01709
    21    C    2  px     Ryd( 3p)     0.00429
    22    C    2  py     Val( 2p)     1.07446
    23    C    2  py     Ryd( 3p)     0.00328
    24    C    2  pz     Val( 2p)     1.29167
    25    C    2  pz     Ryd( 3p)     0.00322
    26    C    2  dxy    Ryd( 3d)     0.00057
    27    C    2  dxz    Ryd( 3d)     0.00071
    28    C    2  dyz    Ryd( 3d)     0.00074
    29    C    2  dx2y2  Ryd( 3d)     0.00137
    30    C    2  dz2    Ryd( 3d)     0.00073

    31    S    3  S      Cor( 1S)     2.00000
    32    S    3  S      Cor( 2S)     1.99940
    33    S    3  S      Val( 3S)     1.63889
    34    S    3  S      Ryd( 4S)     0.00619
    35    S    3  S      Ryd( 5S)     0.00001
    36    S    3  px     Cor( 2p)     1.99984
    37    S    3  px     Val( 3p)     1.16133
    38    S    3  px     Ryd( 4p)     0.00373
    39    S    3  py     Cor( 2p)     1.99976
    40    S    3  py     Val( 3p)     0.96114
    41    S    3  py     Ryd( 4p)     0.00497
    42    S    3  pz     Cor( 2p)     1.99997
    43    S    3  pz     Val( 3p)     1.76397
    44    S    3  pz     Ryd( 4p)     0.01299
    45    S    3  dxy    Ryd( 3d)     0.00240
    46    S    3  dxz    Ryd( 3d)     0.00566
    47    S    3  dyz    Ryd( 3d)     0.00526
    48    S    3  dx2y2  Ryd( 3d)     0.00968
    49    S    3  dz2    Ryd( 3d)     0.00285

    50    C    4  S      Cor( 1S)     1.99933
    51    C    4  S      Val( 2S)     1.01469
    52    C    4  S      Ryd( 3S)     0.00258
    53    C    4  S      Ryd( 4S)     0.00003
    54    C    4  px     Val( 2p)     1.01636
    55    C    4  px     Ryd( 3p)     0.00601
    56    C    4  py     Val( 2p)     1.02610
    57    C    4  py     Ryd( 3p)     0.00676
    58    C    4  pz     Val( 2p)     1.29034
    59    C    4  pz     Ryd( 3p)     0.00715
    60    C    4  dxy    Ryd( 3d)     0.00132
    61    C    4  dxz    Ryd( 3d)     0.00145
    62    C    4  dyz    Ryd( 3d)     0.00082
    63    C    4  dx2y2  Ryd( 3d)     0.00137
    64    C    4  dz2    Ryd( 3d)     0.00095

    65    N    5  S      Cor( 1S)     1.99882
    66    N    5  S      Val( 2S)     1.28370
    67    N    5  S      Ryd( 3S)     0.00043
    68    N    5  S      Ryd( 4S)     0.00002
    69    N    5  px     Val( 2p)     1.25257
    70    N    5  px     Ryd( 3p)     0.00262
    71    N    5  py     Val( 2p)     1.05195
    72    N    5  py     Ryd( 3p)     0.00369
    73    N    5  pz     Val( 2p)     1.51176
    74    N    5  pz     Ryd( 3p)     0.00275
    75    N    5  dxy    Ryd( 3d)     0.00066
    76    N    5  dxz    Ryd( 3d)     0.00131
    77    N    5  dyz    Ryd( 3d)     0.00167
    78    N    5  dx2y2  Ryd( 3d)     0.00036
    79    N    5  dz2    Ryd( 3d)     0.00017

    80    C    6  S      Cor( 1S)     1.99877
    81    C    6  S      Val( 2S)     0.85371
    82    C    6  S      Ryd( 3S)     0.00186
    83    C    6  S      Ryd( 4S)     0.00008
    84    C    6  px     Val( 2p)     1.00599
    85    C    6  px     Ryd( 3p)     0.00468
    86    C    6  py     Val( 2p)     0.95822
    87    C    6  py     Ryd( 3p)     0.00544
    88    C    6  pz     Val( 2p)     1.08104
    89    C    6  pz     Ryd( 3p)     0.00304
    90    C    6  dxy    Ryd( 3d)     0.00125
    91    C    6  dxz    Ryd( 3d)     0.00096
    92    C    6  dyz    Ryd( 3d)     0.00178
    93    C    6  dx2y2  Ryd( 3d)     0.00092
    94    C    6  dz2    Ryd( 3d)     0.00048

    95    C    7  S      Cor( 1S)     1.99937
    96    C    7  S      Val( 2S)     1.09833
    97    C    7  S      Ryd( 3S)     0.00036
    98    C    7  S      Ryd( 4S)     0.00001
    99    C    7  px     Val( 2p)     1.09134
   100    C    7  px     Ryd( 3p)     0.00108
   101    C    7  py     Val( 2p)     1.25117
   102    C    7  py     Ryd( 3p)     0.00213
   103    C    7  pz     Val( 2p)     1.24933
   104    C    7  pz     Ryd( 3p)     0.00037
   105    C    7  dxy    Ryd( 3d)     0.00034
   106    C    7  dxz    Ryd( 3d)     0.00095
   107    C    7  dyz    Ryd( 3d)     0.00050
   108    C    7  dx2y2  Ryd( 3d)     0.00089
   109    C    7  dz2    Ryd( 3d)     0.00068

   110    H    8  S      Val( 1S)     0.75169
   111    H    8  S      Ryd( 2S)     0.00082

   112    H    9  S      Val( 1S)     0.76122
   113    H    9  S      Ryd( 2S)     0.00159

   114    H   10  S      Val( 1S)     0.76080
   115    H   10  S      Ryd( 2S)     0.00150

   116    H   11  S      Val( 1S)     0.74615
   117    H   11  S      Ryd( 2S)     0.00049

   118    H   12  S      Val( 1S)     0.75287
   119    H   12  S      Ryd( 2S)     0.00072

   120    H   13  S      Val( 1S)     0.75678
   121    H   13  S      Ryd( 2S)     0.00140

   122    H   14  S      Val( 1S)     0.75697
   123    H   14  S      Ryd( 2S)     0.00141

 WARNING:  1 low occupancy (<1.9990e) core orbital  found on  C    2
           1 low occupancy (<1.9990e) core orbital  found on  N    5
           1 low occupancy (<1.9990e) core orbital  found on  C    6


 Summary of Natural Population Analysis:                  
                                                          
                                       Natural Population 
                Natural  -----------------------------------------------
    Atom  No    Charge         Core      Valence    Rydberg      Total
 -----------------------------------------------------------------------
      C    1   -0.68981      1.99935     4.68121    0.00924     6.68981
      C    2   -0.33496      1.99882     4.31921    0.01693     6.33496
      S    3    0.42197      9.99897     5.52533    0.05373    15.57803
      C    4   -0.37527      1.99933     4.34750    0.02844     6.37527
      N    5   -0.11247      1.99882     5.09998    0.01367     7.11247
      C    6    0.08178      1.99877     3.89896    0.02049     5.91822
      C    7   -0.69683      1.99937     4.69016    0.00729     6.69683
      H    8    0.24749      0.00000     0.75169    0.00082     0.75251
      H    9    0.23719      0.00000     0.76122    0.00159     0.76281
      H   10    0.23771      0.00000     0.76080    0.00150     0.76229
      H   11    0.25336      0.00000     0.74615    0.00049     0.74664
      H   12    0.24641      0.00000     0.75287    0.00072     0.75359
      H   13    0.24183      0.00000     0.75678    0.00140     0.75817
      H   14    0.24162      0.00000     0.75697    0.00141     0.75838
 =======================================================================
   * Total *   -0.00000     21.99344    37.84884    0.15772    60.00000

                                 Natural Population      
 --------------------------------------------------------
   Core                      21.99344 ( 99.9702% of  22)
   Valence                   37.84884 ( 99.6022% of  38)
   Natural Minimal Basis     59.84228 ( 99.7371% of  60)
   Natural Rydberg Basis      0.15772 (  0.2629% of  60)
 --------------------------------------------------------

    Atom  No          Natural Electron Configuration
 ----------------------------------------------------------------------------
      C    1      [core]2S( 1.09)2p( 3.59)3p( 0.01)
      C    2      [core]2S( 0.94)2p( 3.38)3p( 0.01)
      S    3      [core]3S( 1.64)3p( 3.89)4S( 0.01)3d( 0.03)4p( 0.02)
      C    4      [core]2S( 1.01)2p( 3.33)3p( 0.02)3d( 0.01)
      N    5      [core]2S( 1.28)2p( 3.82)3p( 0.01)
      C    6      [core]2S( 0.85)2p( 3.05)3p( 0.01)3d( 0.01)
      C    7      [core]2S( 1.10)2p( 3.59)
      H    8            1S( 0.75)
      H    9            1S( 0.76)
      H   10            1S( 0.76)
      H   11            1S( 0.75)
      H   12            1S( 0.75)
      H   13            1S( 0.76)
      H   14            1S( 0.76)


 NBO analysis skipped by request.
 Leave Link  607 at Mon Oct  4 22:29:48 2021, MaxMem=  536870912 cpu:       5.9
 (Enter /sw/target/amd/app/gaussian/Gaussian09RevA.02_gcc-4.9.2/g09/l9999.exe)
 1\1\GINC-HERMITE\SP\RTD-B3LYP-FC\6-31G(d)\C5H7N1S1\JSCHLEINITZ\04-Oct-
 2021\0\\#p TD(NStates=10, Root=1) b3lyp/6-31G* volume pop=NPA density=
 current Geom=AllCheck Guess=Read\\Cc1scnc1C_conf_0\\0,1\C,0,0.55355635
 46,-2.2311761155,0.0075137385\C,0,0.1715584293,-0.7788239727,0.0077374
 946\S,0,-1.4873551505,-0.2402590429,0.0137373352\C,0,-0.9195187762,1.4
 101296589,0.0127399399\N,0,0.3726027364,1.5451036726,0.0081565663\C,0,
 1.002918953,0.3147518611,0.0055925803\C,0,2.5062067542,0.2566776984,0.
 0009990605\H,0,-0.3225086695,-2.8850647023,-0.0178751968\H,0,1.1329105
 122,-2.4881061697,0.9035688819\H,0,1.174702149,-2.4750615061,-0.863647
 1315\H,0,-1.6186066795,2.238411884,0.0152367246\H,0,2.9096613802,1.271
 7507622,-0.010752674\H,0,2.8904692519,-0.2764487856,-0.8779014311\H,0,
 2.8967694817,-0.2580322774,0.8881054264\\Version=AM64L-G09RevA.02\Stat
 e=1-A\HF=-647.6849704\RMSD=1.073e-09\Dipole=0.4051449,-0.0094282,0.000
 4456\Quadrupole=0.7495121,2.3069218,-3.0564338,-0.9010126,-0.0154765,0
 .0060095\PG=C01 [X(C5H7N1S1)]\\@


 REFRAIN FROM ILLUSIONS, INSIST ON WORK AND NOT WORDS,
 PATIENTLY SEEK DIVINE AND SCIENTIFIC TRUTH.
 LAST WORDS OF MARIA MENDELEEVA TO HER SON DMITRI, C. 1850
 Job cpu time:  0 days  0 hours 16 minutes 27.3 seconds.
 File lengths (MBytes):  RWF=     45 Int=      0 D2E=      0 Chk=      8 Scr=      1
 Normal termination of Gaussian 09 at Mon Oct  4 22:29:59 2021.
