 Entering Gaussian System, Link 0=g09
 Input=C6H16P2_97b8_conf_0.com
 Output=C6H16P2_97b8_conf_0.log
 Initial command:
 /sw/target/amd/app/gaussian/Gaussian09RevA.02_gcc-4.9.2/g09/l1.exe /home/jschleinitz/gaussian/Gau-2057285.inp -scrdir=/home/jschleinitz/gaussian/
 Entering Link 1 = /sw/target/amd/app/gaussian/Gaussian09RevA.02_gcc-4.9.2/g09/l1.exe PID=   2057305.
  
 Copyright (c) 1988,1990,1992,1993,1995,1998,2003,2009, Gaussian, Inc.
                  All Rights Reserved.
  
 This is part of the Gaussian(R) 09 program.  It is based on
 the Gaussian(R) 03 system (copyright 2003, Gaussian, Inc.),
 the Gaussian(R) 98 system (copyright 1998, Gaussian, Inc.),
 the Gaussian(R) 94 system (copyright 1995, Gaussian, Inc.),
 the Gaussian 92(TM) system (copyright 1992, Gaussian, Inc.),
 the Gaussian 90(TM) system (copyright 1990, Gaussian, Inc.),
 the Gaussian 88(TM) system (copyright 1988, Gaussian, Inc.),
 the Gaussian 86(TM) system (copyright 1986, Carnegie Mellon
 University), and the Gaussian 82(TM) system (copyright 1983,
 Carnegie Mellon University). Gaussian is a federally registered
 trademark of Gaussian, Inc.
  
 This software contains proprietary and confidential information,
 including trade secrets, belonging to Gaussian, Inc.
  
 This software is provided under written license and may be
 used, copied, transmitted, or stored only in accord with that
 written license.
  
 The following legend is applicable only to US Government
 contracts under FAR:
  
                    RESTRICTED RIGHTS LEGEND
  
 Use, reproduction and disclosure by the US Government is
 subject to restrictions as set forth in subparagraphs (a)
 and (c) of the Commercial Computer Software - Restricted
 Rights clause in FAR 52.227-19.
  
 Gaussian, Inc.
 340 Quinnipiac St., Bldg. 40, Wallingford CT 06492
  
  
 ---------------------------------------------------------------
 Warning -- This program may not be used in any manner that
 competes with the business of Gaussian, Inc. or will provide
 assistance to any competitor of Gaussian, Inc.  The licensee
 of this program is prohibited from giving any competitor of
 Gaussian, Inc. access to this program.  By using this program,
 the user acknowledges that Gaussian, Inc. is engaged in the
 business of creating and licensing software in the field of
 computational chemistry and represents and warrants to the
 licensee that it is not a competitor of Gaussian, Inc. and that
 it will not use this program in any manner prohibited above.
 ---------------------------------------------------------------
  

 Cite this work as:
 Gaussian 09, Revision A.02,
 M. J. Frisch, G. W. Trucks, H. B. Schlegel, G. E. Scuseria, 
 M. A. Robb, J. R. Cheeseman, G. Scalmani, V. Barone, B. Mennucci, 
 G. A. Petersson, H. Nakatsuji, M. Caricato, X. Li, H. P. Hratchian, 
 A. F. Izmaylov, J. Bloino, G. Zheng, J. L. Sonnenberg, M. Hada, 
 M. Ehara, K. Toyota, R. Fukuda, J. Hasegawa, M. Ishida, T. Nakajima, 
 Y. Honda, O. Kitao, H. Nakai, T. Vreven, J. A. Montgomery, Jr., 
 J. E. Peralta, F. Ogliaro, M. Bearpark, J. J. Heyd, E. Brothers, 
 K. N. Kudin, V. N. Staroverov, R. Kobayashi, J. Normand, 
 K. Raghavachari, A. Rendell, J. C. Burant, S. S. Iyengar, J. Tomasi, 
 M. Cossi, N. Rega, J. M. Millam, M. Klene, J. E. Knox, J. B. Cross, 
 V. Bakken, C. Adamo, J. Jaramillo, R. Gomperts, R. E. Stratmann, 
 O. Yazyev, A. J. Austin, R. Cammi, C. Pomelli, J. W. Ochterski, 
 R. L. Martin, K. Morokuma, V. G. Zakrzewski, G. A. Voth, 
 P. Salvador, J. J. Dannenberg, S. Dapprich, A. D. Daniels, 
 O. Farkas, J. B. Foresman, J. V. Ortiz, J. Cioslowski, 
 and D. J. Fox, Gaussian, Inc., Wallingford CT, 2009.
 
 ******************************************
 Gaussian 09:  AM64L-G09RevA.02 11-Jun-2009
                 1-Oct-2021 
 ******************************************
 %nproc=4
 Will use up to    4 processors via shared memory.
 %mem=8gb
 %chk=C6H16P2_97b8_conf_0.chk
 -----------------------------------
 #p opt b3lyp/6-31G* scf=(xqc,tight)
 -----------------------------------
 1/14=-1,18=20,19=15,26=3,38=1/1,3;
 2/9=110,12=2,17=6,18=5,40=1/2;
 3/5=1,6=6,7=1,11=2,16=1,25=1,30=1,71=1,74=-5/1,2,3;
 4//1;
 5/5=2,8=3,13=1,32=2,38=5/2,8;
 6/7=2,8=2,9=2,10=2,28=1/1;
 7//1,2,3,16;
 1/14=-1,18=20,19=15/3(2);
 2/9=110/2;
 99//99;
 2/9=110/2;
 3/5=1,6=6,7=1,11=2,16=1,25=1,30=1,71=1,74=-5/1,2,3;
 4/5=5,16=3/1;
 5/5=2,8=3,13=1,32=2,38=5/2,8;
 7//1,2,3,16;
 1/14=-1,18=20,19=15/3(-5);
 2/9=110/2;
 6/7=2,8=2,9=2,10=2,19=2,28=1/1;
 99/9=1/99;
 Leave Link    1 at Fri Oct  1 18:35:41 2021, MaxMem= 1073741824 cpu:       0.1
 (Enter /sw/target/amd/app/gaussian/Gaussian09RevA.02_gcc-4.9.2/g09/l101.exe)
 -------------------
 CP(CCP(C)C)C_conf_0
 -------------------
 Symbolic Z-matrix:
 Charge =  0 Multiplicity = 1
 C                     3.573     0.96089   1.2112 
 P                     2.93979  -0.27969   0.01419 
 C                     3.4342    0.53914  -1.57693 
 C                     3.02732  -0.28815  -2.79864 
 P                     3.52211   0.52351  -4.39234 
 C                     2.85932  -0.70969  -5.58154 
 C                     2.21666   1.80693  -4.53011 
 C                     4.2663   -1.54196   0.15478 
 H                     2.95426   1.86223   1.18806 
 H                     4.60525   1.24846   0.98991 
 H                     3.5427    0.5569    2.22801 
 H                     4.51578   0.71958  -1.57525 
 H                     2.94702   1.52128  -1.60864 
 H                     1.94602  -0.46826  -2.799 
 H                     3.51534  -1.26957  -2.76494 
 H                     3.46775  -1.61942  -5.56335 
 H                     2.8825   -0.30866  -6.59847 
 H                     1.82728  -0.98539  -5.3469 
 H                     2.35171   2.57903  -3.76774 
 H                     1.21519   1.38333  -4.41543 
 H                     2.26964   2.2934   -5.50945 
 H                     4.23138  -2.01877   1.13899 
 H                     5.25933  -1.10156   0.02544 
 H                     4.13698  -2.32214  -0.6004 
 
 NAtoms=     24 NQM=     24 NQMF=      0 NMic=      0 NMicF=      0 NTot=     24.
                    Isotopes and Nuclear Properties:
 (Nuclear quadrupole moments (NQMom) in fm**2, nuclear magnetic moments (NMagM)
  in nuclear magnetons)

  Atom         1           2           3           4           5           6           7           8           9          10
 IAtWgt=          12          31          12          12          31          12          12          12           1           1
 AtmWgt=  12.0000000  30.9737634  12.0000000  12.0000000  30.9737634  12.0000000  12.0000000  12.0000000   1.0078250   1.0078250
 NucSpn=           0           1           0           0           1           0           0           0           1           1
 AtZEff=   0.0000000   0.0000000   0.0000000   0.0000000   0.0000000   0.0000000   0.0000000   0.0000000   0.0000000   0.0000000
 NQMom=    0.0000000   0.0000000   0.0000000   0.0000000   0.0000000   0.0000000   0.0000000   0.0000000   0.0000000   0.0000000
 NMagM=    0.0000000   1.1316000   0.0000000   0.0000000   1.1316000   0.0000000   0.0000000   0.0000000   2.7928460   2.7928460

  Atom        11          12          13          14          15          16          17          18          19          20
 IAtWgt=           1           1           1           1           1           1           1           1           1           1
 AtmWgt=   1.0078250   1.0078250   1.0078250   1.0078250   1.0078250   1.0078250   1.0078250   1.0078250   1.0078250   1.0078250
 NucSpn=           1           1           1           1           1           1           1           1           1           1
 AtZEff=   0.0000000   0.0000000   0.0000000   0.0000000   0.0000000   0.0000000   0.0000000   0.0000000   0.0000000   0.0000000
 NQMom=    0.0000000   0.0000000   0.0000000   0.0000000   0.0000000   0.0000000   0.0000000   0.0000000   0.0000000   0.0000000
 NMagM=    2.7928460   2.7928460   2.7928460   2.7928460   2.7928460   2.7928460   2.7928460   2.7928460   2.7928460   2.7928460

  Atom        21          22          23          24
 IAtWgt=           1           1           1           1
 AtmWgt=   1.0078250   1.0078250   1.0078250   1.0078250
 NucSpn=           1           1           1           1
 AtZEff=   0.0000000   0.0000000   0.0000000   0.0000000
 NQMom=    0.0000000   0.0000000   0.0000000   0.0000000
 NMagM=    2.7928460   2.7928460   2.7928460   2.7928460
 Leave Link  101 at Fri Oct  1 18:35:42 2021, MaxMem= 1073741824 cpu:       0.2
 (Enter /sw/target/amd/app/gaussian/Gaussian09RevA.02_gcc-4.9.2/g09/l103.exe)

 GradGradGradGradGradGradGradGradGradGradGradGradGradGradGradGradGradGrad
 Berny optimization.
 Initialization pass.
                           ----------------------------
                           !    Initial Parameters    !
                           ! (Angstroms and Degrees)  !
 --------------------------                            --------------------------
 ! Name  Definition              Value          Derivative Info.                !
 --------------------------------------------------------------------------------
 ! R1    R(1,2)                  1.8365         estimate D2E/DX2                !
 ! R2    R(1,9)                  1.0935         estimate D2E/DX2                !
 ! R3    R(1,10)                 1.0942         estimate D2E/DX2                !
 ! R4    R(1,11)                 1.0945         estimate D2E/DX2                !
 ! R5    R(2,3)                  1.8565         estimate D2E/DX2                !
 ! R6    R(2,8)                  1.8365         estimate D2E/DX2                !
 ! R7    R(3,4)                  1.5305         estimate D2E/DX2                !
 ! R8    R(3,12)                 1.0965         estimate D2E/DX2                !
 ! R9    R(3,13)                 1.0968         estimate D2E/DX2                !
 ! R10   R(4,5)                  1.8557         estimate D2E/DX2                !
 ! R11   R(4,14)                 1.0962         estimate D2E/DX2                !
 ! R12   R(4,15)                 1.0966         estimate D2E/DX2                !
 ! R13   R(5,6)                  1.8369         estimate D2E/DX2                !
 ! R14   R(5,7)                  1.8358         estimate D2E/DX2                !
 ! R15   R(6,16)                 1.0946         estimate D2E/DX2                !
 ! R16   R(6,17)                 1.0934         estimate D2E/DX2                !
 ! R17   R(6,18)                 1.0937         estimate D2E/DX2                !
 ! R18   R(7,19)                 1.0934         estimate D2E/DX2                !
 ! R19   R(7,20)                 1.0934         estimate D2E/DX2                !
 ! R20   R(7,21)                 1.0948         estimate D2E/DX2                !
 ! R21   R(8,22)                 1.0942         estimate D2E/DX2                !
 ! R22   R(8,23)                 1.094          estimate D2E/DX2                !
 ! R23   R(8,24)                 1.0935         estimate D2E/DX2                !
 ! A1    A(2,1,9)              110.3592         estimate D2E/DX2                !
 ! A2    A(2,1,10)             111.777          estimate D2E/DX2                !
 ! A3    A(2,1,11)             110.2807         estimate D2E/DX2                !
 ! A4    A(9,1,10)             108.2335         estimate D2E/DX2                !
 ! A5    A(9,1,11)             107.9525         estimate D2E/DX2                !
 ! A6    A(10,1,11)            108.1195         estimate D2E/DX2                !
 ! A7    A(1,2,3)               99.721          estimate D2E/DX2                !
 ! A8    A(1,2,8)               99.5177         estimate D2E/DX2                !
 ! A9    A(3,2,8)              100.1601         estimate D2E/DX2                !
 ! A10   A(2,3,4)              112.0195         estimate D2E/DX2                !
 ! A11   A(2,3,12)             109.5087         estimate D2E/DX2                !
 ! A12   A(2,3,13)             107.5441         estimate D2E/DX2                !
 ! A13   A(4,3,12)             110.6332         estimate D2E/DX2                !
 ! A14   A(4,3,13)             110.0512         estimate D2E/DX2                !
 ! A15   A(12,3,13)            106.9073         estimate D2E/DX2                !
 ! A16   A(3,4,5)              112.2243         estimate D2E/DX2                !
 ! A17   A(3,4,14)             110.567          estimate D2E/DX2                !
 ! A18   A(3,4,15)             109.933          estimate D2E/DX2                !
 ! A19   A(5,4,14)             109.5481         estimate D2E/DX2                !
 ! A20   A(5,4,15)             107.4093         estimate D2E/DX2                !
 ! A21   A(14,4,15)            106.9744         estimate D2E/DX2                !
 ! A22   A(4,5,6)               99.5637         estimate D2E/DX2                !
 ! A23   A(4,5,7)              100.406          estimate D2E/DX2                !
 ! A24   A(6,5,7)               99.4493         estimate D2E/DX2                !
 ! A25   A(5,6,16)             110.2823         estimate D2E/DX2                !
 ! A26   A(5,6,17)             110.3788         estimate D2E/DX2                !
 ! A27   A(5,6,18)             111.7664         estimate D2E/DX2                !
 ! A28   A(16,6,17)            107.9692         estimate D2E/DX2                !
 ! A29   A(16,6,18)            108.1462         estimate D2E/DX2                !
 ! A30   A(17,6,18)            108.1796         estimate D2E/DX2                !
 ! A31   A(5,7,19)             110.7015         estimate D2E/DX2                !
 ! A32   A(5,7,20)             111.8761         estimate D2E/DX2                !
 ! A33   A(5,7,21)             110.0813         estimate D2E/DX2                !
 ! A34   A(19,7,20)            108.2744         estimate D2E/DX2                !
 ! A35   A(19,7,21)            107.6949         estimate D2E/DX2                !
 ! A36   A(20,7,21)            108.0767         estimate D2E/DX2                !
 ! A37   A(2,8,22)             110.2011         estimate D2E/DX2                !
 ! A38   A(2,8,23)             111.7096         estimate D2E/DX2                !
 ! A39   A(2,8,24)             110.6155         estimate D2E/DX2                !
 ! A40   A(22,8,23)            108.1043         estimate D2E/DX2                !
 ! A41   A(22,8,24)            107.8499         estimate D2E/DX2                !
 ! A42   A(23,8,24)            108.2361         estimate D2E/DX2                !
 ! D1    D(9,1,2,3)             71.7268         estimate D2E/DX2                !
 ! D2    D(9,1,2,8)            173.8602         estimate D2E/DX2                !
 ! D3    D(10,1,2,3)           -48.7797         estimate D2E/DX2                !
 ! D4    D(10,1,2,8)            53.3537         estimate D2E/DX2                !
 ! D5    D(11,1,2,3)          -169.0888         estimate D2E/DX2                !
 ! D6    D(11,1,2,8)           -66.9554         estimate D2E/DX2                !
 ! D7    D(1,2,3,4)            179.9366         estimate D2E/DX2                !
 ! D8    D(1,2,3,12)            56.8063         estimate D2E/DX2                !
 ! D9    D(1,2,3,13)           -59.0169         estimate D2E/DX2                !
 ! D10   D(8,2,3,4)             78.3333         estimate D2E/DX2                !
 ! D11   D(8,2,3,12)           -44.797          estimate D2E/DX2                !
 ! D12   D(8,2,3,13)          -160.6201         estimate D2E/DX2                !
 ! D13   D(1,2,8,22)            68.5812         estimate D2E/DX2                !
 ! D14   D(1,2,8,23)           -51.6103         estimate D2E/DX2                !
 ! D15   D(1,2,8,24)          -172.2504         estimate D2E/DX2                !
 ! D16   D(3,2,8,22)           170.3511         estimate D2E/DX2                !
 ! D17   D(3,2,8,23)            50.1596         estimate D2E/DX2                !
 ! D18   D(3,2,8,24)           -70.4805         estimate D2E/DX2                !
 ! D19   D(2,3,4,5)           -179.878          estimate D2E/DX2                !
 ! D20   D(2,3,4,14)            57.4815         estimate D2E/DX2                !
 ! D21   D(2,3,4,15)           -60.4076         estimate D2E/DX2                !
 ! D22   D(12,3,4,5)           -57.385          estimate D2E/DX2                !
 ! D23   D(12,3,4,14)          179.9745         estimate D2E/DX2                !
 ! D24   D(12,3,4,15)           62.0855         estimate D2E/DX2                !
 ! D25   D(13,3,4,5)            60.5349         estimate D2E/DX2                !
 ! D26   D(13,3,4,14)          -62.1055         estimate D2E/DX2                !
 ! D27   D(13,3,4,15)         -179.9946         estimate D2E/DX2                !
 ! D28   D(3,4,5,6)           -179.0373         estimate D2E/DX2                !
 ! D29   D(3,4,5,7)            -77.4878         estimate D2E/DX2                !
 ! D30   D(14,4,5,6)           -55.8224         estimate D2E/DX2                !
 ! D31   D(14,4,5,7)            45.7271         estimate D2E/DX2                !
 ! D32   D(15,4,5,6)            60.0269         estimate D2E/DX2                !
 ! D33   D(15,4,5,7)           161.5765         estimate D2E/DX2                !
 ! D34   D(4,5,6,16)           -71.9118         estimate D2E/DX2                !
 ! D35   D(4,5,6,17)           168.8698         estimate D2E/DX2                !
 ! D36   D(4,5,6,18)            48.425          estimate D2E/DX2                !
 ! D37   D(7,5,6,16)          -174.2528         estimate D2E/DX2                !
 ! D38   D(7,5,6,17)            66.5287         estimate D2E/DX2                !
 ! D39   D(7,5,6,18)           -53.916          estimate D2E/DX2                !
 ! D40   D(4,5,7,19)            69.5901         estimate D2E/DX2                !
 ! D41   D(4,5,7,20)           -51.2706         estimate D2E/DX2                !
 ! D42   D(4,5,7,21)          -171.4557         estimate D2E/DX2                !
 ! D43   D(6,5,7,19)           171.233          estimate D2E/DX2                !
 ! D44   D(6,5,7,20)            50.3723         estimate D2E/DX2                !
 ! D45   D(6,5,7,21)           -69.8128         estimate D2E/DX2                !
 --------------------------------------------------------------------------------
 Trust Radius=3.00D-01 FncErr=1.00D-07 GrdErr=1.00D-06
 Number of steps in this run= 120 maximum allowed number of steps= 144.
 GradGradGradGradGradGradGradGradGradGradGradGradGradGradGradGradGradGrad

 Leave Link  103 at Fri Oct  1 18:35:42 2021, MaxMem= 1073741824 cpu:       0.0
 (Enter /sw/target/amd/app/gaussian/Gaussian09RevA.02_gcc-4.9.2/g09/l202.exe)
                          Input orientation:                          
 ---------------------------------------------------------------------
 Center     Atomic      Atomic             Coordinates (Angstroms)
 Number     Number       Type             X           Y           Z
 ---------------------------------------------------------------------
      1          6           0        3.572999    0.960891    1.211200
      2         15           0        2.939785   -0.279688    0.014191
      3          6           0        3.434199    0.539140   -1.576933
      4          6           0        3.027321   -0.288148   -2.798640
      5         15           0        3.522106    0.523514   -4.392344
      6          6           0        2.859319   -0.709691   -5.581538
      7          6           0        2.216657    1.806925   -4.530105
      8          6           0        4.266303   -1.541962    0.154778
      9          1           0        2.954257    1.862235    1.188059
     10          1           0        4.605246    1.248463    0.989910
     11          1           0        3.542704    0.556898    2.228011
     12          1           0        4.515778    0.719580   -1.575255
     13          1           0        2.947017    1.521279   -1.608644
     14          1           0        1.946019   -0.468264   -2.798999
     15          1           0        3.515341   -1.269573   -2.764940
     16          1           0        3.467750   -1.619419   -5.563348
     17          1           0        2.882503   -0.308657   -6.598466
     18          1           0        1.827275   -0.985393   -5.346903
     19          1           0        2.351710    2.579033   -3.767742
     20          1           0        1.215193    1.383335   -4.415432
     21          1           0        2.269639    2.293400   -5.509451
     22          1           0        4.231378   -2.018774    1.138993
     23          1           0        5.259327   -1.101556    0.025439
     24          1           0        4.136977   -2.322135   -0.600404
 ---------------------------------------------------------------------
                    Distance matrix (angstroms):
                    1          2          3          4          5
     1  C    0.000000
     2  P    1.836526   0.000000
     3  C    2.823266   1.856502   0.000000
     4  C    4.235172   2.814206   1.530530   0.000000
     5  P    5.620818   4.516833   2.816826   1.855667   0.000000
     6  C    7.031463   5.612803   4.234019   2.819653   1.836917
     7  C    5.959701   5.052474   3.436701   2.836280   1.835844
     8  C    2.803742   1.836505   2.832350   3.439448   5.049390
     9  H    1.093525   2.442541   3.102596   4.530260   5.766760
    10  H    1.094166   2.461916   2.909154   4.382252   5.537815
    11  H    1.094546   2.442209   3.806532   5.123177   6.620471
    12  H    2.951507   2.451250   1.096529   2.174326   2.993629
    13  H    2.942348   2.424278   1.096790   2.167156   3.012515
    14  H    4.557549   2.989510   2.173243   1.096201   2.450801
    15  H    4.559385   3.005779   2.165500   1.096583   2.421498
    16  H    7.250075   5.760431   4.533432   3.099979   2.442616
    17  H    7.942256   6.612968   5.122394   3.802640   2.443067
    18  H    7.060049   5.520600   4.372536   2.901707   2.461796
    19  H    5.375853   4.777147   3.183173   3.101022   2.446449
    20  H    6.115284   5.036012   3.700503   2.948165   2.462046
    21  H    6.974345   6.130293   4.460754   3.819289   2.439077
    22  H    3.052389   2.440863   3.815059   4.466517   6.128783
    23  H    2.916062   2.460867   2.930968   3.690380   5.017529
    24  H    3.791865   2.445933   3.103933   3.193851   4.780648
                    6          7          8          9         10
     6  C    0.000000
     7  C    2.802121   0.000000
     8  C    5.964696   6.112629   0.000000
     9  H    7.242324   5.765806   3.791792   0.000000
    10  H    7.075772   6.040514   2.932371   1.772496   0.000000
    11  H    7.941052   6.999507   3.037614   1.769654   1.772047
    12  H    4.564753   3.898644   2.858290   3.373412   2.620647
    13  H    4.557280   3.024889   3.772747   2.817419   3.094614
    14  H    2.938524   2.871665   3.906577   4.726986   4.937051
    15  H    2.945684   3.777199   3.027027   5.074371   4.650516
    16  H    1.094589   3.791130   5.774137   7.613612   7.243193
    17  H    1.093393   3.032681   7.003017   8.083804   7.935737
    18  H    1.093700   2.935272   6.043767   7.216980   7.270656
    19  H    3.789885   1.093429   6.002868   5.043493   5.429926
    20  H    2.905806   1.093393   6.225227   5.886662   6.381878
    21  H    3.061286   1.094798   7.126020   6.746203   6.984887
    22  H    6.982963   7.129779   1.094188   4.086034   3.291936
    23  H    6.111611   6.202426   1.093976   3.930532   2.623093
    24  H    5.389256   6.014925   1.093479   4.701742   3.936692
                   11         12         13         14         15
    11  H    0.000000
    12  H    3.929143   0.000000
    13  H    4.000599   1.762058   0.000000
    14  H    5.373192   3.084183   2.525316   0.000000
    15  H    5.316606   2.524471   3.073901   1.762392   0.000000
    16  H    8.089947   4.740693   5.076892   3.358936   2.820593
    17  H    8.893354   5.381218   5.315181   3.916430   4.002470
    18  H    7.918376   4.935617   4.638082   2.602563   3.097879
    19  H    6.438676   3.598299   2.476880   3.223208   4.143841
    20  H    7.087710   4.404661   3.300954   2.564250   3.879784
    21  H    8.031466   4.795827   4.033771   3.883049   4.666786
    22  H    2.879985   3.866083   4.661659   4.809857   4.039146
    23  H    3.247858   2.536064   3.859568   4.399605   3.294834
    24  H    4.079451   3.216497   4.147817   3.615378   2.485867
                   16         17         18         19         20
    16  H    0.000000
    17  H    1.769769   0.000000
    18  H    1.772003   1.771408   0.000000
    19  H    4.700718   4.078418   3.933690   0.000000
    20  H    3.925335   3.226204   2.617853   1.772249   0.000000
    21  H    4.092496   2.886564   3.312490   1.766883   1.771145
    22  H    6.757513   8.038173   6.993885   6.982050   7.177976
    23  H    5.891729   7.081956   6.376091   6.032345   6.500079
    24  H    5.056925   6.450159   5.445260   6.102512   6.068094
                   21         22         23         24
    21  H    0.000000
    22  H    8.163643   0.000000
    23  H    7.148354   1.771432   0.000000
    24  H    6.992057   1.768174   1.772333   0.000000
 Stoichiometry    C6H16P2
 Framework group  C1[X(C6H16P2)]
 Deg. of freedom    66
 Full point group                 C1      NOp   1
 Largest Abelian subgroup         C1      NOp   1
 Largest concise Abelian subgroup C1      NOp   1
                         Standard orientation:                         
 ---------------------------------------------------------------------
 Center     Atomic      Atomic             Coordinates (Angstroms)
 Number     Number       Type             X           Y           Z
 ---------------------------------------------------------------------
      1          6           0       -3.309334    1.160669    0.259589
      2         15           0       -2.177563   -0.005847   -0.595492
      3          6           0       -0.585186    0.419152    0.259088
      4          6           0        0.585355   -0.420589   -0.257819
      5         15           0        2.179485   -0.002857    0.595264
      6          6           0        3.308051   -1.153081   -0.286545
      7          6           0        2.613992    1.561608   -0.261460
      8          6           0       -2.615321   -1.555681    0.287194
      9          1           0       -3.114473    2.186581   -0.064958
     10          1           0       -3.191583    1.117242    1.346534
     11          1           0       -4.350640    0.923130    0.020239
     12          1           0       -0.704782    0.290450    1.341450
     13          1           0       -0.390092    1.484178    0.084138
     14          1           0        0.703648   -0.291476   -1.339943
     15          1           0        0.388268   -1.484898   -0.082045
     16          1           0        3.118506   -2.184775    0.026193
     17          1           0        4.350064   -0.916397   -0.054818
     18          1           0        3.178346   -1.096610   -1.371057
     19          1           0        1.925212    2.361958    0.022456
     20          1           0        2.583370    1.452640   -1.348979
     21          1           0        3.624057    1.876371    0.020100
     22          1           0       -3.631466   -1.865612    0.025199
     23          1           0       -2.567415   -1.430371    1.372912
     24          1           0       -1.935189   -2.364317    0.005725
 ---------------------------------------------------------------------
 Rotational constants (GHZ):      2.9152952      0.5651834      0.5094627
 Leave Link  202 at Fri Oct  1 18:35:42 2021, MaxMem= 1073741824 cpu:       0.0
 (Enter /sw/target/amd/app/gaussian/Gaussian09RevA.02_gcc-4.9.2/g09/l301.exe)
 Standard basis: 6-31G(d) (6D, 7F)
 Ernie: Thresh=  0.10000D-02 Tol=  0.10000D-05 Strict=F.
 There are   160 symmetry adapted basis functions of A   symmetry.
 Integral buffers will be    131072 words long.
 Raffenetti 2 integral format.
 Two-electron integral symmetry is turned on.
   160 basis functions,   336 primitive gaussians,   160 cartesian basis functions
    41 alpha electrons       41 beta electrons
       nuclear repulsion energy       544.7743141257 Hartrees.
 IExCor=  402 DFT=T Ex+Corr=B3LYP ExCW=0 ScaHFX=  0.200000
 ScaDFX=  0.800000  0.720000  1.000000  0.810000 ScalE2=  1.000000  1.000000
 IRadAn=      0 IRanWt=     -1 IRanGd=            0 ICorTp=0
 NAtoms=   24 NActive=   24 NUniq=   24 SFac= 7.50D-01 NAtFMM=   80 NAOKFM=F Big=F
 Leave Link  301 at Fri Oct  1 18:35:42 2021, MaxMem= 1073741824 cpu:       0.1
 (Enter /sw/target/amd/app/gaussian/Gaussian09RevA.02_gcc-4.9.2/g09/l302.exe)
 NPDir=0 NMtPBC=     1 NCelOv=     1 NCel=       1 NClECP=     1 NCelD=      1
         NCelK=      1 NCelE2=     1 NClLst=     1 CellRange=     0.0.
 One-electron integrals computed using PRISM.
 NBasis=   160 RedAO= T  NBF=   160
 NBsUse=   160 1.00D-06 NBFU=   160
 Precomputing XC quadrature grid using
 IXCGrd= 2 IRadAn=           0 IRanWt=          -1 IRanGd=           0 AccXCQ= 1.00D-10.
 NRdTot=    1516 NPtTot=      192232 NUsed=      203169 NTot=      203201
 NSgBfM=   160   160   160   160   160 NAtAll=    24    24.
 Leave Link  302 at Fri Oct  1 18:35:45 2021, MaxMem= 1073741824 cpu:       1.6
 (Enter /sw/target/amd/app/gaussian/Gaussian09RevA.02_gcc-4.9.2/g09/l303.exe)
 DipDrv:  MaxL=1.
 Leave Link  303 at Fri Oct  1 18:35:46 2021, MaxMem= 1073741824 cpu:       0.2
 (Enter /sw/target/amd/app/gaussian/Gaussian09RevA.02_gcc-4.9.2/g09/l401.exe)
 Harris functional with IExCor=  402 diagonalized for initial guess.
 ExpMin= 9.98D-02 ExpMax= 1.94D+04 ExpMxC= 2.91D+03 IAcc=2 IRadAn=         0 AccDes= 0.00D+00
 HarFok:  IExCor=  402 AccDes= 0.00D+00 IRadAn=         0 IDoV= 1
 ScaDFX=  1.000000  1.000000  1.000000  1.000000
 FoFCou: FMM=F IPFlag=           0 FMFlag=      100000 FMFlg1=           0
         NFxFlg=           0 DoJE=T BraDBF=F KetDBF=T FulRan=T
         Omega=  0.000000  0.000000  1.000000  0.000000  0.000000 ICntrl=     500 IOpCl=  0
         NMat0=    1 NMatS0=    1 NMatT0=    0 NMatD0=    1 NMtDS0=    0 NMtDT0=    0
         I1Cent=           4 NGrid=           0.
 Petite list used in FoFCou.
 Harris En= -921.096980427445    
 Initial guess orbital symmetries:
       Occupied  (A) (A) (A) (A) (A) (A) (A) (A) (A) (A) (A) (A)
                 (A) (A) (A) (A) (A) (A) (A) (A) (A) (A) (A) (A)
                 (A) (A) (A) (A) (A) (A) (A) (A) (A) (A) (A) (A)
                 (A) (A) (A) (A) (A)
       Virtual   (A) (A) (A) (A) (A) (A) (A) (A) (A) (A) (A) (A)
                 (A) (A) (A) (A) (A) (A) (A) (A) (A) (A) (A) (A)
                 (A) (A) (A) (A) (A) (A) (A) (A) (A) (A) (A) (A)
                 (A) (A) (A) (A) (A) (A) (A) (A) (A) (A) (A) (A)
                 (A) (A) (A) (A) (A) (A) (A) (A) (A) (A) (A) (A)
                 (A) (A) (A) (A) (A) (A) (A) (A) (A) (A) (A) (A)
                 (A) (A) (A) (A) (A) (A) (A) (A) (A) (A) (A) (A)
                 (A) (A) (A) (A) (A) (A) (A) (A) (A) (A) (A) (A)
                 (A) (A) (A) (A) (A) (A) (A) (A) (A) (A) (A) (A)
                 (A) (A) (A) (A) (A) (A) (A) (A) (A) (A) (A)
 The electronic state of the initial guess is 1-A.
 Leave Link  401 at Fri Oct  1 18:36:09 2021, MaxMem= 1073741824 cpu:      13.9
 (Enter /sw/target/amd/app/gaussian/Gaussian09RevA.02_gcc-4.9.2/g09/l502.exe)
 Closed shell SCF:
 Requested convergence on RMS density matrix=1.00D-08 within  64 cycles.
 Requested convergence on MAX density matrix=1.00D-06.
 Requested convergence on             energy=1.00D-06.
 No special actions if energy rises.
 Using DIIS extrapolation, IDIIS=  1040.
 Integral symmetry usage will be decided dynamically.
       202940 words used for storage of precomputed grid.
 Keep R1 ints in memory in canonical form, NReq=85327686.
 IEnd=      287472 IEndB=      287472 NGot=  1073741824 MDV=   990530669
 LenX=   990530669 LenY=   990504628
 Symmetry not used in FoFDir.
 MinBra= 0 MaxBra= 2 Meth= 1.
 IRaf=       0 NMat=   1 IRICut=       1 DoRegI=T DoRafI=F ISym2E= 0 JSym2E=0.
 Integral accuracy reduced to 1.0D-05 until final iterations.

 Cycle   1  Pass 0  IDiag  1:
 E= -920.617511853276    
 DIIS: error= 4.95D-02 at cycle   1 NSaved=   1.
 NSaved= 1 IEnMin= 1 EnMin= -920.617511853276     IErMin= 1 ErrMin= 4.95D-02
 ErrMax= 4.95D-02 EMaxC= 1.00D-01 BMatC= 3.56D-01 BMatP= 3.56D-01
 IDIUse=3 WtCom= 5.05D-01 WtEn= 4.95D-01
 Coeff-Com:  0.100D+01
 Coeff-En:   0.100D+01
 Coeff:      0.100D+01
 Gap=     0.282 Goal=   None    Shift=    0.000
 GapD=    0.282 DampG=1.000 DampE=0.500 DampFc=0.5000 IDamp=-1.
 Damping current iteration by 5.00D-01
 RMSDP=7.60D-03 MaxDP=1.45D-01              OVMax= 2.09D-01

 Cycle   2  Pass 0  IDiag  1:
 E= -920.777832454012     Delta-E=       -0.160320600736 Rises=F Damp=T
 DIIS: error= 1.00D-02 at cycle   2 NSaved=   2.
 NSaved= 2 IEnMin= 2 EnMin= -920.777832454012     IErMin= 2 ErrMin= 1.00D-02
 ErrMax= 1.00D-02 EMaxC= 1.00D-01 BMatC= 1.39D-02 BMatP= 3.56D-01
 IDIUse=3 WtCom= 9.00D-01 WtEn= 1.00D-01
 Coeff-Com:  0.926D-01 0.907D+00
 Coeff-En:   0.166D+00 0.834D+00
 Coeff:      0.100D+00 0.900D+00
 Gap=     0.265 Goal=   None    Shift=    0.000
 RMSDP=1.26D-03 MaxDP=5.29D-02 DE=-1.60D-01 OVMax= 1.23D-01

 Cycle   3  Pass 0  IDiag  1:
 E= -920.986739525670     Delta-E=       -0.208907071658 Rises=F Damp=F
 DIIS: error= 2.58D-03 at cycle   3 NSaved=   3.
 NSaved= 3 IEnMin= 3 EnMin= -920.986739525670     IErMin= 3 ErrMin= 2.58D-03
 ErrMax= 2.58D-03 EMaxC= 1.00D-01 BMatC= 9.70D-04 BMatP= 1.39D-02
 IDIUse=3 WtCom= 9.74D-01 WtEn= 2.58D-02
 Coeff-Com:  0.782D-02 0.150D+00 0.843D+00
 Coeff-En:   0.000D+00 0.000D+00 0.100D+01
 Coeff:      0.761D-02 0.146D+00 0.847D+00
 Gap=     0.265 Goal=   None    Shift=    0.000
 RMSDP=4.54D-04 MaxDP=6.97D-03 DE=-2.09D-01 OVMax= 1.48D-02

 Cycle   4  Pass 0  IDiag  1:
 E= -920.987325727519     Delta-E=       -0.000586201849 Rises=F Damp=F
 DIIS: error= 1.51D-03 at cycle   4 NSaved=   4.
 NSaved= 4 IEnMin= 4 EnMin= -920.987325727519     IErMin= 4 ErrMin= 1.51D-03
 ErrMax= 1.51D-03 EMaxC= 1.00D-01 BMatC= 5.06D-04 BMatP= 9.70D-04
 IDIUse=3 WtCom= 9.85D-01 WtEn= 1.51D-02
 Coeff-Com:  0.109D-02 0.280D-01 0.421D+00 0.550D+00
 Coeff-En:   0.000D+00 0.000D+00 0.312D+00 0.688D+00
 Coeff:      0.107D-02 0.276D-01 0.419D+00 0.552D+00
 Gap=     0.264 Goal=   None    Shift=    0.000
 RMSDP=2.11D-04 MaxDP=3.34D-03 DE=-5.86D-04 OVMax= 7.17D-03

 Cycle   5  Pass 0  IDiag  1:
 E= -920.987841603323     Delta-E=       -0.000515875804 Rises=F Damp=F
 DIIS: error= 5.37D-04 at cycle   5 NSaved=   5.
 NSaved= 5 IEnMin= 5 EnMin= -920.987841603323     IErMin= 5 ErrMin= 5.37D-04
 ErrMax= 5.37D-04 EMaxC= 1.00D-01 BMatC= 5.54D-05 BMatP= 5.06D-04
 IDIUse=3 WtCom= 9.95D-01 WtEn= 5.37D-03
 Coeff-Com:  0.408D-03 0.137D-02 0.147D+00 0.301D+00 0.550D+00
 Coeff-En:   0.000D+00 0.000D+00 0.000D+00 0.247D-01 0.975D+00
 Coeff:      0.406D-03 0.136D-02 0.146D+00 0.300D+00 0.552D+00
 Gap=     0.264 Goal=   None    Shift=    0.000
 RMSDP=5.67D-05 MaxDP=9.32D-04 DE=-5.16D-04 OVMax= 1.79D-03

 Cycle   6  Pass 0  IDiag  1:
 E= -920.987902125637     Delta-E=       -0.000060522314 Rises=F Damp=F
 DIIS: error= 5.80D-05 at cycle   6 NSaved=   6.
 NSaved= 6 IEnMin= 6 EnMin= -920.987902125637     IErMin= 6 ErrMin= 5.80D-05
 ErrMax= 5.80D-05 EMaxC= 1.00D-01 BMatC= 3.64D-07 BMatP= 5.54D-05
 IDIUse=1 WtCom= 1.00D+00 WtEn= 0.00D+00
 Coeff-Com:  0.184D-03-0.551D-03 0.301D-01 0.710D-01 0.162D+00 0.737D+00
 Coeff:      0.184D-03-0.551D-03 0.301D-01 0.710D-01 0.162D+00 0.737D+00
 Gap=     0.264 Goal=   None    Shift=    0.000
 RMSDP=5.94D-06 MaxDP=1.78D-04 DE=-6.05D-05 OVMax= 1.57D-04

 Initial convergence to 1.0D-05 achieved.  Increase integral accuracy.
 Cycle   7  Pass 1  IDiag  1:
 E= -920.987960539986     Delta-E=       -0.000058414348 Rises=F Damp=F
 DIIS: error= 1.71D-05 at cycle   1 NSaved=   1.
 NSaved= 1 IEnMin= 1 EnMin= -920.987960539986     IErMin= 1 ErrMin= 1.71D-05
 ErrMax= 1.71D-05 EMaxC= 1.00D-01 BMatC= 9.98D-08 BMatP= 9.98D-08
 IDIUse=1 WtCom= 1.00D+00 WtEn= 0.00D+00
 Coeff-Com:  0.100D+01
 Coeff:      0.100D+01
 Gap=     0.264 Goal=   None    Shift=    0.000
 RMSDP=5.94D-06 MaxDP=1.78D-04 DE=-5.84D-05 OVMax= 2.43D-04

 Cycle   8  Pass 1  IDiag  1:
 E= -920.987960621703     Delta-E=       -0.000000081718 Rises=F Damp=F
 DIIS: error= 1.78D-05 at cycle   2 NSaved=   2.
 NSaved= 2 IEnMin= 2 EnMin= -920.987960621703     IErMin= 1 ErrMin= 1.71D-05
 ErrMax= 1.78D-05 EMaxC= 1.00D-01 BMatC= 8.32D-08 BMatP= 9.98D-08
 IDIUse=1 WtCom= 1.00D+00 WtEn= 0.00D+00
 Coeff-Com:  0.471D+00 0.529D+00
 Coeff:      0.471D+00 0.529D+00
 Gap=     0.264 Goal=   None    Shift=    0.000
 RMSDP=2.26D-06 MaxDP=5.26D-05 DE=-8.17D-08 OVMax= 7.33D-05

 Cycle   9  Pass 1  IDiag  1:
 E= -920.987960705116     Delta-E=       -0.000000083412 Rises=F Damp=F
 DIIS: error= 4.46D-06 at cycle   3 NSaved=   3.
 NSaved= 3 IEnMin= 3 EnMin= -920.987960705116     IErMin= 3 ErrMin= 4.46D-06
 ErrMax= 4.46D-06 EMaxC= 1.00D-01 BMatC= 5.88D-09 BMatP= 8.32D-08
 IDIUse=1 WtCom= 1.00D+00 WtEn= 0.00D+00
 Coeff-Com: -0.159D-01 0.201D+00 0.815D+00
 Coeff:     -0.159D-01 0.201D+00 0.815D+00
 Gap=     0.264 Goal=   None    Shift=    0.000
 RMSDP=6.37D-07 MaxDP=1.62D-05 DE=-8.34D-08 OVMax= 2.00D-05

 Cycle  10  Pass 1  IDiag  1:
 E= -920.987960711489     Delta-E=       -0.000000006373 Rises=F Damp=F
 DIIS: error= 3.27D-07 at cycle   4 NSaved=   4.
 NSaved= 4 IEnMin= 4 EnMin= -920.987960711489     IErMin= 4 ErrMin= 3.27D-07
 ErrMax= 3.27D-07 EMaxC= 1.00D-01 BMatC= 5.04D-11 BMatP= 5.88D-09
 IDIUse=1 WtCom= 1.00D+00 WtEn= 0.00D+00
 Coeff-Com: -0.104D-01 0.489D-01 0.223D+00 0.738D+00
 Coeff:     -0.104D-01 0.489D-01 0.223D+00 0.738D+00
 Gap=     0.264 Goal=   None    Shift=    0.000
 RMSDP=1.11D-07 MaxDP=4.02D-06 DE=-6.37D-09 OVMax= 3.29D-06

 Cycle  11  Pass 1  IDiag  1:
 E= -920.987960711548     Delta-E=       -0.000000000059 Rises=F Damp=F
 DIIS: error= 2.75D-07 at cycle   5 NSaved=   5.
 NSaved= 5 IEnMin= 5 EnMin= -920.987960711548     IErMin= 5 ErrMin= 2.75D-07
 ErrMax= 2.75D-07 EMaxC= 1.00D-01 BMatC= 9.31D-12 BMatP= 5.04D-11
 IDIUse=1 WtCom= 1.00D+00 WtEn= 0.00D+00
 Coeff-Com: -0.375D-02 0.128D-01 0.634D-01 0.340D+00 0.587D+00
 Coeff:     -0.375D-02 0.128D-01 0.634D-01 0.340D+00 0.587D+00
 Gap=     0.264 Goal=   None    Shift=    0.000
 RMSDP=3.28D-08 MaxDP=6.89D-07 DE=-5.91D-11 OVMax= 9.64D-07

 Cycle  12  Pass 1  IDiag  1:
 E= -920.987960711569     Delta-E=       -0.000000000021 Rises=F Damp=F
 DIIS: error= 8.67D-08 at cycle   6 NSaved=   6.
 NSaved= 6 IEnMin= 6 EnMin= -920.987960711569     IErMin= 6 ErrMin= 8.67D-08
 ErrMax= 8.67D-08 EMaxC= 1.00D-01 BMatC= 1.22D-12 BMatP= 9.31D-12
 IDIUse=1 WtCom= 1.00D+00 WtEn= 0.00D+00
 Coeff-Com: -0.552D-03 0.342D-03 0.470D-02 0.848D-01 0.295D+00 0.615D+00
 Coeff:     -0.552D-03 0.342D-03 0.470D-02 0.848D-01 0.295D+00 0.615D+00
 Gap=     0.264 Goal=   None    Shift=    0.000
 RMSDP=9.76D-09 MaxDP=1.71D-07 DE=-2.14D-11 OVMax= 3.45D-07

 SCF Done:  E(RB3LYP) =  -920.987960712     A.U. after   12 cycles
             Convg  =    0.9762D-08             -V/T =  2.0052
 KE= 9.162141041398D+02 PE=-3.262637996658D+03 EE= 8.806616176810D+02
 Leave Link  502 at Fri Oct  1 18:39:38 2021, MaxMem= 1073741824 cpu:      91.2
 (Enter /sw/target/amd/app/gaussian/Gaussian09RevA.02_gcc-4.9.2/g09/l508.exe)
 QCSCF skips out because SCF is already converged.
 Leave Link  508 at Fri Oct  1 18:39:39 2021, MaxMem= 1073741824 cpu:       0.0
 (Enter /sw/target/amd/app/gaussian/Gaussian09RevA.02_gcc-4.9.2/g09/l601.exe)
 Copying SCF densities to generalized density rwf, IOpCl= 0 IROHF=0.

 **********************************************************************

            Population analysis using the SCF density.

 **********************************************************************

 Orbital symmetries:
       Occupied  (A) (A) (A) (A) (A) (A) (A) (A) (A) (A) (A) (A)
                 (A) (A) (A) (A) (A) (A) (A) (A) (A) (A) (A) (A)
                 (A) (A) (A) (A) (A) (A) (A) (A) (A) (A) (A) (A)
                 (A) (A) (A) (A) (A)
       Virtual   (A) (A) (A) (A) (A) (A) (A) (A) (A) (A) (A) (A)
                 (A) (A) (A) (A) (A) (A) (A) (A) (A) (A) (A) (A)
                 (A) (A) (A) (A) (A) (A) (A) (A) (A) (A) (A) (A)
                 (A) (A) (A) (A) (A) (A) (A) (A) (A) (A) (A) (A)
                 (A) (A) (A) (A) (A) (A) (A) (A) (A) (A) (A) (A)
                 (A) (A) (A) (A) (A) (A) (A) (A) (A) (A) (A) (A)
                 (A) (A) (A) (A) (A) (A) (A) (A) (A) (A) (A) (A)
                 (A) (A) (A) (A) (A) (A) (A) (A) (A) (A) (A) (A)
                 (A) (A) (A) (A) (A) (A) (A) (A) (A) (A) (A) (A)
                 (A) (A) (A) (A) (A) (A) (A) (A) (A) (A) (A)
 The electronic state is 1-A.
 Alpha  occ. eigenvalues --  -77.06654 -77.06645 -10.18558 -10.18534 -10.17772
 Alpha  occ. eigenvalues --  -10.17764 -10.17752 -10.17737  -6.53551  -6.53543
 Alpha  occ. eigenvalues --   -4.69811  -4.69803  -4.69799  -4.69790  -4.69278
 Alpha  occ. eigenvalues --   -4.69269  -0.78697  -0.74986  -0.71828  -0.68801
 Alpha  occ. eigenvalues --   -0.68730  -0.62567  -0.52947  -0.52200  -0.46116
 Alpha  occ. eigenvalues --   -0.43144  -0.42963  -0.42373  -0.41616  -0.40631
 Alpha  occ. eigenvalues --   -0.39696  -0.39545  -0.39399  -0.37389  -0.35793
 Alpha  occ. eigenvalues --   -0.35718  -0.32830  -0.31952  -0.29027  -0.21944
 Alpha  occ. eigenvalues --   -0.21312
 Alpha virt. eigenvalues --    0.05039   0.06397   0.06873   0.07823   0.08014
 Alpha virt. eigenvalues --    0.10897   0.11421   0.12242   0.12754   0.13742
 Alpha virt. eigenvalues --    0.13971   0.15416   0.15742   0.16591   0.17622
 Alpha virt. eigenvalues --    0.18288   0.19408   0.19646   0.20629   0.21322
 Alpha virt. eigenvalues --    0.22104   0.22238   0.24219   0.34702   0.36086
 Alpha virt. eigenvalues --    0.37302   0.38553   0.39833   0.43032   0.43888
 Alpha virt. eigenvalues --    0.44582   0.46906   0.47152   0.52242   0.56032
 Alpha virt. eigenvalues --    0.57324   0.58857   0.60440   0.61205   0.64096
 Alpha virt. eigenvalues --    0.64604   0.66111   0.71385   0.74145   0.74964
 Alpha virt. eigenvalues --    0.77456   0.77615   0.79254   0.79878   0.82735
 Alpha virt. eigenvalues --    0.82922   0.84742   0.85651   0.85872   0.87339
 Alpha virt. eigenvalues --    0.87980   0.88209   0.89119   0.89541   0.90682
 Alpha virt. eigenvalues --    0.91584   0.92321   0.92923   0.93047   0.94393
 Alpha virt. eigenvalues --    0.94845   0.95348   0.97739   1.00307   1.00896
 Alpha virt. eigenvalues --    1.03075   1.03109   1.04058   1.06422   1.11262
 Alpha virt. eigenvalues --    1.31674   1.33091   1.33392   1.37553   1.38231
 Alpha virt. eigenvalues --    1.58289   1.59673   1.66387   1.69066   1.69292
 Alpha virt. eigenvalues --    1.70169   1.73652   1.75398   1.76897   1.78069
 Alpha virt. eigenvalues --    1.81894   1.93686   1.98951   2.05043   2.10438
 Alpha virt. eigenvalues --    2.15640   2.22806   2.23474   2.23917   2.24327
 Alpha virt. eigenvalues --    2.25757   2.25765   2.26418   2.26453   2.28220
 Alpha virt. eigenvalues --    2.28252   2.29703   2.33019   2.33871   2.34596
 Alpha virt. eigenvalues --    2.67003   3.53748   3.55738   4.18374   4.21641
 Alpha virt. eigenvalues --    4.21979   4.22948   4.23906   4.42482
          Condensed to atoms (all electrons):
              1          2          3          4          5          6
     1  C    5.290165   0.319476  -0.031930   0.001940  -0.000168   0.000000
     2  P    0.319476  13.934233   0.316287  -0.031117   0.005460  -0.000169
     3  C   -0.031930   0.316287   5.226986   0.363355  -0.030897   0.001947
     4  C    0.001940  -0.031117   0.363355   5.225651   0.316746  -0.032147
     5  P   -0.000168   0.005460  -0.030897   0.316746  13.933550   0.320003
     6  C    0.000000  -0.000169   0.001947  -0.032147   0.320003   5.290189
     7  C    0.000001  -0.000160  -0.002606  -0.031342   0.325853  -0.035364
     8  C   -0.035200   0.325853  -0.031459  -0.002552  -0.000175   0.000001
     9  H    0.369342  -0.027863  -0.001364   0.000004  -0.000003   0.000000
    10  H    0.354469  -0.038699  -0.006991   0.000027   0.000011   0.000000
    11  H    0.366887  -0.024346   0.002251  -0.000042   0.000002  -0.000000
    12  H   -0.004312  -0.041921   0.354746  -0.041172   0.003615   0.000036
    13  H   -0.000310  -0.036083   0.367991  -0.038203  -0.007416   0.000069
    14  H    0.000038   0.003500  -0.041248   0.354874  -0.041945  -0.004521
    15  H    0.000069  -0.007319  -0.038264   0.368206  -0.036379  -0.000243
    16  H    0.000000  -0.000003   0.000004  -0.001312  -0.027931   0.369164
    17  H   -0.000000   0.000002  -0.000042   0.002258  -0.024284   0.366990
    18  H    0.000000   0.000010   0.000029  -0.007115  -0.038785   0.354595
    19  H    0.000001  -0.000088   0.000915  -0.001774  -0.028056   0.002590
    20  H    0.000000   0.000008  -0.000141  -0.007025  -0.038271  -0.006731
    21  H   -0.000000   0.000004   0.000080   0.002319  -0.026925  -0.001357
    22  H   -0.001451  -0.026667   0.002330   0.000078   0.000004  -0.000000
    23  H   -0.006589  -0.038451  -0.007327  -0.000145   0.000010   0.000000
    24  H    0.002585  -0.028318  -0.001619   0.000874  -0.000086   0.000001
              7          8          9         10         11         12
     1  C    0.000001  -0.035200   0.369342   0.354469   0.366887  -0.004312
     2  P   -0.000160   0.325853  -0.027863  -0.038699  -0.024346  -0.041921
     3  C   -0.002606  -0.031459  -0.001364  -0.006991   0.002251   0.354746
     4  C   -0.031342  -0.002552   0.000004   0.000027  -0.000042  -0.041172
     5  P    0.325853  -0.000175  -0.000003   0.000011   0.000002   0.003615
     6  C   -0.035364   0.000001   0.000000   0.000000  -0.000000   0.000036
     7  C    5.288833  -0.000000  -0.000000  -0.000000  -0.000000  -0.000293
     8  C   -0.000000   5.288738   0.002561  -0.006516  -0.001259  -0.007764
     9  H   -0.000000   0.002561   0.540162  -0.028038  -0.023426  -0.000158
    10  H   -0.000000  -0.006516  -0.028038   0.583527  -0.028339   0.007190
    11  H   -0.000000  -0.001259  -0.023426  -0.028339   0.540243  -0.000050
    12  H   -0.000293  -0.007764  -0.000158   0.007190  -0.000050   0.587716
    13  H    0.002313   0.002545   0.002210  -0.000150   0.000000  -0.030197
    14  H   -0.007540  -0.000282   0.000001   0.000010   0.000000   0.005714
    15  H    0.002535   0.002340   0.000002   0.000004  -0.000000  -0.002812
    16  H    0.002572  -0.000000  -0.000000   0.000000  -0.000000   0.000001
    17  H   -0.001247  -0.000000  -0.000000  -0.000000   0.000000   0.000000
    18  H   -0.006534  -0.000000   0.000000  -0.000000  -0.000000   0.000010
    19  H    0.367633   0.000000  -0.000001   0.000001  -0.000000   0.000092
    20  H    0.353174   0.000000   0.000000  -0.000000  -0.000000   0.000046
    21  H    0.368283   0.000000  -0.000000  -0.000000   0.000000  -0.000003
    22  H    0.000000   0.368083  -0.000011  -0.000222   0.001733   0.000019
    23  H    0.000000   0.353173  -0.000007   0.007590  -0.000241   0.008370
    24  H    0.000000   0.367920  -0.000058  -0.000007  -0.000013  -0.000079
             13         14         15         16         17         18
     1  C   -0.000310   0.000038   0.000069   0.000000  -0.000000   0.000000
     2  P   -0.036083   0.003500  -0.007319  -0.000003   0.000002   0.000010
     3  C    0.367991  -0.041248  -0.038264   0.000004  -0.000042   0.000029
     4  C   -0.038203   0.354874   0.368206  -0.001312   0.002258  -0.007115
     5  P   -0.007416  -0.041945  -0.036379  -0.027931  -0.024284  -0.038785
     6  C    0.000069  -0.004521  -0.000243   0.369164   0.366990   0.354595
     7  C    0.002313  -0.007540   0.002535   0.002572  -0.001247  -0.006534
     8  C    0.002545  -0.000282   0.002340  -0.000000  -0.000000  -0.000000
     9  H    0.002210   0.000001   0.000002  -0.000000  -0.000000   0.000000
    10  H   -0.000150   0.000010   0.000004   0.000000  -0.000000  -0.000000
    11  H    0.000000   0.000000  -0.000000  -0.000000   0.000000  -0.000000
    12  H   -0.030197   0.005714  -0.002812   0.000001   0.000000   0.000010
    13  H    0.576622  -0.002792   0.005607   0.000002  -0.000000   0.000004
    14  H   -0.002792   0.587669  -0.030209  -0.000165  -0.000045   0.007461
    15  H    0.005607  -0.030209   0.576549   0.002183  -0.000002  -0.000162
    16  H    0.000002  -0.000165   0.002183   0.540829  -0.023406  -0.028144
    17  H   -0.000000  -0.000045  -0.000002  -0.023406   0.539868  -0.028283
    18  H    0.000004   0.007461  -0.000162  -0.028144  -0.028283   0.583233
    19  H    0.003296  -0.000073   0.000012  -0.000059  -0.000012  -0.000006
    20  H    0.000239   0.007995   0.000034  -0.000003  -0.000244   0.007662
    21  H   -0.000095   0.000011  -0.000056  -0.000013   0.001698  -0.000226
    22  H   -0.000057  -0.000003  -0.000094  -0.000000   0.000000  -0.000000
    23  H    0.000043   0.000047   0.000242   0.000000  -0.000000  -0.000000
    24  H    0.000009   0.000088   0.003189  -0.000001  -0.000000   0.000001
             19         20         21         22         23         24
     1  C    0.000001   0.000000  -0.000000  -0.001451  -0.006589   0.002585
     2  P   -0.000088   0.000008   0.000004  -0.026667  -0.038451  -0.028318
     3  C    0.000915  -0.000141   0.000080   0.002330  -0.007327  -0.001619
     4  C   -0.001774  -0.007025   0.002319   0.000078  -0.000145   0.000874
     5  P   -0.028056  -0.038271  -0.026925   0.000004   0.000010  -0.000086
     6  C    0.002590  -0.006731  -0.001357  -0.000000   0.000000   0.000001
     7  C    0.367633   0.353174   0.368283   0.000000   0.000000   0.000000
     8  C    0.000000   0.000000   0.000000   0.368083   0.353173   0.367920
     9  H   -0.000001   0.000000  -0.000000  -0.000011  -0.000007  -0.000058
    10  H    0.000001  -0.000000  -0.000000  -0.000222   0.007590  -0.000007
    11  H   -0.000000  -0.000000   0.000000   0.001733  -0.000241  -0.000013
    12  H    0.000092   0.000046  -0.000003   0.000019   0.008370  -0.000079
    13  H    0.003296   0.000239  -0.000095  -0.000057   0.000043   0.000009
    14  H   -0.000073   0.007995   0.000011  -0.000003   0.000047   0.000088
    15  H    0.000012   0.000034  -0.000056  -0.000094   0.000242   0.003189
    16  H   -0.000059  -0.000003  -0.000013  -0.000000   0.000000  -0.000001
    17  H   -0.000012  -0.000244   0.001698   0.000000  -0.000000  -0.000000
    18  H   -0.000006   0.007662  -0.000226  -0.000000  -0.000000   0.000001
    19  H    0.538652  -0.027680  -0.023109  -0.000000   0.000000  -0.000000
    20  H   -0.027680   0.581488  -0.027930  -0.000000  -0.000000   0.000000
    21  H   -0.023109  -0.027930   0.539871  -0.000000  -0.000000  -0.000000
    22  H   -0.000000  -0.000000  -0.000000   0.539571  -0.027730  -0.022985
    23  H    0.000000  -0.000000  -0.000000  -0.027730   0.581559  -0.027826
    24  H   -0.000000   0.000000  -0.000000  -0.022985  -0.027826   0.538516
 Mulliken atomic charges:
              1
     1  C   -0.625015
     2  P    0.396369
     3  C   -0.443033
     4  C   -0.442388
     5  P    0.396066
     6  C   -0.625054
     7  C   -0.626113
     8  C   -0.626006
     9  H    0.166648
    10  H    0.156133
    11  H    0.166597
    12  H    0.161203
    13  H    0.154353
    14  H    0.161415
    15  H    0.154567
    16  H    0.166283
    17  H    0.166746
    18  H    0.156250
    19  H    0.167663
    20  H    0.157378
    21  H    0.167446
    22  H    0.167401
    23  H    0.157280
    24  H    0.167809
 Sum of Mulliken atomic charges =  -0.00000
 Mulliken charges with hydrogens summed into heavy atoms:
              1
     1  C   -0.135637
     2  P    0.396369
     3  C   -0.127476
     4  C   -0.126405
     5  P    0.396066
     6  C   -0.135774
     7  C   -0.133625
     8  C   -0.133517
 Sum of Mulliken charges with hydrogens summed into heavy atoms =  -0.00000
 Electronic spatial extent (au):  <R**2>=           2285.4729
 Charge=              0.0000 electrons
 Dipole moment (field-independent basis, Debye):
    X=             -0.0112    Y=              0.0250    Z=             -0.0011  Tot=              0.0274
 Quadrupole moment (field-independent basis, Debye-Ang):
   XX=            -63.8136   YY=            -64.2919   ZZ=            -73.7287
   XY=              0.2156   XZ=             -6.4490   YZ=             -0.1158
 Traceless Quadrupole moment (field-independent basis, Debye-Ang):
   XX=              3.4645   YY=              2.9861   ZZ=             -6.4506
   XY=              0.2156   XZ=             -6.4490   YZ=             -0.1158
 Octapole moment (field-independent basis, Debye-Ang**2):
  XXX=             -0.1727  YYY=             -0.0240  ZZZ=             -0.0111  XYY=              0.0132
  XXY=              0.1446  XXZ=             -0.0823  XZZ=             -0.0268  YZZ=              0.1764
  YYZ=             -0.0087  XYZ=              0.1841
 Hexadecapole moment (field-independent basis, Debye-Ang**3):
 XXXX=          -2332.2436 YYYY=           -491.3875 ZZZZ=           -224.3926 XXXY=             18.4173
 XXXZ=            -14.8940 YYYX=             -5.7382 YYYZ=              0.0583 ZZZX=            -40.2013
 ZZZY=             -0.4731 XXYY=           -486.4937 XXZZ=           -481.6672 YYZZ=           -122.6341
 XXYZ=             -0.5075 YYXZ=              6.3416 ZZXY=             -0.1248
 N-N= 5.447743141257D+02 E-N=-3.262637996727D+03  KE= 9.162141041398D+02
 No NMR shielding tensors so no spin-rotation constants.
 Leave Link  601 at Fri Oct  1 18:39:41 2021, MaxMem= 1073741824 cpu:       1.2
 (Enter /sw/target/amd/app/gaussian/Gaussian09RevA.02_gcc-4.9.2/g09/l701.exe)
 Compute integral first derivatives.
 ... and contract with generalized density number  0.
 Leave Link  701 at Fri Oct  1 18:39:44 2021, MaxMem= 1073741824 cpu:       1.2
 (Enter /sw/target/amd/app/gaussian/Gaussian09RevA.02_gcc-4.9.2/g09/l702.exe)
 L702 exits ... SP integral derivatives will be done elsewhere.
 Leave Link  702 at Fri Oct  1 18:39:45 2021, MaxMem= 1073741824 cpu:       0.1
 (Enter /sw/target/amd/app/gaussian/Gaussian09RevA.02_gcc-4.9.2/g09/l703.exe)
 Compute integral first derivatives, UseDBF=F ICtDFT=           0.
 Integral derivatives from FoFDir, PRISM(SPDF).
 Calling FoFJK, ICntrl=      2127 FMM=F ISym2X=0 I1Cent= 0 IOpClX= 0 NMat=1 NMatS=1 NMatT=0.
 FoFCou: FMM=F IPFlag=           0 FMFlag=      100000 FMFlg1=         800
         NFxFlg=           0 DoJE=F BraDBF=F KetDBF=F FulRan=T
         Omega=  0.000000  0.000000  1.000000  0.000000  0.000000 ICntrl=    2127 IOpCl=  0
         NMat0=    1 NMatS0=    1 NMatT0=    0 NMatD0=    1 NMtDS0=    0 NMtDT0=    0
         I1Cent=           0 NGrid=           0.
 Symmetry not used in FoFCou.
 Leave Link  703 at Fri Oct  1 18:41:00 2021, MaxMem= 1073741824 cpu:      41.9
 (Enter /sw/target/amd/app/gaussian/Gaussian09RevA.02_gcc-4.9.2/g09/l716.exe)
 Dipole        =-4.41119604D-03 9.83919293D-03-4.17819023D-04
 ***** Axes restored to original set *****
 -------------------------------------------------------------------
 Center     Atomic                   Forces (Hartrees/Bohr)
 Number     Number              X              Y              Z
 -------------------------------------------------------------------
      1        6           0.005123864    0.005762807    0.004950684
      2       15          -0.018103843   -0.003279215    0.000547978
      3        6           0.001393928    0.001347338   -0.000923914
      4        6          -0.001350157   -0.001005057    0.001194581
      5       15           0.018312156    0.002972452   -0.000981793
      6        6          -0.004315546   -0.006575746   -0.004205419
      7        6          -0.007410425    0.005681877   -0.000686253
      8        6           0.007677973   -0.004925176    0.000287677
      9        1          -0.001249893    0.000582783    0.000337317
     10        1           0.002773371    0.001569476    0.000572088
     11        1          -0.000966045   -0.000151775    0.000559882
     12        1           0.001697675    0.001146304   -0.001399117
     13        1          -0.000620512    0.000390645    0.000777602
     14        1          -0.001886579   -0.001217115    0.001364436
     15        1           0.000490169   -0.000635464   -0.000844659
     16        1           0.000893759   -0.000060805   -0.000455411
     17        1           0.000990381    0.000423690   -0.001222598
     18        1          -0.003152375   -0.001461820   -0.000479982
     19        1           0.000710863    0.001137561    0.000167942
     20        1          -0.003681220   -0.000350347    0.000458679
     21        1           0.000950068    0.000554799   -0.000144876
     22        1          -0.001030426   -0.000859876    0.000398309
     23        1           0.003407938    0.000164614   -0.000276705
     24        1          -0.000655123   -0.001211947    0.000003550
 -------------------------------------------------------------------
 Cartesian Forces:  Max     0.018312156 RMS     0.003917739
 Leave Link  716 at Fri Oct  1 18:41:01 2021, MaxMem= 1073741824 cpu:       0.1
 (Enter /sw/target/amd/app/gaussian/Gaussian09RevA.02_gcc-4.9.2/g09/l103.exe)

 GradGradGradGradGradGradGradGradGradGradGradGradGradGradGradGradGradGrad
 Berny optimization.
 Internal  Forces:  Max     0.011621838 RMS     0.002742042
 Search for a local minimum.
 Step number   1 out of a maximum of  120
 All quantities printed in internal units (Hartrees-Bohrs-Radians)
 RMS Force = .27420D-02 SwitMx=.10000D-02 MixMth= 1
 Mixed Optimization -- RFO/linear search
 Second derivative matrix not updated -- first step.
     Eigenvalues ---    0.00362   0.00417   0.00428   0.00676   0.00681
     Eigenvalues ---    0.00681   0.00690   0.04066   0.04080   0.05325
     Eigenvalues ---    0.05330   0.06392   0.06393   0.07103   0.07126
     Eigenvalues ---    0.07128   0.07129   0.07310   0.07315   0.07320
     Eigenvalues ---    0.07324   0.09285   0.09314   0.12587   0.12632
     Eigenvalues ---    0.12735   0.12759   0.12780   0.12790   0.16000
     Eigenvalues ---    0.16000   0.16000   0.16000   0.16000   0.16000
     Eigenvalues ---    0.16000   0.16000   0.16000   0.16000   0.16000
     Eigenvalues ---    0.16000   0.21933   0.21941   0.22127   0.22180
     Eigenvalues ---    0.23412   0.23438   0.23440   0.23485   0.29375
     Eigenvalues ---    0.34040   0.34063   0.34069   0.34106   0.34264
     Eigenvalues ---    0.34288   0.34292   0.34333   0.34336   0.34357
     Eigenvalues ---    0.34389   0.34408   0.34414   0.34419   0.34423
     Eigenvalues ---    0.344231000.000001000.000001000.000001000.00000
     Eigenvalues --- 1000.000001000.000001000.000001000.000001000.00000
     Eigenvalues --- 1000.000001000.000001000.000001000.000001000.00000
     Eigenvalues --- 1000.000001000.000001000.000001000.000001000.00000
     Eigenvalues --- 1000.000001000.000001000.000001000.000001000.00000
     Eigenvalues --- 1000.000001000.000001000.000001000.000001000.00000
     Eigenvalues --- 1000.000001000.000001000.000001000.000001000.00000
     Eigenvalues --- 1000.000001000.000001000.000001000.000001000.00000
     Eigenvalues --- 1000.000001000.000001000.000001000.000001000.00000
 RFO step:  Lambda=-3.81101506D-03 EMin= 3.62089909D-03
 Linear search not attempted -- first point.
 Iteration  1 RMS(Cart)=  0.03238002 RMS(Int)=  0.00017220
 Iteration  2 RMS(Cart)=  0.00024123 RMS(Int)=  0.00004763
 Iteration  3 RMS(Cart)=  0.00000003 RMS(Int)=  0.00004763
 Variable       Old X    -DE/DX   Delta X   Delta X   Delta X     New X
                                 (Linear)    (Quad)   (Total)
    R1        3.47053   0.01138   0.00000   0.04780   0.04780   3.51833
    R2        2.06646   0.00118   0.00000   0.00339   0.00339   2.06985
    R3        2.06767   0.00291   0.00000   0.00839   0.00839   2.07606
    R4        2.06839   0.00060   0.00000   0.00174   0.00174   2.07013
    R5        3.50828   0.00819   0.00000   0.03637   0.03637   3.54465
    R6        3.47049   0.01151   0.00000   0.04831   0.04831   3.51880
    R7        2.89228   0.00479   0.00000   0.01609   0.01609   2.90837
    R8        2.07214   0.00186   0.00000   0.00540   0.00540   2.07754
    R9        2.07263   0.00060   0.00000   0.00175   0.00175   2.07438
   R10        3.50670   0.00840   0.00000   0.03723   0.03723   3.54393
   R11        2.07152   0.00206   0.00000   0.00598   0.00598   2.07750
   R12        2.07224   0.00076   0.00000   0.00221   0.00221   2.07445
   R13        3.47127   0.01128   0.00000   0.04742   0.04742   3.51869
   R14        3.46924   0.01162   0.00000   0.04870   0.04870   3.51794
   R15        2.06847   0.00054   0.00000   0.00156   0.00156   2.07003
   R16        2.06621   0.00131   0.00000   0.00378   0.00378   2.06999
   R17        2.06679   0.00324   0.00000   0.00932   0.00932   2.07611
   R18        2.06628   0.00101   0.00000   0.00290   0.00290   2.06919
   R19        2.06621   0.00355   0.00000   0.01020   0.01020   2.07641
   R20        2.06887   0.00042   0.00000   0.00122   0.00122   2.07009
   R21        2.06772   0.00077   0.00000   0.00221   0.00221   2.06993
   R22        2.06731   0.00319   0.00000   0.00917   0.00917   2.07648
   R23        2.06638   0.00094   0.00000   0.00271   0.00271   2.06908
    A1        1.92613  -0.00083   0.00000  -0.00671  -0.00677   1.91936
    A2        1.95088   0.00261   0.00000   0.01943   0.01942   1.97030
    A3        1.92476  -0.00094   0.00000  -0.00755  -0.00761   1.91716
    A4        1.88903  -0.00029   0.00000   0.00168   0.00166   1.89069
    A5        1.88413  -0.00035   0.00000  -0.00897  -0.00907   1.87506
    A6        1.88704  -0.00027   0.00000   0.00150   0.00149   1.88853
    A7        1.74046  -0.00060   0.00000  -0.00683  -0.00684   1.73362
    A8        1.73691  -0.00032   0.00000  -0.00482  -0.00484   1.73207
    A9        1.74812  -0.00004   0.00000  -0.00255  -0.00257   1.74555
   A10        1.95511   0.00326   0.00000   0.01664   0.01660   1.97171
   A11        1.91129   0.00040   0.00000   0.01270   0.01267   1.92396
   A12        1.87700  -0.00205   0.00000  -0.01512  -0.01506   1.86194
   A13        1.93091  -0.00188   0.00000  -0.00745  -0.00763   1.92328
   A14        1.92076  -0.00017   0.00000  -0.00270  -0.00266   1.91810
   A15        1.86588   0.00031   0.00000  -0.00523  -0.00522   1.86067
   A16        1.95868   0.00288   0.00000   0.01503   0.01499   1.97367
   A17        1.92976  -0.00174   0.00000  -0.00696  -0.00712   1.92264
   A18        1.91869   0.00002   0.00000  -0.00107  -0.00104   1.91766
   A19        1.91197   0.00047   0.00000   0.01231   0.01228   1.92426
   A20        1.87465  -0.00192   0.00000  -0.01425  -0.01420   1.86044
   A21        1.86706   0.00017   0.00000  -0.00622  -0.00621   1.86085
   A22        1.73772  -0.00039   0.00000  -0.00550  -0.00553   1.73219
   A23        1.75242  -0.00053   0.00000  -0.00651  -0.00653   1.74589
   A24        1.73572  -0.00014   0.00000  -0.00370  -0.00373   1.73198
   A25        1.92479  -0.00068   0.00000  -0.00553  -0.00560   1.91919
   A26        1.92647  -0.00102   0.00000  -0.00831  -0.00836   1.91811
   A27        1.95069   0.00249   0.00000   0.01867   0.01866   1.96935
   A28        1.88442  -0.00038   0.00000  -0.00923  -0.00933   1.87508
   A29        1.88751  -0.00020   0.00000   0.00280   0.00277   1.89028
   A30        1.88809  -0.00027   0.00000   0.00102   0.00103   1.88912
   A31        1.93211  -0.00054   0.00000  -0.00496  -0.00502   1.92708
   A32        1.95261   0.00216   0.00000   0.01661   0.01660   1.96921
   A33        1.92128  -0.00110   0.00000  -0.00839  -0.00844   1.91284
   A34        1.88974  -0.00027   0.00000   0.00151   0.00149   1.89124
   A35        1.87963  -0.00040   0.00000  -0.00921  -0.00930   1.87033
   A36        1.88629   0.00008   0.00000   0.00383   0.00383   1.89013
   A37        1.92337  -0.00116   0.00000  -0.00921  -0.00926   1.91411
   A38        1.94970   0.00239   0.00000   0.01843   0.01842   1.96812
   A39        1.93060  -0.00041   0.00000  -0.00417  -0.00425   1.92636
   A40        1.88678  -0.00001   0.00000   0.00327   0.00328   1.89006
   A41        1.88234  -0.00058   0.00000  -0.01110  -0.01120   1.87113
   A42        1.88908  -0.00031   0.00000   0.00211   0.00207   1.89115
    D1        1.25187   0.00082   0.00000   0.00483   0.00479   1.25665
    D2        3.03443   0.00058   0.00000  -0.00025  -0.00028   3.03416
    D3       -0.85137   0.00001   0.00000  -0.00566  -0.00567  -0.85704
    D4        0.93120  -0.00022   0.00000  -0.01074  -0.01073   0.92046
    D5       -2.95116  -0.00073   0.00000  -0.01528  -0.01525  -2.96641
    D6       -1.16859  -0.00097   0.00000  -0.02036  -0.02031  -1.18890
    D7        3.14049  -0.00052   0.00000  -0.02105  -0.02095   3.11954
    D8        0.99146  -0.00063   0.00000  -0.03203  -0.03212   0.95933
    D9       -1.03004  -0.00009   0.00000  -0.02422  -0.02422  -1.05426
   D10        1.36717  -0.00004   0.00000  -0.01402  -0.01392   1.35325
   D11       -0.78185  -0.00016   0.00000  -0.02500  -0.02510  -0.80695
   D12       -2.80335   0.00038   0.00000  -0.01719  -0.01719  -2.82054
   D13        1.19697   0.00119   0.00000   0.01617   0.01612   1.21309
   D14       -0.90077   0.00041   0.00000   0.00613   0.00615  -0.89462
   D15       -3.00634  -0.00052   0.00000  -0.00610  -0.00607  -3.01241
   D16        2.97319   0.00049   0.00000   0.00750   0.00746   2.98065
   D17        0.87545  -0.00029   0.00000  -0.00253  -0.00251   0.87294
   D18       -1.23012  -0.00122   0.00000  -0.01476  -0.01473  -1.24485
   D19       -3.13946  -0.00004   0.00000  -0.00091  -0.00091  -3.14037
   D20        1.00324  -0.00142   0.00000  -0.02238  -0.02235   0.98090
   D21       -1.05431  -0.00058   0.00000  -0.00984  -0.00983  -1.06414
   D22       -1.00156   0.00142   0.00000   0.02181   0.02176  -0.97980
   D23        3.14115   0.00004   0.00000   0.00033   0.00032   3.14147
   D24        1.08360   0.00087   0.00000   0.01287   0.01284   1.09644
   D25        1.05653   0.00054   0.00000   0.00914   0.00913   1.06567
   D26       -1.08395  -0.00084   0.00000  -0.01234  -0.01231  -1.09625
   D27       -3.14150  -0.00000   0.00000   0.00020   0.00021  -3.14129
   D28       -3.12479   0.00044   0.00000   0.01540   0.01530  -3.10949
   D29       -1.35242   0.00009   0.00000   0.00897   0.00889  -1.34352
   D30       -0.97428   0.00054   0.00000   0.02575   0.02583  -0.94846
   D31        0.79809   0.00019   0.00000   0.01932   0.01942   0.81751
   D32        1.04767  -0.00007   0.00000   0.01702   0.01701   1.06468
   D33        2.82004  -0.00041   0.00000   0.01059   0.01060   2.83064
   D34       -1.25510  -0.00105   0.00000  -0.00525  -0.00522  -1.26032
   D35        2.94733   0.00050   0.00000   0.01494   0.01490   2.96223
   D36        0.84518  -0.00012   0.00000   0.00688   0.00690   0.85208
   D37       -3.04129  -0.00039   0.00000   0.00340   0.00342  -3.03786
   D38        1.16115   0.00116   0.00000   0.02359   0.02354   1.18469
   D39       -0.94101   0.00054   0.00000   0.01553   0.01554  -0.92547
   D40        1.21458   0.00109   0.00000   0.01950   0.01946   1.23404
   D41       -0.89484   0.00035   0.00000   0.00971   0.00970  -0.88514
   D42       -2.99247  -0.00043   0.00000  -0.00034  -0.00031  -2.99278
   D43        2.98858   0.00054   0.00000   0.01161   0.01159   3.00017
   D44        0.87916  -0.00020   0.00000   0.00183   0.00183   0.88099
   D45       -1.21846  -0.00098   0.00000  -0.00823  -0.00818  -1.22665
         Item               Value     Threshold  Converged?
 Maximum Force            0.011622     0.000450     NO 
 RMS     Force            0.002742     0.000300     NO 
 Maximum Displacement     0.086888     0.001800     NO 
 RMS     Displacement     0.032284     0.001200     NO 
 Predicted change in Energy=-1.954390D-03
 GradGradGradGradGradGradGradGradGradGradGradGradGradGradGradGradGradGrad

 Leave Link  103 at Fri Oct  1 18:41:11 2021, MaxMem= 1073741824 cpu:       4.4
 (Enter /sw/target/amd/app/gaussian/Gaussian09RevA.02_gcc-4.9.2/g09/l202.exe)
                          Input orientation:                          
 ---------------------------------------------------------------------
 Center     Atomic      Atomic             Coordinates (Angstroms)
 Number     Number       Type             X           Y           Z
 ---------------------------------------------------------------------
      1          6           0        3.590469    0.975567    1.242485
      2         15           0        2.927941   -0.284601    0.042735
      3          6           0        3.423720    0.538980   -1.567964
      4          6           0        3.037448   -0.286275   -2.808289
      5         15           0        3.533570    0.533326   -4.420467
      6          6           0        2.852336   -0.721204   -5.615945
      7          6           0        2.199892    1.825540   -4.551177
      8          6           0        4.273693   -1.564250    0.179674
      9          1           0        2.969994    1.877861    1.217937
     10          1           0        4.628713    1.264337    1.028956
     11          1           0        3.548989    0.576378    2.261787
     12          1           0        4.503147    0.747488   -1.571908
     13          1           0        2.916123    1.511948   -1.593650
     14          1           0        1.958000   -0.494532   -2.803679
     15          1           0        3.545028   -1.259275   -2.782027
     16          1           0        3.466483   -1.628057   -5.596724
     17          1           0        2.887868   -0.322317   -6.635508
     18          1           0        1.814101   -1.002804   -5.392882
     19          1           0        2.348960    2.605828   -3.797599
     20          1           0        1.190379    1.410550   -4.424675
     21          1           0        2.252234    2.309638   -5.532458
     22          1           0        4.230630   -2.040613    1.165085
     23          1           0        5.278579   -1.140575    0.045036
     24          1           0        4.128509   -2.351507   -0.567305
 ---------------------------------------------------------------------
                    Distance matrix (angstroms):
                    1          2          3          4          5
     1  C    0.000000
     2  P    1.861818   0.000000
     3  C    2.849041   1.875749   0.000000
     4  C    4.278650   2.853127   1.539045   0.000000
     5  P    5.680479   4.577769   2.854623   1.875367   0.000000
     6  C    7.103656   5.676002   4.277931   2.847167   1.862013
     7  C    6.018527   5.107522   3.471678   2.863376   1.861612
     8  C    2.836729   1.862069   2.863612   3.476988   5.109688
     9  H    1.095320   2.461526   3.124054   4.571491   5.823830
    10  H    1.098606   2.502892   2.953328   4.434070   5.606240
    11  H    1.095468   2.459914   3.831982   5.168319   6.682410
    12  H    2.967458   2.480636   1.099388   2.178435   3.016659
    13  H    2.964137   2.430120   1.097716   2.173402   3.054478
    14  H    4.604083   3.014453   2.177951   1.099363   2.480508
    15  H    4.603616   3.051240   2.173105   1.097751   2.428588
    16  H    7.319085   5.822233   4.574799   3.124071   2.461637
    17  H    8.015044   6.678470   5.168072   3.830310   2.460785
    18  H    7.148253   5.594854   4.426959   2.947899   2.502371
    19  H    5.440729   4.841277   3.224630   3.133211   2.467090
    20  H    6.169793   5.084330   3.729375   2.983887   2.502016
    21  H    7.033524   6.186229   4.497201   3.844011   2.456345
    22  H    3.084338   2.457691   3.843822   4.504341   6.189463
    23  H    2.960009   2.501638   2.977109   3.727460   5.078161
    24  H    3.825474   2.466904   3.138943   3.236913   4.850059
                    6          7          8          9         10
     6  C    0.000000
     7  C    2.836428   0.000000
     8  C    6.026623   6.178372   0.000000
     9  H    7.312382   5.820521   3.824363   0.000000
    10  H    7.159092   6.111628   2.974597   1.778616   0.000000
    11  H    8.014219   7.056695   3.072894   1.765989   1.777347
    12  H    4.608305   3.917043   2.909437   3.378096   2.654692
    13  H    4.601075   3.059132   3.801404   2.835809   3.142028
    14  H    2.959740   2.914618   3.925191   4.777632   4.991534
    15  H    2.966553   3.802022   3.065230   5.115857   4.697508
    16  H    1.095412   3.824233   5.832875   7.679685   7.322319
    17  H    1.095391   3.071000   7.064674   8.156232   8.018231
    18  H    1.098630   2.976043   6.117042   7.303235   7.368987
    19  H    3.824776   1.094966   6.075595   5.105998   5.503862
    20  H    2.953913   1.098789   6.289380   5.935021   6.448690
    21  H    3.090809   1.095446   7.191784   6.802164   7.056377
    22  H    7.044353   7.193517   1.095359   4.116605   3.331621
    23  H    6.173268   6.277048   1.098828   3.976961   2.678437
    24  H    5.456672   6.085928   1.094911   4.734639   3.984042
                   11         12         13         14         15
    11  H    0.000000
    12  H    3.954353   0.000000
    13  H    4.017487   1.761680   0.000000
    14  H    5.416367   3.088308   2.531428   0.000000
    15  H    5.367466   2.531695   3.080169   1.761806   0.000000
    16  H    8.162263   4.787174   5.117336   3.370683   2.839840
    17  H    8.966972   5.421592   5.365227   3.946800   4.019835
    18  H    8.006098   4.989422   4.687493   2.642541   3.143000
    19  H    6.501915   3.612153   2.525003   3.279170   4.171450
    20  H    7.139164   4.421805   3.317103   2.616526   3.920540
    21  H    8.089253   4.815898   4.073238   3.923796   4.687572
    22  H    2.918224   3.916492   4.686069   4.827660   4.081694
    23  H    3.294448   2.603956   3.911824   4.422532   3.318369
    24  H    4.112435   3.279231   4.177266   3.627787   2.537403
                   16         17         18         19         20
    16  H    0.000000
    17  H    1.766020   0.000000
    18  H    1.778443   1.777683   0.000000
    19  H    4.734078   4.113172   3.981611   0.000000
    20  H    3.973346   3.282084   2.674085   1.778826   0.000000
    21  H    4.121162   2.923686   3.344206   1.762617   1.778504
    22  H    6.817344   8.099679   7.065663   7.053959   7.238720
    23  H    5.945653   7.142459   6.449228   6.114249   6.572666
    24  H    5.124130   6.517660   5.519210   6.178735   6.137181
                   21         22         23         24
    21  H    0.000000
    22  H    8.227747   0.000000
    23  H    7.222962   1.778419   0.000000
    24  H    7.063953   1.763026   1.778758   0.000000
 Stoichiometry    C6H16P2
 Framework group  C1[X(C6H16P2)]
 Deg. of freedom    66
 Full point group                 C1      NOp   1
 Largest Abelian subgroup         C1      NOp   1
 Largest concise Abelian subgroup C1      NOp   1
                         Standard orientation:                         
 ---------------------------------------------------------------------
 Center     Atomic      Atomic             Coordinates (Angstroms)
 Number     Number       Type             X           Y           Z
 ---------------------------------------------------------------------
      1          6           0       -3.340555    1.173743    0.279027
      2         15           0       -2.205351   -0.004918   -0.608912
      3          6           0       -0.592483    0.422629    0.247999
      4          6           0        0.593498   -0.424189   -0.246984
      5         15           0        2.207365   -0.000726    0.609235
      6          6           0        3.341292   -1.168268   -0.295280
      7          6           0        2.638651    1.579678   -0.275026
      8          6           0       -2.642986   -1.575859    0.289931
      9          1           0       -3.144238    2.200390   -0.048358
     10          1           0       -3.230043    1.132329    1.371275
     11          1           0       -4.382661    0.943949    0.031519
     12          1           0       -0.702294    0.321947    1.337246
     13          1           0       -0.401829    1.485140    0.048751
     14          1           0        0.702679   -0.323172   -1.336238
     15          1           0        0.402274   -1.486649   -0.047814
     16          1           0        3.150548   -2.198226    0.025236
     17          1           0        4.384370   -0.937152   -0.053502
     18          1           0        3.222121   -1.118740   -1.386304
     19          1           0        1.957961    2.383174    0.024981
     20          1           0        2.597211    1.481242   -1.368612
     21          1           0        3.650749    1.892412    0.004004
     22          1           0       -3.659515   -1.883240    0.021609
     23          1           0       -2.592031   -1.468987    1.382362
     24          1           0       -1.970020   -2.386163   -0.008994
 ---------------------------------------------------------------------
 Rotational constants (GHZ):      2.8417931      0.5528487      0.4985139
 Leave Link  202 at Fri Oct  1 18:41:11 2021, MaxMem= 1073741824 cpu:       0.1
 (Enter /sw/target/amd/app/gaussian/Gaussian09RevA.02_gcc-4.9.2/g09/l301.exe)
 Standard basis: 6-31G(d) (6D, 7F)
 Ernie: Thresh=  0.10000D-02 Tol=  0.10000D-05 Strict=F.
 There are   160 symmetry adapted basis functions of A   symmetry.
 Integral buffers will be    131072 words long.
 Raffenetti 2 integral format.
 Two-electron integral symmetry is turned on.
   160 basis functions,   336 primitive gaussians,   160 cartesian basis functions
    41 alpha electrons       41 beta electrons
       nuclear repulsion energy       539.1179770338 Hartrees.
 IExCor=  402 DFT=T Ex+Corr=B3LYP ExCW=0 ScaHFX=  0.200000
 ScaDFX=  0.800000  0.720000  1.000000  0.810000 ScalE2=  1.000000  1.000000
 IRadAn=      0 IRanWt=     -1 IRanGd=            0 ICorTp=0
 NAtoms=   24 NActive=   24 NUniq=   24 SFac= 7.50D-01 NAtFMM=   80 NAOKFM=F Big=F
 Leave Link  301 at Fri Oct  1 18:41:12 2021, MaxMem= 1073741824 cpu:       0.1
 (Enter /sw/target/amd/app/gaussian/Gaussian09RevA.02_gcc-4.9.2/g09/l302.exe)
 NPDir=0 NMtPBC=     1 NCelOv=     1 NCel=       1 NClECP=     1 NCelD=      1
         NCelK=      1 NCelE2=     1 NClLst=     1 CellRange=     0.0.
 One-electron integrals computed using PRISM.
 NBasis=   160 RedAO= T  NBF=   160
 NBsUse=   160 1.00D-06 NBFU=   160
 Precomputing XC quadrature grid using
 IXCGrd= 2 IRadAn=           0 IRanWt=          -1 IRanGd=           0 AccXCQ= 1.00D-10.
 NRdTot=    1516 NPtTot=      192232 NUsed=      203169 NTot=      203201
 NSgBfM=   160   160   160   160   160 NAtAll=    24    24.
 Leave Link  302 at Fri Oct  1 18:41:16 2021, MaxMem= 1073741824 cpu:       1.8
 (Enter /sw/target/amd/app/gaussian/Gaussian09RevA.02_gcc-4.9.2/g09/l303.exe)
 DipDrv:  MaxL=1.
 Leave Link  303 at Fri Oct  1 18:41:16 2021, MaxMem= 1073741824 cpu:       0.2
 (Enter /sw/target/amd/app/gaussian/Gaussian09RevA.02_gcc-4.9.2/g09/l401.exe)
 Initial guess read from the read-write file.
 B after Tr=     0.000000    0.000000    0.000000
         Rot=    1.000000    0.000000    0.000000    0.000000 Ang=   0.00 deg.
 Guess basis will be translated and rotated to current coordinates.
 Initial guess orbital symmetries:
       Occupied  (A) (A) (A) (A) (A) (A) (A) (A) (A) (A) (A) (A)
                 (A) (A) (A) (A) (A) (A) (A) (A) (A) (A) (A) (A)
                 (A) (A) (A) (A) (A) (A) (A) (A) (A) (A) (A) (A)
                 (A) (A) (A) (A) (A)
       Virtual   (A) (A) (A) (A) (A) (A) (A) (A) (A) (A) (A) (A)
                 (A) (A) (A) (A) (A) (A) (A) (A) (A) (A) (A) (A)
                 (A) (A) (A) (A) (A) (A) (A) (A) (A) (A) (A) (A)
                 (A) (A) (A) (A) (A) (A) (A) (A) (A) (A) (A) (A)
                 (A) (A) (A) (A) (A) (A) (A) (A) (A) (A) (A) (A)
                 (A) (A) (A) (A) (A) (A) (A) (A) (A) (A) (A) (A)
[...]
    17  H   -0.000002  -0.000113  -0.000096  -0.023741   0.539717  -0.024944
    18  H   -0.000061  -0.000065  -0.001891  -0.022638  -0.024944   0.585121
    19  H    0.005463   0.000720   0.000126  -0.000056  -0.000044  -0.000153
    20  H    0.000171   0.004809   0.000045   0.000023  -0.000160   0.004074
    21  H    0.000218   0.000417   0.000009  -0.000067   0.000851  -0.001519
    22  H    0.000010   0.000040   0.000219  -0.000000  -0.000000  -0.000000
    23  H    0.000046   0.000070   0.000173   0.000000  -0.000000   0.000000
    24  H    0.000126   0.000511   0.005469  -0.000002  -0.000000  -0.000002
             19         20         21         22         23         24
     1  C    0.000014  -0.000000   0.000000   0.010778  -0.003813   0.003686
     2  P    0.000792   0.000020   0.000107  -0.051002  -0.032333  -0.013489
     3  C   -0.000325  -0.000099   0.000075  -0.000942  -0.004315  -0.006453
     4  C   -0.006450  -0.004309  -0.000939   0.000075  -0.000100  -0.000328
     5  P   -0.013529  -0.032339  -0.051018   0.000107   0.000021   0.000795
     6  C    0.003684  -0.003825   0.010757   0.000000  -0.000000   0.000014
     7  C    0.350272   0.362282   0.337812  -0.000000  -0.000000  -0.000000
     8  C   -0.000000  -0.000000  -0.000000   0.337668   0.362282   0.350211
     9  H   -0.000002   0.000000  -0.000000  -0.000067   0.000023  -0.000056
    10  H   -0.000002   0.000000  -0.000000  -0.001521   0.004069  -0.000153
    11  H   -0.000000  -0.000000  -0.000000   0.000849  -0.000160  -0.000045
    12  H    0.000509   0.000069   0.000040   0.000418   0.004809   0.000721
    13  H    0.005463   0.000171   0.000218   0.000010   0.000046   0.000126
    14  H    0.000720   0.004809   0.000417   0.000040   0.000070   0.000511
    15  H    0.000126   0.000045   0.000009   0.000219   0.000173   0.005469
    16  H   -0.000056   0.000023  -0.000067  -0.000000   0.000000  -0.000002
    17  H   -0.000044  -0.000160   0.000851  -0.000000  -0.000000  -0.000000
    18  H   -0.000153   0.004074  -0.001519  -0.000000   0.000000  -0.000002
    19  H    0.526757  -0.026068  -0.017692   0.000000   0.000000   0.000000
    20  H   -0.026068   0.547675  -0.027440  -0.000000   0.000000   0.000000
    21  H   -0.017692  -0.027440   0.580917   0.000000  -0.000000   0.000000
    22  H    0.000000  -0.000000   0.000000   0.581010  -0.027425  -0.017672
    23  H    0.000000   0.000000  -0.000000  -0.027425   0.547612  -0.026061
    24  H    0.000000   0.000000   0.000000  -0.017672  -0.026061   0.526720
 Mulliken atomic charges:
              1
     1  C   -0.602653
     2  P    0.299331
     3  C   -0.383469
     4  C   -0.383464
     5  P    0.299161
     6  C   -0.602644
     7  C   -0.600334
     8  C   -0.600322
     9  H    0.165863
    10  H    0.159901
    11  H    0.167283
    12  H    0.142654
    13  H    0.133008
    14  H    0.142619
    15  H    0.132977
    16  H    0.165847
    17  H    0.167285
    18  H    0.159864
    19  H    0.175983
    20  H    0.175071
    21  H    0.167472
    22  H    0.167455
    23  H    0.175105
    24  H    0.176008
 Sum of Mulliken atomic charges =  -0.00000
 Mulliken charges with hydrogens summed into heavy atoms:
              1
     1  C   -0.109606
     2  P    0.299331
     3  C   -0.107807
     4  C   -0.107868
     5  P    0.299161
     6  C   -0.109648
     7  C   -0.081809
     8  C   -0.081754
 Sum of Mulliken charges with hydrogens summed into heavy atoms =  -0.00000
 Electronic spatial extent (au):  <R**2>=           2330.2266
 Charge=             -0.0000 electrons
 Dipole moment (field-independent basis, Debye):
    X=             -0.0032    Y=              0.0007    Z=              0.0009  Tot=              0.0034
 Quadrupole moment (field-independent basis, Debye-Ang):
   XX=            -64.9788   YY=            -65.5535   ZZ=            -72.3239
   XY=             -0.8838   XZ=              5.9815   YZ=             -1.3929
 Traceless Quadrupole moment (field-independent basis, Debye-Ang):
   XX=              2.6399   YY=              2.0653   ZZ=             -4.7052
   XY=             -0.8838   XZ=              5.9815   YZ=             -1.3929
 Octapole moment (field-independent basis, Debye-Ang**2):
  XXX=             -0.0171  YYY=             -0.0014  ZZZ=              0.0045  XYY=             -0.0040
  XXY=              0.0038  XXZ=              0.0085  XZZ=             -0.0074  YZZ=              0.0051
  YYZ=             -0.0009  XYZ=             -0.0042
 Hexadecapole moment (field-independent basis, Debye-Ang**3):
 XXXX=          -2469.1757 YYYY=           -508.6924 ZZZZ=           -223.7918 XXXY=            -25.1623
 XXXZ=             33.8260 YYYX=             -0.5058 YYYZ=             -3.6510 ZZZX=             35.2640
 ZZZY=             -3.7275 XXYY=           -500.2025 XXZZ=           -484.0387 YYZZ=           -125.4775
 XXYZ=             -3.7541 YYXZ=             -3.8241 ZZXY=             -3.0867
 N-N= 5.387499622734D+02 E-N=-3.249608258701D+03  KE= 9.159702478122D+02
 No NMR shielding tensors so no spin-rotation constants.
 Leave Link  601 at Fri Oct  1 23:18:52 2021, MaxMem= 1073741824 cpu:       1.1
 (Enter /sw/target/amd/app/gaussian/Gaussian09RevA.02_gcc-4.9.2/g09/l604.exe)
 Evaluate density.
 Using the total density.
 Monte-Carlo method of calculating molar volume:
 based on  0.001 e/bohr**3 density envelope.
 Number of points per bohr**3 =   20 CutOff= 1.00D-04
 Using the CI density.
 There are       442 points.  Will hold       442 in memory.
 LenV=  1073643576 MDV=  1073741824.
 Box volume =10796.895 fraction occupied=0.140
 Integrated density= 1.3833194537281966D+02 error= 5.6331945372819661D+01
 Molar volume = 1514.497 bohr**3/mol (135.152 cm**3/mol)
 Recommended a0 for SCRF calculation =  4.65 angstrom (  8.79 bohr)
 Leave Link  604 at Fri Oct  1 23:18:54 2021, MaxMem= 1073741824 cpu:       0.3
 (Enter /sw/target/amd/app/gaussian/Gaussian09RevA.02_gcc-4.9.2/g09/l607.exe)
 ******************************Gaussian NBO Version 3.1******************************
             N A T U R A L   A T O M I C   O R B I T A L   A N D
          N A T U R A L   B O N D   O R B I T A L   A N A L Y S I S
 ******************************Gaussian NBO Version 3.1******************************
       /RESON  / : Allow strongly delocalized NBO set

 Analyzing the CI density

 Job title: CP(CCP(C)C)C_conf_0                                             

 Storage needed:     78712 in NPA (1073738704 available)


 NATURAL POPULATIONS:  Natural atomic orbital occupancies 
                                                          
   NAO  Atom  No  lang   Type(AO)    Occupancy
 --------------------------------------------
     1    C    1  S      Cor( 1S)     1.99948
     2    C    1  S      Val( 2S)     1.23124
     3    C    1  S      Ryd( 3S)     0.00457
     4    C    1  S      Ryd( 4S)     0.00001
     5    C    1  px     Val( 2p)     1.27199
     6    C    1  px     Ryd( 3p)     0.00254
     7    C    1  py     Val( 2p)     1.27388
     8    C    1  py     Ryd( 3p)     0.00363
     9    C    1  pz     Val( 2p)     1.24946
    10    C    1  pz     Ryd( 3p)     0.00063
    11    C    1  dxy    Ryd( 3d)     0.00051
    12    C    1  dxz    Ryd( 3d)     0.00047
    13    C    1  dyz    Ryd( 3d)     0.00049
    14    C    1  dx2y2  Ryd( 3d)     0.00090
    15    C    1  dz2    Ryd( 3d)     0.00107

    16    P    2  S      Cor( 1S)     2.00000
    17    P    2  S      Cor( 2S)     1.99873
    18    P    2  S      Val( 3S)     1.36578
    19    P    2  S      Ryd( 4S)     0.00265
    20    P    2  S      Ryd( 5S)     0.00000
    21    P    2  px     Cor( 2p)     1.99987
    22    P    2  px     Val( 3p)     0.88310
    23    P    2  px     Ryd( 4p)     0.04309
    24    P    2  py     Cor( 2p)     1.99988
    25    P    2  py     Val( 3p)     0.68470
    26    P    2  py     Ryd( 4p)     0.01317
    27    P    2  pz     Cor( 2p)     1.99956
    28    P    2  pz     Val( 3p)     1.07306
    29    P    2  pz     Ryd( 4p)     0.00251
    30    P    2  dxy    Ryd( 3d)     0.00841
    31    P    2  dxz    Ryd( 3d)     0.00731
    32    P    2  dyz    Ryd( 3d)     0.00614
    33    P    2  dx2y2  Ryd( 3d)     0.00580
    34    P    2  dz2    Ryd( 3d)     0.00227

    35    C    3  S      Cor( 1S)     1.99933
    36    C    3  S      Val( 2S)     1.16921
    37    C    3  S      Ryd( 3S)     0.00436
    38    C    3  S      Ryd( 4S)     0.00005
    39    C    3  px     Val( 2p)     1.17717
    40    C    3  px     Ryd( 3p)     0.01122
    41    C    3  py     Val( 2p)     1.21042
    42    C    3  py     Ryd( 3p)     0.00248
    43    C    3  pz     Val( 2p)     1.23555
    44    C    3  pz     Ryd( 3p)     0.00302
    45    C    3  dxy    Ryd( 3d)     0.00054
    46    C    3  dxz    Ryd( 3d)     0.00075
    47    C    3  dyz    Ryd( 3d)     0.00030
    48    C    3  dx2y2  Ryd( 3d)     0.00109
    49    C    3  dz2    Ryd( 3d)     0.00118

    50    C    4  S      Cor( 1S)     1.99933
    51    C    4  S      Val( 2S)     1.16924
    52    C    4  S      Ryd( 3S)     0.00436
    53    C    4  S      Ryd( 4S)     0.00005
    54    C    4  px     Val( 2p)     1.17721
    55    C    4  px     Ryd( 3p)     0.01122
    56    C    4  py     Val( 2p)     1.21038
    57    C    4  py     Ryd( 3p)     0.00249
    58    C    4  pz     Val( 2p)     1.23558
    59    C    4  pz     Ryd( 3p)     0.00302
    60    C    4  dxy    Ryd( 3d)     0.00054
    61    C    4  dxz    Ryd( 3d)     0.00075
    62    C    4  dyz    Ryd( 3d)     0.00030
    63    C    4  dx2y2  Ryd( 3d)     0.00109
    64    C    4  dz2    Ryd( 3d)     0.00118

    65    P    5  S      Cor( 1S)     2.00000
    66    P    5  S      Cor( 2S)     1.99873
    67    P    5  S      Val( 3S)     1.36584
    68    P    5  S      Ryd( 4S)     0.00265
    69    P    5  S      Ryd( 5S)     0.00000
    70    P    5  px     Cor( 2p)     1.99987
    71    P    5  px     Val( 3p)     0.88314
    72    P    5  px     Ryd( 4p)     0.04310
    73    P    5  py     Cor( 2p)     1.99988
    74    P    5  py     Val( 3p)     0.68460
    75    P    5  py     Ryd( 4p)     0.01315
    76    P    5  pz     Cor( 2p)     1.99956
    77    P    5  pz     Val( 3p)     1.07337
    78    P    5  pz     Ryd( 4p)     0.00251
    79    P    5  dxy    Ryd( 3d)     0.00841
    80    P    5  dxz    Ryd( 3d)     0.00731
    81    P    5  dyz    Ryd( 3d)     0.00614
    82    P    5  dx2y2  Ryd( 3d)     0.00579
    83    P    5  dz2    Ryd( 3d)     0.00227

    84    C    6  S      Cor( 1S)     1.99948
    85    C    6  S      Val( 2S)     1.23121
    86    C    6  S      Ryd( 3S)     0.00457
    87    C    6  S      Ryd( 4S)     0.00001
    88    C    6  px     Val( 2p)     1.27198
    89    C    6  px     Ryd( 3p)     0.00254
    90    C    6  py     Val( 2p)     1.27386
    91    C    6  py     Ryd( 3p)     0.00363
    92    C    6  pz     Val( 2p)     1.24947
    93    C    6  pz     Ryd( 3p)     0.00063
    94    C    6  dxy    Ryd( 3d)     0.00051
    95    C    6  dxz    Ryd( 3d)     0.00047
    96    C    6  dyz    Ryd( 3d)     0.00049
    97    C    6  dx2y2  Ryd( 3d)     0.00090
    98    C    6  dz2    Ryd( 3d)     0.00107

    99    C    7  S      Cor( 1S)     1.99947
   100    C    7  S      Val( 2S)     1.21092
   101    C    7  S      Ryd( 3S)     0.00214
   102    C    7  S      Ryd( 4S)     0.00001
   103    C    7  px     Val( 2p)     1.27366
   104    C    7  px     Ryd( 3p)     0.00107
   105    C    7  py     Val( 2p)     1.25830
   106    C    7  py     Ryd( 3p)     0.00252
   107    C    7  pz     Val( 2p)     1.24551
   108    C    7  pz     Ryd( 3p)     0.00055
   109    C    7  dxy    Ryd( 3d)     0.00083
   110    C    7  dxz    Ryd( 3d)     0.00033
   111    C    7  dyz    Ryd( 3d)     0.00069
   112    C    7  dx2y2  Ryd( 3d)     0.00073
   113    C    7  dz2    Ryd( 3d)     0.00103

   114    C    8  S      Cor( 1S)     1.99947
   115    C    8  S      Val( 2S)     1.21095
   116    C    8  S      Ryd( 3S)     0.00214
   117    C    8  S      Ryd( 4S)     0.00001
   118    C    8  px     Val( 2p)     1.27367
   119    C    8  px     Ryd( 3p)     0.00107
   120    C    8  py     Val( 2p)     1.25826
   121    C    8  py     Ryd( 3p)     0.00252
   122    C    8  pz     Val( 2p)     1.24554
   123    C    8  pz     Ryd( 3p)     0.00055
   124    C    8  dxy    Ryd( 3d)     0.00083
   125    C    8  dxz    Ryd( 3d)     0.00033
   126    C    8  dyz    Ryd( 3d)     0.00069
   127    C    8  dx2y2  Ryd( 3d)     0.00073
   128    C    8  dz2    Ryd( 3d)     0.00103

   129    H    9  S      Val( 1S)     0.75092
   130    H    9  S      Ryd( 2S)     0.00101

   131    H   10  S      Val( 1S)     0.75840
   132    H   10  S      Ryd( 2S)     0.00358

   133    H   11  S      Val( 1S)     0.74793
   134    H   11  S      Ryd( 2S)     0.00132

   135    H   12  S      Val( 1S)     0.75823
   136    H   12  S      Ryd( 2S)     0.00790

   137    H   13  S      Val( 1S)     0.76185
   138    H   13  S      Ryd( 2S)     0.00611

   139    H   14  S      Val( 1S)     0.75825
   140    H   14  S      Ryd( 2S)     0.00790

   141    H   15  S      Val( 1S)     0.76187
   142    H   15  S      Ryd( 2S)     0.00611

   143    H   16  S      Val( 1S)     0.75093
   144    H   16  S      Ryd( 2S)     0.00101

   145    H   17  S      Val( 1S)     0.74793
   146    H   17  S      Ryd( 2S)     0.00132

   147    H   18  S      Val( 1S)     0.75843
   148    H   18  S      Ryd( 2S)     0.00359

   149    H   19  S      Val( 1S)     0.74194
   150    H   19  S      Ryd( 2S)     0.00294

   151    H   20  S      Val( 1S)     0.74871
   152    H   20  S      Ryd( 2S)     0.00235

   153    H   21  S      Val( 1S)     0.75319
   154    H   21  S      Ryd( 2S)     0.00211

   155    H   22  S      Val( 1S)     0.75320
   156    H   22  S      Ryd( 2S)     0.00211

   157    H   23  S      Val( 1S)     0.74868
   158    H   23  S      Ryd( 2S)     0.00235

   159    H   24  S      Val( 1S)     0.74191
   160    H   24  S      Ryd( 2S)     0.00294

 WARNING:  1 low occupancy (<1.9990e) core orbital  found on  P    2
           1 low occupancy (<1.9990e) core orbital  found on  P    5


 Summary of Natural Population Analysis:                  
                                                          
                                       Natural Population 
                Natural  -----------------------------------------------
    Atom  No    Charge         Core      Valence    Rydberg      Total
 -----------------------------------------------------------------------
      C    1   -1.04086      1.99948     5.02657    0.01481     7.04086
      P    2    0.90398      9.99804     4.00664    0.09134    14.09602
      C    3   -0.81667      1.99933     4.79235    0.02499     6.81667
      C    4   -0.81673      1.99933     4.79240    0.02500     6.81673
      P    5    0.90367      9.99804     4.00695    0.09134    14.09633
      C    6   -1.04080      1.99948     5.02652    0.01480     7.04080
      C    7   -0.99778      1.99947     4.98839    0.00991     6.99778
      C    8   -0.99781      1.99947     4.98842    0.00991     6.99781
      H    9    0.24807      0.00000     0.75092    0.00101     0.75193
      H   10    0.23802      0.00000     0.75840    0.00358     0.76198
      H   11    0.25075      0.00000     0.74793    0.00132     0.74925
      H   12    0.23387      0.00000     0.75823    0.00790     0.76613
      H   13    0.23205      0.00000     0.76185    0.00611     0.76795
      H   14    0.23384      0.00000     0.75825    0.00790     0.76616
      H   15    0.23202      0.00000     0.76187    0.00611     0.76798
      H   16    0.24806      0.00000     0.75093    0.00101     0.75194
      H   17    0.25075      0.00000     0.74793    0.00132     0.74925
      H   18    0.23798      0.00000     0.75843    0.00359     0.76202
      H   19    0.25513      0.00000     0.74194    0.00294     0.74487
      H   20    0.24894      0.00000     0.74871    0.00235     0.75106
      H   21    0.24470      0.00000     0.75319    0.00211     0.75530
      H   22    0.24469      0.00000     0.75320    0.00211     0.75531
      H   23    0.24897      0.00000     0.74868    0.00235     0.75103
      H   24    0.25515      0.00000     0.74191    0.00294     0.74485
 =======================================================================
   * Total *   -0.00000     31.99266    49.67059    0.33675    82.00000

                                 Natural Population      
 --------------------------------------------------------
   Core                      31.99266 ( 99.9771% of  32)
   Valence                   49.67059 ( 99.3412% of  50)
   Natural Minimal Basis     81.66325 ( 99.5893% of  82)
   Natural Rydberg Basis      0.33675 (  0.4107% of  82)
 --------------------------------------------------------

    Atom  No          Natural Electron Configuration
 ----------------------------------------------------------------------------
      C    1      [core]2S( 1.23)2p( 3.80)3p( 0.01)
      P    2      [core]3S( 1.37)3p( 2.64)3d( 0.03)4p( 0.06)
      C    3      [core]2S( 1.17)2p( 3.62)3p( 0.02)
      C    4      [core]2S( 1.17)2p( 3.62)3p( 0.02)
      P    5      [core]3S( 1.37)3p( 2.64)3d( 0.03)4p( 0.06)
      C    6      [core]2S( 1.23)2p( 3.80)3p( 0.01)
      C    7      [core]2S( 1.21)2p( 3.78)
      C    8      [core]2S( 1.21)2p( 3.78)
      H    9            1S( 0.75)
      H   10            1S( 0.76)
      H   11            1S( 0.75)
      H   12            1S( 0.76)2S( 0.01)
      H   13            1S( 0.76)2S( 0.01)
      H   14            1S( 0.76)2S( 0.01)
      H   15            1S( 0.76)2S( 0.01)
      H   16            1S( 0.75)
      H   17            1S( 0.75)
      H   18            1S( 0.76)
      H   19            1S( 0.74)
      H   20            1S( 0.75)
      H   21            1S( 0.75)
      H   22            1S( 0.75)
      H   23            1S( 0.75)
      H   24            1S( 0.74)


 NBO analysis skipped by request.
 Leave Link  607 at Fri Oct  1 23:19:31 2021, MaxMem= 1073741824 cpu:      15.5
 (Enter /sw/target/amd/app/gaussian/Gaussian09RevA.02_gcc-4.9.2/g09/l9999.exe)
 1\1\GINC-HERMITE\SP\RTD-B3LYP-FC\6-31G(d)\C6H16P2\JSCHLEINITZ\01-Oct-2
 021\0\\#p TD(NStates=10, Root=1) b3lyp/6-31G* volume pop=NPA density=c
 urrent Geom=AllCheck Guess=Read\\CP(CCP(C)C)C_conf_0\\0,1\C,0,3.604807
 9306,0.9787270221,1.2387659419\P,0,2.9151732156,-0.2834616406,0.046641
 7308\C,0,3.405812785,0.546679113,-1.566816202\C,0,3.0527978961,-0.2893
 661469,-2.8061051638\P,0,3.5435171359,0.5407960233,-4.4195338498\C,0,2
 .8551553495,-0.7220081472,-5.6117291935\C,0,2.1950032076,1.8282346744,
 -4.5440584296\C,0,4.2629804048,-1.5717023867,0.1704140311\H,0,2.998704
 5904,1.8903860839,1.2004635433\H,0,4.6478419651,1.241262811,1.02206050
 71\H,0,3.5479654686,0.586326192,2.259918724\H,0,4.4787612,0.784178165,
 -1.5579853656\H,0,2.8684455844,1.5038112463,-1.5950203405\H,0,1.979865
 0799,-0.526938504,-2.8149823478\H,0,3.5902342155,-1.2464543241,-2.7778
 588166\H,0,3.4619640662,-1.6331894751,-5.5731791489\H,0,2.9119882376,-
 0.3296482825,-6.6328977496\H,0,1.8122679738,-0.9853512825,-5.395308972
 1\H,0,2.3603902755,2.6175836284,-3.8034428398\H,0,1.1934807616,1.40642
 72353,-4.3916309274\H,0,2.2311362779,2.2956161697,-5.5341228676\H,0,4.
 2271486793,-2.0390102753,1.1605248462\H,0,5.2646591769,-1.1504798876,0
 .0173900556\H,0,4.0967027968,-2.3609862162,-0.5700714789\\Version=AM64
 L-G09RevA.02\State=1-A\HF=-920.9902231\RMSD=5.279e-09\Dipole=-0.000096
 5,-0.0004881,0.0012239\Quadrupole=-1.3999604,0.4199789,0.9799815,-2.62
 7466,4.6225977,0.8272127\PG=C01 [X(C6H16P2)]\\@


 Fatherhood is pretending the present you love most is soap-on-a-rope.
 -- Bill Cosby
 Job cpu time:  0 days  1 hours 37 minutes 16.8 seconds.
 File lengths (MBytes):  RWF=     87 Int=      0 D2E=      0 Chk=     12 Scr=      1
 Normal termination of Gaussian 09 at Fri Oct  1 23:19:38 2021.
