 Entering Gaussian System, Link 0=g09
 Input=C6H15O3P_d060_conf_0.com
 Output=C6H15O3P_d060_conf_0.log
 Initial command:
 /sw/target/amd/app/gaussian/Gaussian09RevA.02_gcc-4.9.2/g09/l1.exe /home/jschleinitz/gaussian/Gau-3046.inp -scrdir=/home/jschleinitz/gaussian/
 Entering Link 1 = /sw/target/amd/app/gaussian/Gaussian09RevA.02_gcc-4.9.2/g09/l1.exe PID=      3081.
  
 Copyright (c) 1988,1990,1992,1993,1995,1998,2003,2009, Gaussian, Inc.
                  All Rights Reserved.
  
 This is part of the Gaussian(R) 09 program.  It is based on
 the Gaussian(R) 03 system (copyright 2003, Gaussian, Inc.),
 the Gaussian(R) 98 system (copyright 1998, Gaussian, Inc.),
 the Gaussian(R) 94 system (copyright 1995, Gaussian, Inc.),
 the Gaussian 92(TM) system (copyright 1992, Gaussian, Inc.),
 the Gaussian 90(TM) system (copyright 1990, Gaussian, Inc.),
 the Gaussian 88(TM) system (copyright 1988, Gaussian, Inc.),
 the Gaussian 86(TM) system (copyright 1986, Carnegie Mellon
 University), and the Gaussian 82(TM) system (copyright 1983,
 Carnegie Mellon University). Gaussian is a federally registered
 trademark of Gaussian, Inc.
  
 This software contains proprietary and confidential information,
 including trade secrets, belonging to Gaussian, Inc.
  
 This software is provided under written license and may be
 used, copied, transmitted, or stored only in accord with that
 written license.
  
 The following legend is applicable only to US Government
 contracts under FAR:
  
                    RESTRICTED RIGHTS LEGEND
  
 Use, reproduction and disclosure by the US Government is
 subject to restrictions as set forth in subparagraphs (a)
 and (c) of the Commercial Computer Software - Restricted
 Rights clause in FAR 52.227-19.
  
 Gaussian, Inc.
 340 Quinnipiac St., Bldg. 40, Wallingford CT 06492
  
  
 ---------------------------------------------------------------
 Warning -- This program may not be used in any manner that
 competes with the business of Gaussian, Inc. or will provide
 assistance to any competitor of Gaussian, Inc.  The licensee
 of this program is prohibited from giving any competitor of
 Gaussian, Inc. access to this program.  By using this program,
 the user acknowledges that Gaussian, Inc. is engaged in the
 business of creating and licensing software in the field of
 computational chemistry and represents and warrants to the
 licensee that it is not a competitor of Gaussian, Inc. and that
 it will not use this program in any manner prohibited above.
 ---------------------------------------------------------------
  

 Cite this work as:
 Gaussian 09, Revision A.02,
 M. J. Frisch, G. W. Trucks, H. B. Schlegel, G. E. Scuseria, 
 M. A. Robb, J. R. Cheeseman, G. Scalmani, V. Barone, B. Mennucci, 
 G. A. Petersson, H. Nakatsuji, M. Caricato, X. Li, H. P. Hratchian, 
 A. F. Izmaylov, J. Bloino, G. Zheng, J. L. Sonnenberg, M. Hada, 
 M. Ehara, K. Toyota, R. Fukuda, J. Hasegawa, M. Ishida, T. Nakajima, 
 Y. Honda, O. Kitao, H. Nakai, T. Vreven, J. A. Montgomery, Jr., 
 J. E. Peralta, F. Ogliaro, M. Bearpark, J. J. Heyd, E. Brothers, 
 K. N. Kudin, V. N. Staroverov, R. Kobayashi, J. Normand, 
 K. Raghavachari, A. Rendell, J. C. Burant, S. S. Iyengar, J. Tomasi, 
 M. Cossi, N. Rega, J. M. Millam, M. Klene, J. E. Knox, J. B. Cross, 
 V. Bakken, C. Adamo, J. Jaramillo, R. Gomperts, R. E. Stratmann, 
 O. Yazyev, A. J. Austin, R. Cammi, C. Pomelli, J. W. Ochterski, 
 R. L. Martin, K. Morokuma, V. G. Zakrzewski, G. A. Voth, 
 P. Salvador, J. J. Dannenberg, S. Dapprich, A. D. Daniels, 
 O. Farkas, J. B. Foresman, J. V. Ortiz, J. Cioslowski, 
 and D. J. Fox, Gaussian, Inc., Wallingford CT, 2009.
 
 ******************************************
 Gaussian 09:  AM64L-G09RevA.02 11-Jun-2009
                 5-Oct-2021 
 ******************************************
 %nproc=4
 Will use up to    4 processors via shared memory.
 %mem=8gb
 %chk=C6H15O3P_d060_conf_0.chk
 -----------------------------------
 #p opt b3lyp/6-31G* scf=(xqc,tight)
 -----------------------------------
 1/14=-1,18=20,19=15,26=3,38=1/1,3;
 2/9=110,12=2,17=6,18=5,40=1/2;
 3/5=1,6=6,7=1,11=2,16=1,25=1,30=1,71=1,74=-5/1,2,3;
 4//1;
 5/5=2,8=3,13=1,32=2,38=5/2,8;
 6/7=2,8=2,9=2,10=2,28=1/1;
 7//1,2,3,16;
 1/14=-1,18=20,19=15/3(2);
 2/9=110/2;
 99//99;
 2/9=110/2;
 3/5=1,6=6,7=1,11=2,16=1,25=1,30=1,71=1,74=-5/1,2,3;
 4/5=5,16=3/1;
 5/5=2,8=3,13=1,32=2,38=5/2,8;
 7//1,2,3,16;
 1/14=-1,18=20,19=15/3(-5);
 2/9=110/2;
 6/7=2,8=2,9=2,10=2,19=2,28=1/1;
 99/9=1/99;
 Leave Link    1 at Tue Oct  5 16:43:30 2021, MaxMem= 1073741824 cpu:       0.1
 (Enter /sw/target/amd/app/gaussian/Gaussian09RevA.02_gcc-4.9.2/g09/l101.exe)
 ------------------------
 CC(OP(=O)OC(C)C)C_conf_0
 ------------------------
 Symbolic Z-matrix:
 Charge =  0 Multiplicity = 1
 C                     2.55     -2.08208   1.16527 
 C                     3.22979  -0.86816   1.79073 
 O                     2.27762   0.18316   1.84096 
 P                     2.80665   1.68716   2.14726 
 O                     3.60097   2.23987   0.99971 
 O                     1.38977   2.4458    2.3496 
 C                     0.73191   3.02181   1.2287 
 C                     0.38964   1.97504   0.1765 
 C                    -0.53961   3.68587   1.74499 
 C                     3.70083  -1.19333   3.20145 
 H                     2.2352   -1.86018   0.14003 
 H                     1.64503  -2.3513    1.72123 
 H                     3.21865  -2.94799   1.14489 
 H                     4.07932  -0.56673   1.16532 
 H                     3.31337   1.59936   3.45933 
 H                     1.38338   3.78939   0.79777 
 H                    -0.17114   1.14354   0.61628 
 H                     1.29657   1.54987  -0.2642 
 H                    -0.19978   2.40968  -0.63574 
 H                    -1.18132   2.9592    2.25807 
 H                    -1.11038   4.1421    0.9299 
 H                    -0.29869   4.46372   2.4773 
 H                     2.84661  -1.3839    3.86074 
 H                     4.24788  -0.34904   3.63183 
 H                     4.36081  -2.06531   3.21314 
 
 NAtoms=     25 NQM=     25 NQMF=      0 NMic=      0 NMicF=      0 NTot=     25.
                    Isotopes and Nuclear Properties:
 (Nuclear quadrupole moments (NQMom) in fm**2, nuclear magnetic moments (NMagM)
  in nuclear magnetons)

  Atom         1           2           3           4           5           6           7           8           9          10
 IAtWgt=          12          12          16          31          16          16          12          12          12          12
 AtmWgt=  12.0000000  12.0000000  15.9949146  30.9737634  15.9949146  15.9949146  12.0000000  12.0000000  12.0000000  12.0000000
 NucSpn=           0           0           0           1           0           0           0           0           0           0
 AtZEff=   0.0000000   0.0000000   0.0000000   0.0000000   0.0000000   0.0000000   0.0000000   0.0000000   0.0000000   0.0000000
 NQMom=    0.0000000   0.0000000   0.0000000   0.0000000   0.0000000   0.0000000   0.0000000   0.0000000   0.0000000   0.0000000
 NMagM=    0.0000000   0.0000000   0.0000000   1.1316000   0.0000000   0.0000000   0.0000000   0.0000000   0.0000000   0.0000000

  Atom        11          12          13          14          15          16          17          18          19          20
 IAtWgt=           1           1           1           1           1           1           1           1           1           1
 AtmWgt=   1.0078250   1.0078250   1.0078250   1.0078250   1.0078250   1.0078250   1.0078250   1.0078250   1.0078250   1.0078250
 NucSpn=           1           1           1           1           1           1           1           1           1           1
 AtZEff=   0.0000000   0.0000000   0.0000000   0.0000000   0.0000000   0.0000000   0.0000000   0.0000000   0.0000000   0.0000000
 NQMom=    0.0000000   0.0000000   0.0000000   0.0000000   0.0000000   0.0000000   0.0000000   0.0000000   0.0000000   0.0000000
 NMagM=    2.7928460   2.7928460   2.7928460   2.7928460   2.7928460   2.7928460   2.7928460   2.7928460   2.7928460   2.7928460

  Atom        21          22          23          24          25
 IAtWgt=           1           1           1           1           1
 AtmWgt=   1.0078250   1.0078250   1.0078250   1.0078250   1.0078250
 NucSpn=           1           1           1           1           1
 AtZEff=   0.0000000   0.0000000   0.0000000   0.0000000   0.0000000
 NQMom=    0.0000000   0.0000000   0.0000000   0.0000000   0.0000000
 NMagM=    2.7928460   2.7928460   2.7928460   2.7928460   2.7928460
 Leave Link  101 at Tue Oct  5 16:43:30 2021, MaxMem= 1073741824 cpu:       0.1
 (Enter /sw/target/amd/app/gaussian/Gaussian09RevA.02_gcc-4.9.2/g09/l103.exe)

 GradGradGradGradGradGradGradGradGradGradGradGradGradGradGradGradGradGrad
 Berny optimization.
 Initialization pass.
                           ----------------------------
                           !    Initial Parameters    !
                           ! (Angstroms and Degrees)  !
 --------------------------                            --------------------------
 ! Name  Definition              Value          Derivative Info.                !
 --------------------------------------------------------------------------------
 ! R1    R(1,2)                  1.5254         estimate D2E/DX2                !
 ! R2    R(1,11)                 1.0952         estimate D2E/DX2                !
 ! R3    R(1,12)                 1.0957         estimate D2E/DX2                !
 ! R4    R(1,13)                 1.0942         estimate D2E/DX2                !
 ! R5    R(2,3)                  1.4193         estimate D2E/DX2                !
 ! R6    R(2,10)                 1.5224         estimate D2E/DX2                !
 ! R7    R(2,14)                 1.0971         estimate D2E/DX2                !
 ! R8    R(3,4)                  1.6235         estimate D2E/DX2                !
 ! R9    R(4,5)                  1.5011         estimate D2E/DX2                !
 ! R10   R(4,6)                  1.6199         estimate D2E/DX2                !
 ! R11   R(4,15)                 1.4093         estimate D2E/DX2                !
 ! R12   R(6,7)                  1.4216         estimate D2E/DX2                !
 ! R13   R(7,8)                  1.5232         estimate D2E/DX2                !
 ! R14   R(7,9)                  1.5246         estimate D2E/DX2                !
 ! R15   R(7,16)                 1.0951         estimate D2E/DX2                !
 ! R16   R(8,17)                 1.0951         estimate D2E/DX2                !
 ! R17   R(8,18)                 1.0943         estimate D2E/DX2                !
 ! R18   R(8,19)                 1.0936         estimate D2E/DX2                !
 ! R19   R(9,20)                 1.0969         estimate D2E/DX2                !
 ! R20   R(9,21)                 1.0947         estimate D2E/DX2                !
 ! R21   R(9,22)                 1.0952         estimate D2E/DX2                !
 ! R22   R(10,23)                1.0957         estimate D2E/DX2                !
 ! R23   R(10,24)                1.0942         estimate D2E/DX2                !
 ! R24   R(10,25)                1.0936         estimate D2E/DX2                !
 ! A1    A(2,1,11)             110.5295         estimate D2E/DX2                !
 ! A2    A(2,1,12)             110.828          estimate D2E/DX2                !
 ! A3    A(2,1,13)             111.4116         estimate D2E/DX2                !
 ! A4    A(11,1,12)            106.7011         estimate D2E/DX2                !
 ! A5    A(11,1,13)            108.5744         estimate D2E/DX2                !
 ! A6    A(12,1,13)            108.6458         estimate D2E/DX2                !
 ! A7    A(1,2,3)              107.7585         estimate D2E/DX2                !
 ! A8    A(1,2,10)             110.356          estimate D2E/DX2                !
 ! A9    A(1,2,14)             109.2674         estimate D2E/DX2                !
 ! A10   A(3,2,10)             109.4504         estimate D2E/DX2                !
 ! A11   A(3,2,14)             109.6411         estimate D2E/DX2                !
 ! A12   A(10,2,14)            110.324          estimate D2E/DX2                !
 ! A13   A(2,3,4)              118.3123         estimate D2E/DX2                !
 ! A14   A(3,4,5)              111.6731         estimate D2E/DX2                !
 ! A15   A(3,4,6)               99.9277         estimate D2E/DX2                !
 ! A16   A(3,4,15)             103.598          estimate D2E/DX2                !
 ! A17   A(5,4,6)              112.6992         estimate D2E/DX2                !
 ! A18   A(5,4,15)             122.9852         estimate D2E/DX2                !
 ! A19   A(6,4,15)             103.1431         estimate D2E/DX2                !
 ! A20   A(4,6,7)              119.7377         estimate D2E/DX2                !
 ! A21   A(6,7,8)              111.7285         estimate D2E/DX2                !
 ! A22   A(6,7,9)              107.1826         estimate D2E/DX2                !
 ! A23   A(6,7,16)             108.6008         estimate D2E/DX2                !
 ! A24   A(8,7,9)              110.235          estimate D2E/DX2                !
 ! A25   A(8,7,16)             110.0926         estimate D2E/DX2                !
 ! A26   A(9,7,16)             108.9112         estimate D2E/DX2                !
 ! A27   A(7,8,17)             111.0668         estimate D2E/DX2                !
 ! A28   A(7,8,18)             111.0375         estimate D2E/DX2                !
 ! A29   A(7,8,19)             111.1633         estimate D2E/DX2                !
 ! A30   A(17,8,18)            106.9251         estimate D2E/DX2                !
 ! A31   A(17,8,19)            108.9065         estimate D2E/DX2                !
 ! A32   A(18,8,19)            107.577          estimate D2E/DX2                !
 ! A33   A(7,9,20)             110.9642         estimate D2E/DX2                !
 ! A34   A(7,9,21)             111.3611         estimate D2E/DX2                !
 ! A35   A(7,9,22)             110.6309         estimate D2E/DX2                !
 ! A36   A(20,9,21)            108.6245         estimate D2E/DX2                !
 ! A37   A(20,9,22)            106.6463         estimate D2E/DX2                !
 ! A38   A(21,9,22)            108.4566         estimate D2E/DX2                !
 ! A39   A(2,10,23)            110.7003         estimate D2E/DX2                !
 ! A40   A(2,10,24)            110.7534         estimate D2E/DX2                !
 ! A41   A(2,10,25)            111.5259         estimate D2E/DX2                !
 ! A42   A(23,10,24)           106.6952         estimate D2E/DX2                !
 ! A43   A(23,10,25)           108.9868         estimate D2E/DX2                !
 ! A44   A(24,10,25)           108.0167         estimate D2E/DX2                !
 ! D1    D(11,1,2,3)            62.1429         estimate D2E/DX2                !
 ! D2    D(11,1,2,10)         -178.4003         estimate D2E/DX2                !
 ! D3    D(11,1,2,14)          -56.9245         estimate D2E/DX2                !
 ! D4    D(12,1,2,3)           -55.9421         estimate D2E/DX2                !
 ! D5    D(12,1,2,10)           63.5147         estimate D2E/DX2                !
 ! D6    D(12,1,2,14)         -175.0095         estimate D2E/DX2                !
 ! D7    D(13,1,2,3)          -177.0469         estimate D2E/DX2                !
 ! D8    D(13,1,2,10)          -57.5901         estimate D2E/DX2                !
 ! D9    D(13,1,2,14)           63.8857         estimate D2E/DX2                !
 ! D10   D(1,2,3,4)           -166.4647         estimate D2E/DX2                !
 ! D11   D(10,2,3,4)            73.5046         estimate D2E/DX2                !
 ! D12   D(14,2,3,4)           -47.636          estimate D2E/DX2                !
 ! D13   D(1,2,10,23)          -65.6166         estimate D2E/DX2                !
 ! D14   D(1,2,10,24)          176.2448         estimate D2E/DX2                !
 ! D15   D(1,2,10,25)           55.9122         estimate D2E/DX2                !
 ! D16   D(3,2,10,23)           52.8102         estimate D2E/DX2                !
 ! D17   D(3,2,10,24)          -65.3284         estimate D2E/DX2                !
 ! D18   D(3,2,10,25)          174.339          estimate D2E/DX2                !
 ! D19   D(14,2,10,23)         173.5365         estimate D2E/DX2                !
 ! D20   D(14,2,10,24)          55.3979         estimate D2E/DX2                !
 ! D21   D(14,2,10,25)         -64.9347         estimate D2E/DX2                !
 ! D22   D(2,3,4,5)             69.6534         estimate D2E/DX2                !
 ! D23   D(2,3,4,6)           -170.9326         estimate D2E/DX2                !
 ! D24   D(2,3,4,15)           -64.6823         estimate D2E/DX2                !
 ! D25   D(3,4,6,7)            -89.3495         estimate D2E/DX2                !
 ! D26   D(5,4,6,7)             29.3107         estimate D2E/DX2                !
 ! D27   D(15,4,6,7)           164.0336         estimate D2E/DX2                !
 ! D28   D(4,6,7,8)             60.66           estimate D2E/DX2                !
 ! D29   D(4,6,7,9)           -178.4794         estimate D2E/DX2                !
 ! D30   D(4,6,7,16)           -60.9626         estimate D2E/DX2                !
 ! D31   D(6,7,8,17)            53.1073         estimate D2E/DX2                !
 ! D32   D(6,7,8,18)           -65.7355         estimate D2E/DX2                !
 ! D33   D(6,7,8,19)           174.5384         estimate D2E/DX2                !
 ! D34   D(9,7,8,17)           -65.96           estimate D2E/DX2                !
 ! D35   D(9,7,8,18)           175.1971         estimate D2E/DX2                !
 ! D36   D(9,7,8,19)            55.4711         estimate D2E/DX2                !
 ! D37   D(16,7,8,17)          173.8646         estimate D2E/DX2                !
 ! D38   D(16,7,8,18)           55.0218         estimate D2E/DX2                !
 ! D39   D(16,7,8,19)          -64.7042         estimate D2E/DX2                !
 ! D40   D(6,7,9,20)           -58.0404         estimate D2E/DX2                !
 ! D41   D(6,7,9,21)          -179.1774         estimate D2E/DX2                !
 ! D42   D(6,7,9,22)            60.1266         estimate D2E/DX2                !
 ! D43   D(8,7,9,20)            63.7612         estimate D2E/DX2                !
 ! D44   D(8,7,9,21)           -57.3758         estimate D2E/DX2                !
 ! D45   D(8,7,9,22)          -178.0719         estimate D2E/DX2                !
 ! D46   D(16,7,9,20)         -175.354          estimate D2E/DX2                !
 ! D47   D(16,7,9,21)           63.509          estimate D2E/DX2                !
 ! D48   D(16,7,9,22)          -57.1871         estimate D2E/DX2                !
 --------------------------------------------------------------------------------
 Trust Radius=3.00D-01 FncErr=1.00D-07 GrdErr=1.00D-06
 Number of steps in this run= 126 maximum allowed number of steps= 150.
 GradGradGradGradGradGradGradGradGradGradGradGradGradGradGradGradGradGrad

 Leave Link  103 at Tue Oct  5 16:43:30 2021, MaxMem= 1073741824 cpu:       0.0
 (Enter /sw/target/amd/app/gaussian/Gaussian09RevA.02_gcc-4.9.2/g09/l202.exe)
                          Input orientation:                          
 ---------------------------------------------------------------------
 Center     Atomic      Atomic             Coordinates (Angstroms)
 Number     Number       Type             X           Y           Z
 ---------------------------------------------------------------------
      1          6           0        2.549996   -2.082077    1.165274
      2          6           0        3.229791   -0.868159    1.790735
      3          8           0        2.277617    0.183163    1.840962
      4         15           0        2.806646    1.687156    2.147258
      5          8           0        3.600966    2.239870    0.999712
      6          8           0        1.389769    2.445800    2.349602
      7          6           0        0.731912    3.021809    1.228703
      8          6           0        0.389643    1.975035    0.176496
      9          6           0       -0.539607    3.685870    1.744995
     10          6           0        3.700830   -1.193332    3.201450
     11          1           0        2.235203   -1.860178    0.140027
     12          1           0        1.645033   -2.351303    1.721225
     13          1           0        3.218647   -2.947986    1.144887
     14          1           0        4.079321   -0.566726    1.165320
     15          1           0        3.313368    1.599358    3.459332
     16          1           0        1.383381    3.789395    0.797774
     17          1           0       -0.171142    1.143536    0.616278
     18          1           0        1.296568    1.549870   -0.264202
     19          1           0       -0.199782    2.409684   -0.635739
     20          1           0       -1.181318    2.959204    2.258075
     21          1           0       -1.110382    4.142097    0.929901
     22          1           0       -0.298687    4.463721    2.477302
     23          1           0        2.846613   -1.383903    3.860738
     24          1           0        4.247877   -0.349040    3.631834
     25          1           0        4.360815   -2.065312    3.213143
 ---------------------------------------------------------------------
                    Distance matrix (angstroms):
                    1          2          3          4          5
     1  C    0.000000
     2  C    1.525425   0.000000
     3  O    2.379508   1.419309   0.000000
     4  P    3.903496   2.614535   1.623479   0.000000
     5  O    4.450975   3.228519   2.586310   1.501099   0.000000
     6  O    4.821870   3.831493   2.483246   1.619884   2.598847
     7  C    5.418405   4.656945   3.289677   2.632407   2.982505
     8  C    4.701592   4.330815   3.089611   3.131881   3.325720
     9  C    6.568938   5.911822   4.496100   3.918429   4.448674
    10  C    2.502060   1.522410   2.402332   3.195011   4.079767
    11  H    1.095201   2.167521   2.658990   4.115714   4.406219
    12  H    1.095683   2.171637   2.614961   4.223743   5.042334
    13  H    1.094215   2.177825   3.342776   4.760150   5.203950
    14  H    2.152935   1.097136   2.065179   2.768372   2.851882
    15  H    4.404362   2.979906   2.386946   1.409260   2.557870
    16  H    5.997519   5.107642   3.859120   2.875100   2.712838
    17  H    4.255651   4.122209   2.901480   3.392145   3.946868
    18  H    4.099454   3.715774   2.694821   2.848565   2.717320
    19  H    5.566044   5.328603   4.150777   4.160016   4.141162
    20  H    6.366430   5.858754   4.454729   4.187391   4.997114
    21  H    7.224549   6.684370   5.289776   4.780356   5.081352
    22  H    7.258366   6.430433   5.036411   4.178676   4.726106
    23  H    2.800171   2.167425   2.618959   3.516961   4.678274
    24  H    3.459789   2.166940   2.715214   2.902965   3.748202
    25  H    2.733700   2.176151   3.358308   4.199115   4.900126
                    6          7          8          9         10
     6  O    0.000000
     7  C    1.421612   0.000000
     8  C    2.438086   1.523162   0.000000
     9  C    2.371880   1.524564   2.500131   0.000000
    10  C    4.394306   5.520292   5.491162   6.626400   0.000000
    11  H    4.913088   5.222921   4.256323   6.405790   3.459055
    12  H    4.844813   5.472359   4.762289   6.420334   2.785366
    13  H    5.821431   6.467560   5.759963   7.648049   2.746045
    14  H    4.208506   4.907825   4.588250   6.305164   2.163728
    15  H    2.376594   3.696348   4.412065   4.705093   2.831209
    16  H    2.052671   1.095125   2.159954   2.146119   5.997982
    17  H    2.671469   2.172207   1.095117   2.805928   5.209245
    18  H    2.764661   2.171222   1.094300   3.459900   5.031538
    19  H    3.382343   2.172302   1.093649   2.722504   6.551376
    20  H    2.623442   2.173470   2.787379   1.096853   6.478339
    21  H    3.338223   2.176781   2.741141   1.094672   7.534886
    22  H    2.634235   2.168004   3.458477   1.095156   6.965828
    23  H    4.367213   5.550664   5.558130   6.453329   1.095748
    24  H    4.198098   5.431360   5.676852   6.539164   1.094221
    25  H    5.470187   6.556351   6.427739   7.697122   1.093648
                   11         12         13         14         15
    11  H    0.000000
    12  H    1.757753   0.000000
    13  H    1.777704   1.778892   0.000000
    14  H    2.474877   3.069122   2.532109   0.000000
    15  H    4.914125   4.627319   5.103329   3.246705   0.000000
    16  H    5.751166   6.215255   6.991494   5.136046   3.950317
    17  H    3.878094   4.090636   5.339536   4.614421   4.520237
    18  H    3.559897   4.391185   5.090248   3.777197   4.234930
    19  H    4.976213   5.623667   6.600069   5.514848   5.456048
    20  H    6.275762   6.039698   7.449414   6.426555   4.847102
    21  H    6.916947   7.098081   8.309993   7.011523   5.695008
    22  H    7.202441   7.127009   8.311459   6.796590   4.713374
    23  H    3.800573   2.637646   3.156044   3.074512   3.046117
    24  H    4.304314   3.799247   3.741489   2.481832   2.167791
    25  H    3.742239   3.111765   2.522171   2.553151   3.819366
                   16         17         18         19         20
    16  H    0.000000
    17  H    3.074094   0.000000
    18  H    2.480081   1.759127   0.000000
    19  H    2.542630   1.780871   1.765329   0.000000
    20  H    3.065840   2.648132   3.806313   3.104761   0.000000
    21  H    2.522045   3.157832   3.733488   2.506327   1.779976
    22  H    2.470806   3.808321   4.307112   3.730935   1.758029
    23  H    6.187552   5.101109   5.293845   6.624963   6.136394
    24  H    5.776147   5.554195   5.243584   6.753104   6.504448
    25  H    6.998336   6.130175   5.878016   7.459124   7.541429
                   21         22         23         24         25
    21  H    0.000000
    22  H    1.776722   0.000000
    23  H    7.401641   6.782441   0.000000
    24  H    7.495445   6.720628   1.756951   0.000000
    25  H    8.583654   8.054854   1.782275   1.770211   0.000000
 Stoichiometry    C6H15O3P
 Framework group  C1[X(C6H15O3P)]
 Deg. of freedom    69
 Full point group                 C1      NOp   1
 Largest Abelian subgroup         C1      NOp   1
 Largest concise Abelian subgroup C1      NOp   1
                         Standard orientation:                         
 ---------------------------------------------------------------------
 Center     Atomic      Atomic             Coordinates (Angstroms)
 Number     Number       Type             X           Y           Z
 ---------------------------------------------------------------------
      1          6           0        2.839074    1.671226    0.130124
      2          6           0        2.297128    0.245421    0.147259
      3          8           0        0.916501    0.303158   -0.176736
      4         15           0        0.007244   -1.015110    0.089916
      5          8           0       -0.179120   -1.272538    1.556987
      6          8           0       -1.363728   -0.561958   -0.644327
      7          6           0       -2.358269    0.139842    0.090075
      8          6           0       -1.830922    1.461891    0.632399
      9          6           0       -3.527029    0.387078   -0.857115
     10          6           0        3.023917   -0.609767   -0.881412
     11          1           0        2.337816    2.281781    0.888694
     12          1           0        2.646618    2.149564   -0.836662
     13          1           0        3.916099    1.691530    0.322251
     14          1           0        2.422826   -0.177610    1.151725
     15          1           0        0.543463   -1.971975   -0.794898
     16          1           0       -2.697823   -0.496275    0.914306
     17          1           0       -1.387832    2.066258   -0.166157
     18          1           0       -1.047652    1.296037    1.378370
     19          1           0       -2.627377    2.037663    1.112206
     20          1           0       -3.204216    0.953334   -1.739291
     21          1           0       -4.331525    0.940083   -0.361861
     22          1           0       -3.933291   -0.561281   -1.224450
     23          1           0        2.808960   -0.259959   -1.897331
     24          1           0        2.686857   -1.649463   -0.829039
     25          1           0        4.105798   -0.596473   -0.721971
 ---------------------------------------------------------------------
 Rotational constants (GHZ):      2.0259550      0.6441115      0.5865749
 Leave Link  202 at Tue Oct  5 16:43:30 2021, MaxMem= 1073741824 cpu:       0.0
 (Enter /sw/target/amd/app/gaussian/Gaussian09RevA.02_gcc-4.9.2/g09/l301.exe)
 Standard basis: 6-31G(d) (6D, 7F)
 Ernie: Thresh=  0.10000D-02 Tol=  0.10000D-05 Strict=F.
 There are   184 symmetry adapted basis functions of A   symmetry.
 Integral buffers will be    131072 words long.
 Raffenetti 2 integral format.
 Two-electron integral symmetry is turned on.
   184 basis functions,   364 primitive gaussians,   184 cartesian basis functions
    45 alpha electrons       45 beta electrons
       nuclear repulsion energy       719.9696889839 Hartrees.
 IExCor=  402 DFT=T Ex+Corr=B3LYP ExCW=0 ScaHFX=  0.200000
 ScaDFX=  0.800000  0.720000  1.000000  0.810000 ScalE2=  1.000000  1.000000
 IRadAn=      0 IRanWt=     -1 IRanGd=            0 ICorTp=0
 NAtoms=   25 NActive=   25 NUniq=   25 SFac= 7.50D-01 NAtFMM=   80 NAOKFM=F Big=F
 Leave Link  301 at Tue Oct  5 16:43:30 2021, MaxMem= 1073741824 cpu:       0.1
 (Enter /sw/target/amd/app/gaussian/Gaussian09RevA.02_gcc-4.9.2/g09/l302.exe)
 NPDir=0 NMtPBC=     1 NCelOv=     1 NCel=       1 NClECP=     1 NCelD=      1
         NCelK=      1 NCelE2=     1 NClLst=     1 CellRange=     0.0.
 One-electron integrals computed using PRISM.
 NBasis=   184 RedAO= T  NBF=   184
 NBsUse=   184 1.00D-06 NBFU=   184
 Precomputing XC quadrature grid using
 IXCGrd= 2 IRadAn=           0 IRanWt=          -1 IRanGd=           0 AccXCQ= 1.00D-10.
 NRdTot=    1577 NPtTot=      199962 NUsed=      211339 NTot=      211371
 NSgBfM=   183   183   183   183   183 NAtAll=    25    25.
 Leave Link  302 at Tue Oct  5 16:43:31 2021, MaxMem= 1073741824 cpu:       1.6
 (Enter /sw/target/amd/app/gaussian/Gaussian09RevA.02_gcc-4.9.2/g09/l303.exe)
 DipDrv:  MaxL=1.
 Leave Link  303 at Tue Oct  5 16:43:31 2021, MaxMem= 1073741824 cpu:       0.1
 (Enter /sw/target/amd/app/gaussian/Gaussian09RevA.02_gcc-4.9.2/g09/l401.exe)
 Harris functional with IExCor=  402 diagonalized for initial guess.
 ExpMin= 9.98D-02 ExpMax= 1.94D+04 ExpMxC= 2.91D+03 IAcc=2 IRadAn=         0 AccDes= 0.00D+00
 HarFok:  IExCor=  402 AccDes= 0.00D+00 IRadAn=         0 IDoV= 1
 ScaDFX=  1.000000  1.000000  1.000000  1.000000
 FoFCou: FMM=F IPFlag=           0 FMFlag=      100000 FMFlg1=           0
         NFxFlg=           0 DoJE=T BraDBF=F KetDBF=T FulRan=T
         Omega=  0.000000  0.000000  1.000000  0.000000  0.000000 ICntrl=     500 IOpCl=  0
         NMat0=    1 NMatS0=    1 NMatT0=    0 NMatD0=    1 NMtDS0=    0 NMtDT0=    0
         I1Cent=           4 NGrid=           0.
 Petite list used in FoFCou.
 Harris En= -804.918702114740    
 Initial guess orbital symmetries:
       Occupied  (A) (A) (A) (A) (A) (A) (A) (A) (A) (A) (A) (A)
                 (A) (A) (A) (A) (A) (A) (A) (A) (A) (A) (A) (A)
                 (A) (A) (A) (A) (A) (A) (A) (A) (A) (A) (A) (A)
                 (A) (A) (A) (A) (A) (A) (A) (A) (A)
       Virtual   (A) (A) (A) (A) (A) (A) (A) (A) (A) (A) (A) (A)
                 (A) (A) (A) (A) (A) (A) (A) (A) (A) (A) (A) (A)
                 (A) (A) (A) (A) (A) (A) (A) (A) (A) (A) (A) (A)
                 (A) (A) (A) (A) (A) (A) (A) (A) (A) (A) (A) (A)
                 (A) (A) (A) (A) (A) (A) (A) (A) (A) (A) (A) (A)
                 (A) (A) (A) (A) (A) (A) (A) (A) (A) (A) (A) (A)
                 (A) (A) (A) (A) (A) (A) (A) (A) (A) (A) (A) (A)
                 (A) (A) (A) (A) (A) (A) (A) (A) (A) (A) (A) (A)
                 (A) (A) (A) (A) (A) (A) (A) (A) (A) (A) (A) (A)
                 (A) (A) (A) (A) (A) (A) (A) (A) (A) (A) (A) (A)
                 (A) (A) (A) (A) (A) (A) (A) (A) (A) (A) (A) (A)
                 (A) (A) (A) (A) (A) (A) (A)
 The electronic state of the initial guess is 1-A.
 Leave Link  401 at Tue Oct  5 16:43:35 2021, MaxMem= 1073741824 cpu:      13.8
 (Enter /sw/target/amd/app/gaussian/Gaussian09RevA.02_gcc-4.9.2/g09/l502.exe)
 Closed shell SCF:
 Requested convergence on RMS density matrix=1.00D-08 within  64 cycles.
 Requested convergence on MAX density matrix=1.00D-06.
 Requested convergence on             energy=1.00D-06.
 No special actions if energy rises.
 Using DIIS extrapolation, IDIIS=  1040.
 Integral symmetry usage will be decided dynamically.
       211101 words used for storage of precomputed grid.
 Keep R1 ints in memory in canonical form, NReq=148335164.
 IEnd=      320720 IEndB=      320720 NGot=  1073741824 MDV=   928610631
 LenX=   928610631 LenY=   928576334
 Symmetry not used in FoFDir.
 MinBra= 0 MaxBra= 2 Meth= 1.
 IRaf=       0 NMat=   1 IRICut=       1 DoRegI=T DoRafI=F ISym2E= 0 JSym2E=0.
 Integral accuracy reduced to 1.0D-05 until final iterations.

 Cycle   1  Pass 0  IDiag  1:
 E= -804.284969060576    
 DIIS: error= 3.99D-02 at cycle   1 NSaved=   1.
 NSaved= 1 IEnMin= 1 EnMin= -804.284969060576     IErMin= 1 ErrMin= 3.99D-02
 ErrMax= 3.99D-02 EMaxC= 1.00D-01 BMatC= 5.09D-01 BMatP= 5.09D-01
 IDIUse=3 WtCom= 6.01D-01 WtEn= 3.99D-01
 Coeff-Com:  0.100D+01
 Coeff-En:   0.100D+01
 Coeff:      0.100D+01
 Gap=     0.296 Goal=   None    Shift=    0.000
 GapD=    0.296 DampG=1.000 DampE=0.500 DampFc=0.5000 IDamp=-1.
 Damping current iteration by 5.00D-01
 RMSDP=9.99D-03 MaxDP=4.12D-01              OVMax= 3.50D-01

 Cycle   2  Pass 0  IDiag  1:
 E= -804.375164525688     Delta-E=       -0.090195465112 Rises=F Damp=T
 DIIS: error= 2.35D-02 at cycle   2 NSaved=   2.
 NSaved= 2 IEnMin= 2 EnMin= -804.375164525688     IErMin= 2 ErrMin= 2.35D-02
 ErrMax= 2.35D-02 EMaxC= 1.00D-01 BMatC= 8.92D-02 BMatP= 5.09D-01
 IDIUse=3 WtCom= 7.65D-01 WtEn= 2.35D-01
 Coeff-Com:  0.248D+00 0.752D+00
 Coeff-En:   0.404D+00 0.596D+00
 Coeff:      0.285D+00 0.715D+00
 Gap=     0.373 Goal=   None    Shift=    0.000
 RMSDP=3.18D-03 MaxDP=1.22D-01 DE=-9.02D-02 OVMax= 2.49D-01

 Cycle   3  Pass 0  IDiag  1:
 E= -804.684760986544     Delta-E=       -0.309596460857 Rises=F Damp=F
 DIIS: error= 1.74D-02 at cycle   3 NSaved=   3.
 NSaved= 3 IEnMin= 3 EnMin= -804.684760986544     IErMin= 3 ErrMin= 1.74D-02
 ErrMax= 1.74D-02 EMaxC= 1.00D-01 BMatC= 7.75D-02 BMatP= 8.92D-02
 IDIUse=3 WtCom= 8.26D-01 WtEn= 1.74D-01
 Coeff-Com:  0.122D+00 0.473D+00 0.405D+00
 Coeff-En:   0.000D+00 0.000D+00 0.100D+01
 Coeff:      0.101D+00 0.391D+00 0.508D+00
 Gap=     0.361 Goal=   None    Shift=    0.000
 RMSDP=1.89D-03 MaxDP=6.35D-02 DE=-3.10D-01 OVMax= 9.17D-02

 Cycle   4  Pass 0  IDiag  1:
 E= -804.741649006374     Delta-E=       -0.056888019830 Rises=F Damp=F
 DIIS: error= 6.74D-03 at cycle   4 NSaved=   4.
 NSaved= 4 IEnMin= 4 EnMin= -804.741649006374     IErMin= 4 ErrMin= 6.74D-03
 ErrMax= 6.74D-03 EMaxC= 1.00D-01 BMatC= 1.31D-02 BMatP= 7.75D-02
 IDIUse=3 WtCom= 9.33D-01 WtEn= 6.74D-02
 Coeff-Com:  0.195D-01 0.801D-01 0.294D+00 0.606D+00
 Coeff-En:   0.000D+00 0.000D+00 0.148D+00 0.852D+00
 Coeff:      0.182D-01 0.747D-01 0.284D+00 0.623D+00
 Gap=     0.332 Goal=   None    Shift=    0.000
 RMSDP=6.14D-04 MaxDP=1.99D-02 DE=-5.69D-02 OVMax= 2.78D-02

 Cycle   5  Pass 0  IDiag  1:
 E= -804.751037017801     Delta-E=       -0.009388011427 Rises=F Damp=F
 DIIS: error= 1.71D-03 at cycle   5 NSaved=   5.
 NSaved= 5 IEnMin= 5 EnMin= -804.751037017801     IErMin= 5 ErrMin= 1.71D-03
 ErrMax= 1.71D-03 EMaxC= 1.00D-01 BMatC= 9.71D-04 BMatP= 1.31D-02
 IDIUse=3 WtCom= 9.83D-01 WtEn= 1.71D-02
 Coeff-Com:  0.235D-02 0.125D-01 0.129D+00 0.362D+00 0.494D+00
 Coeff-En:   0.000D+00 0.000D+00 0.000D+00 0.000D+00 0.100D+01
 Coeff:      0.231D-02 0.123D-01 0.127D+00 0.356D+00 0.502D+00
 Gap=     0.329 Goal=   None    Shift=    0.000
 RMSDP=1.65D-04 MaxDP=4.73D-03 DE=-9.39D-03 OVMax= 5.28D-03

 Cycle   6  Pass 0  IDiag  1:
 E= -804.751755325210     Delta-E=       -0.000718307409 Rises=F Damp=F
 DIIS: error= 2.89D-04 at cycle   6 NSaved=   6.
 NSaved= 6 IEnMin= 6 EnMin= -804.751755325210     IErMin= 6 ErrMin= 2.89D-04
 ErrMax= 2.89D-04 EMaxC= 1.00D-01 BMatC= 4.26D-05 BMatP= 9.71D-04
 IDIUse=3 WtCom= 9.97D-01 WtEn= 2.89D-03
 Coeff-Com: -0.223D-03-0.293D-02 0.272D-01 0.882D-01 0.226D+00 0.662D+00
 Coeff-En:   0.000D+00 0.000D+00 0.000D+00 0.000D+00 0.000D+00 0.100D+01
 Coeff:     -0.222D-03-0.292D-02 0.272D-01 0.879D-01 0.225D+00 0.663D+00
 Gap=     0.329 Goal=   None    Shift=    0.000
 RMSDP=3.43D-05 MaxDP=9.41D-04 DE=-7.18D-04 OVMax= 8.84D-04

 Cycle   7  Pass 0  IDiag  1:
 E= -804.751788240035     Delta-E=       -0.000032914825 Rises=F Damp=F
 DIIS: error= 6.61D-05 at cycle   7 NSaved=   7.
 NSaved= 7 IEnMin= 7 EnMin= -804.751788240035     IErMin= 7 ErrMin= 6.61D-05
 ErrMax= 6.61D-05 EMaxC= 1.00D-01 BMatC= 1.54D-06 BMatP= 4.26D-05
 IDIUse=1 WtCom= 1.00D+00 WtEn= 0.00D+00
 Coeff-Com:  0.526D-04-0.183D-02 0.629D-02 0.193D-01 0.708D-01 0.261D+00
 Coeff-Com:  0.644D+00
 Coeff:      0.526D-04-0.183D-02 0.629D-02 0.193D-01 0.708D-01 0.261D+00
 Coeff:      0.644D+00
 Gap=     0.329 Goal=   None    Shift=    0.000
 RMSDP=7.85D-06 MaxDP=2.64D-04 DE=-3.29D-05 OVMax= 2.39D-04

 Initial convergence to 1.0D-05 achieved.  Increase integral accuracy.
 Cycle   8  Pass 1  IDiag  1:
 E= -804.751774408848     Delta-E=        0.000013831187 Rises=F Damp=F
 DIIS: error= 1.78D-05 at cycle   1 NSaved=   1.
 NSaved= 1 IEnMin= 1 EnMin= -804.751774408848     IErMin= 1 ErrMin= 1.78D-05
 ErrMax= 1.78D-05 EMaxC= 1.00D-01 BMatC= 2.52D-07 BMatP= 2.52D-07
 IDIUse=1 WtCom= 1.00D+00 WtEn= 0.00D+00
 Coeff-Com:  0.100D+01
 Coeff:      0.100D+01
 Gap=     0.329 Goal=   None    Shift=    0.000
 RMSDP=7.85D-06 MaxDP=2.64D-04 DE= 1.38D-05 OVMax= 1.74D-04

 Cycle   9  Pass 1  IDiag  1:
 E= -804.751774333104     Delta-E=        0.000000075743 Rises=F Damp=F
 DIIS: error= 2.83D-05 at cycle   2 NSaved=   2.
 NSaved= 2 IEnMin= 1 EnMin= -804.751774408848     IErMin= 1 ErrMin= 1.78D-05
 ErrMax= 2.83D-05 EMaxC= 1.00D-01 BMatC= 4.39D-07 BMatP= 2.52D-07
 IDIUse=1 WtCom= 1.00D+00 WtEn= 0.00D+00
 Coeff-Com:  0.577D+00 0.423D+00
 Coeff:      0.577D+00 0.423D+00
 Gap=     0.329 Goal=   None    Shift=    0.000
 RMSDP=3.51D-06 MaxDP=1.04D-04 DE= 7.57D-08 OVMax= 1.26D-04

 Cycle  10  Pass 1  IDiag  1:
 E= -804.751774663585     Delta-E=       -0.000000330480 Rises=F Damp=F
 DIIS: error= 9.16D-06 at cycle   3 NSaved=   3.
 NSaved= 3 IEnMin= 3 EnMin= -804.751774663585     IErMin= 3 ErrMin= 9.16D-06
 ErrMax= 9.16D-06 EMaxC= 1.00D-01 BMatC= 2.27D-08 BMatP= 2.52D-07
 IDIUse=1 WtCom= 1.00D+00 WtEn= 0.00D+00
 Coeff-Com:  0.148D+00 0.204D+00 0.648D+00
 Coeff:      0.148D+00 0.204D+00 0.648D+00
 Gap=     0.329 Goal=   None    Shift=    0.000
 RMSDP=1.12D-06 MaxDP=4.04D-05 DE=-3.30D-07 OVMax= 5.14D-05

 Cycle  11  Pass 1  IDiag  1:
 E= -804.751774673764     Delta-E=       -0.000000010179 Rises=F Damp=F
 DIIS: error= 5.32D-06 at cycle   4 NSaved=   4.
 NSaved= 4 IEnMin= 4 EnMin= -804.751774673764     IErMin= 4 ErrMin= 5.32D-06
 ErrMax= 5.32D-06 EMaxC= 1.00D-01 BMatC= 8.59D-09 BMatP= 2.27D-08
 IDIUse=1 WtCom= 1.00D+00 WtEn= 0.00D+00
 Coeff-Com: -0.844D-02 0.574D-01 0.435D+00 0.516D+00
 Coeff:     -0.844D-02 0.574D-01 0.435D+00 0.516D+00
 Gap=     0.329 Goal=   None    Shift=    0.000
 RMSDP=5.02D-07 MaxDP=1.73D-05 DE=-1.02D-08 OVMax= 2.36D-05

 Cycle  12  Pass 1  IDiag  1:
 E= -804.751774680640     Delta-E=       -0.000000006877 Rises=F Damp=F
 DIIS: error= 1.02D-06 at cycle   5 NSaved=   5.
 NSaved= 5 IEnMin= 5 EnMin= -804.751774680640     IErMin= 5 ErrMin= 1.02D-06
 ErrMax= 1.02D-06 EMaxC= 1.00D-01 BMatC= 4.66D-10 BMatP= 8.59D-09
 IDIUse=1 WtCom= 1.00D+00 WtEn= 0.00D+00
 Coeff-Com: -0.103D-01 0.273D-01 0.236D+00 0.313D+00 0.434D+00
 Coeff:     -0.103D-01 0.273D-01 0.236D+00 0.313D+00 0.434D+00
 Gap=     0.329 Goal=   None    Shift=    0.000
 RMSDP=1.07D-07 MaxDP=3.10D-06 DE=-6.88D-09 OVMax= 4.37D-06

 Cycle  13  Pass 1  IDiag  1:
 E= -804.751774680972     Delta-E=       -0.000000000332 Rises=F Damp=F
 DIIS: error= 1.68D-07 at cycle   6 NSaved=   6.
 NSaved= 6 IEnMin= 6 EnMin= -804.751774680972     IErMin= 6 ErrMin= 1.68D-07
 ErrMax= 1.68D-07 EMaxC= 1.00D-01 BMatC= 1.49D-11 BMatP= 4.66D-10
 IDIUse=1 WtCom= 1.00D+00 WtEn= 0.00D+00
 Coeff-Com: -0.388D-02 0.667D-02 0.615D-01 0.898D-01 0.198D+00 0.648D+00
 Coeff:     -0.388D-02 0.667D-02 0.615D-01 0.898D-01 0.198D+00 0.648D+00
 Gap=     0.329 Goal=   None    Shift=    0.000
 RMSDP=2.63D-08 MaxDP=5.53D-07 DE=-3.32D-10 OVMax= 6.89D-07

 Cycle  14  Pass 1  IDiag  1:
 E= -804.751774680971     Delta-E=        0.000000000000 Rises=F Damp=F
 DIIS: error= 2.66D-08 at cycle   7 NSaved=   7.
 NSaved= 7 IEnMin= 6 EnMin= -804.751774680972     IErMin= 7 ErrMin= 2.66D-08
 ErrMax= 2.66D-08 EMaxC= 1.00D-01 BMatC= 4.86D-13 BMatP= 1.49D-11
 IDIUse=1 WtCom= 1.00D+00 WtEn= 0.00D+00
 Coeff-Com: -0.450D-03 0.227D-03 0.239D-02 0.617D-02 0.261D-01 0.198D+00
 Coeff-Com:  0.767D+00
 Coeff:     -0.450D-03 0.227D-03 0.239D-02 0.617D-02 0.261D-01 0.198D+00
 Coeff:      0.767D+00
 Gap=     0.329 Goal=   None    Shift=    0.000
 RMSDP=5.81D-09 MaxDP=1.20D-07 DE= 4.55D-13 OVMax= 2.01D-07

 SCF Done:  E(RB3LYP) =  -804.751774681     A.U. after   14 cycles
             Convg  =    0.5815D-08             -V/T =  2.0069
 KE= 7.992186971358D+02 PE=-3.331993120183D+03 EE= 1.008052959383D+03
 Leave Link  502 at Tue Oct  5 16:44:04 2021, MaxMem= 1073741824 cpu:      85.2
 (Enter /sw/target/amd/app/gaussian/Gaussian09RevA.02_gcc-4.9.2/g09/l508.exe)
 QCSCF skips out because SCF is already converged.
 Leave Link  508 at Tue Oct  5 16:44:04 2021, MaxMem= 1073741824 cpu:       0.0
 (Enter /sw/target/amd/app/gaussian/Gaussian09RevA.02_gcc-4.9.2/g09/l601.exe)
 Copying SCF densities to generalized density rwf, IOpCl= 0 IROHF=0.

 **********************************************************************

            Population analysis using the SCF density.

 **********************************************************************

 Orbital symmetries:
       Occupied  (A) (A) (A) (A) (A) (A) (A) (A) (A) (A) (A) (A)
                 (A) (A) (A) (A) (A) (A) (A) (A) (A) (A) (A) (A)
                 (A) (A) (A) (A) (A) (A) (A) (A) (A) (A) (A) (A)
                 (A) (A) (A) (A) (A) (A) (A) (A) (A)
       Virtual   (A) (A) (A) (A) (A) (A) (A) (A) (A) (A) (A) (A)
                 (A) (A) (A) (A) (A) (A) (A) (A) (A) (A) (A) (A)
                 (A) (A) (A) (A) (A) (A) (A) (A) (A) (A) (A) (A)
                 (A) (A) (A) (A) (A) (A) (A) (A) (A) (A) (A) (A)
                 (A) (A) (A) (A) (A) (A) (A) (A) (A) (A) (A) (A)
                 (A) (A) (A) (A) (A) (A) (A) (A) (A) (A) (A) (A)
                 (A) (A) (A) (A) (A) (A) (A) (A) (A) (A) (A) (A)
                 (A) (A) (A) (A) (A) (A) (A) (A) (A) (A) (A) (A)
                 (A) (A) (A) (A) (A) (A) (A) (A) (A) (A) (A) (A)
                 (A) (A) (A) (A) (A) (A) (A) (A) (A) (A) (A) (A)
                 (A) (A) (A) (A) (A) (A) (A) (A) (A) (A) (A) (A)
                 (A) (A) (A) (A) (A) (A) (A)
 The electronic state is 1-A.
 Alpha  occ. eigenvalues --  -77.21532 -19.17235 -19.17199 -19.10741 -10.25454
 Alpha  occ. eigenvalues --  -10.24557 -10.18833 -10.18337 -10.17653 -10.16903
 Alpha  occ. eigenvalues --   -6.66625  -4.83046  -4.82950  -4.82699  -1.07695
 Alpha  occ. eigenvalues --   -1.03665  -0.95100  -0.79343  -0.77894  -0.70280
 Alpha  occ. eigenvalues --   -0.68842  -0.65272  -0.59746  -0.56427  -0.52994
 Alpha  occ. eigenvalues --   -0.50819  -0.47011  -0.45420  -0.44887  -0.44104
 Alpha  occ. eigenvalues --   -0.41372  -0.40595  -0.39806  -0.39171  -0.38864
 Alpha  occ. eigenvalues --   -0.38356  -0.37255  -0.36650  -0.35798  -0.33449
 Alpha  occ. eigenvalues --   -0.32479  -0.30484  -0.30200  -0.28580  -0.27755
 Alpha virt. eigenvalues --    0.05118   0.05631   0.08180   0.09503   0.11292
 Alpha virt. eigenvalues --    0.12311   0.13461   0.13692   0.14782   0.15601
 Alpha virt. eigenvalues --    0.16401   0.16923   0.17309   0.18424   0.18604
 Alpha virt. eigenvalues --    0.19281   0.19618   0.20496   0.20955   0.22123
 Alpha virt. eigenvalues --    0.24129   0.25549   0.25743   0.27145   0.30826
 Alpha virt. eigenvalues --    0.36869   0.40312   0.43718   0.49790   0.50809
 Alpha virt. eigenvalues --    0.51309   0.53286   0.53484   0.54248   0.57045
 Alpha virt. eigenvalues --    0.58286   0.61091   0.62257   0.63220   0.65656
 Alpha virt. eigenvalues --    0.66689   0.68057   0.69402   0.71415   0.73557
 Alpha virt. eigenvalues --    0.75141   0.76855   0.78031   0.80080   0.86093
 Alpha virt. eigenvalues --    0.87366   0.87832   0.88308   0.89014   0.89651
 Alpha virt. eigenvalues --    0.90088   0.90874   0.91451   0.92372   0.93519
 Alpha virt. eigenvalues --    0.94267   0.95089   0.96694   0.97426   0.99293
 Alpha virt. eigenvalues --    1.00457   1.04046   1.04787   1.09750   1.10929
 Alpha virt. eigenvalues --    1.13058   1.16744   1.16848   1.18880   1.21835
 Alpha virt. eigenvalues --    1.23000   1.26116   1.39077   1.40233   1.42214
 Alpha virt. eigenvalues --    1.43806   1.46303   1.50008   1.55777   1.57673
 Alpha virt. eigenvalues --    1.67886   1.70064   1.73862   1.75270   1.77184
 Alpha virt. eigenvalues --    1.77783   1.78929   1.81140   1.82928   1.85534
 Alpha virt. eigenvalues --    1.86907   1.90008   1.92643   1.95358   1.96322
 Alpha virt. eigenvalues --    1.98550   1.99387   2.05264   2.05638   2.09549
 Alpha virt. eigenvalues --    2.11459   2.14075   2.15805   2.20168   2.22056
 Alpha virt. eigenvalues --    2.23203   2.24430   2.25666   2.27339   2.29415
 Alpha virt. eigenvalues --    2.31121   2.39698   2.44352   2.49809   2.51144
 Alpha virt. eigenvalues --    2.54127   2.55444   2.62248   2.70646   2.73476
 Alpha virt. eigenvalues --    2.74846   2.81754   2.86436   2.91116   3.50495
 Alpha virt. eigenvalues --    3.84976   3.86110   4.11420   4.19074   4.21162
 Alpha virt. eigenvalues --    4.27705   4.29353   4.51237   4.53671
          Condensed to atoms (all electrons):
              1          2          3          4          5          6
     1  C    5.131752   0.387600  -0.049908  -0.000484  -0.000031  -0.000059
     2  C    0.387600   4.713223   0.215181  -0.008856  -0.004052   0.001418
     3  O   -0.049908   0.215181   8.302479   0.248736  -0.032204  -0.029087
     4  P   -0.000484  -0.008856   0.248736  12.607931   0.550309   0.292685
     5  O   -0.000031  -0.004052  -0.032204   0.550309   8.108140  -0.032071
     6  O   -0.000059   0.001418  -0.029087   0.292685  -0.032071   8.259344
     7  C    0.000008  -0.000030  -0.004898  -0.008666   0.003985   0.204671
     8  C   -0.000036  -0.000026   0.004544  -0.004329  -0.008876  -0.039524
     9  C   -0.000000   0.000003  -0.000088   0.002203   0.000229  -0.049325
    10  C   -0.059330   0.367399  -0.049523  -0.011381  -0.000516  -0.000214
    11  H    0.368341  -0.026610   0.001267  -0.000020  -0.000001  -0.000001
    12  H    0.368914  -0.028779   0.000275   0.000312   0.000001  -0.000005
    13  H    0.358502  -0.025996   0.003080   0.000072   0.000002   0.000000
    14  H   -0.050184   0.371247  -0.041503   0.003617   0.007726  -0.000055
    15  H   -0.000174  -0.003380  -0.042561   0.264873  -0.030141  -0.037843
    16  H   -0.000000   0.000008  -0.000172  -0.008045   0.007119  -0.041333
    17  H    0.000005  -0.000011   0.001028   0.000706   0.000092  -0.000212
    18  H   -0.000040   0.000047  -0.000368   0.011015   0.006189  -0.003197
    19  H   -0.000001  -0.000002   0.000233  -0.000596  -0.000021   0.003377
    20  H   -0.000000   0.000000  -0.000015  -0.000071  -0.000001   0.000161
    21  H    0.000000  -0.000000   0.000001   0.000108   0.000005   0.003110
    22  H    0.000000  -0.000000   0.000001   0.000550  -0.000003   0.001192
    23  H   -0.007400  -0.028936   0.000543   0.001172   0.000009  -0.000029
    24  H    0.005701  -0.030608  -0.001348   0.001146  -0.000126  -0.000024
    25  H   -0.002375  -0.025049   0.003506   0.000192  -0.000003  -0.000001
              7          8          9         10         11         12
     1  C    0.000008  -0.000036  -0.000000  -0.059330   0.368341   0.368914
     2  C   -0.000030  -0.000026   0.000003   0.367399  -0.026610  -0.028779
     3  O   -0.004898   0.004544  -0.000088  -0.049523   0.001267   0.000275
     4  P   -0.008666  -0.004329   0.002203  -0.011381  -0.000020   0.000312
     5  O    0.003985  -0.008876   0.000229  -0.000516  -0.000001   0.000001
     6  O    0.204671  -0.039524  -0.049325  -0.000214  -0.000001  -0.000005
     7  C    4.670634   0.376280   0.384155  -0.000005  -0.000006   0.000001
     8  C    0.376280   5.185909  -0.064262   0.000007   0.000040  -0.000010
     9  C    0.384155  -0.064262   5.141095   0.000000  -0.000000   0.000000
    10  C   -0.000005   0.000007   0.000000   5.186578   0.005716  -0.007794
    11  H   -0.000006   0.000040  -0.000000   0.005716   0.551665  -0.030765
    12  H    0.000001  -0.000010   0.000000  -0.007794  -0.030765   0.558422
    13  H   -0.000000   0.000001   0.000000  -0.001669  -0.026102  -0.027433
    14  H   -0.000002  -0.000019  -0.000000  -0.059498  -0.004650   0.005425
    15  H    0.001544  -0.000423  -0.000027   0.002420   0.000007  -0.000016
    16  H    0.385103  -0.055810  -0.050340  -0.000000  -0.000000  -0.000000
    17  H   -0.029113   0.365553  -0.007036  -0.000003   0.000034   0.000038
    18  H   -0.026838   0.365542   0.005238   0.000012   0.000233  -0.000006
    19  H   -0.026108   0.352062  -0.002602   0.000000   0.000002  -0.000000
    20  H   -0.027771  -0.007170   0.366805  -0.000000  -0.000000  -0.000000
    21  H   -0.027123  -0.002012   0.361352   0.000000   0.000000   0.000000
    22  H   -0.026832   0.005778   0.365893   0.000000  -0.000000   0.000000
    23  H   -0.000000  -0.000001  -0.000000   0.367787  -0.000064   0.004722
    24  H    0.000003  -0.000000  -0.000000   0.367874  -0.000209  -0.000057
    25  H    0.000000  -0.000000   0.000000   0.357918  -0.000049   0.000214
             13         14         15         16         17         18
     1  C    0.358502  -0.050184  -0.000174  -0.000000   0.000005  -0.000040
     2  C   -0.025996   0.371247  -0.003380   0.000008  -0.000011   0.000047
     3  O    0.003080  -0.041503  -0.042561  -0.000172   0.001028  -0.000368
     4  P    0.000072   0.003617   0.264873  -0.008045   0.000706   0.011015
     5  O    0.000002   0.007726  -0.030141   0.007119   0.000092   0.006189
     6  O    0.000000  -0.000055  -0.037843  -0.041333  -0.000212  -0.003197
     7  C   -0.000000  -0.000002   0.001544   0.385103  -0.029113  -0.026838
     8  C    0.000001  -0.000019  -0.000423  -0.055810   0.365553   0.365542
     9  C    0.000000  -0.000000  -0.000027  -0.050340  -0.007036   0.005238
    10  C   -0.001669  -0.059498   0.002420  -0.000000  -0.000003   0.000012
    11  H   -0.026102  -0.004650   0.000007  -0.000000   0.000034   0.000233
    12  H   -0.027433   0.005425  -0.000016  -0.000000   0.000038  -0.000006
    13  H    0.569215   0.000459   0.000012   0.000000   0.000001   0.000001
    14  H    0.000459   0.610519  -0.000893  -0.000004   0.000011   0.000001
    15  H    0.000012  -0.000893   0.876037  -0.000103  -0.000007   0.000116
    16  H    0.000000  -0.000004  -0.000103   0.604064   0.005503  -0.004605
    17  H    0.000001   0.000011  -0.000007   0.005503   0.559319  -0.030207
    18  H    0.000001   0.000001   0.000116  -0.004605  -0.030207   0.520036
    19  H    0.000000  -0.000001   0.000004   0.000449  -0.026882  -0.026199
    20  H    0.000000  -0.000000  -0.000007   0.005547   0.004706  -0.000064
    21  H   -0.000000  -0.000000   0.000002   0.000397   0.000229   0.000006
    22  H   -0.000000   0.000000  -0.000003  -0.004819  -0.000069  -0.000195
    23  H    0.000262   0.005679  -0.000057  -0.000000   0.000001  -0.000000
    24  H   -0.000013  -0.005455   0.000825   0.000000  -0.000000  -0.000001
    25  H    0.001747   0.001093   0.000042   0.000000  -0.000000   0.000000
             19         20         21         22         23         24
     1  C   -0.000001  -0.000000   0.000000   0.000000  -0.007400   0.005701
     2  C   -0.000002   0.000000  -0.000000  -0.000000  -0.028936  -0.030608
     3  O    0.000233  -0.000015   0.000001   0.000001   0.000543  -0.001348
     4  P   -0.000596  -0.000071   0.000108   0.000550   0.001172   0.001146
     5  O   -0.000021  -0.000001   0.000005  -0.000003   0.000009  -0.000126
     6  O    0.003377   0.000161   0.003110   0.001192  -0.000029  -0.000024
     7  C   -0.026108  -0.027771  -0.027123  -0.026832  -0.000000   0.000003
     8  C    0.352062  -0.007170  -0.002012   0.005778  -0.000001  -0.000000
     9  C   -0.002602   0.366805   0.361352   0.365893  -0.000000  -0.000000
    10  C    0.000000  -0.000000   0.000000   0.000000   0.367787   0.367874
    11  H    0.000002  -0.000000   0.000000  -0.000000  -0.000064  -0.000209
    12  H   -0.000000  -0.000000   0.000000   0.000000   0.004722  -0.000057
    13  H    0.000000   0.000000  -0.000000  -0.000000   0.000262  -0.000013
    14  H   -0.000001  -0.000000  -0.000000   0.000000   0.005679  -0.005455
    15  H    0.000004  -0.000007   0.000002  -0.000003  -0.000057   0.000825
    16  H    0.000449   0.005547   0.000397  -0.004819  -0.000000   0.000000
    17  H   -0.026882   0.004706   0.000229  -0.000069   0.000001  -0.000000
    18  H   -0.026199  -0.000064   0.000006  -0.000195  -0.000000  -0.000001
    19  H    0.582728   0.000168   0.001846  -0.000016   0.000000  -0.000000
    20  H    0.000168   0.562701  -0.027284  -0.031649  -0.000000  -0.000000
    21  H    0.001846  -0.027284   0.568553  -0.026973   0.000000   0.000000
    22  H   -0.000016  -0.031649  -0.026973   0.563955   0.000000   0.000000
    23  H    0.000000  -0.000000   0.000000   0.000000   0.553428  -0.034381
    24  H   -0.000000  -0.000000   0.000000   0.000000  -0.034381   0.578112
    25  H   -0.000000  -0.000000   0.000000  -0.000000  -0.024950  -0.026236
             25
     1  C   -0.002375
     2  C   -0.025049
     3  O    0.003506
     4  P    0.000192
     5  O   -0.000003
     6  O   -0.000001
     7  C    0.000000
     8  C   -0.000000
     9  C    0.000000
    10  C    0.357918
    11  H   -0.000049
    12  H    0.000214
    13  H    0.001747
    14  H    0.001093
    15  H    0.000042
    16  H    0.000000
    17  H   -0.000000
    18  H    0.000000
    19  H   -0.000000
    20  H   -0.000000
    21  H    0.000000
    22  H   -0.000000
    23  H   -0.024950
    24  H   -0.026236
    25  H    0.558890
 Mulliken atomic charges:
              1
     1  C   -0.450800
     2  C    0.126207
     3  O   -0.529198
     4  P    1.056817
     5  O   -0.575758
     6  O   -0.532978
     7  C    0.151005
     8  C   -0.473217
     9  C   -0.453296
    10  C   -0.465777
    11  H    0.161174
    12  H    0.156541
    13  H    0.147859
    14  H    0.156487
    15  H   -0.030250
    16  H    0.157042
    17  H    0.156312
    18  H    0.183281
    19  H    0.141556
    20  H    0.153945
    21  H    0.147784
    22  H    0.153189
    23  H    0.162217
    24  H    0.144797
    25  H    0.155060
 Sum of Mulliken atomic charges =  -0.00000
 Mulliken charges with hydrogens summed into heavy atoms:
              1
     1  C    0.014775
     2  C    0.282694
     3  O   -0.529198
     4  P    1.026568
     5  O   -0.575758
     6  O   -0.532978
     7  C    0.308046
     8  C    0.007933
     9  C    0.001622
    10  C   -0.003704
 Sum of Mulliken charges with hydrogens summed into heavy atoms =  -0.00000
 Electronic spatial extent (au):  <R**2>=           2155.3872
 Charge=             -0.0000 electrons
 Dipole moment (field-independent basis, Debye):
    X=              1.2771    Y=              0.8174    Z=             -1.8634  Tot=              2.4024
 Quadrupole moment (field-independent basis, Debye-Ang):
   XX=            -58.8987   YY=            -68.7146   ZZ=            -74.7962
   XY=             -1.8633   XZ=             -0.7056   YZ=              4.5980
 Traceless Quadrupole moment (field-independent basis, Debye-Ang):
   XX=              8.5711   YY=             -1.2448   ZZ=             -7.3263
   XY=             -1.8633   XZ=             -0.7056   YZ=              4.5980
 Octapole moment (field-independent basis, Debye-Ang**2):
  XXX=              1.8061  YYY=             -6.9560  ZZZ=             -6.8557  XYY=              0.9174
  XXY=              2.4765  XXZ=              5.3355  XZZ=              1.5454  YZZ=              7.0106
  YYZ=             -6.0568  XYZ=             -0.0614
 Hexadecapole moment (field-independent basis, Debye-Ang**3):
 XXXX=          -1949.9609 YYYY=           -522.5408 ZZZZ=           -313.4616 XXXY=              5.2089
 XXXZ=             -1.6339 YYYX=              4.3479 YYYZ=              5.7616 ZZZX=              1.4802
 ZZZY=              5.1812 XXYY=           -426.3685 XXZZ=           -393.8632 YYZZ=           -146.0149
 XXYZ=             -0.0708 YYXZ=              0.3126 ZZXY=              0.4319
 N-N= 7.199696889839D+02 E-N=-3.331993136172D+03  KE= 7.992186971358D+02
 No NMR shielding tensors so no spin-rotation constants.
 Leave Link  601 at Tue Oct  5 16:44:04 2021, MaxMem= 1073741824 cpu:       0.7
 (Enter /sw/target/amd/app/gaussian/Gaussian09RevA.02_gcc-4.9.2/g09/l701.exe)
 Compute integral first derivatives.
 ... and contract with generalized density number  0.
 Leave Link  701 at Tue Oct  5 16:44:05 2021, MaxMem= 1073741824 cpu:       0.7
 (Enter /sw/target/amd/app/gaussian/Gaussian09RevA.02_gcc-4.9.2/g09/l702.exe)
 L702 exits ... SP integral derivatives will be done elsewhere.
 Leave Link  702 at Tue Oct  5 16:44:05 2021, MaxMem= 1073741824 cpu:       0.0
 (Enter /sw/target/amd/app/gaussian/Gaussian09RevA.02_gcc-4.9.2/g09/l703.exe)
 Compute integral first derivatives, UseDBF=F ICtDFT=           0.
 Integral derivatives from FoFDir, PRISM(SPDF).
 Calling FoFJK, ICntrl=      2127 FMM=F ISym2X=0 I1Cent= 0 IOpClX= 0 NMat=1 NMatS=1 NMatT=0.
 FoFCou: FMM=F IPFlag=           0 FMFlag=      100000 FMFlg1=         800
         NFxFlg=           0 DoJE=F BraDBF=F KetDBF=F FulRan=T
         Omega=  0.000000  0.000000  1.000000  0.000000  0.000000 ICntrl=    2127 IOpCl=  0
         NMat0=    1 NMatS0=    1 NMatT0=    0 NMatD0=    1 NMtDS0=    0 NMtDT0=    0
         I1Cent=           0 NGrid=           0.
 Symmetry not used in FoFCou.
 Leave Link  703 at Tue Oct  5 16:44:13 2021, MaxMem= 1073741824 cpu:      32.5
 (Enter /sw/target/amd/app/gaussian/Gaussian09RevA.02_gcc-4.9.2/g09/l716.exe)
 Dipole        = 5.02431285D-01 3.21608106D-01-7.33112523D-01
 ***** Axes restored to original set *****
 -------------------------------------------------------------------
 Center     Atomic                   Forces (Hartrees/Bohr)
 Number     Number              X              Y              Z
 -------------------------------------------------------------------
      1        6          -0.005791722    0.002862035   -0.006806241
      2        6           0.007889490   -0.023485528    0.001214484
      3        8          -0.007097801    0.009729970    0.007654019
      4       15          -0.016234119    0.009447241   -0.038946957
      5        8           0.005506319   -0.004641894    0.025668041
      6        8           0.016532693   -0.011009205    0.024556539
      7        6          -0.017976896    0.009700049   -0.018295182
      8        6           0.005654201   -0.007517971   -0.005564386
      9        6           0.000204646    0.002616067    0.010382123
     10        6           0.004372245    0.003213456    0.006245932
     11        1           0.001159174   -0.000225693   -0.000756962
     12        1           0.001188999    0.000085614    0.002473458
     13        1           0.001183563    0.000841119    0.000281718
     14        1           0.000067403    0.001173856   -0.000426826
     15        1          -0.000228731    0.007913190   -0.003926326
     16        1           0.001928293   -0.001141496   -0.000961244
     17        1          -0.001954481    0.001746408    0.001089536
     18        1          -0.000589339    0.001197710   -0.000645402
     19        1          -0.001087352    0.002051641    0.000557540
     20        1           0.000279433   -0.001234253   -0.002358547
     21        1           0.001604055   -0.000484242   -0.000800376
     22        1           0.000243094    0.001417570   -0.000451982
     23        1          -0.000896501   -0.002115425   -0.001760911
     24        1           0.003459534   -0.001899830    0.001779666
     25        1           0.000583799   -0.000240385   -0.000201712
 -------------------------------------------------------------------
 Cartesian Forces:  Max     0.038946957 RMS     0.008712574
 Leave Link  716 at Tue Oct  5 16:44:13 2021, MaxMem= 1073741824 cpu:       0.0
 (Enter /sw/target/amd/app/gaussian/Gaussian09RevA.02_gcc-4.9.2/g09/l103.exe)

 GradGradGradGradGradGradGradGradGradGradGradGradGradGradGradGradGradGrad
 Berny optimization.
 Internal  Forces:  Max     0.023443793 RMS     0.005862171
 Search for a local minimum.
 Step number   1 out of a maximum of  126
 All quantities printed in internal units (Hartrees-Bohrs-Radians)
 RMS Force = .58622D-02 SwitMx=.10000D-02 MixMth= 1
 Mixed Optimization -- RFO/linear search
 Second derivative matrix not updated -- first step.
     Eigenvalues ---    0.00430   0.00441   0.00460   0.00470   0.01406
     Eigenvalues ---    0.01436   0.03102   0.03150   0.04556   0.04577
     Eigenvalues ---    0.04963   0.05137   0.05488   0.05493   0.05500
     Eigenvalues ---    0.05518   0.05619   0.05656   0.05668   0.05684
     Eigenvalues ---    0.07186   0.07210   0.11479   0.11900   0.12799
     Eigenvalues ---    0.16000   0.16000   0.16000   0.16000   0.16000
     Eigenvalues ---    0.16000   0.16000   0.16000   0.16000   0.16000
     Eigenvalues ---    0.16000   0.16000   0.16189   0.16269   0.19554
     Eigenvalues ---    0.19775   0.19934   0.21574   0.24197   0.25000
     Eigenvalues ---    0.25000   0.29850   0.29931   0.30064   0.30136
     Eigenvalues ---    0.34001   0.34032   0.34157   0.34164   0.34218
     Eigenvalues ---    0.34224   0.34227   0.34228   0.34278   0.34320
     Eigenvalues ---    0.34329   0.34330   0.34394   0.34394   0.42219
     Eigenvalues ---    0.42565   0.46933   0.47557   0.763141000.00000
     Eigenvalues --- 1000.000001000.000001000.000001000.000001000.00000
     Eigenvalues --- 1000.000001000.000001000.000001000.000001000.00000
     Eigenvalues --- 1000.000001000.000001000.000001000.000001000.00000
     Eigenvalues --- 1000.000001000.000001000.000001000.000001000.00000
     Eigenvalues --- 1000.000001000.000001000.000001000.000001000.00000
     Eigenvalues --- 1000.000001000.000001000.000001000.000001000.00000
     Eigenvalues --- 1000.000001000.000001000.000001000.000001000.00000
     Eigenvalues --- 1000.000001000.000001000.000001000.000001000.00000
     Eigenvalues --- 1000.000001000.000001000.000001000.000001000.00000
     Eigenvalues --- 1000.00000
 RFO step:  Lambda=-1.96086220D-02 EMin= 4.29625716D-03
 Linear search not attempted -- first point.
 Maximum step size (   0.300) exceeded in Quadratic search.
    -- Step size scaled by   0.784
 Iteration  1 RMS(Cart)=  0.11685928 RMS(Int)=  0.00290566
 Iteration  2 RMS(Cart)=  0.00479595 RMS(Int)=  0.00079412
 Iteration  3 RMS(Cart)=  0.00001118 RMS(Int)=  0.00079409
 Iteration  4 RMS(Cart)=  0.00000002 RMS(Int)=  0.00079409
 Variable       Old X    -DE/DX   Delta X   Delta X   Delta X     New X
                                 (Linear)    (Quad)   (Total)
    R1        2.88264   0.00014   0.00000   0.00035   0.00035   2.88299
    R2        2.06963   0.00032   0.00000   0.00070   0.00070   2.07033
    R3        2.07054   0.00026   0.00000   0.00056   0.00056   2.07110
    R4        2.06777   0.00005   0.00000   0.00011   0.00011   2.06788
    R5        2.68210   0.02344   0.00000   0.04130   0.04130   2.72340
    R6        2.87694   0.00818   0.00000   0.01998   0.01998   2.89692
    R7        2.07329   0.00062   0.00000   0.00134   0.00134   2.07463
    R8        3.06793   0.00549   0.00000   0.00881   0.00881   3.07674
    R9        2.83667  -0.01842   0.00000  -0.01845  -0.01845   2.81821
   R10        3.06114  -0.00455   0.00000  -0.00721  -0.00721   3.05393
   R11        2.66312  -0.00423   0.00000  -0.01411  -0.01411   2.64901
   R12        2.68646   0.02226   0.00000   0.03951   0.03951   2.72597
   R13        2.87836   0.00444   0.00000   0.01088   0.01088   2.88924
   R14        2.88101   0.00135   0.00000   0.00332   0.00332   2.88432
   R15        2.06949   0.00073   0.00000   0.00158   0.00158   2.07106
   R16        2.06947   0.00011   0.00000   0.00025   0.00025   2.06972
   R17        2.06793  -0.00069   0.00000  -0.00150  -0.00150   2.06643
   R18        2.06670   0.00099   0.00000   0.00213   0.00213   2.06883
   R19        2.07275  -0.00045   0.00000  -0.00099  -0.00099   2.07177
   R20        2.06863  -0.00044   0.00000  -0.00095  -0.00095   2.06768
   R21        2.06955   0.00076   0.00000   0.00164   0.00164   2.07119
   R22        2.07066   0.00001   0.00000   0.00002   0.00002   2.07068
   R23        2.06778   0.00097   0.00000   0.00209   0.00209   2.06987
   R24        2.06670   0.00054   0.00000   0.00117   0.00117   2.06786
    A1        1.92910   0.00084   0.00000   0.00597   0.00599   1.93509
    A2        1.93431  -0.00210   0.00000  -0.00842  -0.00848   1.92583
    A3        1.94450  -0.00208   0.00000  -0.01217  -0.01222   1.93228
    A4        1.86229   0.00192   0.00000   0.01443   0.01444   1.87672
    A5        1.89498   0.00032   0.00000  -0.00005  -0.00004   1.89494
    A6        1.89623   0.00132   0.00000   0.00145   0.00133   1.89756
    A7        1.88074  -0.00672   0.00000  -0.02469  -0.02529   1.85545
    A8        1.92608   0.00245   0.00000   0.01465   0.01474   1.94081
    A9        1.90708   0.00035   0.00000  -0.00950  -0.00975   1.89733
   A10        1.91027   0.00734   0.00000   0.04070   0.04086   1.95113
   A11        1.91360  -0.00119   0.00000  -0.01608  -0.01644   1.89716
   A12        1.92552  -0.00235   0.00000  -0.00574  -0.00559   1.91993
   A13        2.06494   0.01675   0.00000   0.04874   0.04874   2.11368
   A14        1.94906   0.01003   0.00000   0.05929   0.05511   2.00417
   A15        1.74407   0.00982   0.00000   0.05246   0.04902   1.79309
   A16        1.80813  -0.00025   0.00000   0.00224   0.00281   1.81094
   A17        1.96697   0.01312   0.00000   0.06564   0.06137   2.02834
   A18        2.14650  -0.01543   0.00000  -0.08814  -0.08776   2.05874
   A19        1.80019  -0.01403   0.00000  -0.07281  -0.07297   1.72721
   A20        2.08982   0.01415   0.00000   0.04115   0.04115   2.13097
   A21        1.95003   0.00407   0.00000   0.02097   0.02115   1.97118
   A22        1.87069  -0.00668   0.00000  -0.02588  -0.02615   1.84454
   A23        1.89544   0.00001   0.00000  -0.00996  -0.01004   1.88541
   A24        1.92396   0.00472   0.00000   0.02045   0.02050   1.94447
   A25        1.92148  -0.00292   0.00000  -0.00845  -0.00844   1.91304
   A26        1.90086   0.00063   0.00000   0.00182   0.00169   1.90255
   A27        1.93848  -0.00187   0.00000  -0.00816  -0.00828   1.93020
   A28        1.93797   0.00140   0.00000   0.00986   0.00988   1.94785
   A29        1.94017  -0.00311   0.00000  -0.01736  -0.01745   1.92272
   A30        1.86620   0.00178   0.00000   0.01503   0.01502   1.88122
   A31        1.90078   0.00121   0.00000  -0.00169  -0.00191   1.89887
   A32        1.87757   0.00087   0.00000   0.00375   0.00380   1.88137
   A33        1.93669  -0.00157   0.00000  -0.00598  -0.00606   1.93063
   A34        1.94362  -0.00275   0.00000  -0.01549  -0.01555   1.92807
   A35        1.93087   0.00110   0.00000   0.00739   0.00739   1.93826
   A36        1.89586   0.00129   0.00000   0.00082   0.00069   1.89654
   A37        1.86133   0.00169   0.00000   0.01421   0.01420   1.87553
   A38        1.89292   0.00048   0.00000   0.00036   0.00038   1.89331
   A39        1.93208  -0.00257   0.00000  -0.01036  -0.01050   1.92158
   A40        1.93301   0.00521   0.00000   0.02678   0.02679   1.95980
   A41        1.94649  -0.00137   0.00000  -0.01095  -0.01100   1.93549
   A42        1.86218   0.00074   0.00000   0.01303   0.01296   1.87514
   A43        1.90218   0.00051   0.00000  -0.00533  -0.00553   1.89665
   A44        1.88525  -0.00247   0.00000  -0.01254  -0.01245   1.87280
    D1        1.08460  -0.00334   0.00000  -0.02782  -0.02763   1.05697
    D2       -3.11367   0.00290   0.00000   0.01502   0.01493  -3.09875
    D3       -0.99352   0.00177   0.00000   0.01105   0.01095  -0.98257
    D4       -0.97637  -0.00493   0.00000  -0.04420  -0.04398  -1.02035
    D5        1.10854   0.00131   0.00000  -0.00136  -0.00142   1.10712
    D6       -3.05449   0.00018   0.00000  -0.00533  -0.00540  -3.05989
    D7       -3.09005  -0.00376   0.00000  -0.03197  -0.03182  -3.12187
    D8       -1.00514   0.00248   0.00000   0.01086   0.01074  -0.99440
    D9        1.11502   0.00135   0.00000   0.00690   0.00676   1.12178
   D10       -2.90536   0.00432   0.00000   0.06359   0.06325  -2.84210
   D11        1.28290   0.00113   0.00000   0.03719   0.03729   1.32019
   D12       -0.83140   0.00016   0.00000   0.02872   0.02896  -0.80245
   D13       -1.14523   0.00243   0.00000   0.01134   0.01112  -1.13411
   D14        3.07605  -0.00016   0.00000  -0.01520  -0.01543   3.06062
   D15        0.97585   0.00036   0.00000  -0.01016  -0.01028   0.96557
   D16        0.92171   0.00017   0.00000   0.01487   0.01502   0.93673
   D17       -1.14020  -0.00241   0.00000  -0.01167  -0.01154  -1.15173
   D18        3.04279  -0.00190   0.00000  -0.00663  -0.00638   3.03641
   D19        3.02878   0.00192   0.00000   0.01741   0.01740   3.04618
   D20        0.96688  -0.00067   0.00000  -0.00913  -0.00915   0.95772
   D21       -1.13332  -0.00015   0.00000  -0.00409  -0.00400  -1.13732
   D22        1.21568  -0.01531   0.00000  -0.10844  -0.11091   1.10477
   D23       -2.98334   0.00958   0.00000   0.02182   0.02374  -2.95960
   D24       -1.12892  -0.00237   0.00000  -0.03886  -0.03830  -1.16722
   D25       -1.55944  -0.00900   0.00000  -0.05876  -0.06150  -1.62094
   D26        0.51157   0.01393   0.00000   0.06847   0.07081   0.58238
   D27        2.86293  -0.00810   0.00000  -0.05828  -0.05788   2.80505
   D28        1.05872   0.00079   0.00000   0.04857   0.04865   1.10736
   D29       -3.11505   0.00470   0.00000   0.06951   0.06929  -3.04576
   D30       -1.06400   0.00183   0.00000   0.05244   0.05259  -1.01141
   D31        0.92690   0.00020   0.00000   0.01463   0.01468   0.94158
   D32       -1.14730  -0.00172   0.00000  -0.00532  -0.00523  -1.15253
   D33        3.04627  -0.00168   0.00000  -0.00509  -0.00491   3.04136
   D34       -1.15122   0.00285   0.00000   0.02009   0.01991  -1.13131
   D35        3.05777   0.00092   0.00000   0.00013  -0.00001   3.05776
   D36        0.96815   0.00096   0.00000   0.00037   0.00031   0.96847
   D37        3.03451   0.00092   0.00000   0.01019   0.01014   3.04465
   D38        0.96031  -0.00100   0.00000  -0.00977  -0.00977   0.95054
   D39       -1.12930  -0.00096   0.00000  -0.00954  -0.00945  -1.13875
   D40       -1.01300  -0.00358   0.00000  -0.03420  -0.03407  -1.04707
   D41       -3.12723  -0.00226   0.00000  -0.02053  -0.02047   3.13548
   D42        1.04941  -0.00177   0.00000  -0.01562  -0.01551   1.03390
   D43        1.11284  -0.00000   0.00000  -0.01271  -0.01278   1.10006
   D44       -1.00140   0.00131   0.00000   0.00096   0.00082  -1.00058
   D45       -3.10794   0.00180   0.00000   0.00587   0.00578  -3.10216
   D46       -3.06051  -0.00027   0.00000  -0.00930  -0.00926  -3.06977
   D47        1.10844   0.00104   0.00000   0.00438   0.00434   1.11278
   D48       -0.99810   0.00153   0.00000   0.00929   0.00930  -0.98880
         Item               Value     Threshold  Converged?
 Maximum Force            0.023444     0.000450     NO 
 RMS     Force            0.005862     0.000300     NO 
 Maximum Displacement     0.355238     0.001800     NO 
 RMS     Displacement     0.115522     0.001200     NO 
 Predicted change in Energy=-1.034900D-02
 GradGradGradGradGradGradGradGradGradGradGradGradGradGradGradGradGradGrad

 Leave Link  103 at Tue Oct  5 16:44:13 2021, MaxMem= 1073741824 cpu:       1.2
 (Enter /sw/target/amd/app/gaussian/Gaussian09RevA.02_gcc-4.9.2/g09/l202.exe)
                          Input orientation:                          
 ---------------------------------------------------------------------
 Center     Atomic      Atomic             Coordinates (Angstroms)
 Number     Number       Type             X           Y           Z
 ---------------------------------------------------------------------
      1          6           0        2.635106   -2.127353    1.174412
      2          6           0        3.302919   -0.933310    1.849524
      3          8           0        2.331665    0.131377    1.841770
      4         15           0        2.776879    1.677846    2.088872
      5          8           0        3.692714    2.238851    1.054176
      6          8           0        1.359242    2.431839    2.271849
      7          6           0        0.670247    3.047960    1.164353
      8          6           0        0.244358    2.042788    0.093915
      9          6           0       -0.535800    3.758689    1.772602
     10          6           0        3.753915   -1.281846    3.272607
     11          1           0        2.354065   -1.885957    0.143381
     12          1           0        1.719869   -2.404886    1.709657
     13          1           0        3.308403   -2.989838    1.159292
     14          1           0        4.167158   -0.625731    1.246407
     15          1           0        3.205684    1.692175    3.423394
     16          1           0        1.339161    3.794996    0.722067
     17          1           0       -0.344631    1.233290    0.538183
     18          1           0        1.108584    1.593265   -0.402874
     19          1           0       -0.360297    2.539990   -0.671408
     20          1           0       -1.187154    3.042311    2.286879
     21          1           0       -1.115825    4.262776    0.993711
     22          1           0       -0.221698    4.505948    2.510310
     23          1           0        2.882726   -1.494984    3.902119
     24          1           0        4.307875   -0.463475    3.744982
     25          1           0        4.407914   -2.159170    3.270900
 ---------------------------------------------------------------------
                    Distance matrix (angstroms):
                    1          2          3          4          5
     1  C    0.000000
     2  C    1.525610   0.000000
     3  O    2.374721   1.441163   0.000000
     4  P    3.916104   2.674348   1.628140   0.000000
     5  O    4.494077   3.293498   2.629488   1.491334   0.000000
     6  O    4.859879   3.909023   2.534305   1.616070   2.639141
     7  C    5.535760   4.821922   3.424276   2.677657   3.130832
     8  C    4.926786   4.614555   3.326461   3.244488   3.584928
     9  C    6.712522   6.062716   4.624341   3.924764   4.550426
    10  C    2.523695   1.532983   2.463186   3.334007   4.161789
    11  H    1.095574   2.172277   2.637170   4.082205   4.431204
    12  H    1.095979   2.165904   2.612351   4.234356   5.087835
    13  H    1.094275   2.169275   3.340924   4.788935   5.243847
    14  H    2.146447   1.097846   2.072850   2.819413   2.909962
    15  H    4.469034   3.062628   2.387788   1.401795   2.479767
    16  H    6.079334   5.242556   3.957387   2.901296   2.840968
    17  H    4.536247   4.440539   3.174289   3.513700   4.192559
    18  H    4.319849   4.033855   2.944737   2.999860   3.036034
    19  H    5.844961   5.642522   4.400470   4.266650   4.415339
    20  H    6.524774   6.013119   4.588437   4.196967   5.096884
    21  H    7.411875   6.874375   5.447280   4.799415   5.217469
    22  H    7.344837   6.514990   5.109157   4.143337   4.752124
    23  H    2.810977   2.169144   2.682117   3.655943   4.765332
    24  H    3.489194   2.196233   2.807395   3.109968   3.862826
    25  H    2.745746   2.178085   3.405852   4.333608   4.976742
                    6          7          8          9         10
     6  O    0.000000
     7  C    1.442521   0.000000
     8  C    2.477442   1.528918   0.000000
     9  C    2.366635   1.526319   2.524074   0.000000
    10  C    4.530721   5.718476   5.785695   6.786653   0.000000
    11  H    4.915629   5.312360   4.459636   6.547344   3.480889
    12  H    4.882624   5.579659   4.956769   6.563662   2.800245
    13  H    5.867843   6.588998   5.987547   7.790806   2.753510
    14  H    4.276057   5.072586   4.882376   6.451189   2.169503
    15  H    2.298370   3.656482   4.469654   4.581953   3.027886
    16  H    2.064080   1.095959   2.159491   2.149516   6.173380
    17  H    2.710220   2.171426   1.095248   2.817441   5.531823
    18  H    2.814281   2.182769   1.093507   3.482205   5.364065
    19  H    3.410464   2.165657   1.094776   2.736643   6.862100
    20  H    2.618594   2.170262   2.803099   1.096331   6.639590
    21  H    3.333455   2.166783   2.754647   1.094168   7.723378
    22  H    2.618810   2.175522   3.481858   1.096025   7.062943
    23  H    4.516494   5.747066   5.829171   6.619837   1.095758
    24  H    4.387186   5.676456   6.010309   6.721468   1.095326
    25  H    5.600881   6.746992   6.714528   7.855333   1.094265
                   11         12         13         14         15
    11  H    0.000000
    12  H    1.767685   0.000000
    13  H    1.778030   1.780030   0.000000
    14  H    2.468227   3.060918   2.516754   0.000000
    15  H    4.928161   4.682995   5.201725   3.322107   0.000000
    16  H    5.799840   6.289580   7.078351   5.274024   3.899094
    17  H    4.143493   4.344058   5.618295   4.930901   4.597798
    18  H    3.735586   4.563077   5.318308   4.122978   4.364394
    19  H    5.255535   5.869272   6.884026   5.847876   5.495671
    20  H    6.436043   6.201284   7.607122   6.573111   4.734085
    21  H    7.111267   7.280897   8.497154   7.202171   5.584513
    22  H    7.286520   7.222905   8.394860   6.869763   4.527471
    23  H    3.815817   2.643302   3.152600   3.075415   3.239053
    24  H    4.337322   3.822224   3.750632   2.507789   2.442349
    25  H    3.751576   3.118243   2.521472   2.551073   4.037508
                   16         17         18         19         20
    16  H    0.000000
    17  H    3.071043   0.000000
    18  H    2.483199   1.768334   0.000000
    19  H    2.530803   1.780679   1.768052   0.000000
    20  H    3.065525   2.653364   3.821639   3.112472   0.000000
    21  H    2.513874   3.159119   3.744962   2.512258   1.779581
    22  H    2.477811   3.822916   4.328974   3.742664   1.767558
    23  H    6.362328   5.401423   5.587292   6.907630   6.305551
    24  H    6.007150   5.899862   5.627641   7.093456   6.679217
    25  H    7.167000   6.446954   6.201852   7.769152   7.702499
                   21         22         23         24         25
    21  H    0.000000
    22  H    1.777264   0.000000
    23  H    7.589404   6.898244   0.000000
    24  H    7.702172   6.836418   1.766282   0.000000
    25  H    8.771469   8.150804   1.779264   1.763560   0.000000
 Stoichiometry    C6H15O3P
 Framework group  C1[X(C6H15O3P)]
 Deg. of freedom    69
[...]
    17  H   -0.020247   0.006020   0.000930   0.000340   0.000000   0.000000
    18  H    0.001171   0.000257   0.000715   0.000216   0.000020   0.000008
    19  H    0.583814   0.000557   0.005096   0.000632   0.000000   0.000000
    20  H    0.000557   0.559874  -0.023129  -0.023695   0.000000   0.000000
    21  H    0.005096  -0.023129   0.574715  -0.010822   0.000000   0.000000
    22  H    0.000632  -0.023695  -0.010822   0.610498   0.000000   0.000000
    23  H    0.000000   0.000000   0.000000   0.000000   0.570505  -0.021410
    24  H    0.000000   0.000000   0.000000   0.000000  -0.021410   0.608724
    25  H    0.000000   0.000000   0.000000   0.000000  -0.015088  -0.001498
             25
     1  C   -0.007787
     2  C   -0.059423
     3  O    0.001997
     4  P    0.007780
     5  O   -0.000176
     6  O   -0.000000
     7  C   -0.000001
     8  C   -0.000000
     9  C    0.000000
    10  C    0.268396
    11  H    0.001329
    12  H    0.001949
    13  H    0.014056
    14  H    0.013450
    15  H   -0.000214
    16  H    0.000004
    17  H    0.000000
    18  H    0.000003
    19  H    0.000000
    20  H    0.000000
    21  H    0.000000
    22  H    0.000000
    23  H   -0.015088
    24  H   -0.001498
    25  H    0.644993
 Mulliken atomic charges:
              1
     1  C   -0.421954
     2  C    0.148372
     3  O   -0.472190
     4  P    0.723298
     5  O   -0.237813
     6  O   -0.432070
     7  C    0.160147
     8  C   -0.432628
     9  C   -0.444116
    10  C   -0.434560
    11  H    0.127401
    12  H    0.144772
    13  H    0.119538
    14  H    0.116028
    15  H   -0.020493
    16  H    0.052635
    17  H    0.150835
    18  H    0.144640
    19  H    0.147465
    20  H    0.154893
    21  H    0.150271
    22  H    0.145088
    23  H    0.148973
    24  H    0.131237
    25  H    0.130231
 Sum of Mulliken atomic charges =  -0.00000
 Mulliken charges with hydrogens summed into heavy atoms:
              1
     1  C   -0.030243
     2  C    0.264400
     3  O   -0.472190
     4  P    0.702804
     5  O   -0.237813
     6  O   -0.432070
     7  C    0.212782
     8  C    0.010312
     9  C    0.006135
    10  C   -0.024119
 Sum of Mulliken charges with hydrogens summed into heavy atoms =  -0.00000
 Electronic spatial extent (au):  <R**2>=           2208.0801
 Charge=              0.0000 electrons
 Dipole moment (field-independent basis, Debye):
    X=             -0.8097    Y=              0.3178    Z=             -0.9480  Tot=              1.2866
 Quadrupole moment (field-independent basis, Debye-Ang):
   XX=            -65.6381   YY=            -71.5722   ZZ=            -72.9209
   XY=             -1.3411   XZ=             -0.6567   YZ=              2.7097
 Traceless Quadrupole moment (field-independent basis, Debye-Ang):
   XX=              4.4056   YY=             -1.5284   ZZ=             -2.8772
   XY=             -1.3411   XZ=             -0.6567   YZ=              2.7097
 Octapole moment (field-independent basis, Debye-Ang**2):
  XXX=            -13.1712  YYY=             -6.2288  ZZZ=             -5.7721  XYY=             -5.6960
  XXY=              1.6869  XXZ=              2.4786  XZZ=             -0.5536  YZZ=             -0.2889
  YYZ=             -7.2900  XYZ=             -0.1843
 Hexadecapole moment (field-independent basis, Debye-Ang**3):
 XXXX=          -2088.9447 YYYY=           -661.0731 ZZZZ=           -248.0843 XXXY=             -9.7645
 XXXZ=              1.5132 YYYX=              1.4644 YYYZ=              4.4956 ZZZX=              3.0156
 ZZZY=             -6.0445 XXYY=           -460.0367 XXZZ=           -387.3151 YYZZ=           -153.0798
 XXYZ=             -3.5022 YYXZ=             -5.5820 ZZXY=             -2.0353
 N-N= 7.115878293324D+02 E-N=-3.313868867350D+03  KE= 7.995289176549D+02
 No NMR shielding tensors so no spin-rotation constants.
 Leave Link  601 at Tue Oct  5 17:18:16 2021, MaxMem= 1073741824 cpu:       0.8
 (Enter /sw/target/amd/app/gaussian/Gaussian09RevA.02_gcc-4.9.2/g09/l604.exe)
 Evaluate density.
 Using the total density.
 Monte-Carlo method of calculating molar volume:
 based on  0.001 e/bohr**3 density envelope.
 Number of points per bohr**3 =   20 CutOff= 1.00D-04
 Using the CI density.
 There are       435 points.  Will hold       435 in memory.
 LenV=  1073626004 MDV=  1073741824.
 Box volume =10349.132 fraction occupied=0.120
 Integrated density= 4.0574297665830336D+01 error=-4.9425702334169664D+01
 Molar volume = 1237.138 bohr**3/mol (110.401 cm**3/mol)
 Recommended a0 for SCRF calculation =  4.38 angstrom (  8.27 bohr)
 Leave Link  604 at Tue Oct  5 17:18:17 2021, MaxMem= 1073741824 cpu:       0.2
 (Enter /sw/target/amd/app/gaussian/Gaussian09RevA.02_gcc-4.9.2/g09/l607.exe)
 ******************************Gaussian NBO Version 3.1******************************
             N A T U R A L   A T O M I C   O R B I T A L   A N D
          N A T U R A L   B O N D   O R B I T A L   A N A L Y S I S
 ******************************Gaussian NBO Version 3.1******************************
       /RESON  / : Allow strongly delocalized NBO set

 Analyzing the CI density

 Job title: CC(OP(=O)OC(C)C)C_conf_0                                        

 Storage needed:    103652 in NPA (1073738449 available)


 NATURAL POPULATIONS:  Natural atomic orbital occupancies 
                                                          
   NAO  Atom  No  lang   Type(AO)    Occupancy
 --------------------------------------------
     1    C    1  S      Cor( 1S)     1.99938
     2    C    1  S      Val( 2S)     1.11106
     3    C    1  S      Ryd( 3S)     0.00062
     4    C    1  S      Ryd( 4S)     0.00002
     5    C    1  px     Val( 2p)     1.24262
     6    C    1  px     Ryd( 3p)     0.00235
     7    C    1  py     Val( 2p)     1.08845
     8    C    1  py     Ryd( 3p)     0.00245
     9    C    1  pz     Val( 2p)     1.24263
    10    C    1  pz     Ryd( 3p)     0.00195
    11    C    1  dxy    Ryd( 3d)     0.00035
    12    C    1  dxz    Ryd( 3d)     0.00088
    13    C    1  dyz    Ryd( 3d)     0.00076
    14    C    1  dx2y2  Ryd( 3d)     0.00083
    15    C    1  dz2    Ryd( 3d)     0.00041

    16    C    2  S      Cor( 1S)     1.99917
    17    C    2  S      Val( 2S)     0.97297
    18    C    2  S      Ryd( 3S)     0.00235
    19    C    2  S      Ryd( 4S)     0.00006
    20    C    2  px     Val( 2p)     0.77537
    21    C    2  px     Ryd( 3p)     0.00422
    22    C    2  py     Val( 2p)     1.09459
    23    C    2  py     Ryd( 3p)     0.00323
    24    C    2  pz     Val( 2p)     1.06222
    25    C    2  pz     Ryd( 3p)     0.00317
    26    C    2  dxy    Ryd( 3d)     0.00105
    27    C    2  dxz    Ryd( 3d)     0.00159
    28    C    2  dyz    Ryd( 3d)     0.00119
    29    C    2  dx2y2  Ryd( 3d)     0.00161
    30    C    2  dz2    Ryd( 3d)     0.00109

    31    O    3  S      Cor( 1S)     1.99980
    32    O    3  S      Val( 2S)     1.70405
    33    O    3  S      Ryd( 3S)     0.00185
    34    O    3  S      Ryd( 4S)     0.00046
    35    O    3  px     Val( 2p)     1.57944
    36    O    3  px     Ryd( 3p)     0.00114
    37    O    3  py     Val( 2p)     1.69439
    38    O    3  py     Ryd( 3p)     0.00190
    39    O    3  pz     Val( 2p)     1.82483
    40    O    3  pz     Ryd( 3p)     0.00154
    41    O    3  dxy    Ryd( 3d)     0.00080
    42    O    3  dxz    Ryd( 3d)     0.00078
    43    O    3  dyz    Ryd( 3d)     0.00113
    44    O    3  dx2y2  Ryd( 3d)     0.00092
    45    O    3  dz2    Ryd( 3d)     0.00080

    46    P    4  S      Cor( 1S)     2.00000
    47    P    4  S      Cor( 2S)     1.99923
    48    P    4  S      Val( 3S)     1.09429
    49    P    4  S      Ryd( 4S)     0.04344
    50    P    4  S      Ryd( 5S)     0.00023
    51    P    4  px     Cor( 2p)     1.99983
    52    P    4  px     Val( 3p)     0.51536
    53    P    4  px     Ryd( 4p)     0.01170
    54    P    4  py     Cor( 2p)     1.99987
    55    P    4  py     Val( 3p)     0.58687
    56    P    4  py     Ryd( 4p)     0.00807
    57    P    4  pz     Cor( 2p)     1.99991
    58    P    4  pz     Val( 3p)     0.74306
    59    P    4  pz     Ryd( 4p)     0.03859
    60    P    4  dxy    Ryd( 3d)     0.02046
    61    P    4  dxz    Ryd( 3d)     0.01692
    62    P    4  dyz    Ryd( 3d)     0.03102
    63    P    4  dx2y2  Ryd( 3d)     0.01592
    64    P    4  dz2    Ryd( 3d)     0.02710

    65    O    5  S      Cor( 1S)     1.99991
    66    O    5  S      Val( 2S)     1.85515
    67    O    5  S      Ryd( 3S)     0.00729
    68    O    5  S      Ryd( 4S)     0.00014
    69    O    5  px     Val( 2p)     1.35927
    70    O    5  px     Ryd( 3p)     0.00043
    71    O    5  py     Val( 2p)     1.74172
    72    O    5  py     Ryd( 3p)     0.00023
    73    O    5  pz     Val( 2p)     1.70775
    74    O    5  pz     Ryd( 3p)     0.00019
    75    O    5  dxy    Ryd( 3d)     0.00093
    76    O    5  dxz    Ryd( 3d)     0.00296
    77    O    5  dyz    Ryd( 3d)     0.00629
    78    O    5  dx2y2  Ryd( 3d)     0.00120
    79    O    5  dz2    Ryd( 3d)     0.00631

    80    O    6  S      Cor( 1S)     1.99982
    81    O    6  S      Val( 2S)     1.69634
    82    O    6  S      Ryd( 3S)     0.00268
    83    O    6  S      Ryd( 4S)     0.00014
    84    O    6  px     Val( 2p)     1.66795
    85    O    6  px     Ryd( 3p)     0.00121
    86    O    6  py     Val( 2p)     1.63174
    87    O    6  py     Ryd( 3p)     0.00116
    88    O    6  pz     Val( 2p)     1.71416
    89    O    6  pz     Ryd( 3p)     0.00175
    90    O    6  dxy    Ryd( 3d)     0.00076
    91    O    6  dxz    Ryd( 3d)     0.00107
    92    O    6  dyz    Ryd( 3d)     0.00117
    93    O    6  dx2y2  Ryd( 3d)     0.00050
    94    O    6  dz2    Ryd( 3d)     0.00124

    95    C    7  S      Cor( 1S)     1.99913
    96    C    7  S      Val( 2S)     0.99129
    97    C    7  S      Ryd( 3S)     0.00244
    98    C    7  S      Ryd( 4S)     0.00007
    99    C    7  px     Val( 2p)     1.00103
   100    C    7  px     Ryd( 3p)     0.00579
   101    C    7  py     Val( 2p)     0.88803
   102    C    7  py     Ryd( 3p)     0.00335
   103    C    7  pz     Val( 2p)     1.01587
   104    C    7  pz     Ryd( 3p)     0.00537
   105    C    7  dxy    Ryd( 3d)     0.00127
   106    C    7  dxz    Ryd( 3d)     0.00151
   107    C    7  dyz    Ryd( 3d)     0.00135
   108    C    7  dx2y2  Ryd( 3d)     0.00107
   109    C    7  dz2    Ryd( 3d)     0.00106

   110    C    8  S      Cor( 1S)     1.99936
   111    C    8  S      Val( 2S)     1.11477
   112    C    8  S      Ryd( 3S)     0.00046
   113    C    8  S      Ryd( 4S)     0.00002
   114    C    8  px     Val( 2p)     1.26188
   115    C    8  px     Ryd( 3p)     0.00242
   116    C    8  py     Val( 2p)     1.09105
   117    C    8  py     Ryd( 3p)     0.00219
   118    C    8  pz     Val( 2p)     1.21740
   119    C    8  pz     Ryd( 3p)     0.00182
   120    C    8  dxy    Ryd( 3d)     0.00059
   121    C    8  dxz    Ryd( 3d)     0.00077
   122    C    8  dyz    Ryd( 3d)     0.00063
   123    C    8  dx2y2  Ryd( 3d)     0.00067
   124    C    8  dz2    Ryd( 3d)     0.00058

   125    C    9  S      Cor( 1S)     1.99937
   126    C    9  S      Val( 2S)     1.10968
   127    C    9  S      Ryd( 3S)     0.00051
   128    C    9  S      Ryd( 4S)     0.00002
   129    C    9  px     Val( 2p)     1.10577
   130    C    9  px     Ryd( 3p)     0.00281
   131    C    9  py     Val( 2p)     1.22722
   132    C    9  py     Ryd( 3p)     0.00280
   133    C    9  pz     Val( 2p)     1.24459
   134    C    9  pz     Ryd( 3p)     0.00146
   135    C    9  dxy    Ryd( 3d)     0.00051
   136    C    9  dxz    Ryd( 3d)     0.00081
   137    C    9  dyz    Ryd( 3d)     0.00075
   138    C    9  dx2y2  Ryd( 3d)     0.00068
   139    C    9  dz2    Ryd( 3d)     0.00047

   140    C   10  S      Cor( 1S)     1.99938
   141    C   10  S      Val( 2S)     1.11430
   142    C   10  S      Ryd( 3S)     0.00053
   143    C   10  S      Ryd( 4S)     0.00002
   144    C   10  px     Val( 2p)     1.15551
   145    C   10  px     Ryd( 3p)     0.00325
   146    C   10  py     Val( 2p)     1.21819
   147    C   10  py     Ryd( 3p)     0.00252
   148    C   10  pz     Val( 2p)     1.20092
   149    C   10  pz     Ryd( 3p)     0.00158
   150    C   10  dxy    Ryd( 3d)     0.00029
   151    C   10  dxz    Ryd( 3d)     0.00077
   152    C   10  dyz    Ryd( 3d)     0.00060
   153    C   10  dx2y2  Ryd( 3d)     0.00095
   154    C   10  dz2    Ryd( 3d)     0.00065

   155    H   11  S      Val( 1S)     0.76804
   156    H   11  S      Ryd( 2S)     0.01471

   157    H   12  S      Val( 1S)     0.76542
   158    H   12  S      Ryd( 2S)     0.00387

   159    H   13  S      Val( 1S)     0.77625
   160    H   13  S      Ryd( 2S)     0.00930

   161    H   14  S      Val( 1S)     0.78506
   162    H   14  S      Ryd( 2S)     0.01529

   163    H   15  S      Val( 1S)     1.05511
   164    H   15  S      Ryd( 2S)     0.00273

   165    H   16  S      Val( 1S)     0.80511
   166    H   16  S      Ryd( 2S)     0.05375

   167    H   17  S      Val( 1S)     0.76440
   168    H   17  S      Ryd( 2S)     0.00267

   169    H   18  S      Val( 1S)     0.76059
   170    H   18  S      Ryd( 2S)     0.01369

   171    H   19  S      Val( 1S)     0.75870
   172    H   19  S      Ryd( 2S)     0.00429

   173    H   20  S      Val( 1S)     0.76256
   174    H   20  S      Ryd( 2S)     0.00204

   175    H   21  S      Val( 1S)     0.75845
   176    H   21  S      Ryd( 2S)     0.00320

   177    H   22  S      Val( 1S)     0.76578
   178    H   22  S      Ryd( 2S)     0.00780

   179    H   23  S      Val( 1S)     0.76432
   180    H   23  S      Ryd( 2S)     0.00309

   181    H   24  S      Val( 1S)     0.77789
   182    H   24  S      Ryd( 2S)     0.01098

   183    H   25  S      Val( 1S)     0.77105
   184    H   25  S      Ryd( 2S)     0.00788


 Summary of Natural Population Analysis:                  
                                                          
                                       Natural Population 
                Natural  -----------------------------------------------
    Atom  No    Charge         Core      Valence    Rydberg      Total
 -----------------------------------------------------------------------
      C    1   -0.69476      1.99938     4.68477    0.01062     6.69476
      C    2    0.07612      1.99917     3.90516    0.01954     5.92388
      O    3   -0.81382      1.99980     6.80271    0.01132     8.81382
      P    4    1.84815      9.99883     2.93958    0.21345    13.15185
      O    5   -0.68976      1.99991     6.66388    0.02597     8.68976
      O    6   -0.72170      1.99982     6.71019    0.01168     8.72170
      C    7    0.08136      1.99913     3.89621    0.02330     5.91864
      C    8   -0.69463      1.99936     4.68511    0.01017     6.69463
      C    9   -0.69744      1.99937     4.68726    0.01081     6.69744
      C   10   -0.69947      1.99938     4.68892    0.01117     6.69947
      H   11    0.21725      0.00000     0.76804    0.01471     0.78275
      H   12    0.23071      0.00000     0.76542    0.00387     0.76929
      H   13    0.21444      0.00000     0.77625    0.00930     0.78556
      H   14    0.19965      0.00000     0.78506    0.01529     0.80035
      H   15   -0.05784      0.00000     1.05511    0.00273     1.05784
      H   16    0.14114      0.00000     0.80511    0.05375     0.85886
      H   17    0.23293      0.00000     0.76440    0.00267     0.76707
      H   18    0.22571      0.00000     0.76059    0.01369     0.77429
      H   19    0.23701      0.00000     0.75870    0.00429     0.76299
      H   20    0.23540      0.00000     0.76256    0.00204     0.76460
      H   21    0.23834      0.00000     0.75845    0.00320     0.76166
      H   22    0.22641      0.00000     0.76578    0.00780     0.77359
      H   23    0.23259      0.00000     0.76432    0.00309     0.76741
      H   24    0.21114      0.00000     0.77789    0.01098     0.78886
      H   25    0.22107      0.00000     0.77105    0.00788     0.77893
 =======================================================================
   * Total *    0.00000     27.99414    61.50253    0.50333    90.00000

                                 Natural Population      
 --------------------------------------------------------
   Core                      27.99414 ( 99.9791% of  28)
   Valence                   61.50253 ( 99.1976% of  62)
   Natural Minimal Basis     89.49667 ( 99.4407% of  90)
   Natural Rydberg Basis      0.50333 (  0.5593% of  90)
 --------------------------------------------------------

    Atom  No          Natural Electron Configuration
 ----------------------------------------------------------------------------
      C    1      [core]2S( 1.11)2p( 3.57)3p( 0.01)
      C    2      [core]2S( 0.97)2p( 2.93)3p( 0.01)3d( 0.01)
      O    3      [core]2S( 1.70)2p( 5.10)
      P    4      [core]3S( 1.09)3p( 1.85)4S( 0.04)3d( 0.11)4p( 0.06)
      O    5      [core]2S( 1.86)2p( 4.81)3S( 0.01)3d( 0.02)
      O    6      [core]2S( 1.70)2p( 5.01)
      C    7      [core]2S( 0.99)2p( 2.90)3p( 0.01)3d( 0.01)
      C    8      [core]2S( 1.11)2p( 3.57)3p( 0.01)
      C    9      [core]2S( 1.11)2p( 3.58)3p( 0.01)
      C   10      [core]2S( 1.11)2p( 3.57)3p( 0.01)
      H   11            1S( 0.77)2S( 0.01)
      H   12            1S( 0.77)
      H   13            1S( 0.78)2S( 0.01)
      H   14            1S( 0.79)2S( 0.02)
      H   15            1S( 1.06)
      H   16            1S( 0.81)2S( 0.05)
      H   17            1S( 0.76)
      H   18            1S( 0.76)2S( 0.01)
      H   19            1S( 0.76)
      H   20            1S( 0.76)
      H   21            1S( 0.76)
      H   22            1S( 0.77)2S( 0.01)
      H   23            1S( 0.76)
      H   24            1S( 0.78)2S( 0.01)
      H   25            1S( 0.77)2S( 0.01)


 NBO analysis skipped by request.
 Leave Link  607 at Tue Oct  5 17:18:19 2021, MaxMem= 1073741824 cpu:       9.7
 (Enter /sw/target/amd/app/gaussian/Gaussian09RevA.02_gcc-4.9.2/g09/l9999.exe)
 1\1\GINC-HERMITE\SP\RTD-B3LYP-FC\6-31G(d)\C6H15O3P1\JSCHLEINITZ\05-Oct
 -2021\0\\#p TD(NStates=10, Root=1) b3lyp/6-31G* volume pop=NPA density
 =current Geom=AllCheck Guess=Read\\CC(OP(=O)OC(C)C)C_conf_0\\0,1\C,0,2
 .9506307258,-1.6067808828,0.7457370454\C,0,3.3990688821,-0.6762614598,
 1.8640763967\O,0,2.2230679655,0.0995949377,2.2531181534\P,0,2.37230267
 47,1.6118006026,2.8143940984\O,0,3.5845094741,2.3280293382,2.345287194
 1\O,0,0.9324349175,2.2394396937,2.4861151026\C,0,0.5572756517,2.552748
 783,1.1055288406\C,0,-0.5649636005,1.60575542,0.7019812929\C,0,0.16806
 78077,4.0237842386,1.0688315475\C,0,3.9416581421,-1.4172744996,3.08199
 77107\H,0,2.5581458591,-1.0336597126,-0.0999995961\H,0,2.1661613006,-2
 .2853623105,1.0987065399\H,0,3.795846489,-2.2082368265,0.3933602287\H,
 0,4.1495650015,0.0273623408,1.4904457639\H,0,2.2237816224,1.5063167382
 ,4.2048019649\H,0,1.4307390212,2.3936208168,0.4627006878\H,0,-1.433328
 6692,1.7426731514,1.3557605215\H,0,-0.2322665587,0.5668209053,0.779142
 3706\H,0,-0.8746582969,1.8012034904,-0.3310887205\H,0,-0.6683727882,4.
 2146892941,1.750124106\H,0,-0.1368480184,4.3107934712,0.0560671138\H,0
 ,1.0123689934,4.6511984389,1.3693134423\H,0,3.1758397136,-2.0776717454
 ,3.5035575532\H,0,4.2637428607,-0.7167384993,3.860141229\H,0,4.8083094
 319,-2.0262935208,2.8009804087\\Version=AM64L-G09RevA.02\State=1-A\HF=
 -804.7647753\RMSD=4.040e-09\Dipole=-0.480913,0.0615423,0.145482\Quadru
 pole=-0.7566678,0.053355,0.7033128,-3.1806361,1.6090483,-0.5905297\PG=
 C01 [X(C6H15O3P1)]\\@


 Happiness is a conscious choice, not an automatic response.
 -- Mildred Barthel
 Job cpu time:  0 days  0 hours 37 minutes 23.3 seconds.
 File lengths (MBytes):  RWF=    120 Int=      0 D2E=      0 Chk=     16 Scr=      1
 Normal termination of Gaussian 09 at Tue Oct  5 17:18:20 2021.
