 Entering Gaussian System, Link 0=g09
 Input=C6H15P_68c8_conf_0.com
 Output=C6H15P_68c8_conf_0.log
 Initial command:
 /sw/target/amd/app/gaussian/Gaussian09RevA.02_gcc-4.9.2/g09/l1.exe /home/jschleinitz/gaussian/Gau-2059193.inp -scrdir=/home/jschleinitz/gaussian/
 Entering Link 1 = /sw/target/amd/app/gaussian/Gaussian09RevA.02_gcc-4.9.2/g09/l1.exe PID=   2059229.
  
 Copyright (c) 1988,1990,1992,1993,1995,1998,2003,2009, Gaussian, Inc.
                  All Rights Reserved.
  
 This is part of the Gaussian(R) 09 program.  It is based on
 the Gaussian(R) 03 system (copyright 2003, Gaussian, Inc.),
 the Gaussian(R) 98 system (copyright 1998, Gaussian, Inc.),
 the Gaussian(R) 94 system (copyright 1995, Gaussian, Inc.),
 the Gaussian 92(TM) system (copyright 1992, Gaussian, Inc.),
 the Gaussian 90(TM) system (copyright 1990, Gaussian, Inc.),
 the Gaussian 88(TM) system (copyright 1988, Gaussian, Inc.),
 the Gaussian 86(TM) system (copyright 1986, Carnegie Mellon
 University), and the Gaussian 82(TM) system (copyright 1983,
 Carnegie Mellon University). Gaussian is a federally registered
 trademark of Gaussian, Inc.
  
 This software contains proprietary and confidential information,
 including trade secrets, belonging to Gaussian, Inc.
  
 This software is provided under written license and may be
 used, copied, transmitted, or stored only in accord with that
 written license.
  
 The following legend is applicable only to US Government
 contracts under FAR:
  
                    RESTRICTED RIGHTS LEGEND
  
 Use, reproduction and disclosure by the US Government is
 subject to restrictions as set forth in subparagraphs (a)
 and (c) of the Commercial Computer Software - Restricted
 Rights clause in FAR 52.227-19.
  
 Gaussian, Inc.
 340 Quinnipiac St., Bldg. 40, Wallingford CT 06492
  
  
 ---------------------------------------------------------------
 Warning -- This program may not be used in any manner that
 competes with the business of Gaussian, Inc. or will provide
 assistance to any competitor of Gaussian, Inc.  The licensee
 of this program is prohibited from giving any competitor of
 Gaussian, Inc. access to this program.  By using this program,
 the user acknowledges that Gaussian, Inc. is engaged in the
 business of creating and licensing software in the field of
 computational chemistry and represents and warrants to the
 licensee that it is not a competitor of Gaussian, Inc. and that
 it will not use this program in any manner prohibited above.
 ---------------------------------------------------------------
  

 Cite this work as:
 Gaussian 09, Revision A.02,
 M. J. Frisch, G. W. Trucks, H. B. Schlegel, G. E. Scuseria, 
 M. A. Robb, J. R. Cheeseman, G. Scalmani, V. Barone, B. Mennucci, 
 G. A. Petersson, H. Nakatsuji, M. Caricato, X. Li, H. P. Hratchian, 
 A. F. Izmaylov, J. Bloino, G. Zheng, J. L. Sonnenberg, M. Hada, 
 M. Ehara, K. Toyota, R. Fukuda, J. Hasegawa, M. Ishida, T. Nakajima, 
 Y. Honda, O. Kitao, H. Nakai, T. Vreven, J. A. Montgomery, Jr., 
 J. E. Peralta, F. Ogliaro, M. Bearpark, J. J. Heyd, E. Brothers, 
 K. N. Kudin, V. N. Staroverov, R. Kobayashi, J. Normand, 
 K. Raghavachari, A. Rendell, J. C. Burant, S. S. Iyengar, J. Tomasi, 
 M. Cossi, N. Rega, J. M. Millam, M. Klene, J. E. Knox, J. B. Cross, 
 V. Bakken, C. Adamo, J. Jaramillo, R. Gomperts, R. E. Stratmann, 
 O. Yazyev, A. J. Austin, R. Cammi, C. Pomelli, J. W. Ochterski, 
 R. L. Martin, K. Morokuma, V. G. Zakrzewski, G. A. Voth, 
 P. Salvador, J. J. Dannenberg, S. Dapprich, A. D. Daniels, 
 O. Farkas, J. B. Foresman, J. V. Ortiz, J. Cioslowski, 
 and D. J. Fox, Gaussian, Inc., Wallingford CT, 2009.
 
 ******************************************
 Gaussian 09:  AM64L-G09RevA.02 11-Jun-2009
                 1-Oct-2021 
 ******************************************
 %nproc=3
 Will use up to    3 processors via shared memory.
 %mem=6gb
 %chk=C6H15P_68c8_conf_0.chk
 -----------------------------------
 #p opt b3lyp/6-31G* scf=(xqc,tight)
 -----------------------------------
 1/14=-1,18=20,19=15,26=3,38=1/1,3;
 2/9=110,12=2,17=6,18=5,40=1/2;
 3/5=1,6=6,7=1,11=2,16=1,25=1,30=1,71=1,74=-5/1,2,3;
 4//1;
 5/5=2,8=3,13=1,32=2,38=5/2,8;
 6/7=2,8=2,9=2,10=2,28=1/1;
 7//1,2,3,16;
 1/14=-1,18=20,19=15/3(2);
 2/9=110/2;
 99//99;
 2/9=110/2;
 3/5=1,6=6,7=1,11=2,16=1,25=1,30=1,71=1,74=-5/1,2,3;
 4/5=5,16=3/1;
 5/5=2,8=3,13=1,32=2,38=5/2,8;
 7//1,2,3,16;
 1/14=-1,18=20,19=15/3(-5);
 2/9=110/2;
 6/7=2,8=2,9=2,10=2,19=2,28=1/1;
 99/9=1/99;
 Leave Link    1 at Fri Oct  1 18:35:47 2021, MaxMem=  805306368 cpu:       0.1
 (Enter /sw/target/amd/app/gaussian/Gaussian09RevA.02_gcc-4.9.2/g09/l101.exe)
 ----------------
 CCP(CC)CC_conf_0
 ----------------
 Symbolic Z-matrix:
 Charge =  0 Multiplicity = 1
 C                     2.77637   1.08694   0.68713 
 C                     2.4923   -0.10752  -0.20898 
 P                     3.00129  -1.70206   0.57302 
 C                     2.52881  -2.90902  -0.74673 
 C                     1.03453  -2.94333  -1.02282 
 C                     4.82922  -1.62409   0.29413 
 C                     5.56031  -2.83942   0.84028 
 H                     2.45186   2.00986   0.19448 
 H                     3.84353   1.18786   0.90984 
 H                     2.239     1.00933   1.63854 
 H                     2.99612   0.02096  -1.17308 
 H                     1.41593  -0.134    -0.40559 
 H                     2.84967  -3.90482  -0.42266 
 H                     3.06032  -2.68486  -1.6779 
 H                     0.44764  -3.04365  -0.1029 
 H                     0.79307  -3.79351  -1.67047 
 H                     0.7033   -2.0378   -1.54051 
 H                     5.22631  -0.73308   0.78951 
 H                     5.04103  -1.5186   -0.77598 
 H                     5.43733  -2.92227   1.92546 
 H                     6.63094  -2.75566   0.63174 
 H                     5.20364  -3.76941   0.38649 
 
 NAtoms=     22 NQM=     22 NQMF=      0 NMic=      0 NMicF=      0 NTot=     22.
                    Isotopes and Nuclear Properties:
 (Nuclear quadrupole moments (NQMom) in fm**2, nuclear magnetic moments (NMagM)
  in nuclear magnetons)

  Atom         1           2           3           4           5           6           7           8           9          10
 IAtWgt=          12          12          31          12          12          12          12           1           1           1
 AtmWgt=  12.0000000  12.0000000  30.9737634  12.0000000  12.0000000  12.0000000  12.0000000   1.0078250   1.0078250   1.0078250
 NucSpn=           0           0           1           0           0           0           0           1           1           1
 AtZEff=   0.0000000   0.0000000   0.0000000   0.0000000   0.0000000   0.0000000   0.0000000   0.0000000   0.0000000   0.0000000
 NQMom=    0.0000000   0.0000000   0.0000000   0.0000000   0.0000000   0.0000000   0.0000000   0.0000000   0.0000000   0.0000000
 NMagM=    0.0000000   0.0000000   1.1316000   0.0000000   0.0000000   0.0000000   0.0000000   2.7928460   2.7928460   2.7928460

  Atom        11          12          13          14          15          16          17          18          19          20
 IAtWgt=           1           1           1           1           1           1           1           1           1           1
 AtmWgt=   1.0078250   1.0078250   1.0078250   1.0078250   1.0078250   1.0078250   1.0078250   1.0078250   1.0078250   1.0078250
 NucSpn=           1           1           1           1           1           1           1           1           1           1
 AtZEff=   0.0000000   0.0000000   0.0000000   0.0000000   0.0000000   0.0000000   0.0000000   0.0000000   0.0000000   0.0000000
 NQMom=    0.0000000   0.0000000   0.0000000   0.0000000   0.0000000   0.0000000   0.0000000   0.0000000   0.0000000   0.0000000
 NMagM=    2.7928460   2.7928460   2.7928460   2.7928460   2.7928460   2.7928460   2.7928460   2.7928460   2.7928460   2.7928460

  Atom        21          22
 IAtWgt=           1           1
 AtmWgt=   1.0078250   1.0078250
 NucSpn=           1           1
 AtZEff=   0.0000000   0.0000000
 NQMom=    0.0000000   0.0000000
 NMagM=    2.7928460   2.7928460
 Leave Link  101 at Fri Oct  1 18:35:48 2021, MaxMem=  805306368 cpu:       0.2
 (Enter /sw/target/amd/app/gaussian/Gaussian09RevA.02_gcc-4.9.2/g09/l103.exe)

 GradGradGradGradGradGradGradGradGradGradGradGradGradGradGradGradGradGrad
 Berny optimization.
 Initialization pass.
                           ----------------------------
                           !    Initial Parameters    !
                           ! (Angstroms and Degrees)  !
 --------------------------                            --------------------------
 ! Name  Definition              Value          Derivative Info.                !
 --------------------------------------------------------------------------------
 ! R1    R(1,2)                  1.52           estimate D2E/DX2                !
 ! R2    R(1,8)                  1.0954         estimate D2E/DX2                !
 ! R3    R(1,9)                  1.0948         estimate D2E/DX2                !
 ! R4    R(1,10)                 1.0954         estimate D2E/DX2                !
 ! R5    R(2,3)                  1.8475         estimate D2E/DX2                !
 ! R6    R(2,11)                 1.0954         estimate D2E/DX2                !
 ! R7    R(2,12)                 1.0945         estimate D2E/DX2                !
 ! R8    R(3,4)                  1.8498         estimate D2E/DX2                !
 ! R9    R(3,6)                  1.8507         estimate D2E/DX2                !
 ! R10   R(4,5)                  1.52           estimate D2E/DX2                !
 ! R11   R(4,13)                 1.0953         estimate D2E/DX2                !
 ! R12   R(4,14)                 1.0954         estimate D2E/DX2                !
 ! R13   R(5,15)                 1.0958         estimate D2E/DX2                !
 ! R14   R(5,16)                 1.0957         estimate D2E/DX2                !
 ! R15   R(5,17)                 1.0944         estimate D2E/DX2                !
 ! R16   R(6,7)                  1.5198         estimate D2E/DX2                !
 ! R17   R(6,18)                 1.0941         estimate D2E/DX2                !
 ! R18   R(6,19)                 1.096          estimate D2E/DX2                !
 ! R19   R(7,20)                 1.0953         estimate D2E/DX2                !
 ! R20   R(7,21)                 1.094          estimate D2E/DX2                !
 ! R21   R(7,22)                 1.0945         estimate D2E/DX2                !
 ! A1    A(2,1,8)              109.9742         estimate D2E/DX2                !
 ! A2    A(2,1,9)              111.995          estimate D2E/DX2                !
 ! A3    A(2,1,10)             111.3877         estimate D2E/DX2                !
 ! A4    A(8,1,9)              107.6142         estimate D2E/DX2                !
 ! A5    A(8,1,10)             107.7584         estimate D2E/DX2                !
 ! A6    A(9,1,10)             107.9393         estimate D2E/DX2                !
 ! A7    A(1,2,3)              112.1607         estimate D2E/DX2                !
 ! A8    A(1,2,11)             109.9229         estimate D2E/DX2                !
 ! A9    A(1,2,12)             107.981          estimate D2E/DX2                !
 ! A10   A(3,2,11)             110.3084         estimate D2E/DX2                !
 ! A11   A(3,2,12)             109.0324         estimate D2E/DX2                !
 ! A12   A(11,2,12)            107.2815         estimate D2E/DX2                !
 ! A13   A(2,3,4)              100.9987         estimate D2E/DX2                !
 ! A14   A(2,3,6)               99.9021         estimate D2E/DX2                !
 ! A15   A(4,3,6)               99.9187         estimate D2E/DX2                !
 ! A16   A(3,4,5)              113.2928         estimate D2E/DX2                !
 ! A17   A(3,4,13)             107.8971         estimate D2E/DX2                !
 ! A18   A(3,4,14)             110.4291         estimate D2E/DX2                !
 ! A19   A(5,4,13)             108.7368         estimate D2E/DX2                !
 ! A20   A(5,4,14)             109.1012         estimate D2E/DX2                !
 ! A21   A(13,4,14)            107.1841         estimate D2E/DX2                !
 ! A22   A(4,5,15)             112.0933         estimate D2E/DX2                !
 ! A23   A(4,5,16)             109.9705         estimate D2E/DX2                !
 ! A24   A(4,5,17)             111.3951         estimate D2E/DX2                !
 ! A25   A(15,5,16)            107.8873         estimate D2E/DX2                !
 ! A26   A(15,5,17)            108.1051         estimate D2E/DX2                !
 ! A27   A(16,5,17)            107.2005         estimate D2E/DX2                !
 ! A28   A(3,6,7)              112.7851         estimate D2E/DX2                !
 ! A29   A(3,6,18)             108.9384         estimate D2E/DX2                !
 ! A30   A(3,6,19)             110.0038         estimate D2E/DX2                !
 ! A31   A(7,6,18)             108.2971         estimate D2E/DX2                !
 ! A32   A(7,6,19)             109.5651         estimate D2E/DX2                !
 ! A33   A(18,6,19)            107.0723         estimate D2E/DX2                !
 ! A34   A(6,7,20)             111.2551         estimate D2E/DX2                !
 ! A35   A(6,7,21)             109.9411         estimate D2E/DX2                !
 ! A36   A(6,7,22)             111.9439         estimate D2E/DX2                !
 ! A37   A(20,7,21)            107.7312         estimate D2E/DX2                !
 ! A38   A(20,7,22)            108.0544         estimate D2E/DX2                !
 ! A39   A(21,7,22)            107.7545         estimate D2E/DX2                !
 ! D1    D(8,1,2,3)           -179.3967         estimate D2E/DX2                !
 ! D2    D(8,1,2,11)            57.4942         estimate D2E/DX2                !
 ! D3    D(8,1,2,12)           -59.2389         estimate D2E/DX2                !
 ! D4    D(9,1,2,3)             60.9956         estimate D2E/DX2                !
 ! D5    D(9,1,2,11)           -62.1135         estimate D2E/DX2                !
 ! D6    D(9,1,2,12)          -178.8466         estimate D2E/DX2                !
 ! D7    D(10,1,2,3)           -59.9986         estimate D2E/DX2                !
 ! D8    D(10,1,2,11)          176.8923         estimate D2E/DX2                !
 ! D9    D(10,1,2,12)           60.1591         estimate D2E/DX2                !
 ! D10   D(1,2,3,4)           -179.9838         estimate D2E/DX2                !
 ! D11   D(1,2,3,6)            -77.7411         estimate D2E/DX2                !
 ! D12   D(11,2,3,4)           -57.0922         estimate D2E/DX2                !
 ! D13   D(11,2,3,6)            45.1506         estimate D2E/DX2                !
 ! D14   D(12,2,3,4)            60.4717         estimate D2E/DX2                !
 ! D15   D(12,2,3,6)           162.7145         estimate D2E/DX2                !
 ! D16   D(2,3,4,5)            -63.4007         estimate D2E/DX2                !
 ! D17   D(2,3,4,13)           176.1658         estimate D2E/DX2                !
 ! D18   D(2,3,4,14)            59.3201         estimate D2E/DX2                !
 ! D19   D(6,3,4,5)           -165.6301         estimate D2E/DX2                !
 ! D20   D(6,3,4,13)            73.9363         estimate D2E/DX2                !
 ! D21   D(6,3,4,14)           -42.9094         estimate D2E/DX2                !
 ! D22   D(2,3,6,7)           -179.8095         estimate D2E/DX2                !
 ! D23   D(2,3,6,18)            59.9164         estimate D2E/DX2                !
 ! D24   D(2,3,6,19)           -57.1626         estimate D2E/DX2                !
 ! D25   D(4,3,6,7)            -76.6811         estimate D2E/DX2                !
 ! D26   D(4,3,6,18)           163.0449         estimate D2E/DX2                !
 ! D27   D(4,3,6,19)            45.9659         estimate D2E/DX2                !
 ! D28   D(3,4,5,15)           -49.6391         estimate D2E/DX2                !
 ! D29   D(3,4,5,16)          -169.6524         estimate D2E/DX2                !
 ! D30   D(3,4,5,17)            71.6429         estimate D2E/DX2                !
 ! D31   D(13,4,5,15)           70.3168         estimate D2E/DX2                !
 ! D32   D(13,4,5,16)          -49.6965         estimate D2E/DX2                !
 ! D33   D(13,4,5,17)         -168.4013         estimate D2E/DX2                !
 ! D34   D(14,4,5,15)         -173.0921         estimate D2E/DX2                !
 ! D35   D(14,4,5,16)           66.8946         estimate D2E/DX2                !
 ! D36   D(14,4,5,17)          -51.8102         estimate D2E/DX2                !
 ! D37   D(3,6,7,20)           -61.97           estimate D2E/DX2                !
 ! D38   D(3,6,7,21)           178.7717         estimate D2E/DX2                !
 ! D39   D(3,6,7,22)            59.0428         estimate D2E/DX2                !
 ! D40   D(18,6,7,20)           58.6714         estimate D2E/DX2                !
 ! D41   D(18,6,7,21)          -60.5869         estimate D2E/DX2                !
 ! D42   D(18,6,7,22)          179.6842         estimate D2E/DX2                !
 ! D43   D(19,6,7,20)          175.1379         estimate D2E/DX2                !
 ! D44   D(19,6,7,21)           55.8796         estimate D2E/DX2                !
 ! D45   D(19,6,7,22)          -63.8492         estimate D2E/DX2                !
 --------------------------------------------------------------------------------
 Trust Radius=3.00D-01 FncErr=1.00D-07 GrdErr=1.00D-06
 Number of steps in this run= 115 maximum allowed number of steps= 132.
 GradGradGradGradGradGradGradGradGradGradGradGradGradGradGradGradGradGrad

 Leave Link  103 at Fri Oct  1 18:35:48 2021, MaxMem=  805306368 cpu:       0.0
 (Enter /sw/target/amd/app/gaussian/Gaussian09RevA.02_gcc-4.9.2/g09/l202.exe)
                          Input orientation:                          
 ---------------------------------------------------------------------
 Center     Atomic      Atomic             Coordinates (Angstroms)
 Number     Number       Type             X           Y           Z
 ---------------------------------------------------------------------
      1          6           0        2.776366    1.086940    0.687128
      2          6           0        2.492298   -0.107522   -0.208981
      3         15           0        3.001293   -1.702062    0.573024
      4          6           0        2.528815   -2.909023   -0.746731
      5          6           0        1.034534   -2.943331   -1.022823
      6          6           0        4.829220   -1.624090    0.294128
      7          6           0        5.560312   -2.839419    0.840277
      8          1           0        2.451858    2.009860    0.194476
      9          1           0        3.843533    1.187855    0.909842
     10          1           0        2.238999    1.009325    1.638545
     11          1           0        2.996119    0.020962   -1.173080
     12          1           0        1.415933   -0.133997   -0.405592
     13          1           0        2.849667   -3.904822   -0.422665
     14          1           0        3.060321   -2.684863   -1.677901
     15          1           0        0.447637   -3.043653   -0.102897
     16          1           0        0.793065   -3.793513   -1.670475
     17          1           0        0.703300   -2.037800   -1.540509
     18          1           0        5.226306   -0.733075    0.789510
     19          1           0        5.041032   -1.518604   -0.775980
     20          1           0        5.437333   -2.922265    1.925458
     21          1           0        6.630944   -2.755657    0.631738
     22          1           0        5.203637   -3.769409    0.386486
 ---------------------------------------------------------------------
                    Distance matrix (angstroms):
                    1          2          3          4          5
     1  C    0.000000
     2  C    1.520015   0.000000
     3  P    2.800383   1.847476   0.000000
     4  C    4.252641   2.852879   1.849795   0.000000
     5  C    4.711793   3.290779   2.820570   1.519960   0.000000
     6  C    3.423206   2.830955   1.850725   2.833073   4.227812
     7  C    4.815611   4.239920   2.813110   3.422487   4.895366
     8  H    1.095350   2.155857   3.771411   5.008712   5.293839
     9  H    1.094820   2.180735   3.028934   4.610545   5.356526
    10  H    1.095437   2.173674   3.011320   4.596410   4.914988
    11  H    2.155220   1.095368   2.453104   2.997492   3.557728
    12  H    2.129672   1.094494   2.435135   3.009260   2.901517
    13  H    5.114167   3.820061   2.422093   1.095254   2.139944
    14  H    4.460997   3.020441   2.456836   1.095365   2.144702
    15  H    4.807174   3.579492   2.962751   2.182648   1.095800
    16  H    5.771533   4.313918   3.779381   2.156027   1.095705
    17  H    4.361648   2.949484   3.140145   2.172929   1.094396
    18  H    3.053710   2.977096   2.436491   3.790942   5.073532
    19  H    3.749433   2.967943   2.452346   2.871472   4.259437
    20  H    4.968696   4.599114   3.041754   3.949715   5.298815
    21  H    5.443013   4.984759   3.779931   4.330261   5.838886
    22  H    5.437478   4.595146   3.026391   3.029707   4.477720
                    6          7          8          9         10
     6  C    0.000000
     7  C    1.519803   0.000000
     8  H    4.343659   5.796124   0.000000
     9  H    3.042650   4.378483   1.767541   0.000000
    10  H    3.930850   5.145987   1.769665   1.771273   0.000000
    11  H    2.866907   4.337104   2.474297   2.533439   3.074951
    12  H    3.789527   5.103663   2.455473   3.061193   2.482563
    13  H    3.103894   3.174540   5.960082   5.357117   5.363799
    14  H    2.853619   3.551770   5.090820   4.723112   5.031939
    15  H    4.622885   5.202955   5.444569   5.519367   4.761116
    16  H    4.985640   5.471820   6.317340   6.385720   6.008960
    17  H    4.534343   5.468209   4.738268   5.125440   4.663660
    18  H    1.094069   2.133266   3.946558   2.369919   3.561014
    19  H    1.095957   2.150928   4.482818   3.406012   4.480149
    20  H    2.171704   1.095264   6.019570   4.523800   5.076324
    21  H    2.154213   1.093964   6.353433   4.837178   5.871791
    22  H    2.179705   1.094543   6.403836   5.167036   5.761340
                   11         12         13         14         15
    11  H    0.000000
    12  H    1.763530   0.000000
    13  H    3.999544   4.034229   0.000000
    14  H    2.753263   3.290851   1.763035   0.000000
    15  H    4.126975   3.081448   2.571695   3.071725   0.000000
    16  H    4.432953   3.921728   2.408118   2.523809   1.771698
    17  H    3.103309   2.328164   3.056508   2.448085   1.773086
    18  H    3.064974   4.038082   4.144606   3.819566   5.382457
    19  H    2.590293   3.898161   3.258980   2.469178   4.886522
    20  H    4.921692   5.420322   3.629754   4.323280   5.387581
    21  H    4.917208   5.928363   4.090281   4.253092   6.233452
    22  H    4.655352   5.309455   2.492838   3.167293   4.835883
                   16         17         18         19         20
    16  H    0.000000
    17  H    1.762804   0.000000
    18  H    5.922114   5.252512   0.000000
    19  H    4.901077   4.435086   1.761289   0.000000
    20  H    5.937932   5.933488   2.475371   3.070031   0.000000
    21  H    6.360673   6.353813   2.467537   2.457599   1.768099
    22  H    4.866705   5.192767   3.063049   2.538483   1.772202
                   21         22
    21  H    0.000000
    22  H    1.767780   0.000000
 Stoichiometry    C6H15P
 Framework group  C1[X(C6H15P)]
 Deg. of freedom    60
 Full point group                 C1      NOp   1
 Largest Abelian subgroup         C1      NOp   1
 Largest concise Abelian subgroup C1      NOp   1
                         Standard orientation:                         
 ---------------------------------------------------------------------
 Center     Atomic      Atomic             Coordinates (Angstroms)
 Number     Number       Type             X           Y           Z
 ---------------------------------------------------------------------
      1          6           0        0.924471    2.602669   -0.095634
      2          6           0        1.113774    1.164482    0.358487
      3         15           0       -0.025248    0.001968   -0.515790
      4          6           0        0.456963   -1.609767    0.253318
      5          6           0        1.894960   -2.007718   -0.036644
      6          6           0       -1.593702    0.338938    0.407022
      7          6           0       -2.761085   -0.496809   -0.091521
      8          1           0        1.622808    3.257943    0.436094
      9          1           0       -0.088679    2.965967    0.104793
     10          1           0        1.115695    2.711194   -1.168778
     11          1           0        0.971125    1.093409    1.442198
     12          1           0        2.148442    0.876854    0.147181
     13          1           0       -0.208973   -2.384096   -0.142316
     14          1           0        0.306018   -1.576268    1.337715
     15          1           0        2.134378   -1.939213   -1.103773
     16          1           0        2.068502   -3.041758    0.281496
     17          1           0        2.601934   -1.377441    0.511665
     18          1           0       -1.853600    1.395407    0.291638
     19          1           0       -1.444636    0.159362    1.477841
     20          1           0       -2.989503   -0.274700   -1.139422
     21          1           0       -3.655889   -0.277251    0.498290
     22          1           0       -2.561192   -1.569695   -0.007946
 ---------------------------------------------------------------------
 Rotational constants (GHZ):      1.9303539      1.8286856      1.0293715
 Leave Link  202 at Fri Oct  1 18:35:48 2021, MaxMem=  805306368 cpu:       0.0
 (Enter /sw/target/amd/app/gaussian/Gaussian09RevA.02_gcc-4.9.2/g09/l301.exe)
 Standard basis: 6-31G(d) (6D, 7F)
 Ernie: Thresh=  0.10000D-02 Tol=  0.10000D-05 Strict=F.
 There are   139 symmetry adapted basis functions of A   symmetry.
 Integral buffers will be    131072 words long.
 Raffenetti 2 integral format.
 Two-electron integral symmetry is turned on.
   139 basis functions,   280 primitive gaussians,   139 cartesian basis functions
    33 alpha electrons       33 beta electrons
       nuclear repulsion energy       398.4462524311 Hartrees.
 IExCor=  402 DFT=T Ex+Corr=B3LYP ExCW=0 ScaHFX=  0.200000
 ScaDFX=  0.800000  0.720000  1.000000  0.810000 ScalE2=  1.000000  1.000000
 IRadAn=      0 IRanWt=     -1 IRanGd=            0 ICorTp=0
 NAtoms=   22 NActive=   22 NUniq=   22 SFac= 7.50D-01 NAtFMM=   80 NAOKFM=F Big=F
 Leave Link  301 at Fri Oct  1 18:35:49 2021, MaxMem=  805306368 cpu:       0.1
 (Enter /sw/target/amd/app/gaussian/Gaussian09RevA.02_gcc-4.9.2/g09/l302.exe)
 NPDir=0 NMtPBC=     1 NCelOv=     1 NCel=       1 NClECP=     1 NCelD=      1
         NCelK=      1 NCelE2=     1 NClLst=     1 CellRange=     0.0.
 One-electron integrals computed using PRISM.
 NBasis=   139 RedAO= T  NBF=   139
 NBsUse=   139 1.00D-06 NBFU=   139
 Precomputing XC quadrature grid using
 IXCGrd= 2 IRadAn=           0 IRanWt=          -1 IRanGd=           0 AccXCQ= 1.00D-10.
 NRdTot=    1375 NPtTot=      174364 NUsed=      184288 NTot=      184320
 NSgBfM=   139   139   139   139   139 NAtAll=    22    22.
 Leave Link  302 at Fri Oct  1 18:35:52 2021, MaxMem=  805306368 cpu:       1.3
 (Enter /sw/target/amd/app/gaussian/Gaussian09RevA.02_gcc-4.9.2/g09/l303.exe)
 DipDrv:  MaxL=1.
 Leave Link  303 at Fri Oct  1 18:35:53 2021, MaxMem=  805306368 cpu:       0.1
 (Enter /sw/target/amd/app/gaussian/Gaussian09RevA.02_gcc-4.9.2/g09/l401.exe)
 Harris functional with IExCor=  402 diagonalized for initial guess.
 ExpMin= 9.98D-02 ExpMax= 1.94D+04 ExpMxC= 2.91D+03 IAcc=2 IRadAn=         0 AccDes= 0.00D+00
 HarFok:  IExCor=  402 AccDes= 0.00D+00 IRadAn=         0 IDoV= 1
 ScaDFX=  1.000000  1.000000  1.000000  1.000000
 FoFCou: FMM=F IPFlag=           0 FMFlag=      100000 FMFlg1=           0
         NFxFlg=           0 DoJE=T BraDBF=F KetDBF=T FulRan=T
         Omega=  0.000000  0.000000  1.000000  0.000000  0.000000 ICntrl=     500 IOpCl=  0
         NMat0=    1 NMatS0=    1 NMatT0=    0 NMatD0=    1 NMtDS0=    0 NMtDT0=    0
         I1Cent=           4 NGrid=           0.
 Petite list used in FoFCou.
 Harris En= -579.141860811717    
 Initial guess orbital symmetries:
       Occupied  (A) (A) (A) (A) (A) (A) (A) (A) (A) (A) (A) (A)
                 (A) (A) (A) (A) (A) (A) (A) (A) (A) (A) (A) (A)
                 (A) (A) (A) (A) (A) (A) (A) (A) (A)
       Virtual   (A) (A) (A) (A) (A) (A) (A) (A) (A) (A) (A) (A)
                 (A) (A) (A) (A) (A) (A) (A) (A) (A) (A) (A) (A)
                 (A) (A) (A) (A) (A) (A) (A) (A) (A) (A) (A) (A)
                 (A) (A) (A) (A) (A) (A) (A) (A) (A) (A) (A) (A)
                 (A) (A) (A) (A) (A) (A) (A) (A) (A) (A) (A) (A)
                 (A) (A) (A) (A) (A) (A) (A) (A) (A) (A) (A) (A)
                 (A) (A) (A) (A) (A) (A) (A) (A) (A) (A) (A) (A)
                 (A) (A) (A) (A) (A) (A) (A) (A) (A) (A) (A) (A)
                 (A) (A) (A) (A) (A) (A) (A) (A) (A) (A)
 The electronic state of the initial guess is 1-A.
 Leave Link  401 at Fri Oct  1 18:36:24 2021, MaxMem=  805306368 cpu:      11.7
 (Enter /sw/target/amd/app/gaussian/Gaussian09RevA.02_gcc-4.9.2/g09/l502.exe)
 Closed shell SCF:
 Requested convergence on RMS density matrix=1.00D-08 within  64 cycles.
 Requested convergence on MAX density matrix=1.00D-06.
 Requested convergence on             energy=1.00D-06.
 No special actions if energy rises.
 Using DIIS extrapolation, IDIIS=  1040.
 Integral symmetry usage will be decided dynamically.
       184077 words used for storage of precomputed grid.
 Keep R1 ints in memory in canonical form, NReq=48962747.
 IEnd=      249488 IEndB=      249488 NGot=   805306368 MDV=   757739222
 LenX=   757739222 LenY=   757719460
 Symmetry not used in FoFDir.
 MinBra= 0 MaxBra= 2 Meth= 1.
 IRaf=       0 NMat=   1 IRICut=       1 DoRegI=T DoRafI=F ISym2E= 0 JSym2E=0.
 Integral accuracy reduced to 1.0D-05 until final iterations.

 Cycle   1  Pass 0  IDiag  1:
 E= -578.692367074523    
 DIIS: error= 4.02D-02 at cycle   1 NSaved=   1.
 NSaved= 1 IEnMin= 1 EnMin= -578.692367074523     IErMin= 1 ErrMin= 4.02D-02
 ErrMax= 4.02D-02 EMaxC= 1.00D-01 BMatC= 3.12D-01 BMatP= 3.12D-01
 IDIUse=3 WtCom= 5.98D-01 WtEn= 4.02D-01
 Coeff-Com:  0.100D+01
 Coeff-En:   0.100D+01
 Coeff:      0.100D+01
 Gap=     0.304 Goal=   None    Shift=    0.000
 GapD=    0.304 DampG=1.000 DampE=0.500 DampFc=0.5000 IDamp=-1.
 Damping current iteration by 5.00D-01
 RMSDP=8.58D-03 MaxDP=1.41D-01              OVMax= 1.80D-01

 Cycle   2  Pass 0  IDiag  1:
 E= -578.839885339109     Delta-E=       -0.147518264586 Rises=F Damp=T
 DIIS: error= 8.73D-03 at cycle   2 NSaved=   2.
 NSaved= 2 IEnMin= 2 EnMin= -578.839885339109     IErMin= 2 ErrMin= 8.73D-03
 ErrMax= 8.73D-03 EMaxC= 1.00D-01 BMatC= 1.20D-02 BMatP= 3.12D-01
 IDIUse=3 WtCom= 9.13D-01 WtEn= 8.73D-02
 Coeff-Com:  0.904D-01 0.910D+00
 Coeff-En:   0.154D+00 0.846D+00
 Coeff:      0.959D-01 0.904D+00
 Gap=     0.298 Goal=   None    Shift=    0.000
 RMSDP=1.35D-03 MaxDP=6.38D-02 DE=-1.48D-01 OVMax= 1.11D-01

 Cycle   3  Pass 0  IDiag  1:
 E= -579.029459842453     Delta-E=       -0.189574503344 Rises=F Damp=F
 DIIS: error= 1.60D-03 at cycle   3 NSaved=   3.
 NSaved= 3 IEnMin= 3 EnMin= -579.029459842453     IErMin= 3 ErrMin= 1.60D-03
 ErrMax= 1.60D-03 EMaxC= 1.00D-01 BMatC= 7.36D-04 BMatP= 1.20D-02
 IDIUse=3 WtCom= 9.84D-01 WtEn= 1.60D-02
 Coeff-Com:  0.583D-02 0.138D+00 0.856D+00
 Coeff-En:   0.000D+00 0.000D+00 0.100D+01
 Coeff:      0.573D-02 0.136D+00 0.858D+00
 Gap=     0.274 Goal=   None    Shift=    0.000
 RMSDP=4.28D-04 MaxDP=9.42D-03 DE=-1.90D-01 OVMax= 1.07D-02

 Cycle   4  Pass 0  IDiag  1:
 E= -579.029904725429     Delta-E=       -0.000444882976 Rises=F Damp=F
 DIIS: error= 9.27D-04 at cycle   4 NSaved=   4.
 NSaved= 4 IEnMin= 4 EnMin= -579.029904725429     IErMin= 4 ErrMin= 9.27D-04
 ErrMax= 9.27D-04 EMaxC= 1.00D-01 BMatC= 3.61D-04 BMatP= 7.36D-04
 IDIUse=3 WtCom= 9.91D-01 WtEn= 9.27D-03
 Coeff-Com:  0.439D-03 0.260D-01 0.415D+00 0.559D+00
 Coeff-En:   0.000D+00 0.000D+00 0.290D+00 0.710D+00
 Coeff:      0.435D-03 0.257D-01 0.414D+00 0.560D+00
 Gap=     0.274 Goal=   None    Shift=    0.000
 RMSDP=1.68D-04 MaxDP=2.99D-03 DE=-4.45D-04 OVMax= 4.74D-03

 Cycle   5  Pass 0  IDiag  1:
 E= -579.030269710507     Delta-E=       -0.000364985078 Rises=F Damp=F
 DIIS: error= 2.48D-04 at cycle   5 NSaved=   5.
 NSaved= 5 IEnMin= 5 EnMin= -579.030269710507     IErMin= 5 ErrMin= 2.48D-04
 ErrMax= 2.48D-04 EMaxC= 1.00D-01 BMatC= 1.50D-05 BMatP= 3.61D-04
 IDIUse=3 WtCom= 9.98D-01 WtEn= 2.48D-03
 Coeff-Com:  0.241D-03-0.190D-03 0.104D+00 0.227D+00 0.669D+00
 Coeff-En:   0.000D+00 0.000D+00 0.000D+00 0.000D+00 0.100D+01
 Coeff:      0.240D-03-0.189D-03 0.104D+00 0.226D+00 0.670D+00
 Gap=     0.273 Goal=   None    Shift=    0.000
 RMSDP=2.59D-05 MaxDP=5.05D-04 DE=-3.65D-04 OVMax= 6.42D-04

 Cycle   6  Pass 0  IDiag  1:
 E= -579.030283584836     Delta-E=       -0.000013874329 Rises=F Damp=F
 DIIS: error= 3.14D-05 at cycle   6 NSaved=   6.
 NSaved= 6 IEnMin= 6 EnMin= -579.030283584836     IErMin= 6 ErrMin= 3.14D-05
 ErrMax= 3.14D-05 EMaxC= 1.00D-01 BMatC= 2.85D-07 BMatP= 1.50D-05
 IDIUse=1 WtCom= 1.00D+00 WtEn= 0.00D+00
 Coeff-Com:  0.129D-03-0.852D-03 0.313D-01 0.747D-01 0.252D+00 0.642D+00
 Coeff:      0.129D-03-0.852D-03 0.313D-01 0.747D-01 0.252D+00 0.642D+00
 Gap=     0.273 Goal=   None    Shift=    0.000
 RMSDP=6.39D-06 MaxDP=1.36D-04 DE=-1.39D-05 OVMax= 1.69D-04

 Initial convergence to 1.0D-05 achieved.  Increase integral accuracy.
 Cycle   7  Pass 1  IDiag  1:
 E= -579.030398776798     Delta-E=       -0.000115191962 Rises=F Damp=F
 DIIS: error= 2.44D-05 at cycle   1 NSaved=   1.
 NSaved= 1 IEnMin= 1 EnMin= -579.030398776798     IErMin= 1 ErrMin= 2.44D-05
 ErrMax= 2.44D-05 EMaxC= 1.00D-01 BMatC= 7.09D-08 BMatP= 7.09D-08
 IDIUse=1 WtCom= 1.00D+00 WtEn= 0.00D+00
 Coeff-Com:  0.100D+01
 Coeff:      0.100D+01
 Gap=     0.273 Goal=   None    Shift=    0.000
 RMSDP=6.39D-06 MaxDP=1.36D-04 DE=-1.15D-04 OVMax= 2.66D-04

 Cycle   8  Pass 1  IDiag  1:
 E= -579.030398897289     Delta-E=       -0.000000120491 Rises=F Damp=F
 DIIS: error= 5.99D-06 at cycle   2 NSaved=   2.
 NSaved= 2 IEnMin= 2 EnMin= -579.030398897289     IErMin= 2 ErrMin= 5.99D-06
 ErrMax= 5.99D-06 EMaxC= 1.00D-01 BMatC= 1.45D-08 BMatP= 7.09D-08
 IDIUse=1 WtCom= 1.00D+00 WtEn= 0.00D+00
 Coeff-Com:  0.229D+00 0.771D+00
 Coeff:      0.229D+00 0.771D+00
 Gap=     0.273 Goal=   None    Shift=    0.000
 RMSDP=2.08D-06 MaxDP=9.23D-05 DE=-1.20D-07 OVMax= 5.52D-05

 Cycle   9  Pass 1  IDiag  1:
 E= -579.030398910035     Delta-E=       -0.000000012745 Rises=F Damp=F
 DIIS: error= 3.31D-06 at cycle   3 NSaved=   3.
 NSaved= 3 IEnMin= 3 EnMin= -579.030398910035     IErMin= 3 ErrMin= 3.31D-06
 ErrMax= 3.31D-06 EMaxC= 1.00D-01 BMatC= 4.51D-09 BMatP= 1.45D-08
 IDIUse=1 WtCom= 1.00D+00 WtEn= 0.00D+00
 Coeff-Com: -0.280D-01 0.350D+00 0.678D+00
 Coeff:     -0.280D-01 0.350D+00 0.678D+00
 Gap=     0.273 Goal=   None    Shift=    0.000
 RMSDP=8.23D-07 MaxDP=3.87D-05 DE=-1.27D-08 OVMax= 2.34D-05

 Cycle  10  Pass 1  IDiag  1:
 E= -579.030398915583     Delta-E=       -0.000000005549 Rises=F Damp=F
 DIIS: error= 3.99D-07 at cycle   4 NSaved=   4.
 NSaved= 4 IEnMin= 4 EnMin= -579.030398915583     IErMin= 4 ErrMin= 3.99D-07
 ErrMax= 3.99D-07 EMaxC= 1.00D-01 BMatC= 6.75D-11 BMatP= 4.51D-09
 IDIUse=1 WtCom= 1.00D+00 WtEn= 0.00D+00
 Coeff-Com: -0.125D-01 0.116D+00 0.249D+00 0.648D+00
 Coeff:     -0.125D-01 0.116D+00 0.249D+00 0.648D+00
 Gap=     0.273 Goal=   None    Shift=    0.000
 RMSDP=9.87D-08 MaxDP=2.06D-06 DE=-5.55D-09 OVMax= 3.32D-06

 Cycle  11  Pass 1  IDiag  1:
 E= -579.030398915646     Delta-E=       -0.000000000063 Rises=F Damp=F
 DIIS: error= 1.42D-07 at cycle   5 NSaved=   5.
 NSaved= 5 IEnMin= 5 EnMin= -579.030398915646     IErMin= 5 ErrMin= 1.42D-07
 ErrMax= 1.42D-07 EMaxC= 1.00D-01 BMatC= 5.69D-12 BMatP= 6.75D-11
 IDIUse=1 WtCom= 1.00D+00 WtEn= 0.00D+00
 Coeff-Com: -0.249D-02 0.153D-01 0.401D-01 0.248D+00 0.699D+00
 Coeff:     -0.249D-02 0.153D-01 0.401D-01 0.248D+00 0.699D+00
 Gap=     0.273 Goal=   None    Shift=    0.000
 RMSDP=2.32D-08 MaxDP=4.33D-07 DE=-6.25D-11 OVMax= 5.95D-07

 Cycle  12  Pass 1  IDiag  1:
 E= -579.030398915660     Delta-E=       -0.000000000014 Rises=F Damp=F
 DIIS: error= 4.06D-08 at cycle   6 NSaved=   6.
 NSaved= 6 IEnMin= 6 EnMin= -579.030398915660     IErMin= 6 ErrMin= 4.06D-08
 ErrMax= 4.06D-08 EMaxC= 1.00D-01 BMatC= 4.82D-13 BMatP= 5.69D-12
 IDIUse=1 WtCom= 1.00D+00 WtEn= 0.00D+00
 Coeff-Com: -0.118D-03-0.302D-02-0.313D-02 0.535D-01 0.287D+00 0.665D+00
 Coeff:     -0.118D-03-0.302D-02-0.313D-02 0.535D-01 0.287D+00 0.665D+00
 Gap=     0.273 Goal=   None    Shift=    0.000
 RMSDP=6.58D-09 MaxDP=2.56D-07 DE=-1.39D-11 OVMax= 1.88D-07

 SCF Done:  E(RB3LYP) =  -579.030398916     A.U. after   12 cycles
             Convg  =    0.6580D-08             -V/T =  2.0061
 KE= 5.755071100585D+02 PE=-2.157014808904D+03 EE= 6.040310474984D+02
 Leave Link  502 at Fri Oct  1 18:39:22 2021, MaxMem=  805306368 cpu:      70.0
 (Enter /sw/target/amd/app/gaussian/Gaussian09RevA.02_gcc-4.9.2/g09/l508.exe)
 QCSCF skips out because SCF is already converged.
 Leave Link  508 at Fri Oct  1 18:39:23 2021, MaxMem=  805306368 cpu:       0.0
 (Enter /sw/target/amd/app/gaussian/Gaussian09RevA.02_gcc-4.9.2/g09/l601.exe)
 Copying SCF densities to generalized density rwf, IOpCl= 0 IROHF=0.

 **********************************************************************

            Population analysis using the SCF density.

 **********************************************************************

 Orbital symmetries:
       Occupied  (A) (A) (A) (A) (A) (A) (A) (A) (A) (A) (A) (A)
                 (A) (A) (A) (A) (A) (A) (A) (A) (A) (A) (A) (A)
                 (A) (A) (A) (A) (A) (A) (A) (A) (A)
       Virtual   (A) (A) (A) (A) (A) (A) (A) (A) (A) (A) (A) (A)
                 (A) (A) (A) (A) (A) (A) (A) (A) (A) (A) (A) (A)
                 (A) (A) (A) (A) (A) (A) (A) (A) (A) (A) (A) (A)
                 (A) (A) (A) (A) (A) (A) (A) (A) (A) (A) (A) (A)
                 (A) (A) (A) (A) (A) (A) (A) (A) (A) (A) (A) (A)
                 (A) (A) (A) (A) (A) (A) (A) (A) (A) (A) (A) (A)
                 (A) (A) (A) (A) (A) (A) (A) (A) (A) (A) (A) (A)
                 (A) (A) (A) (A) (A) (A) (A) (A) (A) (A) (A) (A)
                 (A) (A) (A) (A) (A) (A) (A) (A) (A) (A)
 The electronic state is 1-A.
 Alpha  occ. eigenvalues --  -77.05854 -10.17995 -10.17966 -10.17920 -10.17642
 Alpha  occ. eigenvalues --  -10.17503 -10.17494  -6.52810  -4.69056  -4.69051
 Alpha  occ. eigenvalues --   -4.68548  -0.78753  -0.75251  -0.75203  -0.65304
 Alpha  occ. eigenvalues --   -0.60906  -0.60608  -0.51914  -0.44956  -0.44791
 Alpha  occ. eigenvalues --   -0.44471  -0.42903  -0.42725  -0.38705  -0.36891
 Alpha  occ. eigenvalues --   -0.36687  -0.36458  -0.35901  -0.34353  -0.34167
 Alpha  occ. eigenvalues --   -0.29697  -0.29665  -0.21247
 Alpha virt. eigenvalues --    0.06080   0.06443   0.08778   0.10844   0.11533
 Alpha virt. eigenvalues --    0.12238   0.14900   0.15163   0.16036   0.16826
 Alpha virt. eigenvalues --    0.17052   0.18032   0.18711   0.19176   0.20117
 Alpha virt. eigenvalues --    0.20898   0.21348   0.22419   0.25395   0.25518
 Alpha virt. eigenvalues --    0.25978   0.37358   0.41247   0.42008   0.45821
 Alpha virt. eigenvalues --    0.45986   0.47998   0.54441   0.55798   0.57879
 Alpha virt. eigenvalues --    0.58369   0.60966   0.61612   0.62234   0.63995
 Alpha virt. eigenvalues --    0.64914   0.68135   0.71699   0.72874   0.73583
 Alpha virt. eigenvalues --    0.83077   0.84098   0.84935   0.86037   0.87176
 Alpha virt. eigenvalues --    0.87910   0.88761   0.89044   0.90153   0.91066
 Alpha virt. eigenvalues --    0.91727   0.92149   0.94768   0.95270   0.96206
 Alpha virt. eigenvalues --    0.98578   0.98886   0.99328   0.99760   1.00872
 Alpha virt. eigenvalues --    1.01517   1.03845   1.04271   1.19275   1.20851
 Alpha virt. eigenvalues --    1.25953   1.51912   1.53030   1.53679   1.54683
 Alpha virt. eigenvalues --    1.59185   1.59607   1.60188   1.62454   1.65573
 Alpha virt. eigenvalues --    1.93135   1.95825   1.96023   1.99414   2.00575
 Alpha virt. eigenvalues --    2.01193   2.01445   2.03056   2.03248   2.18250
 Alpha virt. eigenvalues --    2.26839   2.27755   2.28576   2.29932   2.31118
 Alpha virt. eigenvalues --    2.32427   2.33373   2.33928   2.34207   2.35964
 Alpha virt. eigenvalues --    2.37081   2.59851   2.65340   2.65465   3.55966
 Alpha virt. eigenvalues --    4.16523   4.18629   4.18951   4.39179   4.40196
 Alpha virt. eigenvalues --    4.42014
          Condensed to atoms (all electrons):
              1          2          3          4          5          6
     1  C    5.062580   0.369352  -0.038248   0.001921   0.000121  -0.003126
     2  C    0.369352   5.201470   0.314326  -0.027636  -0.002677  -0.025780
     3  P   -0.038248   0.314326  13.980540   0.317388  -0.036377   0.318446
     4  C    0.001921  -0.027636   0.317388   5.198575   0.365299  -0.026229
     5  C    0.000121  -0.002677  -0.036377   0.365299   5.064147   0.001812
     6  C   -0.003126  -0.025780   0.318446  -0.026229   0.001812   5.201485
     7  C    0.000090   0.001951  -0.036022  -0.002276   0.000099   0.366642
     8  H    0.371639  -0.031151   0.004930  -0.000085   0.000002   0.000002
     9  H    0.380657  -0.039920  -0.005210   0.000021   0.000001   0.001522
    10  H    0.380110  -0.038918   0.003187   0.000016  -0.000016  -0.000253
    11  H   -0.038627   0.355577  -0.044017  -0.003827  -0.000250  -0.007955
    12  H   -0.034714   0.368433  -0.031568  -0.002986   0.002204   0.002322
    13  H   -0.000037   0.002326  -0.034721   0.371111  -0.033767  -0.000512
    14  H   -0.000002  -0.006240  -0.043330   0.354762  -0.037339  -0.007184
    15  H   -0.000017  -0.000830   0.003929  -0.039738   0.377683  -0.000003
    16  H   -0.000001   0.000117   0.004844  -0.030812   0.373638  -0.000073
    17  H   -0.000059   0.001436  -0.006342  -0.038388   0.382453   0.000024
    18  H    0.001117  -0.001847  -0.033744   0.002470  -0.000046   0.367607
    19  H    0.000081  -0.005452  -0.044170  -0.008761   0.000076   0.355809
    20  H   -0.000004  -0.000006   0.002960  -0.000337  -0.000002  -0.038781
    21  H   -0.000001  -0.000084   0.004907  -0.000045   0.000000  -0.030701
    22  H   -0.000001   0.000044  -0.006253   0.002398  -0.000074  -0.040114
              7          8          9         10         11         12
     1  C    0.000090   0.371639   0.380657   0.380110  -0.038627  -0.034714
     2  C    0.001951  -0.031151  -0.039920  -0.038918   0.355577   0.368433
     3  P   -0.036022   0.004930  -0.005210   0.003187  -0.044017  -0.031568
     4  C   -0.002276  -0.000085   0.000021   0.000016  -0.003827  -0.002986
     5  C    0.000099   0.000002   0.000001  -0.000016  -0.000250   0.002204
     6  C    0.366642   0.000002   0.001522  -0.000253  -0.007955   0.002322
     7  C    5.060164   0.000000  -0.000123  -0.000002   0.000060  -0.000046
     8  H    0.000000   0.582254  -0.032153  -0.030833  -0.003725  -0.005072
     9  H   -0.000123  -0.032153   0.571453  -0.030094  -0.003193   0.005264
    10  H   -0.000002  -0.030833  -0.030094   0.555263   0.005486  -0.003962
    11  H    0.000060  -0.003725  -0.003193   0.005486   0.614846  -0.032522
    12  H   -0.000046  -0.005072   0.005264  -0.003962  -0.032522   0.571150
    13  H    0.000783   0.000001  -0.000001   0.000001  -0.000032   0.000031
    14  H   -0.000038   0.000001   0.000002   0.000007   0.005935  -0.000059
    15  H   -0.000003   0.000000   0.000000   0.000004   0.000122   0.000334
    16  H   -0.000001  -0.000000   0.000000  -0.000000  -0.000026  -0.000067
    17  H   -0.000001   0.000005   0.000000   0.000008   0.000593   0.003494
    18  H   -0.034316  -0.000100   0.004627   0.000046  -0.000023   0.000028
    19  H   -0.038944  -0.000005   0.000136   0.000036   0.008012  -0.000003
    20  H    0.380353   0.000000   0.000005   0.000001   0.000011   0.000001
    21  H    0.371852  -0.000000   0.000007  -0.000000  -0.000002   0.000001
    22  H    0.382314   0.000000   0.000001   0.000000   0.000005  -0.000000
             13         14         15         16         17         18
     1  C   -0.000037  -0.000002  -0.000017  -0.000001  -0.000059   0.001117
     2  C    0.002326  -0.006240  -0.000830   0.000117   0.001436  -0.001847
     3  P   -0.034721  -0.043330   0.003929   0.004844  -0.006342  -0.033744
     4  C    0.371111   0.354762  -0.039738  -0.030812  -0.038388   0.002470
     5  C   -0.033767  -0.037339   0.377683   0.373638   0.382453  -0.000046
     6  C   -0.000512  -0.007184  -0.000003  -0.000073   0.000024   0.367607
     7  C    0.000783  -0.000038  -0.000003  -0.000001  -0.000001  -0.034316
     8  H    0.000001   0.000001   0.000000  -0.000000   0.000005  -0.000100
     9  H   -0.000001   0.000002   0.000000   0.000000   0.000000   0.004627
    10  H    0.000001   0.000007   0.000004  -0.000000   0.000008   0.000046
    11  H   -0.000032   0.005935   0.000122  -0.000026   0.000593  -0.000023
    12  H    0.000031  -0.000059   0.000334  -0.000067   0.003494   0.000028
    13  H    0.572269  -0.033694  -0.002174  -0.006719   0.005066  -0.000031
    14  H   -0.033694   0.614751   0.005674  -0.002899  -0.004878   0.000076
    15  H   -0.002174   0.005674   0.557243  -0.030842  -0.030400   0.000001
    16  H   -0.006719  -0.002899  -0.030842   0.578390  -0.032004   0.000001
    17  H    0.005066  -0.004878  -0.030400  -0.032004   0.569604  -0.000001
    18  H   -0.000031   0.000076   0.000001   0.000001  -0.000001   0.573728
    19  H   -0.000133   0.010064   0.000016  -0.000007   0.000007  -0.031872
    20  H    0.000054   0.000061   0.000001  -0.000000   0.000000  -0.004164
    21  H   -0.000052  -0.000013   0.000000  -0.000000   0.000000  -0.004863
    22  H    0.002716   0.000399   0.000004   0.000005   0.000001   0.005260
             19         20         21         22
     1  C    0.000081  -0.000004  -0.000001  -0.000001
     2  C   -0.005452  -0.000006  -0.000084   0.000044
     3  P   -0.044170   0.002960   0.004907  -0.006253
     4  C   -0.008761  -0.000337  -0.000045   0.002398
     5  C    0.000076  -0.000002   0.000000  -0.000074
     6  C    0.355809  -0.038781  -0.030701  -0.040114
     7  C   -0.038944   0.380353   0.371852   0.382314
     8  H   -0.000005   0.000000  -0.000000   0.000000
     9  H    0.000136   0.000005   0.000007   0.000001
    10  H    0.000036   0.000001  -0.000000   0.000000
    11  H    0.008012   0.000011  -0.000002   0.000005
    12  H   -0.000003   0.000001   0.000001  -0.000000
    13  H   -0.000133   0.000054  -0.000052   0.002716
    14  H    0.010064   0.000061  -0.000013   0.000399
    15  H    0.000016   0.000001   0.000000   0.000004
    16  H   -0.000007  -0.000000  -0.000000   0.000005
    17  H    0.000007   0.000000   0.000000   0.000001
    18  H   -0.031872  -0.004164  -0.004863   0.005260
    19  H    0.612653   0.005508  -0.004116  -0.002930
    20  H    0.005508   0.556350  -0.030998  -0.030001
    21  H   -0.004116  -0.030998   0.581777  -0.032302
    22  H   -0.002930  -0.030001  -0.032302   0.570874
 Mulliken atomic charges:
              1
     1  C   -0.452831
     2  C   -0.434491
     3  P    0.404546
     4  C   -0.432842
     5  C   -0.456987
     6  C   -0.434961
     7  C   -0.452537
     8  H    0.144291
     9  H    0.146996
    10  H    0.159913
    11  H    0.143555
    12  H    0.157740
    13  H    0.157514
    14  H    0.143943
    15  H    0.158996
    16  H    0.146455
    17  H    0.149384
    18  H    0.156045
    19  H    0.143995
    20  H    0.158989
    21  H    0.144634
    22  H    0.147653
 Sum of Mulliken atomic charges =  -0.00000
 Mulliken charges with hydrogens summed into heavy atoms:
              1
     1  C   -0.001632
     2  C   -0.133197
     3  P    0.404546
     4  C   -0.131384
     5  C   -0.002151
     6  C   -0.134921
     7  C   -0.001261
 Sum of Mulliken charges with hydrogens summed into heavy atoms =  -0.00000
 Electronic spatial extent (au):  <R**2>=           1263.9919
 Charge=              0.0000 electrons
 Dipole moment (field-independent basis, Debye):
    X=              0.0640    Y=             -0.0801    Z=              1.3942  Tot=              1.3979
 Quadrupole moment (field-independent basis, Debye-Ang):
   XX=            -52.8371   YY=            -52.8206   ZZ=            -56.8734
   XY=             -0.0983   XZ=             -0.1615   YZ=              0.1474
 Traceless Quadrupole moment (field-independent basis, Debye-Ang):
   XX=              1.3400   YY=              1.3564   ZZ=             -2.6964
   XY=             -0.0983   XZ=             -0.1615   YZ=              0.1474
 Octapole moment (field-independent basis, Debye-Ang**2):
  XXX=              0.3822  YYY=             -3.2455  ZZZ=              6.5655  XYY=             -0.1700
  XXY=              2.5353  XXZ=              0.1570  XZZ=              0.3577  YZZ=             -0.0556
  YYZ=             -0.0742  XYZ=              0.0114
 Hexadecapole moment (field-independent basis, Debye-Ang**3):
 XXXX=           -827.5032 YYYY=           -779.3319 ZZZZ=           -152.5116 XXXY=             -0.5216
 XXXZ=             -1.6494 YYYX=             -1.0704 YYYZ=              1.1955 ZZZX=             -0.9485
 ZZZY=             -0.5508 XXYY=           -267.6178 XXZZ=           -160.2251 YYZZ=           -155.4131
 XXYZ=              0.5303 YYXZ=              1.0637 ZZXY=              0.2152
 N-N= 3.984462524311D+02 E-N=-2.157014800731D+03  KE= 5.755071100585D+02
 No NMR shielding tensors so no spin-rotation constants.
 Leave Link  601 at Fri Oct  1 18:39:24 2021, MaxMem=  805306368 cpu:       0.9
 (Enter /sw/target/amd/app/gaussian/Gaussian09RevA.02_gcc-4.9.2/g09/l701.exe)
 Compute integral first derivatives.
 ... and contract with generalized density number  0.
 Leave Link  701 at Fri Oct  1 18:39:26 2021, MaxMem=  805306368 cpu:       0.9
 (Enter /sw/target/amd/app/gaussian/Gaussian09RevA.02_gcc-4.9.2/g09/l702.exe)
 L702 exits ... SP integral derivatives will be done elsewhere.
 Leave Link  702 at Fri Oct  1 18:39:27 2021, MaxMem=  805306368 cpu:       0.1
 (Enter /sw/target/amd/app/gaussian/Gaussian09RevA.02_gcc-4.9.2/g09/l703.exe)
 Compute integral first derivatives, UseDBF=F ICtDFT=           0.
 Integral derivatives from FoFDir, PRISM(SPDF).
 Calling FoFJK, ICntrl=      2127 FMM=F ISym2X=0 I1Cent= 0 IOpClX= 0 NMat=1 NMatS=1 NMatT=0.
 FoFCou: FMM=F IPFlag=           0 FMFlag=      100000 FMFlg1=         800
         NFxFlg=           0 DoJE=F BraDBF=F KetDBF=F FulRan=T
         Omega=  0.000000  0.000000  1.000000  0.000000  0.000000 ICntrl=    2127 IOpCl=  0
         NMat0=    1 NMatS0=    1 NMatT0=    0 NMatD0=    1 NMtDS0=    0 NMtDT0=    0
         I1Cent=           0 NGrid=           0.
 Symmetry not used in FoFCou.
 Leave Link  703 at Fri Oct  1 18:40:42 2021, MaxMem=  805306368 cpu:      33.1
 (Enter /sw/target/amd/app/gaussian/Gaussian09RevA.02_gcc-4.9.2/g09/l716.exe)
 Dipole        = 2.51873014D-02-3.14976599D-02 5.48512925D-01
 ***** Axes restored to original set *****
 -------------------------------------------------------------------
 Center     Atomic                   Forces (Hartrees/Bohr)
 Number     Number              X              Y              Z
 -------------------------------------------------------------------
      1        6           0.000446282    0.006944182    0.002727194
      2        6          -0.002007100    0.003368365   -0.004454535
      3       15          -0.005447214   -0.002804697    0.014117462
      4        6           0.001954942   -0.003409691   -0.004323000
      5        6          -0.006753115   -0.001993026   -0.002962677
      6        6           0.004378713    0.001773580   -0.002434464
      7        6           0.004124300   -0.004159657    0.002920121
      8        1           0.000622969    0.001928220    0.000831330
      9        1           0.000508060    0.000805157    0.000652704
     10        1           0.000531457   -0.000144881    0.000472604
     11        1           0.000166092    0.000176849   -0.003545046
     12        1          -0.001054371   -0.002682776   -0.001192105
     13        1           0.002212124   -0.000312841    0.000969462
     14        1           0.002851451   -0.000478264   -0.002296739
     15        1          -0.000324501   -0.000253956    0.000249416
     16        1          -0.001855411   -0.000143400   -0.000249170
     17        1          -0.001317338    0.000515813    0.000508092
     18        1          -0.001314631    0.002915235    0.000215084
     19        1           0.000213973    0.001950706   -0.002611588
     20        1          -0.000498003   -0.001031492    0.000163861
     21        1           0.002146509   -0.001761208    0.000168455
     22        1           0.000414810   -0.001202218    0.000073541
 -------------------------------------------------------------------
 Cartesian Forces:  Max     0.014117462 RMS     0.002958632
 Leave Link  716 at Fri Oct  1 18:40:43 2021, MaxMem=  805306368 cpu:       0.1
 (Enter /sw/target/amd/app/gaussian/Gaussian09RevA.02_gcc-4.9.2/g09/l103.exe)

 GradGradGradGradGradGradGradGradGradGradGradGradGradGradGradGradGradGrad
 Berny optimization.
 Internal  Forces:  Max     0.011093385 RMS     0.002776532
 Search for a local minimum.
 Step number   1 out of a maximum of  115
 All quantities printed in internal units (Hartrees-Bohrs-Radians)
 RMS Force = .27765D-02 SwitMx=.10000D-02 MixMth= 1
 Mixed Optimization -- RFO/linear search
 Second derivative matrix not updated -- first step.
     Eigenvalues ---    0.00493   0.00501   0.00502   0.00504   0.00506
     Eigenvalues ---    0.00536   0.04069   0.04114   0.04187   0.05459
     Eigenvalues ---    0.05483   0.05486   0.05497   0.05498   0.05533
     Eigenvalues ---    0.05698   0.05709   0.05713   0.06149   0.09242
     Eigenvalues ---    0.09337   0.09423   0.12629   0.12785   0.12848
     Eigenvalues ---    0.12900   0.12924   0.16000   0.16000   0.16000
     Eigenvalues ---    0.16000   0.16000   0.16000   0.16000   0.16000
     Eigenvalues ---    0.16000   0.21959   0.21964   0.21979   0.22496
     Eigenvalues ---    0.22556   0.22707   0.30365   0.30370   0.30386
     Eigenvalues ---    0.34133   0.34151   0.34162   0.34192   0.34200
     Eigenvalues ---    0.34200   0.34202   0.34211   0.34212   0.34262
     Eigenvalues ---    0.34293   0.34298   0.34309   0.34347   0.34359
     Eigenvalues --- 1000.000001000.000001000.000001000.000001000.00000
     Eigenvalues --- 1000.000001000.000001000.000001000.000001000.00000
     Eigenvalues --- 1000.000001000.000001000.000001000.000001000.00000
     Eigenvalues --- 1000.000001000.000001000.000001000.000001000.00000
     Eigenvalues --- 1000.000001000.000001000.000001000.000001000.00000
     Eigenvalues --- 1000.000001000.000001000.000001000.000001000.00000
     Eigenvalues --- 1000.000001000.000001000.000001000.000001000.00000
     Eigenvalues --- 1000.000001000.000001000.000001000.000001000.00000
     Eigenvalues --- 1000.000001000.000001000.000001000.000001000.00000
 RFO step:  Lambda=-3.92859574D-03 EMin= 4.93262253D-03
 Linear search not attempted -- first point.
 Iteration  1 RMS(Cart)=  0.06184748 RMS(Int)=  0.00134686
 Iteration  2 RMS(Cart)=  0.00197144 RMS(Int)=  0.00006555
 Iteration  3 RMS(Cart)=  0.00000228 RMS(Int)=  0.00006554
 Iteration  4 RMS(Cart)=  0.00000000 RMS(Int)=  0.00006554
 Variable       Old X    -DE/DX   Delta X   Delta X   Delta X     New X
                                 (Linear)    (Quad)   (Total)
    R1        2.87241   0.01066   0.00000   0.03467   0.03467   2.90708
    R2        2.06991   0.00106   0.00000   0.00308   0.00308   2.07299
    R3        2.06891   0.00072   0.00000   0.00207   0.00207   2.07098
    R4        2.07008   0.00015   0.00000   0.00043   0.00043   2.07051
    R5        3.49122   0.01109   0.00000   0.04802   0.04802   3.53925
    R6        2.06994   0.00322   0.00000   0.00930   0.00930   2.07925
    R7        2.06829   0.00131   0.00000   0.00378   0.00378   2.07207
    R8        3.49561   0.01050   0.00000   0.04576   0.04576   3.54137
    R9        3.49736   0.00953   0.00000   0.04165   0.04165   3.53901
   R10        2.87231   0.01060   0.00000   0.03447   0.03447   2.90678
   R11        2.06973   0.00122   0.00000   0.00352   0.00352   2.07325
   R12        2.06994   0.00323   0.00000   0.00933   0.00933   2.07927
   R13        2.07076   0.00043   0.00000   0.00124   0.00124   2.07200
   R14        2.07058   0.00065   0.00000   0.00189   0.00189   2.07247
   R15        2.06811   0.00059   0.00000   0.00169   0.00169   2.06980
   R16        2.87201   0.01070   0.00000   0.03477   0.03477   2.90678
   R17        2.06749   0.00198   0.00000   0.00571   0.00571   2.07320
   R18        2.07106   0.00279   0.00000   0.00808   0.00808   2.07914
   R19        2.06975   0.00028   0.00000   0.00082   0.00082   2.07057
   R20        2.06729   0.00194   0.00000   0.00557   0.00557   2.07286
   R21        2.06839   0.00087   0.00000   0.00250   0.00250   2.07089
    A1        1.91941   0.00262   0.00000   0.01844   0.01840   1.93781
    A2        1.95468   0.00066   0.00000   0.00217   0.00214   1.95683
    A3        1.94408  -0.00031   0.00000  -0.00259  -0.00261   1.94147
    A4        1.87822  -0.00160   0.00000  -0.00854  -0.00859   1.86963
    A5        1.88074  -0.00079   0.00000  -0.00131  -0.00135   1.87939
    A6        1.88390  -0.00073   0.00000  -0.00895  -0.00895   1.87494
    A7        1.95757   0.00240   0.00000   0.01377   0.01373   1.97130
    A8        1.91852  -0.00067   0.00000   0.00323   0.00317   1.92168
    A9        1.88462   0.00172   0.00000   0.01615   0.01626   1.90088
   A10        1.92524  -0.00019   0.00000   0.00240   0.00225   1.92750
   A11        1.90298  -0.00287   0.00000  -0.02420  -0.02429   1.87868
   A12        1.87242  -0.00049   0.00000  -0.01259  -0.01270   1.85972
   A13        1.76276  -0.00006   0.00000  -0.00174  -0.00175   1.76101
   A14        1.74362  -0.00033   0.00000  -0.00380  -0.00380   1.73982
   A15        1.74391  -0.00012   0.00000  -0.00226  -0.00227   1.74164
   A16        1.97733   0.00163   0.00000   0.01004   0.00993   1.98727
   A17        1.88316  -0.00177   0.00000  -0.01998  -0.01999   1.86317
   A18        1.92735  -0.00076   0.00000   0.00129   0.00100   1.92835
   A19        1.89782   0.00041   0.00000   0.00160   0.00167   1.89948
   A20        1.90418   0.00095   0.00000   0.01756   0.01744   1.92161
   A21        1.87072  -0.00059   0.00000  -0.01228  -0.01235   1.85837
   A22        1.95640  -0.00072   0.00000  -0.00724  -0.00722   1.94918
   A23        1.91935   0.00247   0.00000   0.01742   0.01736   1.93670
   A24        1.94421   0.00116   0.00000   0.00753   0.00745   1.95167
   A25        1.88299  -0.00109   0.00000  -0.00764  -0.00760   1.87539
   A26        1.88679  -0.00077   0.00000  -0.00902  -0.00901   1.87778
   A27        1.87100  -0.00119   0.00000  -0.00167  -0.00183   1.86917
   A28        1.96847   0.00172   0.00000   0.01002   0.01000   1.97847
   A29        1.90133  -0.00253   0.00000  -0.02379  -0.02384   1.87750
   A30        1.91993  -0.00056   0.00000  -0.00093  -0.00111   1.91882
   A31        1.89014   0.00152   0.00000   0.01341   0.01348   1.90362
   A32        1.91227   0.00024   0.00000   0.01052   0.01046   1.92273
   A33        1.86876  -0.00049   0.00000  -0.01037  -0.01055   1.85821
   A34        1.94177   0.00020   0.00000   0.00102   0.00098   1.94274
   A35        1.91883   0.00267   0.00000   0.01887   0.01881   1.93764
   A36        1.95379   0.00053   0.00000   0.00087   0.00085   1.95464
   A37        1.88026  -0.00094   0.00000  -0.00109  -0.00118   1.87909
   A38        1.88590  -0.00097   0.00000  -0.01060  -0.01060   1.87530
   A39        1.88067  -0.00168   0.00000  -0.00992  -0.00995   1.87072
    D1       -3.13106   0.00057   0.00000   0.01321   0.01320  -3.11786
    D2        1.00346  -0.00037   0.00000  -0.00183  -0.00185   1.00162
    D3       -1.03391  -0.00039   0.00000   0.00226   0.00230  -1.03162
    D4        1.06457   0.00040   0.00000   0.01017   0.01014   1.07472
    D5       -1.08408  -0.00054   0.00000  -0.00487  -0.00490  -1.08899
    D6       -3.12146  -0.00056   0.00000  -0.00078  -0.00076  -3.12222
    D7       -1.04717   0.00110   0.00000   0.02198   0.02198  -1.02520
    D8        3.08735   0.00016   0.00000   0.00695   0.00693   3.09428
    D9        1.04998   0.00014   0.00000   0.01103   0.01108   1.06105
   D10       -3.14131   0.00065   0.00000   0.02081   0.02073  -3.12059
   D11       -1.35684   0.00043   0.00000   0.01716   0.01709  -1.33975
   D12       -0.99645   0.00133   0.00000   0.03641   0.03636  -0.96008
   D13        0.78803   0.00111   0.00000   0.03277   0.03273   0.82075
   D14        1.05543  -0.00110   0.00000   0.00805   0.00817   1.06360
   D15        2.83990  -0.00131   0.00000   0.00441   0.00453   2.84444
   D16       -1.10655  -0.00135   0.00000  -0.08674  -0.08676  -1.19331
   D17        3.07467  -0.00166   0.00000  -0.08129  -0.08123   2.99344
   D18        1.03533   0.00049   0.00000  -0.05564  -0.05568   0.97965
   D19       -2.89079  -0.00097   0.00000  -0.08186  -0.08188  -2.97267
   D20        1.29043  -0.00128   0.00000  -0.07641  -0.07635   1.21408
   D21       -0.74891   0.00088   0.00000  -0.05076  -0.05081  -0.79971
   D22       -3.13827   0.00035   0.00000   0.02158   0.02155  -3.11672
   D23        1.04574  -0.00093   0.00000   0.01457   0.01467   1.06041
   D24       -0.99768   0.00147   0.00000   0.04152   0.04145  -0.95622
   D25       -1.33834   0.00019   0.00000   0.01844   0.01841  -1.31993
   D26        2.84567  -0.00109   0.00000   0.01142   0.01152   2.85720
   D27        0.80226   0.00130   0.00000   0.03838   0.03831   0.84057
   D28       -0.86637   0.00055   0.00000  -0.00730  -0.00724  -0.87360
   D29       -2.96099   0.00072   0.00000  -0.00475  -0.00463  -2.96562
   D30        1.25040  -0.00012   0.00000  -0.01866  -0.01864   1.23177
   D31        1.22726  -0.00036   0.00000  -0.02500  -0.02500   1.20226
   D32       -0.86737  -0.00019   0.00000  -0.02245  -0.02239  -0.88976
   D33       -2.93916  -0.00103   0.00000  -0.03636  -0.03640  -2.97556
   D34       -3.02103  -0.00032   0.00000  -0.02906  -0.02914  -3.05017
   D35        1.16753  -0.00015   0.00000  -0.02651  -0.02653   1.14100
   D36       -0.90426  -0.00099   0.00000  -0.04043  -0.04054  -0.94480
   D37       -1.08158   0.00118   0.00000   0.03287   0.03292  -1.04866
   D38        3.12015   0.00049   0.00000   0.02134   0.02134   3.14150
   D39        1.03049   0.00046   0.00000   0.02059   0.02061   1.05110
   D40        1.02401   0.00013   0.00000   0.01852   0.01855   1.04256
   D41       -1.05744  -0.00056   0.00000   0.00699   0.00697  -1.05047
   D42        3.13608  -0.00059   0.00000   0.00624   0.00624  -3.14087
   D43        3.05673   0.00053   0.00000   0.01943   0.01943   3.07616
   D44        0.97528  -0.00017   0.00000   0.00789   0.00786   0.98314
   D45       -1.11438  -0.00020   0.00000   0.00715   0.00712  -1.10726
         Item               Value     Threshold  Converged?
 Maximum Force            0.011093     0.000450     NO 
 RMS     Force            0.002777     0.000300     NO 
 Maximum Displacement     0.262390     0.001800     NO 
 RMS     Displacement     0.062221     0.001200     NO 
 Predicted change in Energy=-2.091342D-03
 GradGradGradGradGradGradGradGradGradGradGradGradGradGradGradGradGradGrad

 Leave Link  103 at Fri Oct  1 18:40:50 2021, MaxMem=  805306368 cpu:       2.9
 (Enter /sw/target/amd/app/gaussian/Gaussian09RevA.02_gcc-4.9.2/g09/l202.exe)
                          Input orientation:                          
 ---------------------------------------------------------------------
 Center     Atomic      Atomic             Coordinates (Angstroms)
 Number     Number       Type             X           Y           Z
 ---------------------------------------------------------------------
      1          6           0        2.796957    1.151143    0.676177
      2          6           0        2.497798   -0.064517   -0.217822
      3         15           0        2.981844   -1.690780    0.575070
      4          6           0        2.518793   -2.898015   -0.781428
      5          6           0        1.003713   -3.014517   -1.020211
      6          6           0        4.836375   -1.624532    0.322925
      7          6           0        5.568228   -2.871185    0.848576
      8          1           0        2.479792    2.083153    0.192309
      9          1           0        3.866278    1.249028    0.895280
     10          1           0        2.270987    1.078037    1.634558
     11          1           0        2.995537    0.051008   -1.192269
     12          1           0        1.420636   -0.100812   -0.419571
     13          1           0        2.905887   -3.878619   -0.477726
     14          1           0        3.030584   -2.637510   -1.719975
     15          1           0        0.457885   -3.182504   -0.084226
     16          1           0        0.775239   -3.852956   -1.689228
     17          1           0        0.594084   -2.111116   -1.484680
     18          1           0        5.211127   -0.739324    0.851678
     19          1           0        5.064984   -1.471541   -0.742366
     20          1           0        5.406671   -3.003850    1.924146
     21          1           0        6.649489   -2.792251    0.681657
     22          1           0        5.229636   -3.786504    0.350105
 ---------------------------------------------------------------------
                    Distance matrix (angstroms):
                    1          2          3          4          5
     1  C    0.000000
     2  C    1.538363   0.000000
     3  P    2.849726   1.872889   0.000000
     4  C    4.312501   2.889084   1.874011   0.000000
     5  C    4.842126   3.402738   2.865345   1.538199   0.000000
     6  C    3.462425   2.862691   1.872765   2.865753   4.292478
     7  C    4.887615   4.294430   2.856141   3.457844   4.934339
     8  H    1.096979   2.186553   3.826373   5.075600   5.443827
     9  H    1.095917   2.199348   3.086621   4.671726   5.480985
    10  H    1.095666   2.188192   3.048637   4.659119   5.040118
    11  H    2.177343   1.100290   2.481432   3.015429   3.659838
    12  H    2.159240   1.096493   2.440221   3.026753   3.004043
    13  H    5.161576   3.844667   2.429153   1.097115   2.158524
    14  H    4.488877   3.026651   2.483124   1.100301   2.177156
    15  H    4.982968   3.728396   3.005043   2.194167   1.096456
    16  H    5.892665   4.414128   3.830295   2.185405   1.096706
    17  H    4.490466   3.068815   3.181297   2.195058   1.095291
    18  H    3.071299   2.993551   2.439566   3.817806   5.136419
    19  H    3.746289   2.974107   2.474505   2.918808   4.353377
    20  H    5.062805   4.657172   3.069844   3.958683   5.296734
    21  H    5.512929   5.048379   3.830955   4.383429   5.900893
    22  H    5.514037   4.651738   3.081434   3.068949   4.509119
                    6          7          8          9         10
     6  C    0.000000
     7  C    1.538200   0.000000
     8  H    4.395164   5.874911   0.000000
     9  H    3.086426   4.458135   1.764164   0.000000
    10  H    3.950377   5.204414   1.770294   1.766557   0.000000
    11  H    2.914093   4.395794   2.512501   2.559552   3.093657
    12  H    3.813174   5.146424   2.503180   3.087404   2.516392
    13  H    3.073879   3.140391   6.014418   5.394465   5.425245
    14  H    2.908685   3.618245   5.122973   4.758479   5.063119
    15  H    4.665214   5.204099   5.647275   5.675830   4.939005
    16  H    5.050491   5.511540   6.456243   6.501111   6.131845
    17  H    4.636942   5.546521   4.894903   5.259470   4.765747
    18  H    1.097093   2.161565   3.982628   2.400846   3.544027
    19  H    1.100234   2.177924   4.493627   3.394153   4.467274
    20  H    2.188986   1.095696   6.119107   4.638787   5.155403
    21  H    2.186238   1.096913   6.433925   4.911602   5.921016
    22  H    2.197616   1.095869   6.483780   5.245240   5.836711
                   11         12         13         14         15
    11  H    0.000000
    12  H    1.760802   0.000000
    13  H    3.995069   4.059702   0.000000
    14  H    2.740042   3.273808   1.760421   0.000000
    15  H    4.257116   3.245947   2.575293   3.097010   0.000000
    16  H    4.518588   4.013372   2.451134   2.562194   1.768121
    17  H    3.244574   2.420530   3.079360   2.503794   1.768528
    18  H    3.116277   4.048652   4.115412   3.869273   5.425712
    19  H    2.608291   3.906964   3.244342   2.540470   4.958418
    20  H    4.985757   5.459772   3.576049   4.365732   5.343778
    21  H    4.994706   5.983097   4.066807   4.346062   6.250987
    22  H    4.700704   5.355857   2.468521   3.231292   4.829397
                   16         17         18         19         20
    16  H    0.000000
    17  H    1.763141   0.000000
    18  H    5.985651   5.353266   0.000000
    19  H    4.996960   4.577012   1.760248   0.000000
    20  H    5.935286   5.964735   2.513266   3.094350   0.000000
    21  H    6.422850   6.467216   2.512430   2.506545   1.770070
    22  H    4.899485   5.259439   3.088240   2.565084   1.766775
                   21         22
    21  H    0.000000
    22  H    1.764780   0.000000
 Stoichiometry    C6H15P
 Framework group  C1[X(C6H15P)]
 Deg. of freedom    60
 Full point group                 C1      NOp   1
 Largest Abelian subgroup         C1      NOp   1
 Largest concise Abelian subgroup C1      NOp   1
                         Standard orientation:                         
 ---------------------------------------------------------------------
 Center     Atomic      Atomic             Coordinates (Angstroms)
 Number     Number       Type             X           Y           Z
 ---------------------------------------------------------------------
      1          6           0        0.844158    2.685929   -0.091724
      2          6           0        1.084533    1.236024    0.362759
      3         15           0       -0.011953    0.002123   -0.522069
      4          6           0        0.521976   -1.596981    0.296286
      5          6           0        1.956818   -2.026477   -0.054171
      6          6           0       -1.621669    0.302801    0.386588
      7          6           0       -2.768540   -0.606058   -0.087461
      8          1           0        1.518045    3.378181    0.427919
      9          1           0       -0.179988    3.018062    0.112839
     10          1           0        1.016794    2.798341   -1.167849
     11          1           0        0.953425    1.154493    1.452164
     12          1           0        2.126134    0.965672    0.152348
     13          1           0       -0.173507   -2.374108   -0.044357
     14          1           0        0.403608   -1.529054    1.388090
     15          1           0        2.130573   -2.013342   -1.136692
     16          1           0        2.158914   -3.044884    0.299055
     17          1           0        2.702496   -1.371217    0.408711
     18          1           0       -1.903575    1.350391    0.223197
     19          1           0       -1.468471    0.186354    1.469863
     20          1           0       -2.981324   -0.456344   -1.151820
     21          1           0       -3.690828   -0.398242    0.468790
     22          1           0       -2.536667   -1.667583    0.055108
 ---------------------------------------------------------------------
 Rotational constants (GHZ):      1.8473647      1.8040992      0.9994132
 Leave Link  202 at Fri Oct  1 18:40:51 2021, MaxMem=  805306368 cpu:       0.0
 (Enter /sw/target/amd/app/gaussian/Gaussian09RevA.02_gcc-4.9.2/g09/l301.exe)
 Standard basis: 6-31G(d) (6D, 7F)
 Ernie: Thresh=  0.10000D-02 Tol=  0.10000D-05 Strict=F.
 There are   139 symmetry adapted basis functions of A   symmetry.
 Integral buffers will be    131072 words long.
 Raffenetti 2 integral format.
 Two-electron integral symmetry is turned on.
   139 basis functions,   280 primitive gaussians,   139 cartesian basis functions
    33 alpha electrons       33 beta electrons
       nuclear repulsion energy       393.7526582102 Hartrees.
 IExCor=  402 DFT=T Ex+Corr=B3LYP ExCW=0 ScaHFX=  0.200000
 ScaDFX=  0.800000  0.720000  1.000000  0.810000 ScalE2=  1.000000  1.000000
 IRadAn=      0 IRanWt=     -1 IRanGd=            0 ICorTp=0
 NAtoms=   22 NActive=   22 NUniq=   22 SFac= 7.50D-01 NAtFMM=   80 NAOKFM=F Big=F
 Leave Link  301 at Fri Oct  1 18:40:51 2021, MaxMem=  805306368 cpu:       0.1
 (Enter /sw/target/amd/app/gaussian/Gaussian09RevA.02_gcc-4.9.2/g09/l302.exe)
 NPDir=0 NMtPBC=     1 NCelOv=     1 NCel=       1 NClECP=     1 NCelD=      1
         NCelK=      1 NCelE2=     1 NClLst=     1 CellRange=     0.0.
 One-electron integrals computed using PRISM.
 NBasis=   139 RedAO= T  NBF=   139
 NBsUse=   139 1.00D-06 NBFU=   139
 Precomputing XC quadrature grid using
 IXCGrd= 2 IRadAn=           0 IRanWt=          -1 IRanGd=           0 AccXCQ= 1.00D-10.
 NRdTot=    1375 NPtTot=      174656 NUsed=      184580 NTot=      184612
 NSgBfM=   139   139   139   139   139 NAtAll=    22    22.
 Leave Link  302 at Fri Oct  1 18:40:56 2021, MaxMem=  805306368 cpu:       1.4
 (Enter /sw/target/amd/app/gaussian/Gaussian09RevA.02_gcc-4.9.2/g09/l303.exe)
 DipDrv:  MaxL=1.
 Leave Link  303 at Fri Oct  1 18:40:57 2021, MaxMem=  805306368 cpu:       0.1
 (Enter /sw/target/amd/app/gaussian/Gaussian09RevA.02_gcc-4.9.2/g09/l401.exe)
 Initial guess read from the read-write file.
 B after Tr=     0.000000    0.000000    0.000000
         Rot=    1.000000    0.000000    0.000000    0.000000 Ang=   0.00 deg.
 Guess basis will be translated and rotated to current coordinates.
 Initial guess orbital symmetries:
       Occupied  (A) (A) (A) (A) (A) (A) (A) (A) (A) (A) (A) (A)
                 (A) (A) (A) (A) (A) (A) (A) (A) (A) (A) (A) (A)
                 (A) (A) (A) (A) (A) (A) (A) (A) (A)
       Virtual   (A) (A) (A) (A) (A) (A) (A) (A) (A) (A) (A) (A)
                 (A) (A) (A) (A) (A) (A) (A) (A) (A) (A) (A) (A)
                 (A) (A) (A) (A) (A) (A) (A) (A) (A) (A) (A) (A)
                 (A) (A) (A) (A) (A) (A) (A) (A) (A) (A) (A) (A)
                 (A) (A) (A) (A) (A) (A) (A) (A) (A) (A) (A) (A)
                 (A) (A) (A) (A) (A) (A) (A) (A) (A) (A) (A) (A)
                 (A) (A) (A) (A) (A) (A) (A) (A) (A) (A) (A) (A)
                 (A) (A) (A) (A) (A) (A) (A) (A) (A) (A) (A) (A)
                 (A) (A) (A) (A) (A) (A) (A) (A) (A) (A)
 The electronic state of the initial guess is 1-A.
 Generating alternative initial guess.
 Harris functional with IExCor=  402 diagonalized for initial guess.
 ExpMin= 9.98D-02 ExpMax= 1.94D+04 ExpMxC= 2.91D+03 IAcc=2 IRadAn=         0 AccDes= 0.00D+00
 HarFok:  IExCor=  402 AccDes= 0.00D+00 IRadAn=         0 IDoV= 1
 ScaDFX=  1.000000  1.000000  1.000000  1.000000
 FoFCou: FMM=F IPFlag=           0 FMFlag=      100000 FMFlg1=           0
         NFxFlg=           0 DoJE=T BraDBF=F KetDBF=T FulRan=T
         Omega=  0.000000  0.000000  1.000000  0.000000  0.000000 ICntrl=     500 IOpCl=  0
         NMat0=    1 NMatS0=    1 NMatT0=    0 NMatD0=    1 NMtDS0=    0 NMtDT0=    0
         I1Cent=           4 NGrid=           0.
 Petite list used in FoFCou.
 Harris En= -579.139811421135    
 Leave Link  401 at Fri Oct  1 18:41:27 2021, MaxMem=  805306368 cpu:      13.5
 (Enter /sw/target/amd/app/gaussian/Gaussian09RevA.02_gcc-4.9.2/g09/l502.exe)
 Closed shell SCF:
 Requested convergence on RMS density matrix=1.00D-08 within  64 cycles.
 Requested convergence on MAX density matrix=1.00D-06.
 Requested convergence on             energy=1.00D-06.
 No special actions if energy rises.
 Using DIIS extrapolation, IDIIS=  1040.
 Integral symmetry usage will be decided dynamically.
       184369 words used for storage of precomputed grid.
 Keep R1 ints in memory in canonical form, NReq=48963039.
 IEnd=      249780 IEndB=      249780 NGot=   805306368 MDV=   757738930
 LenX=   757738930 LenY=   757719168
 Symmetry not used in FoFDir.
 MinBra= 0 MaxBra= 2 Meth= 1.
 IRaf=       0 NMat=   1 IRICut=       1 DoRegI=T DoRafI=F ISym2E= 0 JSym2E=0.
 Integral accuracy reduced to 1.0D-05 until final iterations.

 Cycle   1  Pass 0  IDiag  1:
 E= -579.026766312738    
 DIIS: error= 3.50D-03 at cycle   1 NSaved=   1.
 NSaved= 1 IEnMin= 1 EnMin= -579.026766312738     IErMin= 1 ErrMin= 3.50D-03
 ErrMax= 3.50D-03 EMaxC= 1.00D-01 BMatC= 2.66D-03 BMatP= 2.66D-03
 IDIUse=3 WtCom= 9.65D-01 WtEn= 3.50D-02
 Coeff-Com:  0.100D+01
 Coeff-En:   0.100D+01
 Coeff:      0.100D+01
 Gap=     0.276 Goal=   None    Shift=    0.000
 GapD=    0.276 DampG=1.000 DampE=1.000 DampFc=1.0000 IDamp=-1.
 RMSDP=5.82D-04 MaxDP=9.19D-03              OVMax= 1.73D-02

 Cycle   2  Pass 0  IDiag  1:
 E= -579.032139034696     Delta-E=       -0.005372721958 Rises=F Damp=F
 DIIS: error= 6.67D-04 at cycle   2 NSaved=   2.
 NSaved= 2 IEnMin= 2 EnMin= -579.032139034696     IErMin= 2 ErrMin= 6.67D-04
 ErrMax= 6.67D-04 EMaxC= 1.00D-01 BMatC= 1.15D-04 BMatP= 2.66D-03
 IDIUse=3 WtCom= 9.93D-01 WtEn= 6.67D-03
 Coeff-Com: -0.648D-02 0.101D+01
 Coeff-En:   0.000D+00 0.100D+01
 Coeff:     -0.643D-02 0.101D+01
 Gap=     0.272 Goal=   None    Shift=    0.000
 RMSDP=1.72D-04 MaxDP=3.16D-03 DE=-5.37D-03 OVMax= 5.25D-03

 Cycle   3  Pass 0  IDiag  1:
 E= -579.032122860770     Delta-E=        0.000016173926 Rises=F Damp=F
 DIIS: error= 7.74D-04 at cycle   3 NSaved=   3.
 NSaved= 3 IEnMin= 2 EnMin= -579.032139034696     IErMin= 2 ErrMin= 6.67D-04
 ErrMax= 7.74D-04 EMaxC= 1.00D-01 BMatC= 1.59D-04 BMatP= 1.15D-04
 IDIUse=3 WtCom= 2.64D-01 WtEn= 7.36D-01
 Coeff-Com: -0.473D-01 0.571D+00 0.477D+00
 Coeff-En:   0.000D+00 0.529D+00 0.471D+00
 Coeff:     -0.125D-01 0.540D+00 0.473D+00
 Gap=     0.273 Goal=   None    Shift=    0.000
 RMSDP=9.72D-05 MaxDP=2.12D-03 DE= 1.62D-05 OVMax= 3.28D-03

 Cycle   4  Pass 0  IDiag  1:
 E= -579.032286738912     Delta-E=       -0.000163878142 Rises=F Damp=F
 DIIS: error= 7.36D-05 at cycle   4 NSaved=   4.
 NSaved= 4 IEnMin= 4 EnMin= -579.032286738912     IErMin= 4 ErrMin= 7.36D-05
 ErrMax= 7.36D-05 EMaxC= 1.00D-01 BMatC= 1.46D-06 BMatP= 1.15D-04
 IDIUse=1 WtCom= 1.00D+00 WtEn= 0.00D+00
 Coeff-Com: -0.113D-01 0.900D-01 0.141D+00 0.781D+00
 Coeff:     -0.113D-01 0.900D-01 0.141D+00 0.781D+00
 Gap=     0.273 Goal=   None    Shift=    0.000
 RMSDP=1.05D-05 MaxDP=2.60D-04 DE=-1.64D-04 OVMax= 3.53D-04

 Cycle   5  Pass 0  IDiag  1:
 E= -579.032288193925     Delta-E=       -0.000001455014 Rises=F Damp=F
 DIIS: error= 2.09D-05 at cycle   5 NSaved=   5.
 NSaved= 5 IEnMin= 5 EnMin= -579.032288193925     IErMin= 5 ErrMin= 2.09D-05
 ErrMax= 2.09D-05 EMaxC= 1.00D-01 BMatC= 1.23D-07 BMatP= 1.46D-06
 IDIUse=1 WtCom= 1.00D+00 WtEn= 0.00D+00
 Coeff-Com: -0.266D-02 0.102D-01 0.406D-01 0.373D+00 0.579D+00
 Coeff:     -0.266D-02 0.102D-01 0.406D-01 0.373D+00 0.579D+00
 Gap=     0.273 Goal=   None    Shift=    0.000
 RMSDP=3.21D-06 MaxDP=7.53D-05 DE=-1.46D-06 OVMax= 9.69D-05

 Initial convergence to 1.0D-05 achieved.  Increase integral accuracy.
 Cycle   6  Pass 1  IDiag  1:
 E= -579.032438484461     Delta-E=       -0.000150290536 Rises=F Damp=F
 DIIS: error= 1.90D-05 at cycle   1 NSaved=   1.
[...]
    13  H    0.004434  -0.000000  -0.000003   0.000005   0.000422   0.000227
    14  H    0.000084  -0.000008  -0.000003   0.000005   0.003321   0.000067
    15  H    0.000010  -0.000001  -0.000000   0.000008   0.000072   0.000403
    16  H    0.000005  -0.000001  -0.000000   0.000001   0.000209   0.000389
    17  H    0.000000  -0.000033  -0.000005   0.000069   0.001541   0.008799
    18  H   -0.058947   0.000461   0.008104  -0.001112  -0.004105  -0.000306
    19  H   -0.048855   0.000119   0.000668  -0.000120  -0.006486  -0.000446
    20  H    0.265706   0.000001   0.000042  -0.000023  -0.000053  -0.000007
    21  H    0.297312   0.000000   0.000017  -0.000001  -0.000041  -0.000000
    22  H    0.330979   0.000000   0.000004  -0.000001  -0.000048  -0.000004
             13         14         15         16         17         18
     1  C   -0.000025   0.000124   0.000002   0.000003   0.000026  -0.001938
     2  C   -0.000720  -0.004468  -0.001406  -0.001537  -0.012097   0.013873
     3  P   -0.042093  -0.034262   0.017913   0.029949   0.047096   0.081283
     4  C    0.341667   0.362743  -0.040953  -0.024957  -0.046827   0.005192
     5  C   -0.057106  -0.039122   0.341773   0.149724   0.282630  -0.000013
     6  C    0.013611   0.003466   0.000459   0.000319   0.000743   0.161581
     7  C    0.004434   0.000084   0.000010   0.000005   0.000000  -0.058947
     8  H   -0.000000  -0.000008  -0.000001  -0.000001  -0.000033   0.000461
     9  H   -0.000003  -0.000003  -0.000000  -0.000000  -0.000005   0.008104
    10  H    0.000005   0.000005   0.000008   0.000001   0.000069  -0.001112
    11  H    0.000422   0.003321   0.000072   0.000209   0.001541  -0.004105
    12  H    0.000227   0.000067   0.000403   0.000389   0.008799  -0.000306
    13  H    0.583137  -0.027372  -0.000090   0.006791   0.006786  -0.000371
    14  H   -0.027372   0.552305   0.004495  -0.000993  -0.002047  -0.000128
    15  H   -0.000090   0.004495   0.561526  -0.013069  -0.019331  -0.000006
    16  H    0.006791  -0.000993  -0.013069   0.749636   0.001767  -0.000003
    17  H    0.006786  -0.002047  -0.019331   0.001767   0.602283  -0.000015
    18  H   -0.000371  -0.000128  -0.000006  -0.000003  -0.000015   0.652704
    19  H   -0.002635   0.000416  -0.000027  -0.000078  -0.000092  -0.000256
    20  H   -0.001122  -0.000040  -0.000019  -0.000005  -0.000003   0.009405
    21  H   -0.000410  -0.000044  -0.000001  -0.000001  -0.000000   0.004842
    22  H    0.000182  -0.000044  -0.000028  -0.000044  -0.000009   0.007407
             19         20         21         22
     1  C   -0.001197  -0.000001  -0.000005  -0.000003
     2  C    0.015992   0.000574   0.000044   0.000270
     3  P    0.040017   0.073008   0.024532   0.024430
     4  C    0.011181   0.002003   0.000447   0.004405
     5  C    0.000393   0.000017   0.000002   0.000049
     6  C    0.204892  -0.088559  -0.044590  -0.061277
     7  C   -0.048855   0.265706   0.297312   0.330979
     8  H    0.000119   0.000001   0.000000   0.000000
     9  H    0.000668   0.000042   0.000017   0.000004
    10  H   -0.000120  -0.000023  -0.000001  -0.000001
    11  H   -0.006486  -0.000053  -0.000041  -0.000048
    12  H   -0.000446  -0.000007  -0.000000  -0.000004
    13  H   -0.002635  -0.001122  -0.000410   0.000182
    14  H    0.000416  -0.000040  -0.000044  -0.000044
    15  H   -0.000027  -0.000019  -0.000001  -0.000028
    16  H   -0.000078  -0.000005  -0.000001  -0.000044
    17  H   -0.000092  -0.000003  -0.000000  -0.000009
    18  H   -0.000256   0.009405   0.004842   0.007407
    19  H    0.633053   0.008608   0.003850   0.002215
    20  H    0.008608   0.629457  -0.009423  -0.015729
    21  H    0.003850  -0.009423   0.612283  -0.022150
    22  H    0.002215  -0.015729  -0.022150   0.597729
 Mulliken atomic charges:
              1
     1  C   -0.459922
     2  C   -0.380744
     3  P    0.273052
     4  C   -0.410784
     5  C   -0.397656
     6  C   -0.377693
     7  C   -0.417206
     8  H    0.144107
     9  H    0.153562
    10  H    0.156861
    11  H    0.160922
    12  H    0.168121
    13  H    0.174686
    14  H    0.181506
    15  H    0.148271
    16  H    0.101894
    17  H    0.128719
    18  H    0.122348
    19  H    0.138788
    20  H    0.126163
    21  H    0.133339
    22  H    0.131668
 Sum of Mulliken atomic charges =   0.00000
 Mulliken charges with hydrogens summed into heavy atoms:
              1
     1  C   -0.005392
     2  C   -0.051701
     3  P    0.273052
     4  C   -0.054593
     5  C   -0.018772
     6  C   -0.116558
     7  C   -0.026036
 Sum of Mulliken charges with hydrogens summed into heavy atoms =   0.00000
 Electronic spatial extent (au):  <R**2>=           1307.3059
 Charge=             -0.0000 electrons
 Dipole moment (field-independent basis, Debye):
    X=             -0.4314    Y=              0.0443    Z=              1.1565  Tot=              1.2351
 Quadrupole moment (field-independent basis, Debye-Ang):
   XX=            -55.4012   YY=            -58.9081   ZZ=            -55.3015
   XY=              1.3525   XZ=             -0.3005   YZ=              0.6608
 Traceless Quadrupole moment (field-independent basis, Debye-Ang):
   XX=              1.1357   YY=             -2.3711   ZZ=              1.2354
   XY=              1.3525   XZ=             -0.3005   YZ=              0.6608
 Octapole moment (field-independent basis, Debye-Ang**2):
  XXX=             -4.2430  YYY=             -5.4021  ZZZ=              4.4882  XYY=             -2.1087
  XXY=              2.2905  XXZ=              1.9517  XZZ=             -1.1544  YZZ=              1.1262
  YYZ=              1.1280  XYZ=             -1.5762
 Hexadecapole moment (field-independent basis, Debye-Ang**3):
 XXXX=           -847.3382 YYYY=           -891.9550 ZZZZ=           -149.7220 XXXY=              2.9768
 XXXZ=             -2.0141 YYYX=             -2.1486 YYYZ=             -2.1805 ZZZX=              0.1404
 ZZZY=              1.4533 XXYY=           -289.1180 XXZZ=           -167.1246 YYZZ=           -170.3346
 XXYZ=             -0.3914 YYXZ=             -1.0009 ZZXY=              4.2641
 N-N= 3.931990038017D+02 E-N=-2.145294442461D+03  KE= 5.753679669534D+02
 No NMR shielding tensors so no spin-rotation constants.
 Leave Link  601 at Fri Oct  1 23:21:49 2021, MaxMem=  805306368 cpu:       0.8
 (Enter /sw/target/amd/app/gaussian/Gaussian09RevA.02_gcc-4.9.2/g09/l604.exe)
 Evaluate density.
 Using the total density.
 Monte-Carlo method of calculating molar volume:
 based on  0.001 e/bohr**3 density envelope.
 Number of points per bohr**3 =   20 CutOff= 1.00D-04
 Using the CI density.
 There are       415 points.  Will hold       415 in memory.
 LenV=   805227563 MDV=   805306368.
 Box volume = 8972.622 fraction occupied=0.161
 Integrated density= 4.6279748295887075D+01 error=-1.9720251704112925D+01
 Molar volume = 1448.592 bohr**3/mol (129.271 cm**3/mol)
 Recommended a0 for SCRF calculation =  4.59 angstrom (  8.67 bohr)
 Leave Link  604 at Fri Oct  1 23:21:51 2021, MaxMem=  805306368 cpu:       0.3
 (Enter /sw/target/amd/app/gaussian/Gaussian09RevA.02_gcc-4.9.2/g09/l607.exe)
 ******************************Gaussian NBO Version 3.1******************************
             N A T U R A L   A T O M I C   O R B I T A L   A N D
          N A T U R A L   B O N D   O R B I T A L   A N A L Y S I S
 ******************************Gaussian NBO Version 3.1******************************
       /RESON  / : Allow strongly delocalized NBO set

 Analyzing the CI density

 Job title: CCP(CC)CC_conf_0                                                

 Storage needed:     59576 in NPA ( 805303728 available)


 NATURAL POPULATIONS:  Natural atomic orbital occupancies 
                                                          
   NAO  Atom  No  lang   Type(AO)    Occupancy
 --------------------------------------------
     1    C    1  S      Cor( 1S)     1.99945
     2    C    1  S      Val( 2S)     1.10079
     3    C    1  S      Ryd( 3S)     0.00050
     4    C    1  S      Ryd( 4S)     0.00002
     5    C    1  px     Val( 2p)     1.17717
     6    C    1  px     Ryd( 3p)     0.00168
     7    C    1  py     Val( 2p)     1.16079
     8    C    1  py     Ryd( 3p)     0.00149
     9    C    1  pz     Val( 2p)     1.23662
    10    C    1  pz     Ryd( 3p)     0.00291
    11    C    1  dxy    Ryd( 3d)     0.00054
    12    C    1  dxz    Ryd( 3d)     0.00060
    13    C    1  dyz    Ryd( 3d)     0.00019
    14    C    1  dx2y2  Ryd( 3d)     0.00088
    15    C    1  dz2    Ryd( 3d)     0.00108

    16    C    2  S      Cor( 1S)     1.99933
    17    C    2  S      Val( 2S)     1.17401
    18    C    2  S      Ryd( 3S)     0.00596
    19    C    2  S      Ryd( 4S)     0.00002
    20    C    2  px     Val( 2p)     1.18648
    21    C    2  px     Ryd( 3p)     0.00385
    22    C    2  py     Val( 2p)     1.20094
    23    C    2  py     Ryd( 3p)     0.00190
    24    C    2  pz     Val( 2p)     1.21247
    25    C    2  pz     Ryd( 3p)     0.00137
    26    C    2  dxy    Ryd( 3d)     0.00082
    27    C    2  dxz    Ryd( 3d)     0.00077
    28    C    2  dyz    Ryd( 3d)     0.00036
    29    C    2  dx2y2  Ryd( 3d)     0.00095
    30    C    2  dz2    Ryd( 3d)     0.00114

    31    P    3  S      Cor( 1S)     2.00000
    32    P    3  S      Cor( 2S)     1.99861
    33    P    3  S      Val( 3S)     1.30494
    34    P    3  S      Ryd( 4S)     0.00114
    35    P    3  S      Ryd( 5S)     0.00000
    36    P    3  px     Cor( 2p)     1.99984
    37    P    3  px     Val( 3p)     0.83277
    38    P    3  px     Ryd( 4p)     0.03611
    39    P    3  py     Cor( 2p)     1.99984
    40    P    3  py     Val( 3p)     0.94526
    41    P    3  py     Ryd( 4p)     0.05560
    42    P    3  pz     Cor( 2p)     1.99930
    43    P    3  pz     Val( 3p)     0.80668
    44    P    3  pz     Ryd( 4p)     0.00141
    45    P    3  dxy    Ryd( 3d)     0.00902
    46    P    3  dxz    Ryd( 3d)     0.00622
    47    P    3  dyz    Ryd( 3d)     0.00703
    48    P    3  dx2y2  Ryd( 3d)     0.01023
    49    P    3  dz2    Ryd( 3d)     0.00253

    50    C    4  S      Cor( 1S)     1.99933
    51    C    4  S      Val( 2S)     1.14481
    52    C    4  S      Ryd( 3S)     0.00300
    53    C    4  S      Ryd( 4S)     0.00002
    54    C    4  px     Val( 2p)     1.25116
    55    C    4  px     Ryd( 3p)     0.00211
    56    C    4  py     Val( 2p)     1.14037
    57    C    4  py     Ryd( 3p)     0.00846
    58    C    4  pz     Val( 2p)     1.21071
    59    C    4  pz     Ryd( 3p)     0.00180
    60    C    4  dxy    Ryd( 3d)     0.00069
    61    C    4  dxz    Ryd( 3d)     0.00039
    62    C    4  dyz    Ryd( 3d)     0.00075
    63    C    4  dx2y2  Ryd( 3d)     0.00128
    64    C    4  dz2    Ryd( 3d)     0.00112

    65    C    5  S      Cor( 1S)     1.99945
    66    C    5  S      Val( 2S)     1.12193
    67    C    5  S      Ryd( 3S)     0.00082
    68    C    5  S      Ryd( 4S)     0.00002
    69    C    5  px     Val( 2p)     1.22839
    70    C    5  px     Ryd( 3p)     0.00207
    71    C    5  py     Val( 2p)     1.09117
    72    C    5  py     Ryd( 3p)     0.00189
    73    C    5  pz     Val( 2p)     1.23105
    74    C    5  pz     Ryd( 3p)     0.00313
    75    C    5  dxy    Ryd( 3d)     0.00062
    76    C    5  dxz    Ryd( 3d)     0.00032
    77    C    5  dyz    Ryd( 3d)     0.00056
    78    C    5  dx2y2  Ryd( 3d)     0.00078
    79    C    5  dz2    Ryd( 3d)     0.00099

    80    C    6  S      Cor( 1S)     1.99935
    81    C    6  S      Val( 2S)     1.19661
    82    C    6  S      Ryd( 3S)     0.00784
    83    C    6  S      Ryd( 4S)     0.00002
    84    C    6  px     Val( 2p)     1.15611
    85    C    6  px     Ryd( 3p)     0.00592
    86    C    6  py     Val( 2p)     1.26774
    87    C    6  py     Ryd( 3p)     0.00711
    88    C    6  pz     Val( 2p)     1.21892
    89    C    6  pz     Ryd( 3p)     0.00228
    90    C    6  dxy    Ryd( 3d)     0.00115
    91    C    6  dxz    Ryd( 3d)     0.00042
    92    C    6  dyz    Ryd( 3d)     0.00051
    93    C    6  dx2y2  Ryd( 3d)     0.00046
    94    C    6  dz2    Ryd( 3d)     0.00115

    95    C    7  S      Cor( 1S)     1.99946
    96    C    7  S      Val( 2S)     1.11159
    97    C    7  S      Ryd( 3S)     0.00066
    98    C    7  S      Ryd( 4S)     0.00002
    99    C    7  px     Val( 2p)     1.09715
   100    C    7  px     Ryd( 3p)     0.00146
   101    C    7  py     Val( 2p)     1.23518
   102    C    7  py     Ryd( 3p)     0.00217
   103    C    7  pz     Val( 2p)     1.23239
   104    C    7  pz     Ryd( 3p)     0.00182
   105    C    7  dxy    Ryd( 3d)     0.00099
   106    C    7  dxz    Ryd( 3d)     0.00034
   107    C    7  dyz    Ryd( 3d)     0.00049
   108    C    7  dx2y2  Ryd( 3d)     0.00043
   109    C    7  dz2    Ryd( 3d)     0.00103

   110    H    8  S      Val( 1S)     0.76735
   111    H    8  S      Ryd( 2S)     0.00313

   112    H    9  S      Val( 1S)     0.77070
   113    H    9  S      Ryd( 2S)     0.00230

   114    H   10  S      Val( 1S)     0.76853
   115    H   10  S      Ryd( 2S)     0.00234

   116    H   11  S      Val( 1S)     0.74252
   117    H   11  S      Ryd( 2S)     0.00418

   118    H   12  S      Val( 1S)     0.73715
   119    H   12  S      Ryd( 2S)     0.00476

   120    H   13  S      Val( 1S)     0.74487
   121    H   13  S      Ryd( 2S)     0.00235

   122    H   14  S      Val( 1S)     0.73056
   123    H   14  S      Ryd( 2S)     0.00227

   124    H   15  S      Val( 1S)     0.76507
   125    H   15  S      Ryd( 2S)     0.00342

   126    H   16  S      Val( 1S)     0.78662
   127    H   16  S      Ryd( 2S)     0.01198

   128    H   17  S      Val( 1S)     0.77720
   129    H   17  S      Ryd( 2S)     0.00742

   130    H   18  S      Val( 1S)     0.76459
   131    H   18  S      Ryd( 2S)     0.00877

   132    H   19  S      Val( 1S)     0.75476
   133    H   19  S      Ryd( 2S)     0.00525

   134    H   20  S      Val( 1S)     0.77730
   135    H   20  S      Ryd( 2S)     0.00883

   136    H   21  S      Val( 1S)     0.76640
   137    H   21  S      Ryd( 2S)     0.00469

   138    H   22  S      Val( 1S)     0.78018
   139    H   22  S      Ryd( 2S)     0.00293

 WARNING:  1 low occupancy (<1.9990e) core orbital  found on  P    3


 Summary of Natural Population Analysis:                  
                                                          
                                       Natural Population 
                Natural  -----------------------------------------------
    Atom  No    Charge         Core      Valence    Rydberg      Total
 -----------------------------------------------------------------------
      C    1   -0.68472      1.99945     4.67538    0.00989     6.68472
      C    2   -0.79037      1.99933     4.77390    0.01713     6.79037
      P    3    0.98348      9.99759     3.88965    0.12928    14.01652
      C    4   -0.76600      1.99933     4.74705    0.01963     6.76600
      C    5   -0.68320      1.99945     4.67254    0.01121     6.68320
      C    6   -0.86561      1.99935     4.83938    0.02687     6.86561
      C    7   -0.68517      1.99946     4.67631    0.00940     6.68517
      H    8    0.22952      0.00000     0.76735    0.00313     0.77048
      H    9    0.22701      0.00000     0.77070    0.00230     0.77299
      H   10    0.22912      0.00000     0.76853    0.00234     0.77088
      H   11    0.25330      0.00000     0.74252    0.00418     0.74670
      H   12    0.25809      0.00000     0.73715    0.00476     0.74191
      H   13    0.25279      0.00000     0.74487    0.00235     0.74721
      H   14    0.26717      0.00000     0.73056    0.00227     0.73283
      H   15    0.23150      0.00000     0.76507    0.00342     0.76850
      H   16    0.20140      0.00000     0.78662    0.01198     0.79860
      H   17    0.21538      0.00000     0.77720    0.00742     0.78462
      H   18    0.22664      0.00000     0.76459    0.00877     0.77336
      H   19    0.23998      0.00000     0.75476    0.00525     0.76002
      H   20    0.21387      0.00000     0.77730    0.00883     0.78613
      H   21    0.22891      0.00000     0.76640    0.00469     0.77109
      H   22    0.21690      0.00000     0.78018    0.00293     0.78310
 =======================================================================
   * Total *   -0.00000     21.99397    43.70800    0.29804    66.00000

                                 Natural Population      
 --------------------------------------------------------
   Core                      21.99397 ( 99.9726% of  22)
   Valence                   43.70800 ( 99.3364% of  44)
   Natural Minimal Basis     65.70196 ( 99.5484% of  66)
   Natural Rydberg Basis      0.29804 (  0.4516% of  66)
 --------------------------------------------------------

    Atom  No          Natural Electron Configuration
 ----------------------------------------------------------------------------
      C    1      [core]2S( 1.10)2p( 3.57)3p( 0.01)
      C    2      [core]2S( 1.17)2p( 3.60)3S( 0.01)3p( 0.01)
      P    3      [core]3S( 1.30)3p( 2.58)3d( 0.04)4p( 0.09)
      C    4      [core]2S( 1.14)2p( 3.60)3p( 0.01)
      C    5      [core]2S( 1.12)2p( 3.55)3p( 0.01)
      C    6      [core]2S( 1.20)2p( 3.64)3S( 0.01)3p( 0.02)
      C    7      [core]2S( 1.11)2p( 3.56)3p( 0.01)
      H    8            1S( 0.77)
      H    9            1S( 0.77)
      H   10            1S( 0.77)
      H   11            1S( 0.74)
      H   12            1S( 0.74)
      H   13            1S( 0.74)
      H   14            1S( 0.73)
      H   15            1S( 0.77)
      H   16            1S( 0.79)2S( 0.01)
      H   17            1S( 0.78)2S( 0.01)
      H   18            1S( 0.76)2S( 0.01)
      H   19            1S( 0.75)2S( 0.01)
      H   20            1S( 0.78)2S( 0.01)
      H   21            1S( 0.77)
      H   22            1S( 0.78)


 NBO analysis skipped by request.
 Leave Link  607 at Fri Oct  1 23:22:17 2021, MaxMem=  805306368 cpu:      10.3
 (Enter /sw/target/amd/app/gaussian/Gaussian09RevA.02_gcc-4.9.2/g09/l9999.exe)
 1\1\GINC-HERMITE\SP\RTD-B3LYP-FC\6-31G(d)\C6H15P1\JSCHLEINITZ\01-Oct-2
 021\0\\#p TD(NStates=10, Root=1) b3lyp/6-31G* volume pop=NPA density=c
 urrent Geom=AllCheck Guess=Read\\CCP(CC)CC_conf_0\\0,1\C,0,2.805994064
 9,1.1807748373,0.6518260659\C,0,2.5429374182,-0.028697924,-0.254954689
 6\P,0,2.9719876475,-1.6707152655,0.5519044631\C,0,2.5072575806,-2.8370
 57236,-0.8466768517\C,0,0.9967315727,-3.0834207388,-0.9562786351\C,0,4
 .8383788473,-1.6478285985,0.3288150327\C,0,5.5337829111,-2.8956991297,
 0.8882685601\H,0,2.497978173,2.1124182085,0.1623313724\H,0,3.869078913
 6,1.2786381119,0.8999820145\H,0,2.2528618265,1.0971121136,1.5939473432
 \H,0,3.0860027396,0.0773330812,-1.204889655\H,0,1.4751577326,-0.068642
 9752,-0.5049004518\H,0,3.01636715,-3.7886602469,-0.6477721289\H,0,2.90
 52241369,-2.4594264281,-1.7993037461\H,0,0.5916317778,-3.4832207151,-0
 .0199946037\H,0,0.7734432849,-3.8023124249,-1.7536364293\H,0,0.4505552
 908,-2.1612781795,-1.1858700113\H,0,5.2097941012,-0.7593416523,0.85515
 0749\H,0,5.0875952313,-1.5127226196,-0.733334011\H,0,5.3124741389,-3.0
 286822533,1.9530592378\H,0,6.6221592886,-2.8206303413,0.7774623907\H,0
 ,5.215129859,-3.8061025106,0.3678418492\\Version=AM64L-G09RevA.02\Stat
 e=1-A\HF=-579.0329578\RMSD=1.977e-09\Dipole=0.0755833,0.2313084,-0.420
 6151\Quadrupole=-1.9909854,1.1511874,0.839798,-0.3883474,-0.6889322,-0
 .1092852\PG=C01 [X(C6H15P1)]\\@


 MICHAEL FARADAY, ASKED BY A POLITICIAN WHAT GOOD
 HIS ELECTRICAL DISCOVERIES WERE, REPLIED 
 "AT PRESENT I DO NOT KNOW, BUT ONE DAY YOU WILL BE
 ABLE TO TAX THEM."
 Job cpu time:  0 days  1 hours  9 minutes 14.1 seconds.
 File lengths (MBytes):  RWF=     70 Int=      0 D2E=      0 Chk=     10 Scr=      1
 Normal termination of Gaussian 09 at Fri Oct  1 23:22:23 2021.
