 Entering Gaussian System, Link 0=g09
 Input=C6H5Li_031b_conf_0.com
 Output=C6H5Li_031b_conf_0.log
 Initial command:
 /sw/target/amd/app/gaussian/Gaussian09RevA.02_gcc-4.9.2/g09/l1.exe /home/jschleinitz/gaussian/Gau-1077571.inp -scrdir=/home/jschleinitz/gaussian/
 Entering Link 1 = /sw/target/amd/app/gaussian/Gaussian09RevA.02_gcc-4.9.2/g09/l1.exe PID=   1077591.
  
 Copyright (c) 1988,1990,1992,1993,1995,1998,2003,2009, Gaussian, Inc.
                  All Rights Reserved.
  
 This is part of the Gaussian(R) 09 program.  It is based on
 the Gaussian(R) 03 system (copyright 2003, Gaussian, Inc.),
 the Gaussian(R) 98 system (copyright 1998, Gaussian, Inc.),
 the Gaussian(R) 94 system (copyright 1995, Gaussian, Inc.),
 the Gaussian 92(TM) system (copyright 1992, Gaussian, Inc.),
 the Gaussian 90(TM) system (copyright 1990, Gaussian, Inc.),
 the Gaussian 88(TM) system (copyright 1988, Gaussian, Inc.),
 the Gaussian 86(TM) system (copyright 1986, Carnegie Mellon
 University), and the Gaussian 82(TM) system (copyright 1983,
 Carnegie Mellon University). Gaussian is a federally registered
 trademark of Gaussian, Inc.
  
 This software contains proprietary and confidential information,
 including trade secrets, belonging to Gaussian, Inc.
  
 This software is provided under written license and may be
 used, copied, transmitted, or stored only in accord with that
 written license.
  
 The following legend is applicable only to US Government
 contracts under FAR:
  
                    RESTRICTED RIGHTS LEGEND
  
 Use, reproduction and disclosure by the US Government is
 subject to restrictions as set forth in subparagraphs (a)
 and (c) of the Commercial Computer Software - Restricted
 Rights clause in FAR 52.227-19.
  
 Gaussian, Inc.
 340 Quinnipiac St., Bldg. 40, Wallingford CT 06492
  
  
 ---------------------------------------------------------------
 Warning -- This program may not be used in any manner that
 competes with the business of Gaussian, Inc. or will provide
 assistance to any competitor of Gaussian, Inc.  The licensee
 of this program is prohibited from giving any competitor of
 Gaussian, Inc. access to this program.  By using this program,
 the user acknowledges that Gaussian, Inc. is engaged in the
 business of creating and licensing software in the field of
 computational chemistry and represents and warrants to the
 licensee that it is not a competitor of Gaussian, Inc. and that
 it will not use this program in any manner prohibited above.
 ---------------------------------------------------------------
  

 Cite this work as:
 Gaussian 09, Revision A.02,
 M. J. Frisch, G. W. Trucks, H. B. Schlegel, G. E. Scuseria, 
 M. A. Robb, J. R. Cheeseman, G. Scalmani, V. Barone, B. Mennucci, 
 G. A. Petersson, H. Nakatsuji, M. Caricato, X. Li, H. P. Hratchian, 
 A. F. Izmaylov, J. Bloino, G. Zheng, J. L. Sonnenberg, M. Hada, 
 M. Ehara, K. Toyota, R. Fukuda, J. Hasegawa, M. Ishida, T. Nakajima, 
 Y. Honda, O. Kitao, H. Nakai, T. Vreven, J. A. Montgomery, Jr., 
 J. E. Peralta, F. Ogliaro, M. Bearpark, J. J. Heyd, E. Brothers, 
 K. N. Kudin, V. N. Staroverov, R. Kobayashi, J. Normand, 
 K. Raghavachari, A. Rendell, J. C. Burant, S. S. Iyengar, J. Tomasi, 
 M. Cossi, N. Rega, J. M. Millam, M. Klene, J. E. Knox, J. B. Cross, 
 V. Bakken, C. Adamo, J. Jaramillo, R. Gomperts, R. E. Stratmann, 
 O. Yazyev, A. J. Austin, R. Cammi, C. Pomelli, J. W. Ochterski, 
 R. L. Martin, K. Morokuma, V. G. Zakrzewski, G. A. Voth, 
 P. Salvador, J. J. Dannenberg, S. Dapprich, A. D. Daniels, 
 O. Farkas, J. B. Foresman, J. V. Ortiz, J. Cioslowski, 
 and D. J. Fox, Gaussian, Inc., Wallingford CT, 2009.
 
 ******************************************
 Gaussian 09:  AM64L-G09RevA.02 11-Jun-2009
                 2-Oct-2021 
 ******************************************
 %nproc=2
 Will use up to    2 processors via shared memory.
 %mem=4gb
 %chk=C6H5Li_031b_conf_0.chk
 -----------------------------------
 #p opt b3lyp/6-31G* scf=(xqc,tight)
 -----------------------------------
 1/14=-1,18=20,19=15,26=3,38=1/1,3;
 2/9=110,12=2,17=6,18=5,40=1/2;
 3/5=1,6=6,7=1,11=2,16=1,25=1,30=1,71=1,74=-5/1,2,3;
 4//1;
 5/5=2,8=3,13=1,32=2,38=5/2,8;
 6/7=2,8=2,9=2,10=2,28=1/1;
 7//1,2,3,16;
 1/14=-1,18=20,19=15/3(2);
 2/9=110/2;
 99//99;
 2/9=110/2;
 3/5=1,6=6,7=1,11=2,16=1,25=1,30=1,71=1,74=-5/1,2,3;
 4/5=5,16=3/1;
 5/5=2,8=3,13=1,32=2,38=5/2,8;
 7//1,2,3,16;
 1/14=-1,18=20,19=15/3(-5);
 2/9=110/2;
 6/7=2,8=2,9=2,10=2,19=2,28=1/1;
 99/9=1/99;
 Leave Link    1 at Sat Oct  2 10:31:09 2021, MaxMem=  536870912 cpu:       0.1
 (Enter /sw/target/amd/app/gaussian/Gaussian09RevA.02_gcc-4.9.2/g09/l101.exe)
 -------------------
 [Li]c1ccccc1_conf_0
 -------------------
 Symbolic Z-matrix:
 Charge =  0 Multiplicity = 1
 Li                    0.9795   -0.04599   0.29703 
 C                     2.99363  -0.02215   0.10562 
 C                     3.67535   1.1967    0.03893 
 C                     5.06807   1.21302  -0.09379 
 C                     5.77823   0.00916  -0.1597 
 C                     5.09534  -1.21032  -0.09266 
 C                     3.70266  -1.22526   0.04002 
 H                     3.12297   2.12544   0.09011 
 H                     5.59594   2.15647  -0.14556 
 H                     6.85561   0.02121  -0.26242 
 H                     5.64428  -2.14171  -0.14355 
 H                     3.1713   -2.1661    0.09205 
 
 NAtoms=     12 NQM=     12 NQMF=      0 NMic=      0 NMicF=      0 NTot=     12.
                    Isotopes and Nuclear Properties:
 (Nuclear quadrupole moments (NQMom) in fm**2, nuclear magnetic moments (NMagM)
  in nuclear magnetons)

  Atom         1           2           3           4           5           6           7           8           9          10
 IAtWgt=           7          12          12          12          12          12          12           1           1           1
 AtmWgt=   7.0160045  12.0000000  12.0000000  12.0000000  12.0000000  12.0000000  12.0000000   1.0078250   1.0078250   1.0078250
 NucSpn=           3           0           0           0           0           0           0           1           1           1
 AtZEff=   0.0000000   0.0000000   0.0000000   0.0000000   0.0000000   0.0000000   0.0000000   0.0000000   0.0000000   0.0000000
 NQMom=   -4.0100000   0.0000000   0.0000000   0.0000000   0.0000000   0.0000000   0.0000000   0.0000000   0.0000000   0.0000000
 NMagM=    3.2564240   0.0000000   0.0000000   0.0000000   0.0000000   0.0000000   0.0000000   2.7928460   2.7928460   2.7928460

  Atom        11          12
 IAtWgt=           1           1
 AtmWgt=   1.0078250   1.0078250
 NucSpn=           1           1
 AtZEff=   0.0000000   0.0000000
 NQMom=    0.0000000   0.0000000
 NMagM=    2.7928460   2.7928460
 Leave Link  101 at Sat Oct  2 10:31:11 2021, MaxMem=  536870912 cpu:       0.2
 (Enter /sw/target/amd/app/gaussian/Gaussian09RevA.02_gcc-4.9.2/g09/l103.exe)

 GradGradGradGradGradGradGradGradGradGradGradGradGradGradGradGradGradGrad
 Berny optimization.
 Initialization pass.
                           ----------------------------
                           !    Initial Parameters    !
                           ! (Angstroms and Degrees)  !
 --------------------------                            --------------------------
 ! Name  Definition              Value          Derivative Info.                !
 --------------------------------------------------------------------------------
 ! R1    R(1,2)                  2.0233         estimate D2E/DX2                !
 ! R2    R(2,3)                  1.3981         estimate D2E/DX2                !
 ! R3    R(2,7)                  1.398          estimate D2E/DX2                !
 ! R4    R(3,4)                  1.3991         estimate D2E/DX2                !
 ! R5    R(3,8)                  1.0818         estimate D2E/DX2                !
 ! R6    R(4,5)                  1.3993         estimate D2E/DX2                !
 ! R7    R(4,9)                  1.0823         estimate D2E/DX2                !
 ! R8    R(5,6)                  1.3993         estimate D2E/DX2                !
 ! R9    R(5,10)                 1.0823         estimate D2E/DX2                !
 ! R10   R(6,7)                  1.3991         estimate D2E/DX2                !
 ! R11   R(6,11)                 1.0823         estimate D2E/DX2                !
 ! R12   R(7,12)                 1.0818         estimate D2E/DX2                !
 ! A1    A(1,2,3)              120.0103         estimate D2E/DX2                !
 ! A2    A(1,2,7)              119.944          estimate D2E/DX2                !
 ! A3    A(3,2,7)              120.0457         estimate D2E/DX2                !
 ! A4    A(2,3,4)              120.0036         estimate D2E/DX2                !
 ! A5    A(2,3,8)              119.815          estimate D2E/DX2                !
 ! A6    A(4,3,8)              120.1813         estimate D2E/DX2                !
 ! A7    A(3,4,5)              119.9755         estimate D2E/DX2                !
 ! A8    A(3,4,9)              120.013          estimate D2E/DX2                !
 ! A9    A(5,4,9)              120.0114         estimate D2E/DX2                !
 ! A10   A(4,5,6)              119.9906         estimate D2E/DX2                !
 ! A11   A(4,5,10)             120.006          estimate D2E/DX2                !
 ! A12   A(6,5,10)             120.0034         estimate D2E/DX2                !
 ! A13   A(5,6,7)              119.977          estimate D2E/DX2                !
 ! A14   A(5,6,11)             120.0134         estimate D2E/DX2                !
 ! A15   A(7,6,11)             120.0096         estimate D2E/DX2                !
 ! A16   A(2,7,6)              120.0076         estimate D2E/DX2                !
 ! A17   A(2,7,12)             119.8072         estimate D2E/DX2                !
 ! A18   A(6,7,12)             120.1853         estimate D2E/DX2                !
 ! D1    D(1,2,3,4)           -179.9827         estimate D2E/DX2                !
 ! D2    D(1,2,3,8)              0.0099         estimate D2E/DX2                !
 ! D3    D(7,2,3,4)              0.0115         estimate D2E/DX2                !
 ! D4    D(7,2,3,8)           -179.9958         estimate D2E/DX2                !
 ! D5    D(1,2,7,6)            179.9842         estimate D2E/DX2                !
 ! D6    D(1,2,7,12)            -0.0096         estimate D2E/DX2                !
 ! D7    D(3,2,7,6)             -0.0101         estimate D2E/DX2                !
 ! D8    D(3,2,7,12)           179.9961         estimate D2E/DX2                !
 ! D9    D(2,3,4,5)             -0.0021         estimate D2E/DX2                !
 ! D10   D(2,3,4,9)            179.9926         estimate D2E/DX2                !
 ! D11   D(8,3,4,5)           -179.9947         estimate D2E/DX2                !
 ! D12   D(8,3,4,9)              0.0            estimate D2E/DX2                !
 ! D13   D(3,4,5,6)             -0.0088         estimate D2E/DX2                !
 ! D14   D(3,4,5,10)           179.9966         estimate D2E/DX2                !
 ! D15   D(9,4,5,6)            179.9966         estimate D2E/DX2                !
 ! D16   D(9,4,5,10)             0.0019         estimate D2E/DX2                !
 ! D17   D(4,5,6,7)              0.0102         estimate D2E/DX2                !
 ! D18   D(4,5,6,11)          -179.9969         estimate D2E/DX2                !
 ! D19   D(10,5,6,7)          -179.9952         estimate D2E/DX2                !
 ! D20   D(10,5,6,11)           -0.0023         estimate D2E/DX2                !
 ! D21   D(5,6,7,2)             -0.0008         estimate D2E/DX2                !
 ! D22   D(5,6,7,12)           179.993          estimate D2E/DX2                !
 ! D23   D(11,6,7,2)          -179.9937         estimate D2E/DX2                !
 ! D24   D(11,6,7,12)            0.0001         estimate D2E/DX2                !
 --------------------------------------------------------------------------------
 Trust Radius=3.00D-01 FncErr=1.00D-07 GrdErr=1.00D-06
 Number of steps in this run=  64 maximum allowed number of steps= 100.
 GradGradGradGradGradGradGradGradGradGradGradGradGradGradGradGradGradGrad

 Leave Link  103 at Sat Oct  2 10:31:11 2021, MaxMem=  536870912 cpu:       0.0
 (Enter /sw/target/amd/app/gaussian/Gaussian09RevA.02_gcc-4.9.2/g09/l202.exe)
                          Input orientation:                          
 ---------------------------------------------------------------------
 Center     Atomic      Atomic             Coordinates (Angstroms)
 Number     Number       Type             X           Y           Z
 ---------------------------------------------------------------------
      1          3           0        0.979503   -0.045990    0.297028
      2          6           0        2.993627   -0.022148    0.105619
      3          6           0        3.675346    1.196701    0.038929
      4          6           0        5.068069    1.213024   -0.093794
      5          6           0        5.778234    0.009156   -0.159699
      6          6           0        5.095343   -1.210321   -0.092664
      7          6           0        3.702661   -1.225256    0.040021
      8          1           0        3.122973    2.125444    0.090115
      9          1           0        5.595941    2.156468   -0.145556
     10          1           0        6.855608    0.021208   -0.262424
     11          1           0        5.644281   -2.141713   -0.143554
     12          1           0        3.171300   -2.166096    0.092053
 ---------------------------------------------------------------------
                    Distance matrix (angstroms):
                    1          2          3          4          5
     1  Li   0.000000
     2  C    2.023338   0.000000
     3  C    2.979675   1.398135   0.000000
     4  C    4.295838   2.422545   1.399128   0.000000
     5  C    4.820732   2.797394   2.423191   1.399277   0.000000
     6  C    4.295075   2.422454   2.797761   2.423499   1.399270
     7  C    2.978642   1.398034   2.422110   2.797758   2.423152
     8  H    3.058169   2.151539   1.081803   2.156323   3.404628
     9  H    5.134023   3.403160   2.154965   1.082319   2.155082
    10  H    5.903059   3.879721   3.403919   2.155031   1.082327
    11  H    5.132866   3.403029   3.880079   3.404226   2.155097
    12  H    3.056278   2.151340   3.400777   3.879526   3.404586
                    6          7          8          9         10
     6  C    0.000000
     7  C    1.399069   0.000000
     8  H    3.879559   3.400843   0.000000
     9  H    3.404213   3.880077   2.484365   0.000000
    10  H    2.154997   3.403854   4.299378   2.481885   0.000000
    11  H    1.082318   2.154874   4.961877   4.298453   2.481869
    12  H    2.156286   1.081773   4.291812   4.961844   4.299311
                   11         12
    11  H    0.000000
    12  H    2.484298   0.000000
 Stoichiometry    C6H5Li
 Framework group  C1[X(C6H5Li)]
 Deg. of freedom    30
 Full point group                 C1      NOp   1
 Largest Abelian subgroup         C1      NOp   1
 Largest concise Abelian subgroup C1      NOp   1
                         Standard orientation:                         
 ---------------------------------------------------------------------
 Center     Atomic      Atomic             Coordinates (Angstroms)
 Number     Number       Type             X           Y           Z
 ---------------------------------------------------------------------
      1          3           0        3.244569    0.000324    0.000325
      2          6           0        1.221231    0.000609   -0.000045
      3          6           0        0.522116    1.211402   -0.000120
      4          6           0       -0.877012    1.211436   -0.000011
      5          6           0       -1.576163   -0.000655    0.000129
      6          6           0       -0.875842   -1.212063   -0.000027
      7          6           0        0.523226   -1.210708   -0.000106
      8          1           0        1.066003    2.146541   -0.000141
      9          1           0       -1.418361    2.148642    0.000054
     10          1           0       -2.658490   -0.001203    0.000269
     11          1           0       -1.416250   -2.149810    0.000030
     12          1           0        1.068044   -2.145270   -0.000111
 ---------------------------------------------------------------------
 Rotational constants (GHZ):      5.6763540      3.1684658      2.0334313
 Leave Link  202 at Sat Oct  2 10:31:12 2021, MaxMem=  536870912 cpu:       0.0
 (Enter /sw/target/amd/app/gaussian/Gaussian09RevA.02_gcc-4.9.2/g09/l301.exe)
 Standard basis: 6-31G(d) (6D, 7F)
 Ernie: Thresh=  0.10000D-02 Tol=  0.10000D-05 Strict=F.
 There are   115 symmetry adapted basis functions of A   symmetry.
 Integral buffers will be    131072 words long.
 Raffenetti 2 integral format.
 Two-electron integral symmetry is turned on.
   115 basis functions,   216 primitive gaussians,   115 cartesian basis functions
    22 alpha electrons       22 beta electrons
       nuclear repulsion energy       213.1448193636 Hartrees.
 IExCor=  402 DFT=T Ex+Corr=B3LYP ExCW=0 ScaHFX=  0.200000
 ScaDFX=  0.800000  0.720000  1.000000  0.810000 ScalE2=  1.000000  1.000000
 IRadAn=      0 IRanWt=     -1 IRanGd=            0 ICorTp=0
 NAtoms=   12 NActive=   12 NUniq=   12 SFac= 7.50D-01 NAtFMM=   80 NAOKFM=F Big=F
 Leave Link  301 at Sat Oct  2 10:31:12 2021, MaxMem=  536870912 cpu:       0.1
 (Enter /sw/target/amd/app/gaussian/Gaussian09RevA.02_gcc-4.9.2/g09/l302.exe)
 NPDir=0 NMtPBC=     1 NCelOv=     1 NCel=       1 NClECP=     1 NCelD=      1
         NCelK=      1 NCelE2=     1 NClLst=     1 CellRange=     0.0.
 One-electron integrals computed using PRISM.
 NBasis=   115 RedAO= T  NBF=   115
 NBsUse=   115 1.00D-06 NBFU=   115
 Precomputing XC quadrature grid using
 IXCGrd= 2 IRadAn=           0 IRanWt=          -1 IRanGd=           0 AccXCQ= 1.00D-10.
 NRdTot=     766 NPtTot=       97162 NUsed=      102693 NTot=      102725
 NSgBfM=   115   115   115   115   115 NAtAll=    12    12.
 Leave Link  302 at Sat Oct  2 10:31:16 2021, MaxMem=  536870912 cpu:       0.6
 (Enter /sw/target/amd/app/gaussian/Gaussian09RevA.02_gcc-4.9.2/g09/l303.exe)
 DipDrv:  MaxL=1.
 Leave Link  303 at Sat Oct  2 10:31:17 2021, MaxMem=  536870912 cpu:       0.1
 (Enter /sw/target/amd/app/gaussian/Gaussian09RevA.02_gcc-4.9.2/g09/l401.exe)
 Harris functional with IExCor=  402 diagonalized for initial guess.
 ExpMin= 3.60D-02 ExpMax= 3.05D+03 ExpMxC= 4.57D+02 IAcc=3 IRadAn=         0 AccDes= 0.00D+00
 HarFok:  IExCor=  402 AccDes= 0.00D+00 IRadAn=         0 IDoV= 1
 ScaDFX=  1.000000  1.000000  1.000000  1.000000
 FoFCou: FMM=F IPFlag=           0 FMFlag=      100000 FMFlg1=           0
         NFxFlg=           0 DoJE=T BraDBF=F KetDBF=T FulRan=T
         Omega=  0.000000  0.000000  1.000000  0.000000  0.000000 ICntrl=     500 IOpCl=  0
         NMat0=    1 NMatS0=    1 NMatT0=    0 NMatD0=    1 NMtDS0=    0 NMtDT0=    0
         I1Cent=           4 NGrid=           0.
 Petite list used in FoFCou.
 Harris En= -239.264941723266    
 Initial guess orbital symmetries:
       Occupied  (A) (A) (A) (A) (A) (A) (A) (A) (A) (A) (A) (A)
                 (A) (A) (A) (A) (A) (A) (A) (A) (A) (A)
       Virtual   (A) (A) (A) (A) (A) (A) (A) (A) (A) (A) (A) (A)
                 (A) (A) (A) (A) (A) (A) (A) (A) (A) (A) (A) (A)
                 (A) (A) (A) (A) (A) (A) (A) (A) (A) (A) (A) (A)
                 (A) (A) (A) (A) (A) (A) (A) (A) (A) (A) (A) (A)
                 (A) (A) (A) (A) (A) (A) (A) (A) (A) (A) (A) (A)
                 (A) (A) (A) (A) (A) (A) (A) (A) (A) (A) (A) (A)
                 (A) (A) (A) (A) (A) (A) (A) (A) (A) (A) (A) (A)
                 (A) (A) (A) (A) (A) (A) (A) (A) (A)
 The electronic state of the initial guess is 1-A.
 Leave Link  401 at Sat Oct  2 10:31:38 2021, MaxMem=  536870912 cpu:       5.1
 (Enter /sw/target/amd/app/gaussian/Gaussian09RevA.02_gcc-4.9.2/g09/l502.exe)
 Closed shell SCF:
 Requested convergence on RMS density matrix=1.00D-08 within  64 cycles.
 Requested convergence on MAX density matrix=1.00D-06.
 Requested convergence on             energy=1.00D-06.
 No special actions if energy rises.
 Using DIIS extrapolation, IDIIS=  1040.
 Integral symmetry usage will be decided dynamically.
       102572 words used for storage of precomputed grid.
 Keep R1 ints in memory in canonical form, NReq=23331589.
 IEnd=      149342 IEndB=      149342 NGot=   536870912 MDV=   514491322
 LenX=   514491322 LenY=   514477656
 Symmetry not used in FoFDir.
 MinBra= 0 MaxBra= 2 Meth= 1.
 IRaf=       0 NMat=   1 IRICut=       1 DoRegI=T DoRafI=F ISym2E= 0 JSym2E=0.

 Cycle   1  Pass 1  IDiag  1:
 E= -238.869830697964    
 DIIS: error= 5.42D-02 at cycle   1 NSaved=   1.
 NSaved= 1 IEnMin= 1 EnMin= -238.869830697964     IErMin= 1 ErrMin= 5.42D-02
 ErrMax= 5.42D-02 EMaxC= 1.00D-01 BMatC= 2.11D-01 BMatP= 2.11D-01
 IDIUse=3 WtCom= 4.58D-01 WtEn= 5.42D-01
 Coeff-Com:  0.100D+01
 Coeff-En:   0.100D+01
 Coeff:      0.100D+01
 Gap=     0.153 Goal=   None    Shift=    0.000
 GapD=    0.153 DampG=1.000 DampE=0.500 DampFc=0.5000 IDamp=-1.
 Damping current iteration by 5.00D-01
 RMSDP=1.33D-02 MaxDP=4.23D-01              OVMax= 9.33D-01

 Cycle   2  Pass 1  IDiag  1:
 E= -238.788326418725     Delta-E=        0.081504279239 Rises=F Damp=T
 DIIS: error= 2.33D-02 at cycle   2 NSaved=   2.
 NSaved= 2 IEnMin= 1 EnMin= -238.869830697964     IErMin= 2 ErrMin= 2.33D-02
 ErrMax= 2.33D-02 EMaxC= 1.00D-01 BMatC= 5.81D-02 BMatP= 2.11D-01
 IDIUse=3 WtCom= 7.67D-01 WtEn= 2.33D-01
 Coeff-Com:  0.306D+00 0.694D+00
 Coeff-En:   0.593D+00 0.407D+00
 Coeff:      0.373D+00 0.627D+00
 Gap=     0.064 Goal=   None    Shift=    0.000
 RMSDP=5.45D-03 MaxDP=2.12D-01 DE= 8.15D-02 OVMax= 8.83D-01

 Cycle   3  Pass 1  IDiag  1:
 E= -239.086958097787     Delta-E=       -0.298631679062 Rises=F Damp=F
 DIIS: error= 2.44D-02 at cycle   3 NSaved=   3.
 NSaved= 3 IEnMin= 3 EnMin= -239.086958097787     IErMin= 2 ErrMin= 2.33D-02
 ErrMax= 2.44D-02 EMaxC= 1.00D-01 BMatC= 3.98D-02 BMatP= 5.81D-02
 IDIUse=3 WtCom= 7.56D-01 WtEn= 2.44D-01
 Coeff-Com:  0.983D-01 0.457D+00 0.444D+00
 Coeff-En:   0.000D+00 0.000D+00 0.100D+01
 Coeff:      0.743D-01 0.346D+00 0.580D+00
 Gap=     0.135 Goal=   None    Shift=    0.000
 RMSDP=2.72D-03 MaxDP=5.24D-02 DE=-2.99D-01 OVMax= 1.36D-01

 Cycle   4  Pass 1  IDiag  1:
 E= -239.122701006515     Delta-E=       -0.035742908728 Rises=F Damp=F
 DIIS: error= 1.23D-02 at cycle   4 NSaved=   4.
 NSaved= 4 IEnMin= 4 EnMin= -239.122701006515     IErMin= 4 ErrMin= 1.23D-02
 ErrMax= 1.23D-02 EMaxC= 1.00D-01 BMatC= 1.05D-02 BMatP= 3.98D-02
 IDIUse=3 WtCom= 8.77D-01 WtEn= 1.23D-01
 Coeff-Com: -0.442D-01 0.108D+00 0.362D+00 0.574D+00
 Coeff-En:   0.000D+00 0.000D+00 0.216D+00 0.784D+00
 Coeff:     -0.388D-01 0.948D-01 0.344D+00 0.600D+00
 Gap=     0.129 Goal=   None    Shift=    0.000
 RMSDP=1.34D-03 MaxDP=2.23D-02 DE=-3.57D-02 OVMax= 5.82D-02

 Cycle   5  Pass 1  IDiag  1:
 E= -239.134522212665     Delta-E=       -0.011821206151 Rises=F Damp=F
 DIIS: error= 3.65D-03 at cycle   5 NSaved=   5.
 NSaved= 5 IEnMin= 5 EnMin= -239.134522212665     IErMin= 5 ErrMin= 3.65D-03
 ErrMax= 3.65D-03 EMaxC= 1.00D-01 BMatC= 6.85D-04 BMatP= 1.05D-02
 IDIUse=3 WtCom= 9.63D-01 WtEn= 3.65D-02
 Coeff-Com: -0.210D-01 0.304D-01 0.823D-01 0.259D+00 0.649D+00
 Coeff-En:   0.000D+00 0.000D+00 0.000D+00 0.000D+00 0.100D+01
 Coeff:     -0.202D-01 0.293D-01 0.793D-01 0.249D+00 0.662D+00
 Gap=     0.125 Goal=   None    Shift=    0.000
 RMSDP=3.27D-04 MaxDP=5.72D-03 DE=-1.18D-02 OVMax= 1.58D-02

 Cycle   6  Pass 1  IDiag  1:
 E= -239.135310675377     Delta-E=       -0.000788462711 Rises=F Damp=F
 DIIS: error= 8.62D-04 at cycle   6 NSaved=   6.
 NSaved= 6 IEnMin= 6 EnMin= -239.135310675377     IErMin= 6 ErrMin= 8.62D-04
 ErrMax= 8.62D-04 EMaxC= 1.00D-01 BMatC= 9.66D-05 BMatP= 6.85D-04
 IDIUse=3 WtCom= 9.91D-01 WtEn= 8.62D-03
 Coeff-Com: -0.336D-02 0.115D-02-0.175D-01 0.383D-01 0.373D+00 0.608D+00
 Coeff-En:   0.000D+00 0.000D+00 0.000D+00 0.000D+00 0.128D-01 0.987D+00
 Coeff:     -0.333D-02 0.114D-02-0.173D-01 0.380D-01 0.370D+00 0.611D+00
 Gap=     0.124 Goal=   None    Shift=    0.000
 RMSDP=1.13D-04 MaxDP=2.03D-03 DE=-7.88D-04 OVMax= 6.39D-03

 Cycle   7  Pass 1  IDiag  1:
 E= -239.135410187904     Delta-E=       -0.000099512528 Rises=F Damp=F
 DIIS: error= 2.58D-04 at cycle   7 NSaved=   7.
 NSaved= 7 IEnMin= 7 EnMin= -239.135410187904     IErMin= 7 ErrMin= 2.58D-04
 ErrMax= 2.58D-04 EMaxC= 1.00D-01 BMatC= 7.05D-06 BMatP= 9.66D-05
 IDIUse=3 WtCom= 9.97D-01 WtEn= 2.58D-03
 Coeff-Com:  0.217D-02-0.403D-03-0.263D-02-0.574D-02 0.517D-01 0.201D+00
 Coeff-Com:  0.754D+00
 Coeff-En:   0.000D+00 0.000D+00 0.000D+00 0.000D+00 0.000D+00 0.000D+00
 Coeff-En:   0.100D+01
 Coeff:      0.216D-02-0.402D-03-0.263D-02-0.572D-02 0.515D-01 0.200D+00
 Coeff:      0.755D+00
 Gap=     0.125 Goal=   None    Shift=    0.000
 RMSDP=2.54D-05 MaxDP=5.18D-04 DE=-9.95D-05 OVMax= 8.09D-04

 Cycle   8  Pass 1  IDiag  1:
 E= -239.135417653203     Delta-E=       -0.000007465298 Rises=F Damp=F
 DIIS: error= 5.60D-05 at cycle   8 NSaved=   8.
 NSaved= 8 IEnMin= 8 EnMin= -239.135417653203     IErMin= 8 ErrMin= 5.60D-05
 ErrMax= 5.60D-05 EMaxC= 1.00D-01 BMatC= 3.00D-07 BMatP= 7.05D-06
 IDIUse=1 WtCom= 1.00D+00 WtEn= 0.00D+00
 Coeff-Com:  0.387D-03-0.414D-03 0.233D-02-0.982D-04-0.600D-02-0.439D-02
 Coeff-Com: -0.586D-02 0.101D+01
 Coeff:      0.387D-03-0.414D-03 0.233D-02-0.982D-04-0.600D-02-0.439D-02
 Coeff:     -0.586D-02 0.101D+01
 Gap=     0.125 Goal=   None    Shift=    0.000
 RMSDP=6.93D-06 MaxDP=1.73D-04 DE=-7.47D-06 OVMax= 3.84D-04

 Cycle   9  Pass 1  IDiag  1:
 E= -239.135418006095     Delta-E=       -0.000000352892 Rises=F Damp=F
 DIIS: error= 1.41D-05 at cycle   9 NSaved=   9.
 NSaved= 9 IEnMin= 9 EnMin= -239.135418006095     IErMin= 9 ErrMin= 1.41D-05
 ErrMax= 1.41D-05 EMaxC= 1.00D-01 BMatC= 2.93D-08 BMatP= 3.00D-07
 IDIUse=1 WtCom= 1.00D+00 WtEn= 0.00D+00
 Coeff-Com:  0.648D-04-0.101D-03 0.770D-03 0.629D-03-0.137D-02-0.460D-02
 Coeff-Com: -0.364D-01 0.811D-01 0.960D+00
 Coeff:      0.648D-04-0.101D-03 0.770D-03 0.629D-03-0.137D-02-0.460D-02
 Coeff:     -0.364D-01 0.811D-01 0.960D+00
 Gap=     0.125 Goal=   None    Shift=    0.000
 RMSDP=2.01D-06 MaxDP=4.79D-05 DE=-3.53D-07 OVMax= 7.08D-05

 Cycle  10  Pass 1  IDiag  1:
 E= -239.135418041509     Delta-E=       -0.000000035414 Rises=F Damp=F
 DIIS: error= 3.98D-06 at cycle  10 NSaved=  10.
 NSaved=10 IEnMin=10 EnMin= -239.135418041509     IErMin=10 ErrMin= 3.98D-06
 ErrMax= 3.98D-06 EMaxC= 1.00D-01 BMatC= 1.59D-09 BMatP= 2.93D-08
 IDIUse=1 WtCom= 1.00D+00 WtEn= 0.00D+00
 Coeff-Com:  0.178D-04-0.320D-04 0.273D-03 0.365D-03-0.150D-03-0.199D-02
 Coeff-Com: -0.193D-01-0.285D-01 0.476D+00 0.574D+00
 Coeff:      0.178D-04-0.320D-04 0.273D-03 0.365D-03-0.150D-03-0.199D-02
 Coeff:     -0.193D-01-0.285D-01 0.476D+00 0.574D+00
 Gap=     0.125 Goal=   None    Shift=    0.000
 RMSDP=4.49D-07 MaxDP=7.96D-06 DE=-3.54D-08 OVMax= 2.12D-05

 Cycle  11  Pass 1  IDiag  1:
 E= -239.135418043258     Delta-E=       -0.000000001749 Rises=F Damp=F
 DIIS: error= 1.29D-06 at cycle  11 NSaved=  11.
 NSaved=11 IEnMin=11 EnMin= -239.135418043258     IErMin=11 ErrMin= 1.29D-06
 ErrMax= 1.29D-06 EMaxC= 1.00D-01 BMatC= 1.85D-10 BMatP= 1.59D-09
 IDIUse=1 WtCom= 1.00D+00 WtEn= 0.00D+00
 Coeff-Com:  0.327D-05-0.310D-05 0.750D-05 0.719D-04 0.314D-03 0.751D-04
 Coeff-Com: -0.215D-02-0.231D-01 0.402D-01 0.331D+00 0.654D+00
 Coeff:      0.327D-05-0.310D-05 0.750D-05 0.719D-04 0.314D-03 0.751D-04
 Coeff:     -0.215D-02-0.231D-01 0.402D-01 0.331D+00 0.654D+00
 Gap=     0.125 Goal=   None    Shift=    0.000
 RMSDP=1.67D-07 MaxDP=2.85D-06 DE=-1.75D-09 OVMax= 7.33D-06

 Cycle  12  Pass 1  IDiag  1:
 E= -239.135418043463     Delta-E=       -0.000000000205 Rises=F Damp=F
 DIIS: error= 4.57D-07 at cycle  12 NSaved=  12.
 NSaved=12 IEnMin=12 EnMin= -239.135418043463     IErMin=12 ErrMin= 4.57D-07
 ErrMax= 4.57D-07 EMaxC= 1.00D-01 BMatC= 1.96D-11 BMatP= 1.85D-10
 IDIUse=1 WtCom= 1.00D+00 WtEn= 0.00D+00
 Coeff-Com:  0.165D-05-0.709D-06-0.825D-05 0.260D-04 0.217D-03 0.176D-03
 Coeff-Com: -0.223D-03-0.116D-01-0.174D-02 0.178D+00 0.416D+00 0.419D+00
 Coeff:      0.165D-05-0.709D-06-0.825D-05 0.260D-04 0.217D-03 0.176D-03
 Coeff:     -0.223D-03-0.116D-01-0.174D-02 0.178D+00 0.416D+00 0.419D+00
 Gap=     0.125 Goal=   None    Shift=    0.000
 RMSDP=4.07D-08 MaxDP=9.94D-07 DE=-2.05D-10 OVMax= 1.98D-06

 Cycle  13  Pass 1  IDiag  1:
 E= -239.135418043488     Delta-E=       -0.000000000025 Rises=F Damp=F
 DIIS: error= 2.81D-08 at cycle  13 NSaved=  13.
 NSaved=13 IEnMin=13 EnMin= -239.135418043488     IErMin=13 ErrMin= 2.81D-08
 ErrMax= 2.81D-08 EMaxC= 1.00D-01 BMatC= 1.21D-13 BMatP= 1.96D-11
 IDIUse=1 WtCom= 1.00D+00 WtEn= 0.00D+00
 Coeff-Com: -0.347D-07 0.455D-06-0.287D-05-0.416D-06 0.199D-04 0.230D-04
 Coeff-Com:  0.965D-04-0.514D-03-0.353D-02 0.925D-02 0.277D-01 0.827D-01
 Coeff-Com:  0.884D+00
 Coeff:     -0.347D-07 0.455D-06-0.287D-05-0.416D-06 0.199D-04 0.230D-04
 Coeff:      0.965D-04-0.514D-03-0.353D-02 0.925D-02 0.277D-01 0.827D-01
 Coeff:      0.884D+00
 Gap=     0.125 Goal=   None    Shift=    0.000
 RMSDP=6.17D-09 MaxDP=1.41D-07 DE=-2.50D-11 OVMax= 2.60D-07

 SCF Done:  E(RB3LYP) =  -239.135418043     A.U. after   13 cycles
             Convg  =    0.6168D-08             -V/T =  2.0097
 KE= 2.368492361055D+02 PE=-9.816210408946D+02 EE= 2.924915673820D+02
 Leave Link  502 at Sat Oct  2 10:35:30 2021, MaxMem=  536870912 cpu:      49.6
 (Enter /sw/target/amd/app/gaussian/Gaussian09RevA.02_gcc-4.9.2/g09/l508.exe)
 QCSCF skips out because SCF is already converged.
 Leave Link  508 at Sat Oct  2 10:35:30 2021, MaxMem=  536870912 cpu:       0.0
 (Enter /sw/target/amd/app/gaussian/Gaussian09RevA.02_gcc-4.9.2/g09/l601.exe)
 Copying SCF densities to generalized density rwf, IOpCl= 0 IROHF=0.

 **********************************************************************

            Population analysis using the SCF density.

 **********************************************************************

 Orbital symmetries:
       Occupied  (A) (A) (A) (A) (A) (A) (A) (A) (A) (A) (A) (A)
                 (A) (A) (A) (A) (A) (A) (A) (A) (A) (A)
       Virtual   (A) (A) (A) (A) (A) (A) (A) (A) (A) (A) (A) (A)
                 (A) (A) (A) (A) (A) (A) (A) (A) (A) (A) (A) (A)
                 (A) (A) (A) (A) (A) (A) (A) (A) (A) (A) (A) (A)
                 (A) (A) (A) (A) (A) (A) (A) (A) (A) (A) (A) (A)
                 (A) (A) (A) (A) (A) (A) (A) (A) (A) (A) (A) (A)
                 (A) (A) (A) (A) (A) (A) (A) (A) (A) (A) (A) (A)
                 (A) (A) (A) (A) (A) (A) (A) (A) (A) (A) (A) (A)
                 (A) (A) (A) (A) (A) (A) (A) (A) (A)
 The electronic state is 1-A.
 Alpha  occ. eigenvalues --  -10.15047 -10.14889 -10.14880 -10.14302 -10.14301
 Alpha  occ. eigenvalues --  -10.11001  -2.00099  -0.79997  -0.69909  -0.68501
 Alpha  occ. eigenvalues --   -0.55696  -0.54109  -0.47032  -0.40904  -0.39232
 Alpha  occ. eigenvalues --   -0.37970  -0.34287  -0.31697  -0.29867  -0.20766
 Alpha  occ. eigenvalues --   -0.20065  -0.17698
 Alpha virt. eigenvalues --   -0.05215   0.00115   0.00307   0.04060   0.05225
 Alpha virt. eigenvalues --    0.05812   0.11632   0.11796   0.13123   0.14354
 Alpha virt. eigenvalues --    0.18668   0.20383   0.21440   0.21451   0.22703
 Alpha virt. eigenvalues --    0.25403   0.34221   0.34803   0.36161   0.37350
 Alpha virt. eigenvalues --    0.44906   0.45383   0.48374   0.49324   0.57759
 Alpha virt. eigenvalues --    0.59440   0.60203   0.60468   0.61308   0.64013
 Alpha virt. eigenvalues --    0.64639   0.65473   0.66671   0.67442   0.71310
 Alpha virt. eigenvalues --    0.74892   0.74968   0.84780   0.85863   0.86030
 Alpha virt. eigenvalues --    0.88085   0.88268   0.90404   0.92439   0.95821
 Alpha virt. eigenvalues --    0.98566   0.99545   1.02113   1.11646   1.14895
 Alpha virt. eigenvalues --    1.16736   1.19538   1.21739   1.25845   1.30851
 Alpha virt. eigenvalues --    1.35112   1.46116   1.48067   1.53296   1.53343
 Alpha virt. eigenvalues --    1.55617   1.63456   1.76681   1.81893   1.86066
 Alpha virt. eigenvalues --    1.91545   1.99850   2.02098   2.11735   2.13026
 Alpha virt. eigenvalues --    2.19183   2.19779   2.20124   2.20377   2.34885
 Alpha virt. eigenvalues --    2.35779   2.37087   2.57063   2.62323   2.69931
 Alpha virt. eigenvalues --    2.71859   2.75692   2.77632   2.77928   2.79426
 Alpha virt. eigenvalues --    3.07089   3.40570   4.13783   4.15863   4.19847
 Alpha virt. eigenvalues --    4.37177   4.40047   4.70917
          Condensed to atoms (all electrons):
              1          2          3          4          5          6
     1  Li   2.367323   0.354398  -0.024503   0.003733   0.002086   0.003742
     2  C    0.354398   4.897029   0.514672  -0.028344  -0.055697  -0.028345
     3  C   -0.024503   0.514672   4.955784   0.555593  -0.029326  -0.038384
     4  C    0.003733  -0.028344   0.555593   4.853007   0.552671  -0.032880
     5  C    0.002086  -0.055697  -0.029326   0.552671   4.889390   0.552708
     6  C    0.003742  -0.028345  -0.038384  -0.032880   0.552708   4.852930
     7  C   -0.024592   0.514506  -0.059320  -0.038388  -0.029336   0.555604
     8  H   -0.015764  -0.049291   0.350490  -0.055206   0.003915   0.000857
     9  H   -0.000282   0.006806  -0.049452   0.345714  -0.052095   0.006011
    10  H   -0.000112   0.000188   0.005113  -0.047449   0.356796  -0.047446
    11  H   -0.000284   0.006806   0.000340   0.006013  -0.052091   0.345715
    12  H   -0.015798  -0.049373   0.006274   0.000857   0.003915  -0.055196
              7          8          9         10         11         12
     1  Li  -0.024592  -0.015764  -0.000282  -0.000112  -0.000284  -0.015798
     2  C    0.514506  -0.049291   0.006806   0.000188   0.006806  -0.049373
     3  C   -0.059320   0.350490  -0.049452   0.005113   0.000340   0.006274
     4  C   -0.038388  -0.055206   0.345714  -0.047449   0.006013   0.000857
     5  C   -0.029336   0.003915  -0.052095   0.356796  -0.052091   0.003915
     6  C    0.555604   0.000857   0.006011  -0.047446   0.345715  -0.055196
     7  C    4.955876   0.006274   0.000341   0.005113  -0.049459   0.350498
     8  H    0.006274   0.675136  -0.004104  -0.000229   0.000028  -0.000152
     9  H    0.000341  -0.004104   0.655597  -0.007111  -0.000141   0.000028
    10  H    0.005113  -0.000229  -0.007111   0.634599  -0.007111  -0.000229
    11  H   -0.049459   0.000028  -0.000141  -0.007111   0.655614  -0.004104
    12  H    0.350498  -0.000152   0.000028  -0.000229  -0.004104   0.675288
 Mulliken atomic charges:
              1
     1  Li   0.350052
     2  C   -0.083355
     3  C   -0.187281
     4  C   -0.115321
     5  C   -0.142936
     6  C   -0.115315
     7  C   -0.187118
     8  H    0.088044
     9  H    0.098685
    10  H    0.107877
    11  H    0.098676
    12  H    0.087991
 Sum of Mulliken atomic charges =  -0.00000
 Mulliken charges with hydrogens summed into heavy atoms:
              1
     1  Li   0.350052
     2  C   -0.083355
     3  C   -0.099237
     4  C   -0.016635
     5  C   -0.035058
     6  C   -0.016640
     7  C   -0.099127
 Sum of Mulliken charges with hydrogens summed into heavy atoms =  -0.00000
 Electronic spatial extent (au):  <R**2>=            546.6813
 Charge=             -0.0000 electrons
 Dipole moment (field-independent basis, Debye):
    X=              6.1262    Y=             -0.0015    Z=              0.0015  Tot=              6.1262
 Quadrupole moment (field-independent basis, Debye-Ang):
   XX=             -7.9371   YY=            -37.0044   ZZ=            -42.1144
   XY=             -0.0033   XZ=              0.0045   YZ=             -0.0000
 Traceless Quadrupole moment (field-independent basis, Debye-Ang):
   XX=             21.0815   YY=             -7.9858   ZZ=            -13.0958
   XY=             -0.0033   XZ=              0.0045   YZ=             -0.0000
 Octapole moment (field-independent basis, Debye-Ang**2):
  XXX=            112.1669  YYY=             -0.0022  ZZZ=              0.0015  XYY=             -0.9434
  XXY=             -0.0068  XXZ=              0.0185  XZZ=             -1.2350  YZZ=             -0.0019
  YYZ=              0.0005  XYZ=             -0.0001
 Hexadecapole moment (field-independent basis, Debye-Ang**3):
 XXXX=             18.4977 YYYY=           -300.5504 ZZZZ=            -51.6085 XXXY=             -0.0129
 XXXZ=              0.0602 YYYX=             -0.0071 YYYZ=             -0.0001 ZZZX=              0.0052
 ZZZY=             -0.0000 XXYY=           -117.7021 XXZZ=            -88.4151 YYZZ=            -65.0493
 XXYZ=             -0.0001 YYXZ=              0.0011 ZZXY=             -0.0046
 N-N= 2.131448193636D+02 E-N=-9.816210422987D+02  KE= 2.368492361055D+02
 No NMR shielding tensors so no spin-rotation constants.
 Leave Link  601 at Sat Oct  2 10:35:32 2021, MaxMem=  536870912 cpu:       0.4
 (Enter /sw/target/amd/app/gaussian/Gaussian09RevA.02_gcc-4.9.2/g09/l701.exe)
 Compute integral first derivatives.
 ... and contract with generalized density number  0.
 Leave Link  701 at Sat Oct  2 10:35:34 2021, MaxMem=  536870912 cpu:       0.5
 (Enter /sw/target/amd/app/gaussian/Gaussian09RevA.02_gcc-4.9.2/g09/l702.exe)
 L702 exits ... SP integral derivatives will be done elsewhere.
 Leave Link  702 at Sat Oct  2 10:35:35 2021, MaxMem=  536870912 cpu:       0.1
 (Enter /sw/target/amd/app/gaussian/Gaussian09RevA.02_gcc-4.9.2/g09/l703.exe)
 Compute integral first derivatives, UseDBF=F ICtDFT=           0.
 Integral derivatives from FoFDir, PRISM(SPDF).
 Calling FoFJK, ICntrl=      2127 FMM=F ISym2X=0 I1Cent= 0 IOpClX= 0 NMat=1 NMatS=1 NMatT=0.
 FoFCou: FMM=F IPFlag=           0 FMFlag=      100000 FMFlg1=         800
         NFxFlg=           0 DoJE=F BraDBF=F KetDBF=F FulRan=T
         Omega=  0.000000  0.000000  1.000000  0.000000  0.000000 ICntrl=    2127 IOpCl=  0
         NMat0=    1 NMatS0=    1 NMatT0=    0 NMatD0=    1 NMtDS0=    0 NMtDT0=    0
         I1Cent=           0 NGrid=           0.
 Symmetry not used in FoFCou.
 Leave Link  703 at Sat Oct  2 10:36:49 2021, MaxMem=  536870912 cpu:      16.1
 (Enter /sw/target/amd/app/gaussian/Gaussian09RevA.02_gcc-4.9.2/g09/l716.exe)
 Dipole        = 2.41021604D+00-5.90229811D-04 5.72951972D-04
 ***** Axes restored to original set *****
 -------------------------------------------------------------------
 Center     Atomic                   Forces (Hartrees/Bohr)
 Number     Number              X              Y              Z
 -------------------------------------------------------------------
      1        3           0.004519188    0.000061005   -0.000427851
      2        6          -0.039361057   -0.000365801    0.003757792
      3        6           0.015283474   -0.010308369   -0.001449225
      4        6          -0.001035150   -0.000372208    0.000094271
      5        6          -0.005046799   -0.000062557    0.000493752
      6        6          -0.000983741    0.000339369    0.000085233
      7        6           0.015033812    0.010611086   -0.001455027
      8        1          -0.000147267    0.006784631    0.000004753
      9        1           0.003909803    0.003937226   -0.000377191
     10        1           0.003814934    0.000044889   -0.000363346
     11        1           0.004004896   -0.003846806   -0.000374041
     12        1           0.000007909   -0.006822465    0.000010880
 -------------------------------------------------------------------
 Cartesian Forces:  Max     0.039361057 RMS     0.008273206
 Leave Link  716 at Sat Oct  2 10:36:50 2021, MaxMem=  536870912 cpu:       0.1
 (Enter /sw/target/amd/app/gaussian/Gaussian09RevA.02_gcc-4.9.2/g09/l103.exe)

 GradGradGradGradGradGradGradGradGradGradGradGradGradGradGradGradGradGrad
 Berny optimization.
 Internal  Forces:  Max     0.017809058 RMS     0.004715507
 Search for a local minimum.
 Step number   1 out of a maximum of   64
 All quantities printed in internal units (Hartrees-Bohrs-Radians)
 RMS Force = .47155D-02 SwitMx=.10000D-02 MixMth= 1
 Mixed Optimization -- RFO/linear search
 Second derivative matrix not updated -- first step.
     Eigenvalues ---    0.02098   0.02099   0.02099   0.02100   0.02103
     Eigenvalues ---    0.02106   0.02108   0.02111   0.02114   0.08443
     Eigenvalues ---    0.16000   0.16000   0.16000   0.16000   0.16000
     Eigenvalues ---    0.22000   0.22000   0.23486   0.25000   0.35715
     Eigenvalues ---    0.35716   0.35716   0.35777   0.35781   0.41588
     Eigenvalues ---    0.41815   0.45747   0.45770   0.45842   0.45912
     Eigenvalues --- 1000.000001000.000001000.000001000.000001000.00000
     Eigenvalues --- 1000.000001000.000001000.000001000.000001000.00000
     Eigenvalues --- 1000.000001000.000001000.000001000.000001000.00000
     Eigenvalues --- 1000.000001000.000001000.000001000.000001000.00000
     Eigenvalues --- 1000.000001000.000001000.000001000.00000
 RFO step:  Lambda=-4.42590706D-03 EMin= 2.09836114D-02
 Linear search not attempted -- first point.
 Iteration  1 RMS(Cart)=  0.01907476 RMS(Int)=  0.00040744
 Iteration  2 RMS(Cart)=  0.00057001 RMS(Int)=  0.00011344
 Iteration  3 RMS(Cart)=  0.00000005 RMS(Int)=  0.00011344
 Variable       Old X    -DE/DX   Delta X   Delta X   Delta X     New X
                                 (Linear)    (Quad)   (Total)
    R1        3.82356  -0.00454   0.00000  -0.05109  -0.05109   3.77246
    R2        2.64209   0.01120   0.00000   0.02503   0.02520   2.66730
    R3        2.64190   0.01130   0.00000   0.02524   0.02541   2.66731
    R4        2.64397   0.00232   0.00000   0.00501   0.00501   2.64898
    R5        2.04431   0.00590   0.00000   0.01629   0.01629   2.06060
    R6        2.64425  -0.00291   0.00000  -0.00720  -0.00737   2.63688
    R7        2.04529   0.00536   0.00000   0.01482   0.01482   2.06010
    R8        2.64424  -0.00292   0.00000  -0.00721  -0.00738   2.63685
    R9        2.04530   0.00383   0.00000   0.01060   0.01060   2.05590
   R10        2.64386   0.00237   0.00000   0.00514   0.00514   2.64900
   R11        2.04528   0.00536   0.00000   0.01482   0.01482   2.06011
   R12        2.04425   0.00593   0.00000   0.01637   0.01637   2.06063
    A1        2.09457   0.00889   0.00000   0.03398   0.03380   2.12837
    A2        2.09342   0.00892   0.00000   0.03409   0.03391   2.12733
    A3        2.09519  -0.01781   0.00000  -0.06808  -0.06771   2.02748
    A4        2.09446   0.00865   0.00000   0.03884   0.03902   2.13348
    A5        2.09117  -0.00090   0.00000   0.00142   0.00134   2.09250
    A6        2.09756  -0.00775   0.00000  -0.04026  -0.04035   2.05721
    A7        2.09397   0.00042   0.00000  -0.00152  -0.00170   2.09227
    A8        2.09462   0.00132   0.00000   0.01006   0.01014   2.10477
    A9        2.09459  -0.00174   0.00000  -0.00854  -0.00845   2.08615
   A10        2.09423  -0.00028   0.00000  -0.00647  -0.00682   2.08741
   A11        2.09450   0.00014   0.00000   0.00322   0.00340   2.09790
   A12        2.09445   0.00014   0.00000   0.00325   0.00343   2.09788
   A13        2.09399   0.00040   0.00000  -0.00158  -0.00176   2.09224
   A14        2.09463  -0.00173   0.00000  -0.00855  -0.00846   2.08617
   A15        2.09456   0.00134   0.00000   0.01013   0.01022   2.10478
   A16        2.09453   0.00863   0.00000   0.03880   0.03897   2.13350
   A17        2.09103  -0.00087   0.00000   0.00157   0.00148   2.09251
   A18        2.09763  -0.00776   0.00000  -0.04037  -0.04045   2.05717
    D1       -3.14129  -0.00000   0.00000  -0.00013  -0.00013  -3.14142
    D2        0.00017   0.00000   0.00000   0.00003   0.00003   0.00020
    D3        0.00020  -0.00001   0.00000  -0.00023  -0.00022  -0.00002
    D4       -3.14152  -0.00000   0.00000  -0.00007  -0.00007  -3.14159
    D5        3.14132   0.00000   0.00000   0.00010   0.00010   3.14142
    D6       -0.00017  -0.00000   0.00000  -0.00002  -0.00003  -0.00019
    D7       -0.00018   0.00001   0.00000   0.00020   0.00020   0.00002
    D8        3.14152   0.00000   0.00000   0.00008   0.00007  -3.14159
    D9       -0.00004   0.00000   0.00000   0.00004   0.00004   0.00000
   D10        3.14146   0.00000   0.00000   0.00014   0.00014  -3.14158
   D11       -3.14150  -0.00000   0.00000  -0.00012  -0.00011   3.14157
   D12       -0.00000  -0.00000   0.00000  -0.00002  -0.00001  -0.00001
   D13       -0.00015   0.00000   0.00000   0.00016   0.00017   0.00001
   D14        3.14153   0.00000   0.00000   0.00005   0.00005   3.14159
   D15        3.14153   0.00000   0.00000   0.00006   0.00007  -3.14159
   D16        0.00003  -0.00000   0.00000  -0.00005  -0.00005  -0.00001
   D17        0.00018  -0.00000   0.00000  -0.00019  -0.00019  -0.00001
   D18       -3.14154  -0.00000   0.00000  -0.00005  -0.00006   3.14159
   D19       -3.14151  -0.00000   0.00000  -0.00008  -0.00008  -3.14159
   D20       -0.00004   0.00000   0.00000   0.00006   0.00006   0.00002
   D21       -0.00001   0.00000   0.00000   0.00001   0.00001  -0.00001
   D22        3.14147   0.00000   0.00000   0.00014   0.00014  -3.14158
   D23       -3.14148  -0.00000   0.00000  -0.00012  -0.00013   3.14158
   D24        0.00000   0.00000   0.00000   0.00001   0.00000   0.00000
         Item               Value     Threshold  Converged?
 Maximum Force            0.017809     0.000450     NO 
 RMS     Force            0.004716     0.000300     NO 
 Maximum Displacement     0.094910     0.001800     NO 
 RMS     Displacement     0.019032     0.001200     NO 
 Predicted change in Energy=-2.252736D-03
 GradGradGradGradGradGradGradGradGradGradGradGradGradGradGradGradGradGrad

 Leave Link  103 at Sat Oct  2 10:36:54 2021, MaxMem=  536870912 cpu:       0.7
 (Enter /sw/target/amd/app/gaussian/Gaussian09RevA.02_gcc-4.9.2/g09/l202.exe)
                          Input orientation:                          
 ---------------------------------------------------------------------
 Center     Atomic      Atomic             Coordinates (Angstroms)
 Number     Number       Type             X           Y           Z
 ---------------------------------------------------------------------
      1          3           0        0.956206   -0.046042    0.299435
      2          6           0        2.943402   -0.022677    0.110428
      3          6           0        3.672711    1.183671    0.039105
      4          6           0        5.067976    1.207227   -0.093821
      5          6           0        5.780280    0.009169   -0.159821
      6          6           0        5.095191   -1.204581   -0.092719
      7          6           0        3.699738   -1.212341    0.040198
      8          1           0        3.149090    2.138919    0.087528
      9          1           0        5.604404    2.154819   -0.146364
     10          1           0        6.863245    0.021329   -0.262989
     11          1           0        5.652846   -2.139890   -0.144396
     12          1           0        3.197795   -2.179127    0.089492
 ---------------------------------------------------------------------
                    Distance matrix (angstroms):
                    1          2          3          4          5
     1  Li   0.000000
     2  C    1.996301   0.000000
     3  C    2.993220   1.411472   0.000000
     4  C    4.316478   2.463370   1.401780   0.000000
     5  C    4.846200   2.849899   2.420924   1.395377   0.000000
     6  C    4.315923   2.463404   2.782907   2.411963   1.395364
     7  C    2.992394   1.411480   2.396164   2.782867   2.420899
     8  H    3.102854   2.171481   1.090424   2.140808   3.394139
     9  H    5.162197   3.447951   2.170015   1.090159   2.152889
    10  H    5.934136   3.937835   3.409077   2.158232   1.087936
    11  H    5.161357   3.447987   3.873068   3.398209   2.152889
    12  H    3.101427   2.171504   3.396541   3.872799   3.394116
                    6          7          8          9         10
     6  C    0.000000
     7  C    1.401791   0.000000
     8  H    3.872827   3.396527   0.000000
     9  H    3.398198   3.873026   2.466481   0.000000
    10  H    2.158208   3.409053   4.289755   2.479932   0.000000
    11  H    1.090161   2.170036   4.962941   4.294983   2.479918
    12  H    2.140806   1.090436   4.318321   4.962911   4.289728
                   11         12
    11  H    0.000000
    12  H    2.466479   0.000000
 Stoichiometry    C6H5Li
 Framework group  C1[X(C6H5Li)]
 Deg. of freedom    30
 Full point group                 C1      NOp   1
 Largest Abelian subgroup         C1      NOp   1
 Largest concise Abelian subgroup C1      NOp   1
                         Standard orientation:                         
 ---------------------------------------------------------------------
 Center     Atomic      Atomic             Coordinates (Angstroms)
 Number     Number       Type             X           Y           Z
 ---------------------------------------------------------------------
      1          3           0        3.260764    0.000092    0.000158
      2          6           0        1.264463    0.000490   -0.000071
      3          6           0        0.517847    1.198329   -0.000033
      4          6           0       -0.883914    1.205759    0.000014
      5          6           0       -1.585436   -0.000452    0.000029
      6          6           0       -0.883153   -1.206203    0.000013
      7          6           0        0.518613   -1.197836   -0.000032
      8          1           0        1.032675    2.159565   -0.000063
      9          1           0       -1.433774    2.147089    0.000033
     10          1           0       -2.673372   -0.000808    0.000069
     11          1           0       -1.432398   -2.147894    0.000026
     12          1           0        1.034057   -2.158756   -0.000055
 ---------------------------------------------------------------------
 Rotational constants (GHZ):      5.7398435      3.1180842      2.0204856
 Leave Link  202 at Sat Oct  2 10:36:54 2021, MaxMem=  536870912 cpu:       0.0
 (Enter /sw/target/amd/app/gaussian/Gaussian09RevA.02_gcc-4.9.2/g09/l301.exe)
 Standard basis: 6-31G(d) (6D, 7F)
 Ernie: Thresh=  0.10000D-02 Tol=  0.10000D-05 Strict=F.
 There are   115 symmetry adapted basis functions of A   symmetry.
 Integral buffers will be    131072 words long.
 Raffenetti 2 integral format.
 Two-electron integral symmetry is turned on.
   115 basis functions,   216 primitive gaussians,   115 cartesian basis functions
    22 alpha electrons       22 beta electrons
       nuclear repulsion energy       212.5666332279 Hartrees.
 IExCor=  402 DFT=T Ex+Corr=B3LYP ExCW=0 ScaHFX=  0.200000
 ScaDFX=  0.800000  0.720000  1.000000  0.810000 ScalE2=  1.000000  1.000000
 IRadAn=      0 IRanWt=     -1 IRanGd=            0 ICorTp=0
 NAtoms=   12 NActive=   12 NUniq=   12 SFac= 7.50D-01 NAtFMM=   80 NAOKFM=F Big=F
 Leave Link  301 at Sat Oct  2 10:36:55 2021, MaxMem=  536870912 cpu:       0.1
 (Enter /sw/target/amd/app/gaussian/Gaussian09RevA.02_gcc-4.9.2/g09/l302.exe)
 NPDir=0 NMtPBC=     1 NCelOv=     1 NCel=       1 NClECP=     1 NCelD=      1
         NCelK=      1 NCelE2=     1 NClLst=     1 CellRange=     0.0.
 One-electron integrals computed using PRISM.
 NBasis=   115 RedAO= T  NBF=   115
 NBsUse=   115 1.00D-06 NBFU=   115
 Precomputing XC quadrature grid using
 IXCGrd= 2 IRadAn=           0 IRanWt=          -1 IRanGd=           0 AccXCQ= 1.00D-10.
 NRdTot=     766 NPtTot=       97162 NUsed=      102693 NTot=      102725
 NSgBfM=   115   115   115   115   115 NAtAll=    12    12.
 Leave Link  302 at Sat Oct  2 10:36:58 2021, MaxMem=  536870912 cpu:       0.6
 (Enter /sw/target/amd/app/gaussian/Gaussian09RevA.02_gcc-4.9.2/g09/l303.exe)
 DipDrv:  MaxL=1.
 Leave Link  303 at Sat Oct  2 10:36:59 2021, MaxMem=  536870912 cpu:       0.1
 (Enter /sw/target/amd/app/gaussian/Gaussian09RevA.02_gcc-4.9.2/g09/l401.exe)
 Initial guess read from the read-write file.
 B after Tr=     0.000000    0.000000    0.000000
         Rot=    1.000000    0.000000    0.000000    0.000000 Ang=   0.00 deg.
 Guess basis will be translated and rotated to current coordinates.
 Initial guess orbital symmetries:
       Occupied  (A) (A) (A) (A) (A) (A) (A) (A) (A) (A) (A) (A)
                 (A) (A) (A) (A) (A) (A) (A) (A) (A) (A)
       Virtual   (A) (A) (A) (A) (A) (A) (A) (A) (A) (A) (A) (A)
                 (A) (A) (A) (A) (A) (A) (A) (A) (A) (A) (A) (A)
                 (A) (A) (A) (A) (A) (A) (A) (A) (A) (A) (A) (A)
                 (A) (A) (A) (A) (A) (A) (A) (A) (A) (A) (A) (A)
                 (A) (A) (A) (A) (A) (A) (A) (A) (A) (A) (A) (A)
                 (A) (A) (A) (A) (A) (A) (A) (A) (A) (A) (A) (A)
                 (A) (A) (A) (A) (A) (A) (A) (A) (A) (A) (A) (A)
                 (A) (A) (A) (A) (A) (A) (A) (A) (A)
 The electronic state of the initial guess is 1-A.
 Generating alternative initial guess.
 Harris functional with IExCor=  402 diagonalized for initial guess.
 ExpMin= 3.60D-02 ExpMax= 3.05D+03 ExpMxC= 4.57D+02 IAcc=3 IRadAn=         0 AccDes= 0.00D+00
 HarFok:  IExCor=  402 AccDes= 0.00D+00 IRadAn=         0 IDoV= 1
 ScaDFX=  1.000000  1.000000  1.000000  1.000000
 FoFCou: FMM=F IPFlag=           0 FMFlag=      100000 FMFlg1=           0
         NFxFlg=           0 DoJE=T BraDBF=F KetDBF=T FulRan=T
         Omega=  0.000000  0.000000  1.000000  0.000000  0.000000 ICntrl=     500 IOpCl=  0
         NMat0=    1 NMatS0=    1 NMatT0=    0 NMatD0=    1 NMtDS0=    0 NMtDT0=    0
         I1Cent=           4 NGrid=           0.
 Petite list used in FoFCou.
 Harris En= -239.262239919671    
 Leave Link  401 at Sat Oct  2 10:37:24 2021, MaxMem=  536870912 cpu:       5.3
 (Enter /sw/target/amd/app/gaussian/Gaussian09RevA.02_gcc-4.9.2/g09/l502.exe)
 Closed shell SCF:
 Requested convergence on RMS density matrix=1.00D-08 within  64 cycles.
 Requested convergence on MAX density matrix=1.00D-06.
 Requested convergence on             energy=1.00D-06.
 No special actions if energy rises.
 Using DIIS extrapolation, IDIIS=  1040.
 Integral symmetry usage will be decided dynamically.
       102572 words used for storage of precomputed grid.
 Keep R1 ints in memory in canonical form, NReq=23331589.
 IEnd=      149342 IEndB=      149342 NGot=   536870912 MDV=   514491322
 LenX=   514491322 LenY=   514477656
 Symmetry not used in FoFDir.
 MinBra= 0 MaxBra= 2 Meth= 1.
 IRaf=       0 NMat=   1 IRICut=       1 DoRegI=T DoRafI=F ISym2E= 0 JSym2E=0.

 Cycle   1  Pass 1  IDiag  1:
 E= -239.137224688132    
 DIIS: error= 1.61D-03 at cycle   1 NSaved=   1.
 NSaved= 1 IEnMin= 1 EnMin= -239.137224688132     IErMin= 1 ErrMin= 1.61D-03
 ErrMax= 1.61D-03 EMaxC= 1.00D-01 BMatC= 4.89D-04 BMatP= 4.89D-04
 IDIUse=3 WtCom= 9.84D-01 WtEn= 1.61D-02
 Coeff-Com:  0.100D+01
 Coeff-En:   0.100D+01
 Coeff:      0.100D+01
 Gap=     0.136 Goal=   None    Shift=    0.000
 GapD=    0.136 DampG=1.000 DampE=1.000 DampFc=1.0000 IDamp=-1.
 RMSDP=5.28D-04 MaxDP=7.69D-03              OVMax= 1.93D-02

 Cycle   2  Pass 1  IDiag  1:
 E= -239.138094436015     Delta-E=       -0.000869747884 Rises=F Damp=F
 DIIS: error= 7.40D-04 at cycle   2 NSaved=   2.
 NSaved= 2 IEnMin= 2 EnMin= -239.138094436015     IErMin= 2 ErrMin= 7.40D-04
 ErrMax= 7.40D-04 EMaxC= 1.00D-01 BMatC= 7.12D-05 BMatP= 4.89D-04
 IDIUse=3 WtCom= 9.93D-01 WtEn= 7.40D-03
 Coeff-Com:  0.126D+00 0.874D+00
 Coeff-En:   0.000D+00 0.100D+01
 Coeff:      0.125D+00 0.875D+00
 Gap=     0.133 Goal=   None    Shift=    0.000
 RMSDP=1.45D-04 MaxDP=3.20D-03 DE=-8.70D-04 OVMax= 5.89D-03

 Cycle   3  Pass 1  IDiag  1:
 E= -239.138076102063     Delta-E=        0.000018333953 Rises=F Damp=F
 DIIS: error= 8.99D-04 at cycle   3 NSaved=   3.
 NSaved= 3 IEnMin= 2 EnMin= -239.138094436015     IErMin= 2 ErrMin= 7.40D-04
 ErrMax= 8.99D-04 EMaxC= 1.00D-01 BMatC= 8.76D-05 BMatP= 7.12D-05
 IDIUse=3 WtCom= 2.50D-01 WtEn= 7.50D-01
 Coeff-Com: -0.275D-01 0.539D+00 0.489D+00
 Coeff-En:   0.000D+00 0.552D+00 0.448D+00
 Coeff:     -0.689D-02 0.549D+00 0.458D+00
 Gap=     0.134 Goal=   None    Shift=    0.000
 RMSDP=8.50D-05 MaxDP=1.91D-03 DE= 1.83D-05 OVMax= 3.65D-03

 Cycle   4  Pass 1  IDiag  1:
 E= -239.138164012632     Delta-E=       -0.000087910569 Rises=F Damp=F
 DIIS: error= 1.01D-04 at cycle   4 NSaved=   4.
 NSaved= 4 IEnMin= 4 EnMin= -239.138164012632     IErMin= 4 ErrMin= 1.01D-04
 ErrMax= 1.01D-04 EMaxC= 1.00D-01 BMatC= 1.08D-06 BMatP= 7.12D-05
 IDIUse=3 WtCom= 9.99D-01 WtEn= 1.01D-03
 Coeff-Com: -0.176D-01 0.185D+00 0.185D+00 0.648D+00
 Coeff-En:   0.000D+00 0.000D+00 0.000D+00 0.100D+01
 Coeff:     -0.176D-01 0.184D+00 0.185D+00 0.649D+00
 Gap=     0.134 Goal=   None    Shift=    0.000
 RMSDP=1.60D-05 MaxDP=2.83D-04 DE=-8.79D-05 OVMax= 6.58D-04

 Cycle   5  Pass 1  IDiag  1:
 E= -239.138164527184     Delta-E=       -0.000000514552 Rises=F Damp=F
 DIIS: error= 9.95D-05 at cycle   5 NSaved=   5.
 NSaved= 5 IEnMin= 5 EnMin= -239.138164527184     IErMin= 5 ErrMin= 9.95D-05
 ErrMax= 9.95D-05 EMaxC= 1.00D-01 BMatC= 5.94D-07 BMatP= 1.08D-06
 IDIUse=1 WtCom= 1.00D+00 WtEn= 0.00D+00
 Coeff-Com: -0.623D-02 0.464D-01 0.576D-01 0.433D+00 0.470D+00
 Coeff:     -0.623D-02 0.464D-01 0.576D-01 0.433D+00 0.470D+00
 Gap=     0.134 Goal=   None    Shift=    0.000
 RMSDP=8.66D-06 MaxDP=1.24D-04 DE=-5.15D-07 OVMax= 4.01D-04

 Cycle   6  Pass 1  IDiag  1:
 E= -239.138165224311     Delta-E=       -0.000000697127 Rises=F Damp=F
 DIIS: error= 1.90D-05 at cycle   6 NSaved=   6.
 NSaved= 6 IEnMin= 6 EnMin= -239.138165224311     IErMin= 6 ErrMin= 1.90D-05
 ErrMax= 1.90D-05 EMaxC= 1.00D-01 BMatC= 2.10D-08 BMatP= 5.94D-07
 IDIUse=1 WtCom= 1.00D+00 WtEn= 0.00D+00
 Coeff-Com: -0.125D-02 0.427D-02 0.120D-01 0.129D+00 0.221D+00 0.634D+00
 Coeff:     -0.125D-02 0.427D-02 0.120D-01 0.129D+00 0.221D+00 0.634D+00
 Gap=     0.134 Goal=   None    Shift=    0.000
 RMSDP=2.21D-06 MaxDP=2.98D-05 DE=-6.97D-07 OVMax= 8.04D-05

 Cycle   7  Pass 1  IDiag  1:
 E= -239.138165249925     Delta-E=       -0.000000025614 Rises=F Damp=F
 DIIS: error= 4.34D-06 at cycle   7 NSaved=   7.
 NSaved= 7 IEnMin= 7 EnMin= -239.138165249925     IErMin= 7 ErrMin= 4.34D-06
 ErrMax= 4.34D-06 EMaxC= 1.00D-01 BMatC= 3.05D-09 BMatP= 2.10D-08
 IDIUse=1 WtCom= 1.00D+00 WtEn= 0.00D+00
 Coeff-Com:  0.293D-03-0.589D-02-0.230D-02-0.177D-02 0.501D-01 0.330D+00
 Coeff-Com:  0.629D+00
 Coeff:      0.293D-03-0.589D-02-0.230D-02-0.177D-02 0.501D-01 0.330D+00
 Coeff:      0.629D+00
 Gap=     0.134 Goal=   None    Shift=    0.000
 RMSDP=6.32D-07 MaxDP=1.37D-05 DE=-2.56D-08 OVMax= 2.40D-05

 Cycle   8  Pass 1  IDiag  1:
 E= -239.138165253575     Delta-E=       -0.000000003650 Rises=F Damp=F
 DIIS: error= 5.26D-07 at cycle   8 NSaved=   8.
 NSaved= 8 IEnMin= 8 EnMin= -239.138165253575     IErMin= 8 ErrMin= 5.26D-07
 ErrMax= 5.26D-07 EMaxC= 1.00D-01 BMatC= 3.83D-11 BMatP= 3.05D-09
 IDIUse=1 WtCom= 1.00D+00 WtEn= 0.00D+00
 Coeff-Com:  0.130D-03-0.139D-02-0.949D-03-0.949D-02-0.341D-02 0.251D-01
 Coeff-Com:  0.639D-01 0.926D+00
 Coeff:      0.130D-03-0.139D-02-0.949D-03-0.949D-02-0.341D-02 0.251D-01
 Coeff:      0.639D-01 0.926D+00
 Gap=     0.134 Goal=   None    Shift=    0.000
 RMSDP=1.54D-07 MaxDP=4.60D-06 DE=-3.65D-09 OVMax= 1.13D-05

 Cycle   9  Pass 1  IDiag  1:
 E= -239.138165253657     Delta-E=       -0.000000000082 Rises=F Damp=F
 DIIS: error= 2.30D-07 at cycle   9 NSaved=   9.
 NSaved= 9 IEnMin= 9 EnMin= -239.138165253657     IErMin= 9 ErrMin= 2.30D-07
 ErrMax= 2.30D-07 EMaxC= 1.00D-01 BMatC= 7.16D-12 BMatP= 3.83D-11
 IDIUse=1 WtCom= 1.00D+00 WtEn= 0.00D+00
 Coeff-Com:  0.404D-04-0.323D-03-0.221D-03-0.349D-02-0.166D-02-0.351D-03
 Coeff-Com:  0.467D-02 0.380D+00 0.621D+00
 Coeff:      0.404D-04-0.323D-03-0.221D-03-0.349D-02-0.166D-02-0.351D-03
 Coeff:      0.467D-02 0.380D+00 0.621D+00
 Gap=     0.134 Goal=   None    Shift=    0.000
 RMSDP=3.07D-08 MaxDP=7.57D-07 DE=-8.17D-11 OVMax= 1.43D-06

 Cycle  10  Pass 1  IDiag  1:
 E= -239.138165253664     Delta-E=       -0.000000000007 Rises=F Damp=F
 DIIS: error= 1.31D-07 at cycle  10 NSaved=  10.
 NSaved=10 IEnMin=10 EnMin= -239.138165253664     IErMin=10 ErrMin= 1.31D-07
 ErrMax= 1.31D-07 EMaxC= 1.00D-01 BMatC= 1.70D-12 BMatP= 7.16D-12
 IDIUse=1 WtCom= 1.00D+00 WtEn= 0.00D+00
 Coeff-Com: -0.113D-05 0.769D-04 0.447D-04-0.308D-03-0.284D-03-0.661D-02
 Coeff-Com: -0.118D-01 0.266D-01 0.347D+00 0.646D+00
 Coeff:     -0.113D-05 0.769D-04 0.447D-04-0.308D-03-0.284D-03-0.661D-02
 Coeff:     -0.118D-01 0.266D-01 0.347D+00 0.646D+00
 Gap=     0.134 Goal=   None    Shift=    0.000
 RMSDP=1.71D-08 MaxDP=3.54D-07 DE=-6.76D-12 OVMax= 8.42D-07

 Cycle  11  Pass 1  IDiag  1:
 E= -239.138165253670     Delta-E=       -0.000000000006 Rises=F Damp=F
 DIIS: error= 4.41D-08 at cycle  11 NSaved=  11.
 NSaved=11 IEnMin=11 EnMin= -239.138165253670     IErMin=11 ErrMin= 4.41D-08
 ErrMax= 4.41D-08 EMaxC= 1.00D-01 BMatC= 1.25D-13 BMatP= 1.70D-12
 IDIUse=1 WtCom= 1.00D+00 WtEn= 0.00D+00
 Coeff-Com: -0.213D-05 0.542D-04 0.314D-04-0.416D-04-0.124D-03-0.376D-02
 Coeff-Com: -0.706D-02-0.138D-02 0.163D+00 0.373D+00 0.477D+00
 Coeff:     -0.213D-05 0.542D-04 0.314D-04-0.416D-04-0.124D-03-0.376D-02
 Coeff:     -0.706D-02-0.138D-02 0.163D+00 0.373D+00 0.477D+00
 Gap=     0.134 Goal=   None    Shift=    0.000
 RMSDP=4.35D-09 MaxDP=8.19D-08 DE=-5.80D-12 OVMax= 2.13D-07

 SCF Done:  E(RB3LYP) =  -239.138165254     A.U. after   11 cycles
             Convg  =    0.4351D-08             -V/T =  2.0100
 KE= 2.367599750376D+02 PE=-9.804267579788D+02 EE= 2.919619844597D+02
 Leave Link  502 at Sat Oct  2 10:40:43 2021, MaxMem=  536870912 cpu:      42.7
 (Enter /sw/target/amd/app/gaussian/Gaussian09RevA.02_gcc-4.9.2/g09/l508.exe)
 QCSCF skips out because SCF is already converged.
 Leave Link  508 at Sat Oct  2 10:40:43 2021, MaxMem=  536870912 cpu:       0.0
 (Enter /sw/target/amd/app/gaussian/Gaussian09RevA.02_gcc-4.9.2/g09/l701.exe)
 Compute integral first derivatives.
 ... and contract with generalized density number  0.
 Leave Link  701 at Sat Oct  2 10:40:46 2021, MaxMem=  536870912 cpu:       0.5
 (Enter /sw/target/amd/app/gaussian/Gaussian09RevA.02_gcc-4.9.2/g09/l702.exe)
 L702 exits ... SP integral derivatives will be done elsewhere.
 Leave Link  702 at Sat Oct  2 10:40:46 2021, MaxMem=  536870912 cpu:       0.1
 (Enter /sw/target/amd/app/gaussian/Gaussian09RevA.02_gcc-4.9.2/g09/l703.exe)
 Compute integral first derivatives, UseDBF=F ICtDFT=           0.
 Integral derivatives from FoFDir, PRISM(SPDF).
 Calling FoFJK, ICntrl=      2127 FMM=F ISym2X=0 I1Cent= 0 IOpClX= 0 NMat=1 NMatS=1 NMatT=0.
 FoFCou: FMM=F IPFlag=           0 FMFlag=      100000 FMFlg1=         800
         NFxFlg=           0 DoJE=F BraDBF=F KetDBF=F FulRan=T
         Omega=  0.000000  0.000000  1.000000  0.000000  0.000000 ICntrl=    2127 IOpCl=  0
         NMat0=    1 NMatS0=    1 NMatT0=    0 NMatD0=    1 NMtDS0=    0 NMtDT0=    0
         I1Cent=           0 NGrid=           0.
 Symmetry not used in FoFCou.
 Leave Link  703 at Sat Oct  2 10:42:04 2021, MaxMem=  536870912 cpu:      16.9
 (Enter /sw/target/amd/app/gaussian/Gaussian09RevA.02_gcc-4.9.2/g09/l716.exe)
 Dipole        = 2.44940893D+00-6.28045036D-04 3.20358889D-04
 ***** Axes restored to original set *****
 -------------------------------------------------------------------
 Center     Atomic                   Forces (Hartrees/Bohr)
 Number     Number              X              Y              Z
 -------------------------------------------------------------------
      1        3           0.002634067    0.000035886   -0.000249176
      2        6          -0.011284592   -0.000135029    0.001069943
      3        6           0.006244037   -0.003030934   -0.000587689
      4        6          -0.001743158    0.001778368    0.000164103
      5        6           0.000791543    0.000011271   -0.000077146
      6        6          -0.001707292   -0.001818543    0.000166379
      7        6           0.006177663    0.003167427   -0.000591222
      8        1           0.000050725    0.001353270   -0.000007651
      9        1          -0.000706390   -0.000079266    0.000067332
     10        1           0.000169385    0.000003307   -0.000015743
     11        1          -0.000709042    0.000064603    0.000067159
     12        1           0.000083053   -0.001350360   -0.000006290
 -------------------------------------------------------------------
 Cartesian Forces:  Max     0.011284592 RMS     0.002637324
 Leave Link  716 at Sat Oct  2 10:42:05 2021, MaxMem=  536870912 cpu:       0.1
 (Enter /sw/target/amd/app/gaussian/Gaussian09RevA.02_gcc-4.9.2/g09/l103.exe)

 GradGradGradGradGradGradGradGradGradGradGradGradGradGradGradGradGradGrad
 Berny optimization.
 Using GEDIIS/GDIIS optimizer.
 Internal  Forces:  Max     0.004534349 RMS     0.001250747
 Search for a local minimum.
 Step number   2 out of a maximum of   64
 All quantities printed in internal units (Hartrees-Bohrs-Radians)
 RMS Force = .12507D-02 SwitMx=.10000D-02 MixMth= 1
 Mixed Optimization -- RFO/linear search
 Update second derivatives using D2CorX and points    1    2
 DE= -2.75D-03 DEPred=-2.25D-03 R= 1.22D+00
 SS=  1.41D+00  RLast= 1.37D-01 DXNew= 5.0454D-01 4.1080D-01
 Trust test= 1.22D+00 RLast= 1.37D-01 DXMaxT set to 4.11D-01
 Use linear search instead of GDIIS.
     Eigenvalues ---    0.02098   0.02099   0.02099   0.02100   0.02103
     Eigenvalues ---    0.02107   0.02108   0.02111   0.02114   0.07838
     Eigenvalues ---    0.15429   0.16000   0.16000   0.16000   0.16374
     Eigenvalues ---    0.19158   0.22000   0.22028   0.25000   0.35547
     Eigenvalues ---    0.35716   0.35718   0.35779   0.36399   0.41460
     Eigenvalues ---    0.41786   0.45425   0.45747   0.45909   0.47210
     Eigenvalues --- 1000.000001000.000001000.000001000.000001000.00000
     Eigenvalues --- 1000.000001000.000001000.000001000.000001000.00000
     Eigenvalues --- 1000.000001000.000001000.000001000.000001000.00000
     Eigenvalues --- 1000.000001000.000001000.000001000.000001000.00000
     Eigenvalues --- 1000.000001000.000001000.000001000.00000
 RFO step:  Lambda=-1.98028089D-04 EMin= 2.09836113D-02
 Quartic linear search produced a step of  0.31725.
 Iteration  1 RMS(Cart)=  0.00761498 RMS(Int)=  0.00007583
 Iteration  2 RMS(Cart)=  0.00008280 RMS(Int)=  0.00005289
 Iteration  3 RMS(Cart)=  0.00000000 RMS(Int)=  0.00005289
 Variable       Old X    -DE/DX   Delta X   Delta X   Delta X     New X
                                 (Linear)    (Quad)   (Total)
    R1        3.77246  -0.00265  -0.01621  -0.02633  -0.04254   3.72992
    R2        2.66730   0.00212   0.00800  -0.00088   0.00719   2.67449
    R3        2.66731   0.00212   0.00806  -0.00094   0.00720   2.67451
    R4        2.64898  -0.00195   0.00159  -0.00701  -0.00541   2.64357
    R5        2.06060   0.00116   0.00517  -0.00025   0.00492   2.06552
    R6        2.63688   0.00040  -0.00234   0.00319   0.00077   2.63765
    R7        2.06010  -0.00042   0.00470  -0.00566  -0.00096   2.05914
    R8        2.63685   0.00041  -0.00234   0.00321   0.00079   2.63764
    R9        2.05590   0.00017   0.00336  -0.00232   0.00105   2.05695
   R10        2.64900  -0.00195   0.00163  -0.00704  -0.00541   2.64359
   R11        2.06011  -0.00042   0.00470  -0.00567  -0.00097   2.05914
   R12        2.06063   0.00116   0.00519  -0.00028   0.00491   2.06554
    A1        2.12837   0.00226   0.01072   0.00275   0.01339   2.14176
    A2        2.12733   0.00228   0.01076   0.00282   0.01349   2.14082
    A3        2.02748  -0.00453  -0.02148  -0.00557  -0.02688   2.00060
    A4        2.13348   0.00270   0.01238   0.00460   0.01706   2.15054
    A5        2.09250  -0.00063   0.00042  -0.00228  -0.00190   2.09060
    A6        2.05721  -0.00207  -0.01280  -0.00232  -0.01516   2.04205
    A7        2.09227   0.00003  -0.00054   0.00020  -0.00042   2.09185
    A8        2.10477  -0.00061   0.00322  -0.00762  -0.00436   2.10041
    A9        2.08615   0.00058  -0.00268   0.00742   0.00478   2.09093
   A10        2.08741  -0.00093  -0.00216  -0.00407  -0.00640   2.08100
   A11        2.09790   0.00046   0.00108   0.00203   0.00319   2.10109
   A12        2.09788   0.00047   0.00109   0.00204   0.00321   2.10109
   A13        2.09224   0.00004  -0.00056   0.00024  -0.00040   2.09184
   A14        2.08617   0.00058  -0.00269   0.00742   0.00477   2.09094
   A15        2.10478  -0.00061   0.00324  -0.00765  -0.00437   2.10041
   A16        2.13350   0.00269   0.01236   0.00460   0.01704   2.15054
   A17        2.09251  -0.00063   0.00047  -0.00231  -0.00188   2.09063
   A18        2.05717  -0.00207  -0.01283  -0.00229  -0.01516   2.04201
    D1       -3.14142  -0.00000  -0.00004  -0.00000  -0.00004  -3.14146
    D2        0.00020  -0.00000   0.00001  -0.00009  -0.00008   0.00012
    D3       -0.00002   0.00000  -0.00007   0.00012   0.00005   0.00003
    D4       -3.14159   0.00000  -0.00002   0.00004   0.00002  -3.14157
    D5        3.14142   0.00000   0.00003   0.00001   0.00004   3.14146
    D6       -0.00019   0.00000  -0.00001   0.00008   0.00007  -0.00012
    D7        0.00002  -0.00000   0.00006  -0.00012  -0.00005  -0.00003
    D8       -3.14159  -0.00000   0.00002  -0.00005  -0.00003   3.14157
    D9        0.00000  -0.00000   0.00001  -0.00002  -0.00001  -0.00001
   D10       -3.14158  -0.00000   0.00004  -0.00007  -0.00002   3.14158
   D11        3.14157   0.00000  -0.00004   0.00006   0.00002  -3.14159
   D12       -0.00001   0.00000  -0.00000   0.00001   0.00001  -0.00001
   D13        0.00001  -0.00000   0.00005  -0.00009  -0.00003  -0.00002
   D14        3.14159   0.00000   0.00002  -0.00001   0.00000   3.14159
   D15       -3.14159  -0.00000   0.00002  -0.00004  -0.00002   3.14158
   D16       -0.00001   0.00000  -0.00001   0.00003   0.00002   0.00000
   D17       -0.00001   0.00000  -0.00006   0.00009   0.00003   0.00002
   D18        3.14159   0.00000  -0.00002   0.00004   0.00002  -3.14158
   D19       -3.14159  -0.00000  -0.00002   0.00002  -0.00000  -3.14159
   D20        0.00002  -0.00000   0.00002  -0.00004  -0.00002  -0.00000
   D21       -0.00001   0.00000   0.00000   0.00001   0.00001   0.00000
   D22       -3.14158  -0.00000   0.00004  -0.00006  -0.00001   3.14159
   D23        3.14158   0.00000  -0.00004   0.00007   0.00003  -3.14158
   D24        0.00000   0.00000   0.00000   0.00000   0.00000   0.00001
         Item               Value     Threshold  Converged?
 Maximum Force            0.004534     0.000450     NO 
 RMS     Force            0.001251     0.000300     NO 
 Maximum Displacement     0.031201     0.001800     NO 
 RMS     Displacement     0.007633     0.001200     NO 
 Predicted change in Energy=-2.692203D-04
 GradGradGradGradGradGradGradGradGradGradGradGradGradGradGradGradGradGrad

 Leave Link  103 at Sat Oct  2 10:42:08 2021, MaxMem=  536870912 cpu:       0.7
 (Enter /sw/target/amd/app/gaussian/Gaussian09RevA.02_gcc-4.9.2/g09/l202.exe)
                          Input orientation:                          
 ---------------------------------------------------------------------
 Center     Atomic      Atomic             Coordinates (Angstroms)
 Number     Number       Type             X           Y           Z
 ---------------------------------------------------------------------
      1          3           0        0.962111   -0.045884    0.298901
      2          6           0        2.926891   -0.022882    0.111961
      3          6           0        3.674288    1.176733    0.038964
      4          6           0        5.066606    1.205311   -0.093681
      5          6           0        5.782938    0.009202   -0.160084
      6          6           0        5.093786   -1.202703   -0.092583
      7          6           0        3.701163   -1.205412    0.040050
      8          1           0        3.160449    2.140280    0.086435
      9          1           0        5.595238    2.156733   -0.145479
     10          1           0        6.866456    0.021387   -0.263295
     11          1           0        5.643746   -2.142004   -0.143518
     12          1           0        3.209214   -2.180283    0.088403
 ---------------------------------------------------------------------
                    Distance matrix (angstroms):
                    1          2          3          4          5
     1  Li   0.000000
     2  C    1.973788   0.000000
     3  C    2.986346   1.415277   0.000000
     4  C    4.308885   2.475707   1.398915   0.000000
     5  C    4.842941   2.869154   2.418503   1.395785   0.000000
     6  C    4.308390   2.475731   2.773805   2.408167   1.395780
     7  C    2.985618   1.415289   2.382297   2.773788   2.418498
     8  H    3.107595   2.175884   1.093026   2.130738   3.388173
     9  H    5.149259   3.455007   2.164364   1.089651   2.155767
    10  H    5.931431   3.957644   3.408243   2.160996   1.088490
    11  H    5.148510   3.455032   3.863429   3.397071   2.155768
    12  H    3.106355   2.175923   3.389439   3.865916   3.388164
                    6          7          8          9         10
     6  C    0.000000
     7  C    1.398927   0.000000
     8  H    3.865924   3.389421   0.000000
     9  H    3.397066   3.863413   2.445865   0.000000
    10  H    2.160994   3.408245   4.283282   2.487886   0.000000
    11  H    1.089650   2.164378   4.955562   4.299011   2.487896
    12  H    2.130735   1.093035   4.320839   4.955555   4.283277
                   11         12
    11  H    0.000000
    12  H    2.445854   0.000000
 Stoichiometry    C6H5Li
 Framework group  C1[X(C6H5Li)]
 Deg. of freedom    30
 Full point group                 C1      NOp   1
 Largest Abelian subgroup         C1      NOp   1
 Largest concise Abelian subgroup C1      NOp   1
                         Standard orientation:                         
 ---------------------------------------------------------------------
 Center     Atomic      Atomic             Coordinates (Angstroms)
 Number     Number       Type             X           Y           Z
 ---------------------------------------------------------------------
      1          3           0        3.253548    0.000095    0.000124
      2          6           0        1.279760    0.000443   -0.000036
      3          6           0        0.515091    1.191362   -0.000034
      4          6           0       -0.883767    1.203885    0.000004
      5          6           0       -1.589393   -0.000402    0.000036
      6          6           0       -0.883081   -1.204282    0.000004
      7          6           0        0.515782   -1.190935   -0.000033
      8          1           0        1.020023    2.160769   -0.000057
      9          1           0       -1.425814    2.149150    0.000016
     10          1           0       -2.677883   -0.000711    0.000067
     11          1           0       -1.424576   -2.149861    0.000014
     12          1           0        1.021256   -2.160070   -0.000057
 ---------------------------------------------------------------------
 Rotational constants (GHZ):      5.7712372      3.1154083      2.0232337
 Leave Link  202 at Sat Oct  2 10:42:08 2021, MaxMem=  536870912 cpu:       0.0
 (Enter /sw/target/amd/app/gaussian/Gaussian09RevA.02_gcc-4.9.2/g09/l301.exe)
 Standard basis: 6-31G(d) (6D, 7F)
 Ernie: Thresh=  0.10000D-02 Tol=  0.10000D-05 Strict=F.
 There are   115 symmetry adapted basis functions of A   symmetry.
 Integral buffers will be    131072 words long.
 Raffenetti 2 integral format.
 Two-electron integral symmetry is turned on.
   115 basis functions,   216 primitive gaussians,   115 cartesian basis functions
    22 alpha electrons       22 beta electrons
       nuclear repulsion energy       212.6227579638 Hartrees.
 IExCor=  402 DFT=T Ex+Corr=B3LYP ExCW=0 ScaHFX=  0.200000
 ScaDFX=  0.800000  0.720000  1.000000  0.810000 ScalE2=  1.000000  1.000000
 IRadAn=      0 IRanWt=     -1 IRanGd=            0 ICorTp=0
 NAtoms=   12 NActive=   12 NUniq=   12 SFac= 7.50D-01 NAtFMM=   80 NAOKFM=F Big=F
 Leave Link  301 at Sat Oct  2 10:42:09 2021, MaxMem=  536870912 cpu:       0.1
 (Enter /sw/target/amd/app/gaussian/Gaussian09RevA.02_gcc-4.9.2/g09/l302.exe)
 NPDir=0 NMtPBC=     1 NCelOv=     1 NCel=       1 NClECP=     1 NCelD=      1
         NCelK=      1 NCelE2=     1 NClLst=     1 CellRange=     0.0.
 One-electron integrals computed using PRISM.
 NBasis=   115 RedAO= T  NBF=   115
 NBsUse=   115 1.00D-06 NBFU=   115
 Precomputing XC quadrature grid using
 IXCGrd= 2 IRadAn=           0 IRanWt=          -1 IRanGd=           0 AccXCQ= 1.00D-10.
 NRdTot=     766 NPtTot=       97162 NUsed=      102693 NTot=      102725
 NSgBfM=   115   115   115   115   115 NAtAll=    12    12.
 Leave Link  302 at Sat Oct  2 10:42:12 2021, MaxMem=  536870912 cpu:       0.6
 (Enter /sw/target/amd/app/gaussian/Gaussian09RevA.02_gcc-4.9.2/g09/l303.exe)
 DipDrv:  MaxL=1.
 Leave Link  303 at Sat Oct  2 10:42:13 2021, MaxMem=  536870912 cpu:       0.1
 (Enter /sw/target/amd/app/gaussian/Gaussian09RevA.02_gcc-4.9.2/g09/l401.exe)
 Initial guess read from the read-write file.
 B after Tr=     0.000000    0.000000    0.000000
         Rot=    1.000000    0.000000    0.000000    0.000000 Ang=   0.00 deg.
 Guess basis will be translated and rotated to current coordinates.
 Initial guess orbital symmetries:
       Occupied  (A) (A) (A) (A) (A) (A) (A) (A) (A) (A) (A) (A)
                 (A) (A) (A) (A) (A) (A) (A) (A) (A) (A)
       Virtual   (A) (A) (A) (A) (A) (A) (A) (A) (A) (A) (A) (A)
                 (A) (A) (A) (A) (A) (A) (A) (A) (A) (A) (A) (A)
                 (A) (A) (A) (A) (A) (A) (A) (A) (A) (A) (A) (A)
                 (A) (A) (A) (A) (A) (A) (A) (A) (A) (A) (A) (A)
                 (A) (A) (A) (A) (A) (A) (A) (A) (A) (A) (A) (A)
                 (A) (A) (A) (A) (A) (A) (A) (A) (A) (A) (A) (A)
                 (A) (A) (A) (A) (A) (A) (A) (A) (A) (A) (A) (A)
                 (A) (A) (A) (A) (A) (A) (A) (A) (A)
 The electronic state of the initial guess is 1-A.
 Generating alternative initial guess.
 Harris functional with IExCor=  402 diagonalized for initial guess.
 ExpMin= 3.60D-02 ExpMax= 3.05D+03 ExpMxC= 4.57D+02 IAcc=3 IRadAn=         0 AccDes= 0.00D+00
 HarFok:  IExCor=  402 AccDes= 0.00D+00 IRadAn=         0 IDoV= 1
 ScaDFX=  1.000000  1.000000  1.000000  1.000000
 FoFCou: FMM=F IPFlag=           0 FMFlag=      100000 FMFlg1=           0
         NFxFlg=           0 DoJE=T BraDBF=F KetDBF=T FulRan=T
         Omega=  0.000000  0.000000  1.000000  0.000000  0.000000 ICntrl=     500 IOpCl=  0
         NMat0=    1 NMatS0=    1 NMatT0=    0 NMatD0=    1 NMtDS0=    0 NMtDT0=    0
         I1Cent=           4 NGrid=           0.
 Petite list used in FoFCou.
 Harris En= -239.261937678276    
 Leave Link  401 at Sat Oct  2 10:42:36 2021, MaxMem=  536870912 cpu:       5.1
 (Enter /sw/target/amd/app/gaussian/Gaussian09RevA.02_gcc-4.9.2/g09/l502.exe)
 Closed shell SCF:
 Requested convergence on RMS density matrix=1.00D-08 within  64 cycles.
 Requested convergence on MAX density matrix=1.00D-06.
 Requested convergence on             energy=1.00D-06.
 No special actions if energy rises.
 Using DIIS extrapolation, IDIIS=  1040.
 Integral symmetry usage will be decided dynamically.
       102572 words used for storage of precomputed grid.
 Keep R1 ints in memory in canonical form, NReq=23331589.
 IEnd=      149342 IEndB=      149342 NGot=   536870912 MDV=   514491322
 LenX=   514491322 LenY=   514477656
 Symmetry not used in FoFDir.
 MinBra= 0 MaxBra= 2 Meth= 1.
 IRaf=       0 NMat=   1 IRICut=       1 DoRegI=T DoRafI=F ISym2E= 0 JSym2E=0.

 Cycle   1  Pass 1  IDiag  1:
 E= -239.138282759225    
 DIIS: error= 6.28D-04 at cycle   1 NSaved=   1.
 NSaved= 1 IEnMin= 1 EnMin= -239.138282759225     IErMin= 1 ErrMin= 6.28D-04
 ErrMax= 6.28D-04 EMaxC= 1.00D-01 BMatC= 7.41D-05 BMatP= 7.41D-05
 IDIUse=3 WtCom= 9.94D-01 WtEn= 6.28D-03
 Coeff-Com:  0.100D+01
 Coeff-En:   0.100D+01
 Coeff:      0.100D+01
 Gap=     0.139 Goal=   None    Shift=    0.000
[...]
 Generate precomputed XC quadrature information.
          Keep R1 ints in memory in canonical form, NReq=23074083.
 Symmetry not used in FoFDir.
 MinBra= 0 MaxBra= 2 Meth= 1.
 IRaf=       0 NMat=   1 IRICut=       1 DoRegI=T DoRafI=F ISym2E= 0 JSym2E=0.
          Solving linear equations separately, MaxMat=       0.
          There are     1 degrees of freedom in the 1st order CPHF.  IDoFFX=0.
 LinEq1:  Iter=  0 NonCon=     1 RMS=3.98D-02 Max=1.02D+00
 AX will form     1 AO Fock derivatives at one time.
 LinEq1:  Iter=  1 NonCon=     1 RMS=2.26D-02 Max=4.53D-01
 LinEq1:  Iter=  2 NonCon=     1 RMS=1.32D-02 Max=2.46D-01
 LinEq1:  Iter=  3 NonCon=     1 RMS=4.36D-03 Max=6.64D-02
 LinEq1:  Iter=  4 NonCon=     1 RMS=2.39D-03 Max=3.30D-02
 LinEq1:  Iter=  5 NonCon=     1 RMS=7.93D-04 Max=1.18D-02
 LinEq1:  Iter=  6 NonCon=     1 RMS=1.29D-04 Max=2.31D-03
 LinEq1:  Iter=  7 NonCon=     1 RMS=2.53D-05 Max=5.03D-04
 LinEq1:  Iter=  8 NonCon=     1 RMS=1.48D-05 Max=1.32D-04
 LinEq1:  Iter=  9 NonCon=     1 RMS=3.35D-06 Max=4.31D-05
 LinEq1:  Iter= 10 NonCon=     1 RMS=2.59D-06 Max=6.67D-05
 LinEq1:  Iter= 11 NonCon=     1 RMS=8.58D-07 Max=1.10D-05
 LinEq1:  Iter= 12 NonCon=     1 RMS=2.03D-07 Max=3.28D-06
 LinEq1:  Iter= 13 NonCon=     1 RMS=3.80D-08 Max=7.37D-07
 LinEq1:  Iter= 14 NonCon=     1 RMS=8.98D-09 Max=1.53D-07
 LinEq1:  Iter= 15 NonCon=     1 RMS=5.78D-09 Max=1.08D-07
 LinEq1:  Iter= 16 NonCon=     1 RMS=1.87D-09 Max=2.03D-08
 LinEq1:  Iter= 17 NonCon=     1 RMS=5.16D-10 Max=6.34D-09
 LinEq1:  Iter= 18 NonCon=     1 RMS=1.51D-10 Max=2.53D-09
 LinEq1:  Iter= 19 NonCon=     0 RMS=1.99D-11 Max=2.43D-10
 Linear equations converged to 1.000D-10 1.000D-09 after    19 iterations.
 End of Minotr Frequency-dependent properties file   721 does not exist.
 End of Minotr Frequency-dependent properties file   722 does not exist.
 Leave Link 1002 at Sat Oct  2 12:54:24 2021, MaxMem=  536870912 cpu:      93.7
 (Enter /sw/target/amd/app/gaussian/Gaussian09RevA.02_gcc-4.9.2/g09/l601.exe)
 Copying SCF densities to generalized density rwf, IOpCl= 0 IROHF=0.

 **********************************************************************

            Population analysis using the CI density.

 **********************************************************************

 Orbital symmetries:
       Occupied  (A) (A) (A) (A) (A) (A) (A) (A) (A) (A) (A) (A)
                 (A) (A) (A) (A) (A) (A) (A) (A) (A) (A)
       Virtual   (A) (A) (A) (A) (A) (A) (A) (A) (A) (A) (A) (A)
                 (A) (A) (A) (A) (A) (A) (A) (A) (A) (A) (A) (A)
                 (A) (A) (A) (A) (A) (A) (A) (A) (A) (A) (A) (A)
                 (A) (A) (A) (A) (A) (A) (A) (A) (A) (A) (A) (A)
                 (A) (A) (A) (A) (A) (A) (A) (A) (A) (A) (A) (A)
                 (A) (A) (A) (A) (A) (A) (A) (A) (A) (A) (A) (A)
                 (A) (A) (A) (A) (A) (A) (A) (A) (A) (A) (A) (A)
                 (A) (A) (A) (A) (A) (A) (A) (A) (A)
 The electronic state is 1-A.
 Alpha  occ. eigenvalues --  -10.15061 -10.14825 -10.14818 -10.14443 -10.14442
 Alpha  occ. eigenvalues --  -10.11270  -2.00138  -0.79824  -0.69595  -0.68428
 Alpha  occ. eigenvalues --   -0.55168  -0.54217  -0.46745  -0.40671  -0.39024
 Alpha  occ. eigenvalues --   -0.37303  -0.34118  -0.31560  -0.29076  -0.20565
 Alpha  occ. eigenvalues --   -0.20025  -0.18882
 Alpha virt. eigenvalues --   -0.05062   0.00069   0.00427   0.04312   0.05051
 Alpha virt. eigenvalues --    0.05894   0.11601   0.11810   0.13174   0.14080
 Alpha virt. eigenvalues --    0.18467   0.20107   0.21374   0.21703   0.22725
 Alpha virt. eigenvalues --    0.25832   0.34495   0.34777   0.36410   0.36489
 Alpha virt. eigenvalues --    0.45393   0.45585   0.48537   0.50118   0.57774
 Alpha virt. eigenvalues --    0.58102   0.60083   0.61101   0.62029   0.64061
 Alpha virt. eigenvalues --    0.64641   0.64859   0.66642   0.67433   0.71421
 Alpha virt. eigenvalues --    0.74941   0.76102   0.85212   0.85669   0.86083
 Alpha virt. eigenvalues --    0.87632   0.88088   0.90431   0.91566   0.95926
 Alpha virt. eigenvalues --    0.98492   0.99968   1.02909   1.11307   1.14690
 Alpha virt. eigenvalues --    1.16679   1.19626   1.21525   1.25226   1.30960
 Alpha virt. eigenvalues --    1.33978   1.46150   1.48851   1.53499   1.53666
 Alpha virt. eigenvalues --    1.57044   1.62317   1.72473   1.81695   1.85465
 Alpha virt. eigenvalues --    1.91621   2.00718   2.01636   2.10201   2.13594
 Alpha virt. eigenvalues --    2.17811   2.18528   2.20691   2.20986   2.33727
 Alpha virt. eigenvalues --    2.34620   2.38442   2.56794   2.61286   2.68998
 Alpha virt. eigenvalues --    2.69426   2.71440   2.76181   2.78365   2.82772
 Alpha virt. eigenvalues --    3.07036   3.37764   4.13633   4.15633   4.19166
 Alpha virt. eigenvalues --    4.37373   4.39807   4.70251
          Condensed to atoms (all electrons):
              1          2          3          4          5          6
     1  Li   2.848003   0.116293   0.015612  -0.004869  -0.002401  -0.004862
     2  C    0.116293   5.157317   0.493663  -0.023045  -0.053146  -0.023050
     3  C    0.015612   0.493663   4.928796   0.545849  -0.019065  -0.040430
     4  C   -0.004869  -0.023045   0.545849   4.817772   0.539412  -0.032227
     5  C   -0.002401  -0.053146  -0.019065   0.539412   4.869620   0.539416
     6  C   -0.004862  -0.023050  -0.040430  -0.032227   0.539416   4.817746
     7  C    0.015648   0.493564  -0.052797  -0.040432  -0.019068   0.545856
     8  H    0.015521  -0.042574   0.346099  -0.032129   0.003920   0.000945
     9  H    0.001789   0.005675  -0.045107   0.364269  -0.045812   0.005659
    10  H   -0.000358   0.000315   0.005173  -0.040802   0.360486  -0.040801
    11  H    0.001787   0.005673  -0.000206   0.005659  -0.045807   0.364279
    12  H    0.015499  -0.042585   0.004013   0.000945   0.003918  -0.032123
              7          8          9         10         11         12
     1  Li   0.015648   0.015521   0.001789  -0.000358   0.001787   0.015499
     2  C    0.493564  -0.042574   0.005675   0.000315   0.005673  -0.042585
     3  C   -0.052797   0.346099  -0.045107   0.005173  -0.000206   0.004013
     4  C   -0.040432  -0.032129   0.364269  -0.040802   0.005659   0.000945
     5  C   -0.019068   0.003920  -0.045812   0.360486  -0.045807   0.003918
     6  C    0.545856   0.000945   0.005659  -0.040801   0.364279  -0.032123
     7  C    4.928778   0.004012  -0.000205   0.005173  -0.045116   0.346101
     8  H    0.004012   0.545935  -0.006151  -0.000142   0.000011  -0.000189
     9  H   -0.000205  -0.006151   0.567546  -0.004652  -0.000144   0.000011
    10  H    0.005173  -0.000142  -0.004652   0.563006  -0.004651  -0.000142
    11  H   -0.045116   0.000011  -0.000144  -0.004651   0.567530  -0.006147
    12  H    0.346101  -0.000189   0.000011  -0.000142  -0.006147   0.545932
 Mulliken atomic charges:
              1
     1  Li  -0.017662
     2  C   -0.088099
     3  C   -0.181599
     4  C   -0.100404
     5  C   -0.131472
     6  C   -0.100407
     7  C   -0.181514
     8  H    0.164743
     9  H    0.157124
    10  H    0.157393
    11  H    0.157132
    12  H    0.164766
 Sum of Mulliken atomic charges =  -0.00000
 Mulliken charges with hydrogens summed into heavy atoms:
              1
     1  Li  -0.017662
     2  C   -0.088099
     3  C   -0.016856
     4  C    0.056720
     5  C    0.025921
     6  C    0.056725
     7  C   -0.016748
 Sum of Mulliken charges with hydrogens summed into heavy atoms =  -0.00000
 Electronic spatial extent (au):  <R**2>=            599.0254
 Charge=              0.0000 electrons
 Dipole moment (field-independent basis, Debye):
    X=             -6.8321    Y=              0.0021    Z=             -0.0005  Tot=              6.8321
 Quadrupole moment (field-independent basis, Debye-Ang):
   XX=            -73.4215   YY=            -35.9052   ZZ=            -44.9469
   XY=              0.0090   XZ=             -0.0025   YZ=             -0.0000
 Traceless Quadrupole moment (field-independent basis, Debye-Ang):
   XX=            -21.9970   YY=             15.5193   ZZ=              6.4777
   XY=              0.0090   XZ=             -0.0025   YZ=             -0.0000
 Octapole moment (field-independent basis, Debye-Ang**2):
  XXX=           -263.5685  YYY=              0.0086  ZZZ=             -0.0033  XYY=            -25.0327
  XXY=              0.0360  XXZ=             -0.0112  XZZ=            -22.2562  YZZ=              0.0035
  YYZ=             -0.0012  XYZ=              0.0000
 Hexadecapole moment (field-independent basis, Debye-Ang**3):
 XXXX=          -1913.9788 YYYY=           -288.1964 ZZZZ=            -72.8817 XXXY=              0.1528
 XXXZ=             -0.0564 YYYX=              0.0381 YYYZ=             -0.0000 ZZZX=             -0.0136
 ZZZY=             -0.0000 XXYY=           -220.8368 XXZZ=           -193.7197 YYZZ=            -70.4885
 XXYZ=              0.0000 YYXZ=             -0.0048 ZZXY=              0.0131
 N-N= 2.126077354992D+02 E-N=-9.768401802455D+02  KE= 2.365954930289D+02
 No NMR shielding tensors so no spin-rotation constants.
 Leave Link  601 at Sat Oct  2 12:54:27 2021, MaxMem=  536870912 cpu:       0.5
 (Enter /sw/target/amd/app/gaussian/Gaussian09RevA.02_gcc-4.9.2/g09/l604.exe)
 Evaluate density.
 Using the total density.
 Monte-Carlo method of calculating molar volume:
 based on  0.001 e/bohr**3 density envelope.
 Number of points per bohr**3 =   20 CutOff= 1.00D-04
 Using the CI density.
 There are       474 points.  Will hold       474 in memory.
 LenV=   536801166 MDV=   536870912.
 Box volume =13316.198 fraction occupied=0.074
 Integrated density= 3.2379532008706967D+01 error=-1.1620467991293033D+01
 Molar volume =  983.264 bohr**3/mol ( 87.745 cm**3/mol)
 Recommended a0 for SCRF calculation =  4.09 angstrom (  7.73 bohr)
 Leave Link  604 at Sat Oct  2 12:54:28 2021, MaxMem=  536870912 cpu:       0.2
 (Enter /sw/target/amd/app/gaussian/Gaussian09RevA.02_gcc-4.9.2/g09/l607.exe)
 ******************************Gaussian NBO Version 3.1******************************
             N A T U R A L   A T O M I C   O R B I T A L   A N D
          N A T U R A L   B O N D   O R B I T A L   A N A L Y S I S
 ******************************Gaussian NBO Version 3.1******************************
       /RESON  / : Allow strongly delocalized NBO set

 Analyzing the CI density

 Job title: [Li]c1ccccc1_conf_0                                             

 Storage needed:     40234 in NPA ( 536870096 available)


 NATURAL POPULATIONS:  Natural atomic orbital occupancies 
                                                          
   NAO  Atom  No  lang   Type(AO)    Occupancy
 --------------------------------------------
     1   Li    1  S      Cor( 1S)     1.99572
     2   Li    1  S      Val( 2S)     0.60569
     3   Li    1  S      Ryd( 3S)     0.00229
     4   Li    1  S      Ryd( 4S)     0.00001
     5   Li    1  px     Val( 2p)     0.26020
     6   Li    1  px     Ryd( 3p)     0.00000
     7   Li    1  py     Val( 2p)     0.00188
     8   Li    1  py     Ryd( 3p)     0.00006
     9   Li    1  pz     Val( 2p)     0.00702
    10   Li    1  pz     Ryd( 3p)     0.00006
    11   Li    1  dxy    Ryd( 3d)     0.00012
    12   Li    1  dxz    Ryd( 3d)     0.00000
    13   Li    1  dyz    Ryd( 3d)     0.00007
    14   Li    1  dx2y2  Ryd( 3d)     0.00000
    15   Li    1  dz2    Ryd( 3d)     0.00000

    16    C    2  S      Cor( 1S)     1.99877
    17    C    2  S      Val( 2S)     1.11214
    18    C    2  S      Ryd( 3S)     0.00319
    19    C    2  S      Ryd( 4S)     0.00002
    20    C    2  px     Val( 2p)     1.02010
    21    C    2  px     Ryd( 3p)     0.01004
    22    C    2  py     Val( 2p)     1.00138
    23    C    2  py     Ryd( 3p)     0.00494
    24    C    2  pz     Val( 2p)     0.98624
    25    C    2  pz     Ryd( 3p)     0.00033
    26    C    2  dxy    Ryd( 3d)     0.00083
    27    C    2  dxz    Ryd( 3d)     0.00047
    28    C    2  dyz    Ryd( 3d)     0.00048
    29    C    2  dx2y2  Ryd( 3d)     0.00033
    30    C    2  dz2    Ryd( 3d)     0.00028

    31    C    3  S      Cor( 1S)     1.99908
    32    C    3  S      Val( 2S)     0.98552
    33    C    3  S      Ryd( 3S)     0.00122
    34    C    3  S      Ryd( 4S)     0.00003
    35    C    3  px     Val( 2p)     1.08893
    36    C    3  px     Ryd( 3p)     0.00445
    37    C    3  py     Val( 2p)     1.19292
    38    C    3  py     Ryd( 3p)     0.00594
    39    C    3  pz     Val( 2p)     1.01273
    40    C    3  pz     Ryd( 3p)     0.00022
    41    C    3  dxy    Ryd( 3d)     0.00091
    42    C    3  dxz    Ryd( 3d)     0.00052
    43    C    3  dyz    Ryd( 3d)     0.00036
    44    C    3  dx2y2  Ryd( 3d)     0.00070
    45    C    3  dz2    Ryd( 3d)     0.00047

    46    C    4  S      Cor( 1S)     1.99904
    47    C    4  S      Val( 2S)     0.96994
    48    C    4  S      Ryd( 3S)     0.00070
    49    C    4  S      Ryd( 4S)     0.00003
    50    C    4  px     Val( 2p)     1.07021
    51    C    4  px     Ryd( 3p)     0.00485
    52    C    4  py     Val( 2p)     1.17261
    53    C    4  py     Ryd( 3p)     0.00483
    54    C    4  pz     Val( 2p)     1.00086
    55    C    4  pz     Ryd( 3p)     0.00043
    56    C    4  dxy    Ryd( 3d)     0.00083
    57    C    4  dxz    Ryd( 3d)     0.00047
    58    C    4  dyz    Ryd( 3d)     0.00038
    59    C    4  dx2y2  Ryd( 3d)     0.00070
    60    C    4  dz2    Ryd( 3d)     0.00044

    61    C    5  S      Cor( 1S)     1.99907
    62    C    5  S      Val( 2S)     0.96745
    63    C    5  S      Ryd( 3S)     0.00059
    64    C    5  S      Ryd( 4S)     0.00004
    65    C    5  px     Val( 2p)     1.20035
    66    C    5  px     Ryd( 3p)     0.00525
    67    C    5  py     Val( 2p)     1.06171
    68    C    5  py     Ryd( 3p)     0.00434
    69    C    5  pz     Val( 2p)     0.97232
    70    C    5  pz     Ryd( 3p)     0.00046
    71    C    5  dxy    Ryd( 3d)     0.00061
    72    C    5  dxz    Ryd( 3d)     0.00034
    73    C    5  dyz    Ryd( 3d)     0.00052
    74    C    5  dx2y2  Ryd( 3d)     0.00086
    75    C    5  dz2    Ryd( 3d)     0.00044

    76    C    6  S      Cor( 1S)     1.99904
    77    C    6  S      Val( 2S)     0.96994
    78    C    6  S      Ryd( 3S)     0.00070
    79    C    6  S      Ryd( 4S)     0.00003
    80    C    6  px     Val( 2p)     1.07015
    81    C    6  px     Ryd( 3p)     0.00485
    82    C    6  py     Val( 2p)     1.17268
    83    C    6  py     Ryd( 3p)     0.00483
    84    C    6  pz     Val( 2p)     1.00086
    85    C    6  pz     Ryd( 3p)     0.00043
    86    C    6  dxy    Ryd( 3d)     0.00083
    87    C    6  dxz    Ryd( 3d)     0.00047
    88    C    6  dyz    Ryd( 3d)     0.00038
    89    C    6  dx2y2  Ryd( 3d)     0.00070
    90    C    6  dz2    Ryd( 3d)     0.00044

    91    C    7  S      Cor( 1S)     1.99908
    92    C    7  S      Val( 2S)     0.98552
    93    C    7  S      Ryd( 3S)     0.00122
    94    C    7  S      Ryd( 4S)     0.00003
    95    C    7  px     Val( 2p)     1.08898
    96    C    7  px     Ryd( 3p)     0.00445
    97    C    7  py     Val( 2p)     1.19288
    98    C    7  py     Ryd( 3p)     0.00594
    99    C    7  pz     Val( 2p)     1.01274
   100    C    7  pz     Ryd( 3p)     0.00022
   101    C    7  dxy    Ryd( 3d)     0.00091
   102    C    7  dxz    Ryd( 3d)     0.00052
   103    C    7  dyz    Ryd( 3d)     0.00036
   104    C    7  dx2y2  Ryd( 3d)     0.00070
   105    C    7  dz2    Ryd( 3d)     0.00047

   106    H    8  S      Val( 1S)     0.74757
   107    H    8  S      Ryd( 2S)     0.00018

   108    H    9  S      Val( 1S)     0.74572
   109    H    9  S      Ryd( 2S)     0.00070

   110    H   10  S      Val( 1S)     0.74844
   111    H   10  S      Ryd( 2S)     0.00057

   112    H   11  S      Val( 1S)     0.74571
   113    H   11  S      Ryd( 2S)     0.00070

   114    H   12  S      Val( 1S)     0.74757
   115    H   12  S      Ryd( 2S)     0.00018

 WARNING:  1 low occupancy (<1.9990e) core orbital  found on Li    1
           1 low occupancy (<1.9990e) core orbital  found on  C    2


 Summary of Natural Population Analysis:                  
                                                          
                                       Natural Population 
                Natural  -----------------------------------------------
    Atom  No    Charge         Core      Valence    Rydberg      Total
 -----------------------------------------------------------------------
     Li    1    0.12688      1.99572     0.87479    0.00261     2.87312
      C    2   -0.13955      1.99877     4.11986    0.02092     6.13955
      C    3   -0.29399      1.99908     4.28010    0.01481     6.29399
      C    4   -0.22631      1.99904     4.21363    0.01365     6.22631
      C    5   -0.21436      1.99907     4.20183    0.01346     6.21436
      C    6   -0.22631      1.99904     4.21362    0.01365     6.22631
      C    7   -0.29400      1.99908     4.28011    0.01481     6.29400
      H    8    0.25225      0.00000     0.74757    0.00018     0.74775
      H    9    0.25358      0.00000     0.74572    0.00070     0.74642
      H   10    0.25099      0.00000     0.74844    0.00057     0.74901
      H   11    0.25358      0.00000     0.74571    0.00070     0.74642
      H   12    0.25226      0.00000     0.74757    0.00018     0.74774
 =======================================================================
   * Total *   -0.00498     13.98980    29.91894    0.09624    44.00498

                                 Natural Population      
 --------------------------------------------------------
   Core                      13.98980 ( 99.9272% of  14)
   Valence                   29.91894 ( 99.7298% of  30)
   Natural Minimal Basis     43.90874 ( 99.7926% of  44)
   Natural Rydberg Basis      0.09624 (  0.2187% of  44)
 --------------------------------------------------------

    Atom  No          Natural Electron Configuration
 ----------------------------------------------------------------------------
     Li    1      [core]2S( 0.61)2p( 0.27)
      C    2      [core]2S( 1.11)2p( 3.01)3p( 0.02)
      C    3      [core]2S( 0.99)2p( 3.29)3p( 0.01)
      C    4      [core]2S( 0.97)2p( 3.24)3p( 0.01)
      C    5      [core]2S( 0.97)2p( 3.23)3p( 0.01)
      C    6      [core]2S( 0.97)2p( 3.24)3p( 0.01)
      C    7      [core]2S( 0.99)2p( 3.29)3p( 0.01)
      H    8            1S( 0.75)
      H    9            1S( 0.75)
      H   10            1S( 0.75)
      H   11            1S( 0.75)
      H   12            1S( 0.75)


 NBO analysis skipped by request.
 Leave Link  607 at Sat Oct  2 12:54:55 2021, MaxMem=  536870912 cpu:       6.3
 (Enter /sw/target/amd/app/gaussian/Gaussian09RevA.02_gcc-4.9.2/g09/l9999.exe)
 1\1\GINC-HERMITE\SP\RTD-B3LYP-FC\6-31G(d)\C6H5Li1\JSCHLEINITZ\02-Oct-2
 021\0\\#p TD(NStates=10, Root=1) b3lyp/6-31G* volume pop=NPA density=c
 urrent Geom=AllCheck Guess=Read\\[Li]c1ccccc1_conf_0\\0,1\Li,0,0.96247
 18361,-0.0458413406,0.2989140551\C,0,2.9268595747,-0.0228940561,0.1119
 643072\C,0,3.6745722821,1.1767335505,0.038920127\C,0,5.0669427603,1.20
 51255012,-0.0937156194\C,0,5.7841609991,0.0092157462,-0.1601822812\C,0
 ,5.0941264303,-1.2025134808,-0.0926193183\C,0,3.701460616,-1.205417689
 2,0.0400059269\H,0,3.1600789437,2.140027059,0.0864454758\H,0,5.5937262
 862,2.1572225093,-0.1453371678\H,0,6.8673694206,0.0213971992,-0.263355
 5962\H,0,5.6422605766,-2.1425278947,-0.1433779744\H,0,3.208855326,-2.1
 800512997,0.0884128597\\Version=AM64L-G09RevA.02\State=1-A\HF=-239.138
 4407\RMSD=2.672e-09\Dipole=2.6756931,0.031619,-0.2545919\Quadrupole=-1
 6.1605325,11.534413,4.6261195,-0.3258404,1.9958016,0.0207202\PG=C01 [X
 (C6H5Li1)]\\@


 GARBAGE IN, GARBAGE OUT
 Job cpu time:  0 days  0 hours 20 minutes 49.4 seconds.
 File lengths (MBytes):  RWF=     40 Int=      0 D2E=      0 Chk=      7 Scr=      1
 Normal termination of Gaussian 09 at Sat Oct  2 12:55:00 2021.
