 Entering Gaussian System, Link 0=g09
 Input=C6H6OS_d8ec_conf_0.com
 Output=C6H6OS_d8ec_conf_0.log
 Initial command:
 /sw/target/amd/app/gaussian/Gaussian09RevA.02_gcc-4.9.2/g09/l1.exe /home/jschleinitz/gaussian/Gau-914835.inp -scrdir=/home/jschleinitz/gaussian/
 Entering Link 1 = /sw/target/amd/app/gaussian/Gaussian09RevA.02_gcc-4.9.2/g09/l1.exe PID=    914879.
  
 Copyright (c) 1988,1990,1992,1993,1995,1998,2003,2009, Gaussian, Inc.
                  All Rights Reserved.
  
 This is part of the Gaussian(R) 09 program.  It is based on
 the Gaussian(R) 03 system (copyright 2003, Gaussian, Inc.),
 the Gaussian(R) 98 system (copyright 1998, Gaussian, Inc.),
 the Gaussian(R) 94 system (copyright 1995, Gaussian, Inc.),
 the Gaussian 92(TM) system (copyright 1992, Gaussian, Inc.),
 the Gaussian 90(TM) system (copyright 1990, Gaussian, Inc.),
 the Gaussian 88(TM) system (copyright 1988, Gaussian, Inc.),
 the Gaussian 86(TM) system (copyright 1986, Carnegie Mellon
 University), and the Gaussian 82(TM) system (copyright 1983,
 Carnegie Mellon University). Gaussian is a federally registered
 trademark of Gaussian, Inc.
  
 This software contains proprietary and confidential information,
 including trade secrets, belonging to Gaussian, Inc.
  
 This software is provided under written license and may be
 used, copied, transmitted, or stored only in accord with that
 written license.
  
 The following legend is applicable only to US Government
 contracts under FAR:
  
                    RESTRICTED RIGHTS LEGEND
  
 Use, reproduction and disclosure by the US Government is
 subject to restrictions as set forth in subparagraphs (a)
 and (c) of the Commercial Computer Software - Restricted
 Rights clause in FAR 52.227-19.
  
 Gaussian, Inc.
 340 Quinnipiac St., Bldg. 40, Wallingford CT 06492
  
  
 ---------------------------------------------------------------
 Warning -- This program may not be used in any manner that
 competes with the business of Gaussian, Inc. or will provide
 assistance to any competitor of Gaussian, Inc.  The licensee
 of this program is prohibited from giving any competitor of
 Gaussian, Inc. access to this program.  By using this program,
 the user acknowledges that Gaussian, Inc. is engaged in the
 business of creating and licensing software in the field of
 computational chemistry and represents and warrants to the
 licensee that it is not a competitor of Gaussian, Inc. and that
 it will not use this program in any manner prohibited above.
 ---------------------------------------------------------------
  

 Cite this work as:
 Gaussian 09, Revision A.02,
 M. J. Frisch, G. W. Trucks, H. B. Schlegel, G. E. Scuseria, 
 M. A. Robb, J. R. Cheeseman, G. Scalmani, V. Barone, B. Mennucci, 
 G. A. Petersson, H. Nakatsuji, M. Caricato, X. Li, H. P. Hratchian, 
 A. F. Izmaylov, J. Bloino, G. Zheng, J. L. Sonnenberg, M. Hada, 
 M. Ehara, K. Toyota, R. Fukuda, J. Hasegawa, M. Ishida, T. Nakajima, 
 Y. Honda, O. Kitao, H. Nakai, T. Vreven, J. A. Montgomery, Jr., 
 J. E. Peralta, F. Ogliaro, M. Bearpark, J. J. Heyd, E. Brothers, 
 K. N. Kudin, V. N. Staroverov, R. Kobayashi, J. Normand, 
 K. Raghavachari, A. Rendell, J. C. Burant, S. S. Iyengar, J. Tomasi, 
 M. Cossi, N. Rega, J. M. Millam, M. Klene, J. E. Knox, J. B. Cross, 
 V. Bakken, C. Adamo, J. Jaramillo, R. Gomperts, R. E. Stratmann, 
 O. Yazyev, A. J. Austin, R. Cammi, C. Pomelli, J. W. Ochterski, 
 R. L. Martin, K. Morokuma, V. G. Zakrzewski, G. A. Voth, 
 P. Salvador, J. J. Dannenberg, S. Dapprich, A. D. Daniels, 
 O. Farkas, J. B. Foresman, J. V. Ortiz, J. Cioslowski, 
 and D. J. Fox, Gaussian, Inc., Wallingford CT, 2009.
 
 ******************************************
 Gaussian 09:  AM64L-G09RevA.02 11-Jun-2009
                 4-Oct-2021 
 ******************************************
 %nproc=2
 Will use up to    2 processors via shared memory.
 %mem=4gb
 %chk=C6H6OS_d8ec_conf_0.chk
 -----------------------------------
 #p opt b3lyp/6-31G* scf=(xqc,tight)
 -----------------------------------
 1/14=-1,18=20,19=15,26=3,38=1/1,3;
 2/9=110,12=2,17=6,18=5,40=1/2;
 3/5=1,6=6,7=1,11=2,16=1,25=1,30=1,71=1,74=-5/1,2,3;
 4//1;
 5/5=2,8=3,13=1,32=2,38=5/2,8;
 6/7=2,8=2,9=2,10=2,28=1/1;
 7//1,2,3,16;
 1/14=-1,18=20,19=15/3(2);
 2/9=110/2;
 99//99;
 2/9=110/2;
 3/5=1,6=6,7=1,11=2,16=1,25=1,30=1,71=1,74=-5/1,2,3;
 4/5=5,16=3/1;
 5/5=2,8=3,13=1,32=2,38=5/2,8;
 7//1,2,3,16;
 1/14=-1,18=20,19=15/3(-5);
 2/9=110/2;
 6/7=2,8=2,9=2,10=2,19=2,28=1/1;
 99/9=1/99;
 Leave Link    1 at Mon Oct  4 08:08:33 2021, MaxMem=  536870912 cpu:       0.1
 (Enter /sw/target/amd/app/gaussian/Gaussian09RevA.02_gcc-4.9.2/g09/l101.exe)
 --------------------
 CC(=O)c1cccs1_conf_0
 --------------------
 Symbolic Z-matrix:
 Charge =  0 Multiplicity = 1
 C                     1.33354  -0.63465   0.21461 
 C                     2.64567   0.03273  -0.12728 
 O                     3.10131  -0.08663  -1.26608 
 C                     3.29054   0.79163   0.9395 
 C                     2.88682   0.99504   2.24774 
 C                     3.80191   1.8041    2.98463 
 C                     4.87518   2.19506   2.21799 
 S                     4.77771   1.58876   0.6239 
 H                     0.96942  -1.19105  -0.65456 
 H                     0.587     0.11933   0.47864 
 H                     1.47173  -1.34002   1.03853 
 H                     1.97742   0.58693   2.67225 
 H                     3.67867   2.08478   4.0238 
 H                     5.71513   2.80843   2.51494 
 
 NAtoms=     14 NQM=     14 NQMF=      0 NMic=      0 NMicF=      0 NTot=     14.
                    Isotopes and Nuclear Properties:
 (Nuclear quadrupole moments (NQMom) in fm**2, nuclear magnetic moments (NMagM)
  in nuclear magnetons)

  Atom         1           2           3           4           5           6           7           8           9          10
 IAtWgt=          12          12          16          12          12          12          12          32           1           1
 AtmWgt=  12.0000000  12.0000000  15.9949146  12.0000000  12.0000000  12.0000000  12.0000000  31.9720718   1.0078250   1.0078250
 NucSpn=           0           0           0           0           0           0           0           0           1           1
 AtZEff=   0.0000000   0.0000000   0.0000000   0.0000000   0.0000000   0.0000000   0.0000000   0.0000000   0.0000000   0.0000000
 NQMom=    0.0000000   0.0000000   0.0000000   0.0000000   0.0000000   0.0000000   0.0000000   0.0000000   0.0000000   0.0000000
 NMagM=    0.0000000   0.0000000   0.0000000   0.0000000   0.0000000   0.0000000   0.0000000   0.0000000   2.7928460   2.7928460

  Atom        11          12          13          14
 IAtWgt=           1           1           1           1
 AtmWgt=   1.0078250   1.0078250   1.0078250   1.0078250
 NucSpn=           1           1           1           1
 AtZEff=   0.0000000   0.0000000   0.0000000   0.0000000
 NQMom=    0.0000000   0.0000000   0.0000000   0.0000000
 NMagM=    2.7928460   2.7928460   2.7928460   2.7928460
 Leave Link  101 at Mon Oct  4 08:08:34 2021, MaxMem=  536870912 cpu:       0.3
 (Enter /sw/target/amd/app/gaussian/Gaussian09RevA.02_gcc-4.9.2/g09/l103.exe)

 GradGradGradGradGradGradGradGradGradGradGradGradGradGradGradGradGradGrad
 Berny optimization.
 Initialization pass.
                           ----------------------------
                           !    Initial Parameters    !
                           ! (Angstroms and Degrees)  !
 --------------------------                            --------------------------
 ! Name  Definition              Value          Derivative Info.                !
 --------------------------------------------------------------------------------
 ! R1    R(1,2)                  1.5113         estimate D2E/DX2                !
 ! R2    R(1,9)                  1.0944         estimate D2E/DX2                !
 ! R3    R(1,10)                 1.0934         estimate D2E/DX2                !
 ! R4    R(1,11)                 1.0934         estimate D2E/DX2                !
 ! R5    R(2,3)                  1.2324         estimate D2E/DX2                !
 ! R6    R(2,4)                  1.4594         estimate D2E/DX2                !
 ! R7    R(4,5)                  1.3841         estimate D2E/DX2                !
 ! R8    R(4,8)                  1.7166         estimate D2E/DX2                !
 ! R9    R(5,6)                  1.4265         estimate D2E/DX2                !
 ! R10   R(5,12)                 1.0834         estimate D2E/DX2                !
 ! R11   R(6,7)                  1.3757         estimate D2E/DX2                !
 ! R12   R(6,13)                 1.0834         estimate D2E/DX2                !
 ! R13   R(7,8)                  1.7083         estimate D2E/DX2                !
 ! R14   R(7,14)                 1.0816         estimate D2E/DX2                !
 ! A1    A(2,1,9)              109.4952         estimate D2E/DX2                !
 ! A2    A(2,1,10)             110.0538         estimate D2E/DX2                !
 ! A3    A(2,1,11)             110.22           estimate D2E/DX2                !
 ! A4    A(9,1,10)             108.3735         estimate D2E/DX2                !
 ! A5    A(9,1,11)             108.2133         estimate D2E/DX2                !
 ! A6    A(10,1,11)            110.4376         estimate D2E/DX2                !
 ! A7    A(1,2,3)              119.1621         estimate D2E/DX2                !
 ! A8    A(1,2,4)              116.6108         estimate D2E/DX2                !
 ! A9    A(3,2,4)              124.2268         estimate D2E/DX2                !
 ! A10   A(2,4,5)              129.6745         estimate D2E/DX2                !
 ! A11   A(2,4,8)              119.3346         estimate D2E/DX2                !
 ! A12   A(5,4,8)              110.9909         estimate D2E/DX2                !
 ! A13   A(4,5,6)              112.6113         estimate D2E/DX2                !
 ! A14   A(4,5,12)             124.0429         estimate D2E/DX2                !
 ! A15   A(6,5,12)             123.3457         estimate D2E/DX2                !
 ! A16   A(5,6,7)              111.9488         estimate D2E/DX2                !
 ! A17   A(5,6,13)             124.7097         estimate D2E/DX2                !
 ! A18   A(7,6,13)             123.3415         estimate D2E/DX2                !
 ! A19   A(6,7,8)              112.0027         estimate D2E/DX2                !
 ! A20   A(6,7,14)             127.8802         estimate D2E/DX2                !
 ! A21   A(8,7,14)             120.1171         estimate D2E/DX2                !
 ! A22   A(4,8,7)               92.4462         estimate D2E/DX2                !
 ! D1    D(9,1,2,3)              1.7995         estimate D2E/DX2                !
 ! D2    D(9,1,2,4)           -178.4127         estimate D2E/DX2                !
 ! D3    D(10,1,2,3)          -117.2255         estimate D2E/DX2                !
 ! D4    D(10,1,2,4)            62.5622         estimate D2E/DX2                !
 ! D5    D(11,1,2,3)           120.7292         estimate D2E/DX2                !
 ! D6    D(11,1,2,4)           -59.483          estimate D2E/DX2                !
 ! D7    D(1,2,4,5)              0.4892         estimate D2E/DX2                !
 ! D8    D(1,2,4,8)           -179.5089         estimate D2E/DX2                !
 ! D9    D(3,2,4,5)           -179.7349         estimate D2E/DX2                !
 ! D10   D(3,2,4,8)              0.2669         estimate D2E/DX2                !
 ! D11   D(2,4,5,6)            179.9611         estimate D2E/DX2                !
 ! D12   D(2,4,5,12)             0.0103         estimate D2E/DX2                !
 ! D13   D(8,4,5,6)             -0.0406         estimate D2E/DX2                !
 ! D14   D(8,4,5,12)          -179.9914         estimate D2E/DX2                !
 ! D15   D(2,4,8,7)           -179.9903         estimate D2E/DX2                !
 ! D16   D(5,4,8,7)              0.0112         estimate D2E/DX2                !
 ! D17   D(4,5,6,7)              0.0575         estimate D2E/DX2                !
 ! D18   D(4,5,6,13)          -179.9525         estimate D2E/DX2                !
 ! D19   D(12,5,6,7)          -179.9913         estimate D2E/DX2                !
 ! D20   D(12,5,6,13)           -0.0013         estimate D2E/DX2                !
 ! D21   D(5,6,7,8)             -0.0483         estimate D2E/DX2                !
 ! D22   D(5,6,7,14)           179.9697         estimate D2E/DX2                !
 ! D23   D(13,6,7,8)           179.9615         estimate D2E/DX2                !
 ! D24   D(13,6,7,14)           -0.0204         estimate D2E/DX2                !
 ! D25   D(6,7,8,4)              0.0218         estimate D2E/DX2                !
 ! D26   D(14,7,8,4)          -179.9946         estimate D2E/DX2                !
 --------------------------------------------------------------------------------
 Trust Radius=3.00D-01 FncErr=1.00D-07 GrdErr=1.00D-06
 Number of steps in this run=  72 maximum allowed number of steps= 100.
 GradGradGradGradGradGradGradGradGradGradGradGradGradGradGradGradGradGrad

 Leave Link  103 at Mon Oct  4 08:08:35 2021, MaxMem=  536870912 cpu:       0.0
 (Enter /sw/target/amd/app/gaussian/Gaussian09RevA.02_gcc-4.9.2/g09/l202.exe)
                          Input orientation:                          
 ---------------------------------------------------------------------
 Center     Atomic      Atomic             Coordinates (Angstroms)
 Number     Number       Type             X           Y           Z
 ---------------------------------------------------------------------
      1          6           0        1.333542   -0.634654    0.214610
      2          6           0        2.645665    0.032734   -0.127275
      3          8           0        3.101310   -0.086628   -1.266084
      4          6           0        3.290536    0.791633    0.939499
      5          6           0        2.886820    0.995037    2.247741
      6          6           0        3.801915    1.804097    2.984633
      7          6           0        4.875181    2.195059    2.217990
      8         16           0        4.777711    1.588758    0.623901
      9          1           0        0.969422   -1.191049   -0.654561
     10          1           0        0.586998    0.119331    0.478642
     11          1           0        1.471733   -1.340017    1.038533
     12          1           0        1.977420    0.586932    2.672251
     13          1           0        3.678675    2.084784    4.023803
     14          1           0        5.715126    2.808426    2.514945
 ---------------------------------------------------------------------
                    Distance matrix (angstroms):
                    1          2          3          4          5
     1  C    0.000000
     2  C    1.511278   0.000000
     3  O    2.370188   1.232374   0.000000
     4  C    2.527763   1.459381   2.381543   0.000000
     5  C    3.033511   2.573885   3.682794   1.384145   0.000000
     6  C    4.439977   3.762793   4.704709   2.338624   1.426529
     7  C    4.956210   3.891871   4.526753   2.472902   2.322610
     8  S    4.119877   2.744284   3.031383   1.716595   2.562192
     9  H    1.094357   2.141370   2.477630   3.443781   4.108375
    10  H    1.093404   2.147730   3.067287   2.823738   3.030801
    11  H    1.093382   2.149807   3.088327   2.803888   2.986157
    12  H    2.819016   2.931046   4.150578   2.183714   1.083405
    13  H    5.234973   4.744414   5.747285   3.366871   2.229120
    14  H    6.028650   4.909927   5.432270   3.525354   3.370325
                    6          7          8          9         10
     6  C    0.000000
     7  C    1.375679   0.000000
     8  S    2.563514   1.708280   0.000000
     9  H    5.498877   5.913732   4.885167   0.000000
    10  H    4.410682   5.071734   4.443241   1.774117   0.000000
    11  H    4.370641   5.046914   4.436117   1.772308   1.796087
    12  H    2.215367   3.345062   3.611235   3.904479   2.638910
    13  H    1.083442   2.169043   3.607389   6.321251   5.098003
    14  H    2.211258   1.081623   2.437700   6.968736   6.138034
                   11         12         13         14
    11  H    0.000000
    12  H    2.576410   0.000000
    13  H    5.050910   2.639038   0.000000
    14  H    6.115207   4.350888   2.635801   0.000000
 Stoichiometry    C6H6OS
 Framework group  C1[X(C6H6OS)]
 Deg. of freedom    36
 Full point group                 C1      NOp   1
 Largest Abelian subgroup         C1      NOp   1
 Largest concise Abelian subgroup C1      NOp   1
                         Standard orientation:                         
 ---------------------------------------------------------------------
 Center     Atomic      Atomic             Coordinates (Angstroms)
 Number     Number       Type             X           Y           Z
 ---------------------------------------------------------------------
      1          6           0        2.515858    1.020928    0.005661
      2          6           0        1.575505   -0.162132   -0.002437
      3          8           0        2.044307   -1.301852   -0.005386
      4          6           0        0.147320    0.137999   -0.001432
      5          6           0       -0.498370    1.362311   -0.003168
      6          6           0       -1.919038    1.233138   -0.002201
      7          6           0       -2.315582   -0.084144    0.001521
      8         16           0       -0.983436   -1.153540    0.002487
      9          1           0        3.550403    0.665369   -0.024519
     10          1           0        2.378074    1.603129    0.920861
     11          1           0        2.343699    1.646536   -0.874372
     12          1           0        0.012767    2.317559   -0.005827
     13          1           0       -2.614085    2.064253   -0.003982
     14          1           0       -3.324504   -0.473993    0.003463
 ---------------------------------------------------------------------
 Rotational constants (GHZ):      3.6103919      1.4076644      1.0194350
 Leave Link  202 at Mon Oct  4 08:08:35 2021, MaxMem=  536870912 cpu:       0.0
 (Enter /sw/target/amd/app/gaussian/Gaussian09RevA.02_gcc-4.9.2/g09/l301.exe)
 Standard basis: 6-31G(d) (6D, 7F)
 Ernie: Thresh=  0.10000D-02 Tol=  0.10000D-05 Strict=F.
 There are   136 symmetry adapted basis functions of A   symmetry.
 Integral buffers will be    131072 words long.
 Raffenetti 2 integral format.
 Two-electron integral symmetry is turned on.
   136 basis functions,   272 primitive gaussians,   136 cartesian basis functions
    33 alpha electrons       33 beta electrons
       nuclear repulsion energy       412.6812565979 Hartrees.
 IExCor=  402 DFT=T Ex+Corr=B3LYP ExCW=0 ScaHFX=  0.200000
 ScaDFX=  0.800000  0.720000  1.000000  0.810000 ScalE2=  1.000000  1.000000
 IRadAn=      0 IRanWt=     -1 IRanGd=            0 ICorTp=0
 NAtoms=   14 NActive=   14 NUniq=   14 SFac= 7.50D-01 NAtFMM=   80 NAOKFM=F Big=F
 Leave Link  301 at Mon Oct  4 08:08:36 2021, MaxMem=  536870912 cpu:       0.1
 (Enter /sw/target/amd/app/gaussian/Gaussian09RevA.02_gcc-4.9.2/g09/l302.exe)
 NPDir=0 NMtPBC=     1 NCelOv=     1 NCel=       1 NClECP=     1 NCelD=      1
         NCelK=      1 NCelE2=     1 NClLst=     1 CellRange=     0.0.
 One-electron integrals computed using PRISM.
 NBasis=   136 RedAO= T  NBF=   136
 NBsUse=   136 1.00D-06 NBFU=   136
 Precomputing XC quadrature grid using
 IXCGrd= 2 IRadAn=           0 IRanWt=          -1 IRanGd=           0 AccXCQ= 1.00D-10.
 NRdTot=     872 NPtTot=      110796 NUsed=      117095 NTot=      117127
 NSgBfM=   136   136   136   136   136 NAtAll=    14    14.
 Leave Link  302 at Mon Oct  4 08:08:39 2021, MaxMem=  536870912 cpu:       0.8
 (Enter /sw/target/amd/app/gaussian/Gaussian09RevA.02_gcc-4.9.2/g09/l303.exe)
 DipDrv:  MaxL=1.
 Leave Link  303 at Mon Oct  4 08:08:40 2021, MaxMem=  536870912 cpu:       0.1
 (Enter /sw/target/amd/app/gaussian/Gaussian09RevA.02_gcc-4.9.2/g09/l401.exe)
 Harris functional with IExCor=  402 diagonalized for initial guess.
 ExpMin= 1.17D-01 ExpMax= 2.19D+04 ExpMxC= 3.30D+03 IAcc=1 IRadAn=         1 AccDes= 0.00D+00
 HarFok:  IExCor=  402 AccDes= 0.00D+00 IRadAn=         1 IDoV= 1
 ScaDFX=  1.000000  1.000000  1.000000  1.000000
 FoFCou: FMM=F IPFlag=           0 FMFlag=      100000 FMFlg1=           0
         NFxFlg=           0 DoJE=T BraDBF=F KetDBF=T FulRan=T
         Omega=  0.000000  0.000000  1.000000  0.000000  0.000000 ICntrl=     500 IOpCl=  0
         NMat0=    1 NMatS0=    1 NMatT0=    0 NMatD0=    1 NMtDS0=    0 NMtDT0=    0
         I1Cent=           4 NGrid=           0.
 Petite list used in FoFCou.
 Harris En= -705.716253449865    
 Initial guess orbital symmetries:
       Occupied  (A) (A) (A) (A) (A) (A) (A) (A) (A) (A) (A) (A)
                 (A) (A) (A) (A) (A) (A) (A) (A) (A) (A) (A) (A)
                 (A) (A) (A) (A) (A) (A) (A) (A) (A)
       Virtual   (A) (A) (A) (A) (A) (A) (A) (A) (A) (A) (A) (A)
                 (A) (A) (A) (A) (A) (A) (A) (A) (A) (A) (A) (A)
                 (A) (A) (A) (A) (A) (A) (A) (A) (A) (A) (A) (A)
                 (A) (A) (A) (A) (A) (A) (A) (A) (A) (A) (A) (A)
                 (A) (A) (A) (A) (A) (A) (A) (A) (A) (A) (A) (A)
                 (A) (A) (A) (A) (A) (A) (A) (A) (A) (A) (A) (A)
                 (A) (A) (A) (A) (A) (A) (A) (A) (A) (A) (A) (A)
                 (A) (A) (A) (A) (A) (A) (A) (A) (A) (A) (A) (A)
                 (A) (A) (A) (A) (A) (A) (A)
 The electronic state of the initial guess is 1-A.
 Leave Link  401 at Mon Oct  4 08:08:49 2021, MaxMem=  536870912 cpu:       2.9
 (Enter /sw/target/amd/app/gaussian/Gaussian09RevA.02_gcc-4.9.2/g09/l502.exe)
 Closed shell SCF:
 Requested convergence on RMS density matrix=1.00D-08 within  64 cycles.
 Requested convergence on MAX density matrix=1.00D-06.
 Requested convergence on             energy=1.00D-06.
 No special actions if energy rises.
 Using DIIS extrapolation, IDIIS=  1040.
 Integral symmetry usage will be decided dynamically.
       116956 words used for storage of precomputed grid.
 Keep R1 ints in memory in canonical form, NReq=44864031.
 IEnd=      179823 IEndB=      179823 NGot=   536870912 MDV=   493315332
 LenX=   493315332 LenY=   493296395
 Symmetry not used in FoFDir.
 MinBra= 0 MaxBra= 2 Meth= 1.
 IRaf=       0 NMat=   1 IRICut=       1 DoRegI=T DoRafI=F ISym2E= 0 JSym2E=0.
 Integral accuracy reduced to 1.0D-05 until final iterations.

 Cycle   1  Pass 0  IDiag  1:
 E= -705.334684392181    
 DIIS: error= 4.42D-02 at cycle   1 NSaved=   1.
 NSaved= 1 IEnMin= 1 EnMin= -705.334684392181     IErMin= 1 ErrMin= 4.42D-02
 ErrMax= 4.42D-02 EMaxC= 1.00D-01 BMatC= 3.10D-01 BMatP= 3.10D-01
 IDIUse=3 WtCom= 5.58D-01 WtEn= 4.42D-01
 Coeff-Com:  0.100D+01
 Coeff-En:   0.100D+01
 Coeff:      0.100D+01
 Gap=     0.242 Goal=   None    Shift=    0.000
 GapD=    0.242 DampG=1.000 DampE=0.500 DampFc=0.5000 IDamp=-1.
 Damping current iteration by 5.00D-01
 RMSDP=1.27D-02 MaxDP=3.08D-01              OVMax= 3.55D-01

 Cycle   2  Pass 0  IDiag  1:
 E= -705.409219214604     Delta-E=       -0.074534822423 Rises=F Damp=T
 DIIS: error= 1.32D-02 at cycle   2 NSaved=   2.
 NSaved= 2 IEnMin= 2 EnMin= -705.409219214604     IErMin= 2 ErrMin= 1.32D-02
 ErrMax= 1.32D-02 EMaxC= 1.00D-01 BMatC= 4.74D-02 BMatP= 3.10D-01
 IDIUse=3 WtCom= 8.68D-01 WtEn= 1.32D-01
 Coeff-Com:  0.235D+00 0.765D+00
 Coeff-En:   0.383D+00 0.617D+00
 Coeff:      0.255D+00 0.745D+00
 Gap=     0.276 Goal=   None    Shift=    0.000
 RMSDP=3.86D-03 MaxDP=1.12D-01 DE=-7.45D-02 OVMax= 3.22D-01

 Cycle   3  Pass 0  IDiag  1:
 E= -705.628979282704     Delta-E=       -0.219760068101 Rises=F Damp=F
 DIIS: error= 9.91D-03 at cycle   3 NSaved=   3.
 NSaved= 3 IEnMin= 3 EnMin= -705.628979282704     IErMin= 3 ErrMin= 9.91D-03
 ErrMax= 9.91D-03 EMaxC= 1.00D-01 BMatC= 2.35D-02 BMatP= 4.74D-02
 IDIUse=3 WtCom= 9.01D-01 WtEn= 9.91D-02
 Coeff-Com:  0.100D+00 0.418D+00 0.482D+00
 Coeff-En:   0.000D+00 0.000D+00 0.100D+01
 Coeff:      0.903D-01 0.377D+00 0.533D+00
 Gap=     0.189 Goal=   None    Shift=    0.000
 RMSDP=1.49D-03 MaxDP=3.95D-02 DE=-2.20D-01 OVMax= 5.86D-02

 Cycle   4  Pass 0  IDiag  1:
 E= -705.645750235435     Delta-E=       -0.016770952731 Rises=F Damp=F
 DIIS: error= 6.49D-03 at cycle   4 NSaved=   4.
 NSaved= 4 IEnMin= 4 EnMin= -705.645750235435     IErMin= 4 ErrMin= 6.49D-03
 ErrMax= 6.49D-03 EMaxC= 1.00D-01 BMatC= 6.46D-03 BMatP= 2.35D-02
 IDIUse=3 WtCom= 9.35D-01 WtEn= 6.49D-02
 Coeff-Com:  0.191D-01 0.750D-01 0.339D+00 0.567D+00
 Coeff-En:   0.000D+00 0.000D+00 0.225D+00 0.775D+00
 Coeff:      0.178D-01 0.702D-01 0.332D+00 0.580D+00
 Gap=     0.190 Goal=   None    Shift=    0.000
 RMSDP=8.32D-04 MaxDP=2.10D-02 DE=-1.68D-02 OVMax= 2.74D-02

 Cycle   5  Pass 0  IDiag  1:
 E= -705.650158677331     Delta-E=       -0.004408441896 Rises=F Damp=F
 DIIS: error= 2.70D-03 at cycle   5 NSaved=   5.
 NSaved= 5 IEnMin= 5 EnMin= -705.650158677331     IErMin= 5 ErrMin= 2.70D-03
 ErrMax= 2.70D-03 EMaxC= 1.00D-01 BMatC= 1.11D-03 BMatP= 6.46D-03
 IDIUse=3 WtCom= 9.73D-01 WtEn= 2.70D-02
 Coeff-Com:  0.496D-02 0.639D-02 0.174D+00 0.394D+00 0.420D+00
 Coeff-En:   0.000D+00 0.000D+00 0.000D+00 0.154D+00 0.846D+00
 Coeff:      0.483D-02 0.622D-02 0.170D+00 0.388D+00 0.432D+00
 Gap=     0.186 Goal=   None    Shift=    0.000
 RMSDP=3.33D-04 MaxDP=8.24D-03 DE=-4.41D-03 OVMax= 1.54D-02

 Cycle   6  Pass 0  IDiag  1:
 E= -705.651307325653     Delta-E=       -0.001148648322 Rises=F Damp=F
 DIIS: error= 4.68D-04 at cycle   6 NSaved=   6.
 NSaved= 6 IEnMin= 6 EnMin= -705.651307325653     IErMin= 6 ErrMin= 4.68D-04
 ErrMax= 4.68D-04 EMaxC= 1.00D-01 BMatC= 5.80D-05 BMatP= 1.11D-03
 IDIUse=3 WtCom= 9.95D-01 WtEn= 4.68D-03
 Coeff-Com:  0.142D-02-0.671D-02 0.545D-01 0.146D+00 0.239D+00 0.566D+00
 Coeff-En:   0.000D+00 0.000D+00 0.000D+00 0.000D+00 0.000D+00 0.100D+01
 Coeff:      0.141D-02-0.668D-02 0.543D-01 0.145D+00 0.238D+00 0.568D+00
 Gap=     0.186 Goal=   None    Shift=    0.000
 RMSDP=6.74D-05 MaxDP=1.49D-03 DE=-1.15D-03 OVMax= 2.56D-03

 Cycle   7  Pass 0  IDiag  1:
 E= -705.651360474140     Delta-E=       -0.000053148487 Rises=F Damp=F
 DIIS: error= 1.12D-04 at cycle   7 NSaved=   7.
 NSaved= 7 IEnMin= 7 EnMin= -705.651360474140     IErMin= 7 ErrMin= 1.12D-04
 ErrMax= 1.12D-04 EMaxC= 1.00D-01 BMatC= 2.71D-06 BMatP= 5.80D-05
 IDIUse=3 WtCom= 9.99D-01 WtEn= 1.12D-03
 Coeff-Com:  0.650D-03-0.362D-02 0.171D-01 0.462D-01 0.867D-01 0.258D+00
 Coeff-Com:  0.595D+00
 Coeff-En:   0.000D+00 0.000D+00 0.000D+00 0.000D+00 0.000D+00 0.000D+00
 Coeff-En:   0.100D+01
 Coeff:      0.649D-03-0.362D-02 0.170D-01 0.461D-01 0.866D-01 0.258D+00
 Coeff:      0.595D+00
 Gap=     0.186 Goal=   None    Shift=    0.000
 RMSDP=1.41D-05 MaxDP=4.98D-04 DE=-5.31D-05 OVMax= 5.28D-04

 Cycle   8  Pass 0  IDiag  1:
 E= -705.651362980842     Delta-E=       -0.000002506702 Rises=F Damp=F
 DIIS: error= 3.37D-05 at cycle   8 NSaved=   8.
 NSaved= 8 IEnMin= 8 EnMin= -705.651362980842     IErMin= 8 ErrMin= 3.37D-05
 ErrMax= 3.37D-05 EMaxC= 1.00D-01 BMatC= 2.41D-07 BMatP= 2.71D-06
 IDIUse=1 WtCom= 1.00D+00 WtEn= 0.00D+00
 Coeff-Com:  0.224D-03-0.102D-02 0.116D-02 0.197D-02 0.685D-02 0.343D-01
 Coeff-Com:  0.236D+00 0.720D+00
 Coeff:      0.224D-03-0.102D-02 0.116D-02 0.197D-02 0.685D-02 0.343D-01
 Coeff:      0.236D+00 0.720D+00
 Gap=     0.186 Goal=   None    Shift=    0.000
 RMSDP=5.39D-06 MaxDP=9.94D-05 DE=-2.51D-06 OVMax= 1.76D-04

 Initial convergence to 1.0D-05 achieved.  Increase integral accuracy.
 Cycle   9  Pass 1  IDiag  1:
 E= -705.651329659619     Delta-E=        0.000033321224 Rises=F Damp=F
 DIIS: error= 1.48D-05 at cycle   1 NSaved=   1.
 NSaved= 1 IEnMin= 1 EnMin= -705.651329659619     IErMin= 1 ErrMin= 1.48D-05
 ErrMax= 1.48D-05 EMaxC= 1.00D-01 BMatC= 6.90D-08 BMatP= 6.90D-08
 IDIUse=1 WtCom= 1.00D+00 WtEn= 0.00D+00
 Coeff-Com:  0.100D+01
 Coeff:      0.100D+01
 Gap=     0.186 Goal=   None    Shift=    0.000
 RMSDP=5.39D-06 MaxDP=9.94D-05 DE= 3.33D-05 OVMax= 2.78D-04

 Cycle  10  Pass 1  IDiag  1:
 E= -705.651329585769     Delta-E=        0.000000073850 Rises=F Damp=F
 DIIS: error= 2.90D-05 at cycle   2 NSaved=   2.
 NSaved= 2 IEnMin= 1 EnMin= -705.651329659619     IErMin= 1 ErrMin= 1.48D-05
 ErrMax= 2.90D-05 EMaxC= 1.00D-01 BMatC= 1.45D-07 BMatP= 6.90D-08
 IDIUse=1 WtCom= 1.00D+00 WtEn= 0.00D+00
 Coeff-Com:  0.609D+00 0.391D+00
 Coeff:      0.609D+00 0.391D+00
 Gap=     0.186 Goal=   None    Shift=    0.000
 RMSDP=3.84D-06 MaxDP=9.94D-05 DE= 7.38D-08 OVMax= 2.41D-04

 Cycle  11  Pass 1  IDiag  1:
 E= -705.651329739839     Delta-E=       -0.000000154070 Rises=F Damp=F
 DIIS: error= 7.62D-06 at cycle   3 NSaved=   3.
 NSaved= 3 IEnMin= 3 EnMin= -705.651329739839     IErMin= 3 ErrMin= 7.62D-06
 ErrMax= 7.62D-06 EMaxC= 1.00D-01 BMatC= 9.61D-09 BMatP= 6.90D-08
 IDIUse=1 WtCom= 1.00D+00 WtEn= 0.00D+00
 Coeff-Com:  0.621D-01 0.204D+00 0.734D+00
 Coeff:      0.621D-01 0.204D+00 0.734D+00
 Gap=     0.186 Goal=   None    Shift=    0.000
 RMSDP=9.11D-07 MaxDP=2.21D-05 DE=-1.54D-07 OVMax= 5.71D-05

 Cycle  12  Pass 1  IDiag  1:
 E= -705.651329749018     Delta-E=       -0.000000009179 Rises=F Damp=F
 DIIS: error= 2.16D-06 at cycle   4 NSaved=   4.
 NSaved= 4 IEnMin= 4 EnMin= -705.651329749018     IErMin= 4 ErrMin= 2.16D-06
 ErrMax= 2.16D-06 EMaxC= 1.00D-01 BMatC= 1.22D-09 BMatP= 9.61D-09
 IDIUse=1 WtCom= 1.00D+00 WtEn= 0.00D+00
 Coeff-Com: -0.136D-01 0.838D-01 0.398D+00 0.532D+00
 Coeff:     -0.136D-01 0.838D-01 0.398D+00 0.532D+00
 Gap=     0.186 Goal=   None    Shift=    0.000
 RMSDP=3.27D-07 MaxDP=9.47D-06 DE=-9.18D-09 OVMax= 9.58D-06

 Cycle  13  Pass 1  IDiag  1:
 E= -705.651329750202     Delta-E=       -0.000000001185 Rises=F Damp=F
 DIIS: error= 9.49D-07 at cycle   5 NSaved=   5.
 NSaved= 5 IEnMin= 5 EnMin= -705.651329750202     IErMin= 5 ErrMin= 9.49D-07
 ErrMax= 9.49D-07 EMaxC= 1.00D-01 BMatC= 8.99D-11 BMatP= 1.22D-09
 IDIUse=1 WtCom= 1.00D+00 WtEn= 0.00D+00
 Coeff-Com: -0.101D-01 0.420D-01 0.202D+00 0.312D+00 0.455D+00
 Coeff:     -0.101D-01 0.420D-01 0.202D+00 0.312D+00 0.455D+00
 Gap=     0.186 Goal=   None    Shift=    0.000
 RMSDP=7.74D-08 MaxDP=2.74D-06 DE=-1.18D-09 OVMax= 3.89D-06

 Cycle  14  Pass 1  IDiag  1:
 E= -705.651329750262     Delta-E=       -0.000000000060 Rises=F Damp=F
 DIIS: error= 2.86D-07 at cycle   6 NSaved=   6.
 NSaved= 6 IEnMin= 6 EnMin= -705.651329750262     IErMin= 6 ErrMin= 2.86D-07
 ErrMax= 2.86D-07 EMaxC= 1.00D-01 BMatC= 1.34D-11 BMatP= 8.99D-11
 IDIUse=1 WtCom= 1.00D+00 WtEn= 0.00D+00
 Coeff-Com: -0.439D-02 0.150D-01 0.698D-01 0.122D+00 0.300D+00 0.497D+00
 Coeff:     -0.439D-02 0.150D-01 0.698D-01 0.122D+00 0.300D+00 0.497D+00
 Gap=     0.186 Goal=   None    Shift=    0.000
 RMSDP=3.83D-08 MaxDP=1.01D-06 DE=-6.00D-11 OVMax= 1.72D-06

 Cycle  15  Pass 1  IDiag  1:
 E= -705.651329750283     Delta-E=       -0.000000000020 Rises=F Damp=F
 DIIS: error= 6.54D-08 at cycle   7 NSaved=   7.
 NSaved= 7 IEnMin= 7 EnMin= -705.651329750283     IErMin= 7 ErrMin= 6.54D-08
 ErrMax= 6.54D-08 EMaxC= 1.00D-01 BMatC= 7.70D-13 BMatP= 1.34D-11
 IDIUse=1 WtCom= 1.00D+00 WtEn= 0.00D+00
 Coeff-Com: -0.123D-02 0.344D-02 0.152D-01 0.307D-01 0.103D+00 0.261D+00
 Coeff-Com:  0.588D+00
 Coeff:     -0.123D-02 0.344D-02 0.152D-01 0.307D-01 0.103D+00 0.261D+00
 Coeff:      0.588D+00
 Gap=     0.186 Goal=   None    Shift=    0.000
 RMSDP=8.92D-09 MaxDP=2.54D-07 DE=-2.02D-11 OVMax= 2.98D-07

 SCF Done:  E(RB3LYP) =  -705.651329750     A.U. after   15 cycles
             Convg  =    0.8921D-08             -V/T =  2.0059
 KE= 7.015094405863D+02 PE=-2.486300586924D+03 EE= 6.664585599900D+02
 Leave Link  502 at Mon Oct  4 08:11:50 2021, MaxMem=  536870912 cpu:      48.4
 (Enter /sw/target/amd/app/gaussian/Gaussian09RevA.02_gcc-4.9.2/g09/l508.exe)
 QCSCF skips out because SCF is already converged.
 Leave Link  508 at Mon Oct  4 08:11:51 2021, MaxMem=  536870912 cpu:       0.0
 (Enter /sw/target/amd/app/gaussian/Gaussian09RevA.02_gcc-4.9.2/g09/l601.exe)
 Copying SCF densities to generalized density rwf, IOpCl= 0 IROHF=0.

 **********************************************************************

            Population analysis using the SCF density.

 **********************************************************************

 Orbital symmetries:
       Occupied  (A) (A) (A) (A) (A) (A) (A) (A) (A) (A) (A) (A)
                 (A) (A) (A) (A) (A) (A) (A) (A) (A) (A) (A) (A)
                 (A) (A) (A) (A) (A) (A) (A) (A) (A)
       Virtual   (A) (A) (A) (A) (A) (A) (A) (A) (A) (A) (A) (A)
                 (A) (A) (A) (A) (A) (A) (A) (A) (A) (A) (A) (A)
                 (A) (A) (A) (A) (A) (A) (A) (A) (A) (A) (A) (A)
                 (A) (A) (A) (A) (A) (A) (A) (A) (A) (A) (A) (A)
                 (A) (A) (A) (A) (A) (A) (A) (A) (A) (A) (A) (A)
                 (A) (A) (A) (A) (A) (A) (A) (A) (A) (A) (A) (A)
                 (A) (A) (A) (A) (A) (A) (A) (A) (A) (A) (A) (A)
                 (A) (A) (A) (A) (A) (A) (A) (A) (A) (A) (A) (A)
                 (A) (A) (A) (A) (A) (A) (A)
 The electronic state is 1-A.
 Alpha  occ. eigenvalues --  -88.91826 -19.13357 -10.27949 -10.23039 -10.22436
 Alpha  occ. eigenvalues --  -10.21470 -10.20801 -10.18868  -7.97980  -5.94366
 Alpha  occ. eigenvalues --   -5.93982  -5.93721  -1.02910  -0.89628  -0.77272
 Alpha  occ. eigenvalues --   -0.74915  -0.72252  -0.61817  -0.57221  -0.53645
 Alpha  occ. eigenvalues --   -0.49491  -0.44954  -0.44610  -0.43564  -0.41033
 Alpha  occ. eigenvalues --   -0.39485  -0.39119  -0.38380  -0.35314  -0.35177
 Alpha  occ. eigenvalues --   -0.26374  -0.24980  -0.24942
 Alpha virt. eigenvalues --   -0.06319   0.02196   0.03565   0.08082   0.09090
 Alpha virt. eigenvalues --    0.10157   0.11506   0.15266   0.15952   0.17195
 Alpha virt. eigenvalues --    0.17850   0.20714   0.24524   0.26796   0.28063
 Alpha virt. eigenvalues --    0.33909   0.35824   0.36223   0.39821   0.42414
 Alpha virt. eigenvalues --    0.44002   0.49781   0.52693   0.52841   0.54110
 Alpha virt. eigenvalues --    0.57058   0.58556   0.59904   0.62458   0.63503
 Alpha virt. eigenvalues --    0.64156   0.66082   0.68234   0.73841   0.78311
 Alpha virt. eigenvalues --    0.79045   0.79794   0.81342   0.82941   0.85097
 Alpha virt. eigenvalues --    0.85505   0.87464   0.87540   0.90898   0.91590
 Alpha virt. eigenvalues --    0.95356   0.96147   1.00426   1.01479   1.03242
 Alpha virt. eigenvalues --    1.03704   1.08140   1.12907   1.14015   1.22436
 Alpha virt. eigenvalues --    1.28577   1.30655   1.31783   1.38650   1.40963
 Alpha virt. eigenvalues --    1.41744   1.44061   1.50110   1.61518   1.65400
 Alpha virt. eigenvalues --    1.72146   1.76568   1.81099   1.81230   1.88683
 Alpha virt. eigenvalues --    1.89177   1.94105   1.94793   1.95225   2.01529
 Alpha virt. eigenvalues --    2.06068   2.07882   2.15682   2.21631   2.22093
 Alpha virt. eigenvalues --    2.24692   2.25481   2.28256   2.37201   2.41651
 Alpha virt. eigenvalues --    2.48528   2.48897   2.58910   2.60371   2.66111
 Alpha virt. eigenvalues --    2.76753   2.87532   2.95889   3.04766   3.08425
 Alpha virt. eigenvalues --    3.94840   3.96132   4.08847   4.10510   4.20756
 Alpha virt. eigenvalues --    4.30469   4.41340   4.56498
          Condensed to atoms (all electrons):
              1          2          3          4          5          6
     1  C    5.375731   0.349263  -0.091617  -0.151742  -0.009522   0.000036
     2  C    0.349263   4.467932   0.574502   0.277702  -0.016302   0.004104
     3  O   -0.091617   0.574502   8.031780  -0.085947   0.003843  -0.000089
     4  C   -0.151742   0.277702  -0.085947   5.474013   0.511528  -0.032040
     5  C   -0.009522  -0.016302   0.003843   0.511528   4.937342   0.514457
     6  C    0.000036   0.004104  -0.000089  -0.032040   0.514457   4.836657
     7  C   -0.000037   0.004010   0.000236  -0.056318  -0.049621   0.566650
     8  S    0.009606  -0.036154   0.022453   0.292617  -0.103004  -0.079244
     9  H    0.353190  -0.020931   0.005756   0.006505   0.000092  -0.000001
    10  H    0.349440  -0.021132   0.001453   0.003594   0.000607   0.000019
    11  H    0.347939  -0.021085   0.001704   0.003653   0.000736   0.000033
    12  H    0.004146  -0.007800   0.000032  -0.045156   0.359859  -0.043185
    13  H    0.000006  -0.000057   0.000000   0.004897  -0.036633   0.362652
    14  H    0.000002  -0.000055   0.000000   0.002684   0.004227  -0.022003
              7          8          9         10         11         12
     1  C   -0.000037   0.009606   0.353190   0.349440   0.347939   0.004146
     2  C    0.004010  -0.036154  -0.020931  -0.021132  -0.021085  -0.007800
     3  O    0.000236   0.022453   0.005756   0.001453   0.001704   0.000032
     4  C   -0.056318   0.292617   0.006505   0.003594   0.003653  -0.045156
     5  C   -0.049621  -0.103004   0.000092   0.000607   0.000736   0.359859
     6  C    0.566650  -0.079244  -0.000001   0.000019   0.000033  -0.043185
     7  C    5.235697   0.318115   0.000000   0.000001   0.000001   0.006458
     8  S    0.318115  15.284607  -0.000212  -0.000341  -0.000346   0.006725
     9  H    0.000000  -0.000212   0.517581  -0.022214  -0.022858  -0.000041
    10  H    0.000001  -0.000341  -0.022214   0.541759  -0.024966   0.001077
    11  H    0.000001  -0.000346  -0.022858  -0.024966   0.545232   0.001322
    12  H    0.006458   0.006725  -0.000041   0.001077   0.001322   0.567974
    13  H   -0.047987   0.005876  -0.000000  -0.000002  -0.000003  -0.002139
    14  H    0.357125  -0.036047  -0.000000   0.000000   0.000000  -0.000108
             13         14
     1  C    0.000006   0.000002
     2  C   -0.000057  -0.000055
     3  O    0.000000   0.000000
     4  C    0.004897   0.002684
     5  C   -0.036633   0.004227
     6  C    0.362652  -0.022003
     7  C   -0.047987   0.357125
     8  S    0.005876  -0.036047
     9  H   -0.000000  -0.000000
    10  H   -0.000002   0.000000
    11  H   -0.000003   0.000000
    12  H   -0.002139  -0.000108
    13  H    0.566908  -0.003066
    14  H   -0.003066   0.514932
 Mulliken atomic charges:
              1
     1  C   -0.536441
     2  C    0.446004
     3  O   -0.464107
     4  C   -0.205990
     5  C   -0.117608
     6  C   -0.108046
     7  C   -0.334332
     8  S    0.315350
     9  H    0.183133
    10  H    0.170705
    11  H    0.168637
    12  H    0.150835
    13  H    0.149548
    14  H    0.182310
 Sum of Mulliken atomic charges =  -0.00000
 Mulliken charges with hydrogens summed into heavy atoms:
              1
     1  C   -0.013966
     2  C    0.446004
     3  O   -0.464107
     4  C   -0.205990
     5  C    0.033227
     6  C    0.041502
     7  C   -0.152022
     8  S    0.315350
 Sum of Mulliken charges with hydrogens summed into heavy atoms =  -0.00000
 Electronic spatial extent (au):  <R**2>=           1110.0200
 Charge=             -0.0000 electrons
 Dipole moment (field-independent basis, Debye):
    X=             -2.0733    Y=              3.1572    Z=              0.0140  Tot=              3.7771
 Quadrupole moment (field-independent basis, Debye-Ang):
   XX=            -49.0950   YY=            -53.1461   ZZ=            -54.6327
   XY=              5.5302   XZ=              0.0267   YZ=             -0.0204
 Traceless Quadrupole moment (field-independent basis, Debye-Ang):
   XX=              3.1963   YY=             -0.8548   ZZ=             -2.3414
   XY=              5.5302   XZ=              0.0267   YZ=             -0.0204
 Octapole moment (field-independent basis, Debye-Ang**2):
  XXX=            -16.9243  YYY=              6.0009  ZZZ=              0.0660  XYY=             -7.8598
  XXY=              8.9746  XXZ=              0.0484  XZZ=              7.2746  YZZ=             -2.6022
  YYZ=             -0.0216  XYZ=              0.0236
 Hexadecapole moment (field-independent basis, Debye-Ang**3):
 XXXX=           -917.3317 YYYY=           -402.8624 ZZZZ=            -64.1484 XXXY=             22.2314
 XXXZ=             -0.2606 YYYX=             -4.6331 YYYZ=             -0.1799 ZZZX=              0.1508
 ZZZY=              0.1533 XXYY=           -235.7331 XXZZ=           -181.7653 YYZZ=            -81.3243
 XXYZ=             -0.0121 YYXZ=              0.0558 ZZXY=              0.6110
 N-N= 4.126812565979D+02 E-N=-2.486300594464D+03  KE= 7.015094405863D+02
 No NMR shielding tensors so no spin-rotation constants.
 Leave Link  601 at Mon Oct  4 08:11:52 2021, MaxMem=  536870912 cpu:       0.5
 (Enter /sw/target/amd/app/gaussian/Gaussian09RevA.02_gcc-4.9.2/g09/l701.exe)
 Compute integral first derivatives.
 ... and contract with generalized density number  0.
 Leave Link  701 at Mon Oct  4 08:11:53 2021, MaxMem=  536870912 cpu:       0.5
 (Enter /sw/target/amd/app/gaussian/Gaussian09RevA.02_gcc-4.9.2/g09/l702.exe)
 L702 exits ... SP integral derivatives will be done elsewhere.
 Leave Link  702 at Mon Oct  4 08:11:54 2021, MaxMem=  536870912 cpu:       0.1
 (Enter /sw/target/amd/app/gaussian/Gaussian09RevA.02_gcc-4.9.2/g09/l703.exe)
 Compute integral first derivatives, UseDBF=F ICtDFT=           0.
 Integral derivatives from FoFDir, PRISM(SPDF).
 Calling FoFJK, ICntrl=      2127 FMM=F ISym2X=0 I1Cent= 0 IOpClX= 0 NMat=1 NMatS=1 NMatT=0.
 FoFCou: FMM=F IPFlag=           0 FMFlag=      100000 FMFlg1=         800
         NFxFlg=           0 DoJE=F BraDBF=F KetDBF=F FulRan=T
         Omega=  0.000000  0.000000  1.000000  0.000000  0.000000 ICntrl=    2127 IOpCl=  0
         NMat0=    1 NMatS0=    1 NMatT0=    0 NMatD0=    1 NMtDS0=    0 NMtDT0=    0
         I1Cent=           0 NGrid=           0.
 Symmetry not used in FoFCou.
 Leave Link  703 at Mon Oct  4 08:13:03 2021, MaxMem=  536870912 cpu:      20.9
 (Enter /sw/target/amd/app/gaussian/Gaussian09RevA.02_gcc-4.9.2/g09/l716.exe)
 Dipole        =-8.15686045D-01 1.24211880D+00 5.49715856D-03
 ***** Axes restored to original set *****
 -------------------------------------------------------------------
 Center     Atomic                   Forces (Hartrees/Bohr)
 Number     Number              X              Y              Z
 -------------------------------------------------------------------
      1        6          -0.003803398   -0.004238797   -0.002815604
      2        6          -0.006692553   -0.010365474   -0.018939037
      3        8           0.004893299    0.007573564    0.013530590
      4        6          -0.004484198   -0.001059486    0.004976147
      5        6           0.004697658    0.004142573    0.004031257
      6        6          -0.002694817   -0.002686506   -0.003334693
      7        6          -0.001805584    0.000921536    0.005984519
      8       16           0.014154675    0.004328523   -0.012391032
      9        1           0.002277425    0.001798876    0.000149846
     10        1          -0.001993927   -0.000862746    0.004448544
     11        1          -0.003139425    0.001118648    0.003868566
     12        1          -0.000530337   -0.000543652   -0.000663084
     13        1          -0.001084747   -0.000433356    0.000594689
     14        1           0.000205929    0.000306297    0.000559291
 -------------------------------------------------------------------
 Cartesian Forces:  Max     0.018939037 RMS     0.005809470
 Leave Link  716 at Mon Oct  4 08:13:04 2021, MaxMem=  536870912 cpu:       0.0
 (Enter /sw/target/amd/app/gaussian/Gaussian09RevA.02_gcc-4.9.2/g09/l103.exe)

 GradGradGradGradGradGradGradGradGradGradGradGradGradGradGradGradGradGrad
 Berny optimization.
 Internal  Forces:  Max     0.015817920 RMS     0.004143320
 Search for a local minimum.
 Step number   1 out of a maximum of   72
 All quantities printed in internal units (Hartrees-Bohrs-Radians)
 RMS Force = .41433D-02 SwitMx=.10000D-02 MixMth= 1
 Mixed Optimization -- RFO/linear search
 Second derivative matrix not updated -- first step.
     Eigenvalues ---    0.00617   0.00910   0.01303   0.01717   0.01803
     Eigenvalues ---    0.01964   0.02071   0.02127   0.02215   0.07267
     Eigenvalues ---    0.07458   0.16000   0.16000   0.16000   0.16000
     Eigenvalues ---    0.16000   0.16000   0.22134   0.23816   0.25000
     Eigenvalues ---    0.25000   0.25000   0.31222   0.32990   0.33836
     Eigenvalues ---    0.34314   0.34422   0.34425   0.35582   0.35586
     Eigenvalues ---    0.35799   0.37042   0.40367   0.45635   0.48881
     Eigenvalues ---    0.901041000.000001000.000001000.000001000.00000
     Eigenvalues --- 1000.000001000.000001000.000001000.000001000.00000
     Eigenvalues --- 1000.000001000.000001000.000001000.000001000.00000
     Eigenvalues --- 1000.000001000.000001000.000001000.000001000.00000
     Eigenvalues --- 1000.000001000.000001000.000001000.000001000.00000
     Eigenvalues --- 1000.000001000.00000
 RFO step:  Lambda=-3.61273667D-03 EMin= 6.16764660D-03
 Linear search not attempted -- first point.
 Iteration  1 RMS(Cart)=  0.02534097 RMS(Int)=  0.00046731
 Iteration  2 RMS(Cart)=  0.00050496 RMS(Int)=  0.00003243
 Iteration  3 RMS(Cart)=  0.00000006 RMS(Int)=  0.00003243
 Variable       Old X    -DE/DX   Delta X   Delta X   Delta X     New X
                                 (Linear)    (Quad)   (Total)
    R1        2.85590   0.00802   0.00000   0.02539   0.02539   2.88129
    R2        2.06803  -0.00179   0.00000  -0.00516  -0.00516   2.06287
    R3        2.06623   0.00184   0.00000   0.00529   0.00529   2.07152
    R4        2.06619   0.00180   0.00000   0.00516   0.00516   2.07135
    R5        2.32885  -0.01143   0.00000  -0.01263  -0.01263   2.31622
    R6        2.75783   0.00615   0.00000   0.01644   0.01644   2.77427
    R7        2.61566  -0.00067   0.00000  -0.00160  -0.00163   2.61403
    R8        3.24389   0.01412   0.00000   0.04236   0.04239   3.28628
    R9        2.69575  -0.00611   0.00000  -0.01579  -0.01584   2.67991
   R10        2.04734   0.00039   0.00000   0.00109   0.00109   2.04843
   R11        2.59966   0.00085   0.00000   0.00116   0.00115   2.60081
   R12        2.04741   0.00058   0.00000   0.00162   0.00162   2.04903
   R13        3.22818   0.00759   0.00000   0.02236   0.02240   3.25059
   R14        2.04397   0.00049   0.00000   0.00135   0.00135   2.04532
    A1        1.91105  -0.00356   0.00000  -0.01637  -0.01632   1.89473
    A2        1.92080   0.00316   0.00000   0.01613   0.01617   1.93697
    A3        1.92370   0.00332   0.00000   0.01800   0.01804   1.94174
    A4        1.89147   0.00100   0.00000   0.01051   0.01057   1.90204
    A5        1.88868   0.00128   0.00000   0.01412   0.01417   1.90285
    A6        1.92750  -0.00529   0.00000  -0.04258  -0.04255   1.88495
    A7        2.07977   0.01112   0.00000   0.04387   0.04387   2.12364
    A8        2.03524   0.00469   0.00000   0.01851   0.01851   2.05375
    A9        2.16817  -0.01582   0.00000  -0.06237  -0.06237   2.10580
   A10        2.26325  -0.00071   0.00000  -0.00309  -0.00308   2.26017
   A11        2.08278  -0.00015   0.00000  -0.00088  -0.00087   2.08191
   A12        1.93716   0.00087   0.00000   0.00396   0.00395   1.94111
   A13        1.96544   0.00155   0.00000   0.00369   0.00362   1.96905
   A14        2.16496  -0.00173   0.00000  -0.00767  -0.00763   2.15732
   A15        2.15279   0.00018   0.00000   0.00398   0.00402   2.15681
   A16        1.95388   0.00170   0.00000   0.00366   0.00360   1.95748
   A17        2.17660  -0.00205   0.00000  -0.00919  -0.00917   2.16743
   A18        2.15271   0.00036   0.00000   0.00554   0.00556   2.15828
   A19        1.95482   0.00210   0.00000   0.00881   0.00883   1.96365
   A20        2.23193  -0.00153   0.00000  -0.00730  -0.00731   2.22462
   A21        2.09644  -0.00058   0.00000  -0.00151  -0.00152   2.09492
   A22        1.61349  -0.00622   0.00000  -0.02011  -0.02000   1.59349
    D1        0.03141  -0.00017   0.00000  -0.00549  -0.00553   0.02587
    D2       -3.11389  -0.00016   0.00000  -0.00288  -0.00284  -3.11673
    D3       -2.04597  -0.00113   0.00000  -0.01812  -0.01814  -2.06412
    D4        1.09192  -0.00112   0.00000  -0.01551  -0.01545   1.07646
    D5        2.10712   0.00122   0.00000   0.01268   0.01263   2.11976
    D6       -1.03818   0.00123   0.00000   0.01530   0.01533  -1.02285
    D7        0.00854  -0.00008   0.00000  -0.00387  -0.00381   0.00473
    D8       -3.13302  -0.00008   0.00000  -0.00396  -0.00390  -3.13692
    D9       -3.13697  -0.00000   0.00000  -0.00085  -0.00090  -3.13787
   D10        0.00466  -0.00000   0.00000  -0.00093  -0.00099   0.00367
   D11        3.14091   0.00004   0.00000   0.00155   0.00155  -3.14072
   D12        0.00018  -0.00000   0.00000  -0.00014  -0.00013   0.00005
   D13       -0.00071   0.00004   0.00000   0.00163   0.00163   0.00092
   D14       -3.14144  -0.00000   0.00000  -0.00006  -0.00005  -3.14149
   D15       -3.14142  -0.00002   0.00000  -0.00071  -0.00070   3.14106
   D16        0.00020  -0.00002   0.00000  -0.00078  -0.00077  -0.00058
   D17        0.00100  -0.00004   0.00000  -0.00187  -0.00187  -0.00087
   D18       -3.14076  -0.00003   0.00000  -0.00120  -0.00120   3.14122
   D19       -3.14144  -0.00001   0.00000  -0.00021  -0.00020   3.14155
   D20       -0.00002   0.00001   0.00000   0.00046   0.00047   0.00044
   D21       -0.00084   0.00003   0.00000   0.00126   0.00126   0.00042
   D22        3.14106   0.00002   0.00000   0.00068   0.00068  -3.14144
   D23        3.14092   0.00001   0.00000   0.00060   0.00060   3.14152
   D24       -0.00036   0.00000   0.00000   0.00002   0.00002  -0.00033
   D25        0.00038  -0.00001   0.00000  -0.00029  -0.00029   0.00009
   D26       -3.14150   0.00000   0.00000   0.00023   0.00023  -3.14127
         Item               Value     Threshold  Converged?
 Maximum Force            0.015818     0.000450     NO 
 RMS     Force            0.004143     0.000300     NO 
 Maximum Displacement     0.084990     0.001800     NO 
 RMS     Displacement     0.025430     0.001200     NO 
 Predicted change in Energy=-1.832437D-03
 GradGradGradGradGradGradGradGradGradGradGradGradGradGradGradGradGradGrad

 Leave Link  103 at Mon Oct  4 08:13:08 2021, MaxMem=  536870912 cpu:       1.0
 (Enter /sw/target/amd/app/gaussian/Gaussian09RevA.02_gcc-4.9.2/g09/l202.exe)
                          Input orientation:                          
 ---------------------------------------------------------------------
 Center     Atomic      Atomic             Coordinates (Angstroms)
 Number     Number       Type             X           Y           Z
 ---------------------------------------------------------------------
      1          6           0        1.312986   -0.651487    0.207832
      2          6           0        2.636036    0.029801   -0.124033
      3          8           0        3.140100   -0.051455   -1.238319
      4          6           0        3.294825    0.795267    0.941483
      5          6           0        2.897472    1.003173    2.250054
      6          6           0        3.808592    1.808078    2.980214
      7          6           0        4.884405    2.198304    2.215673
      8         16           0        4.802259    1.595181    0.606835
      9          1           0        0.970730   -1.194549   -0.675111
     10          1           0        0.552114    0.085344    0.490346
     11          1           0        1.426758   -1.356682    1.039228
     12          1           0        1.986371    0.595122    2.672434
     13          1           0        3.677834    2.086197    4.020050
     14          1           0        5.721570    2.812149    2.521940
 ---------------------------------------------------------------------
                    Distance matrix (angstroms):
                    1          2          3          4          5
     1  C    0.000000
     2  C    1.524713   0.000000
     3  O    2.406187   1.225690   0.000000
     4  C    2.561060   1.468082   2.343590   0.000000
     5  C    3.069066   2.579164   3.652376   1.383283   0.000000
     6  C    4.468066   3.764772   4.658408   2.333703   1.418149
     7  C    4.990768   3.902792   4.475944   2.473628   2.318927
     8  S    4.169142   2.770759   2.979727   1.739026   2.584349
     9  H    1.091624   2.139151   2.515956   3.460370   4.135083
    10  H    1.096203   2.173310   3.115231   2.868794   3.072407
    11  H    1.096112   2.176663   3.134705   2.851335   3.032823
    12  H    2.842841   2.926068   4.128333   2.179059   1.083981
    13  H    5.255514   4.742102   5.701680   3.360174   2.216933
    14  H    6.065269   4.925764   5.385514   3.529129   3.364795
                    6          7          8          9         10
     6  C    0.000000
     7  C    1.376289   0.000000
     8  S    2.581788   1.720136   0.000000
     9  H    5.516397   5.931689   4.909847   0.000000
    10  H    4.446561   5.119579   4.511863   1.780915   0.000000
    11  H    4.410926   5.096790   4.504938   1.781349   1.773616
    12  H    2.210539   3.343265   3.632636   3.929441   2.660540
    13  H    1.084300   2.173513   3.627047   6.335318   5.121752
    14  H    2.208542   1.082336   2.448218   6.988938   6.187577
                   11         12         13         14
    11  H    0.000000
    12  H    2.605776   0.000000
    13  H    5.079966   2.626865   0.000000
    14  H    6.166279   4.346213   2.635943   0.000000
 Stoichiometry    C6H6OS
 Framework group  C1[X(C6H6OS)]
 Deg. of freedom    36
 Full point group                 C1      NOp   1
 Largest Abelian subgroup         C1      NOp   1
 Largest concise Abelian subgroup C1      NOp   1
                         Standard orientation:                         
 ---------------------------------------------------------------------
 Center     Atomic      Atomic             Coordinates (Angstroms)
 Number     Number       Type             X           Y           Z
 ---------------------------------------------------------------------
      1          6           0        2.564146    1.001137    0.003136
      2          6           0        1.586313   -0.168724   -0.001048
      3          8           0        1.973889   -1.331520   -0.003294
      4          6           0        0.151491    0.142005   -0.001004
      5          6           0       -0.482492    1.371450   -0.002696
      6          6           0       -1.896345    1.261171   -0.000864
      7          6           0       -2.314673   -0.050000    0.001089
      8         16           0       -1.000915   -1.160364    0.001384
      9          1           0        3.580764    0.604350   -0.023157
     10          1           0        2.442697    1.610964    0.905922
     11          1           0        2.411200    1.649951   -0.866985
     12          1           0        0.044948    2.318455   -0.004422
     13          1           0       -2.573476    2.108048   -0.001417
     14          1           0       -3.333238   -0.416024    0.002592
 ---------------------------------------------------------------------
 Rotational constants (GHZ):      3.5483598      1.4103083      1.0156307
 Leave Link  202 at Mon Oct  4 08:13:08 2021, MaxMem=  536870912 cpu:       0.0
 (Enter /sw/target/amd/app/gaussian/Gaussian09RevA.02_gcc-4.9.2/g09/l301.exe)
 Standard basis: 6-31G(d) (6D, 7F)
 Ernie: Thresh=  0.10000D-02 Tol=  0.10000D-05 Strict=F.
 There are   136 symmetry adapted basis functions of A   symmetry.
 Integral buffers will be    131072 words long.
 Raffenetti 2 integral format.
 Two-electron integral symmetry is turned on.
   136 basis functions,   272 primitive gaussians,   136 cartesian basis functions
    33 alpha electrons       33 beta electrons
       nuclear repulsion energy       411.4996912686 Hartrees.
 IExCor=  402 DFT=T Ex+Corr=B3LYP ExCW=0 ScaHFX=  0.200000
 ScaDFX=  0.800000  0.720000  1.000000  0.810000 ScalE2=  1.000000  1.000000
 IRadAn=      0 IRanWt=     -1 IRanGd=            0 ICorTp=0
 NAtoms=   14 NActive=   14 NUniq=   14 SFac= 7.50D-01 NAtFMM=   80 NAOKFM=F Big=F
 Leave Link  301 at Mon Oct  4 08:13:08 2021, MaxMem=  536870912 cpu:       0.1
 (Enter /sw/target/amd/app/gaussian/Gaussian09RevA.02_gcc-4.9.2/g09/l302.exe)
 NPDir=0 NMtPBC=     1 NCelOv=     1 NCel=       1 NClECP=     1 NCelD=      1
         NCelK=      1 NCelE2=     1 NClLst=     1 CellRange=     0.0.
 One-electron integrals computed using PRISM.
 NBasis=   136 RedAO= T  NBF=   136
 NBsUse=   136 1.00D-06 NBFU=   136
 Precomputing XC quadrature grid using
 IXCGrd= 2 IRadAn=           0 IRanWt=          -1 IRanGd=           0 AccXCQ= 1.00D-10.
 NRdTot=     872 NPtTot=      110796 NUsed=      117095 NTot=      117127
 NSgBfM=   136   136   136   136   136 NAtAll=    14    14.
 Leave Link  302 at Mon Oct  4 08:13:10 2021, MaxMem=  536870912 cpu:       0.7
 (Enter /sw/target/amd/app/gaussian/Gaussian09RevA.02_gcc-4.9.2/g09/l303.exe)
 DipDrv:  MaxL=1.
 Leave Link  303 at Mon Oct  4 08:13:10 2021, MaxMem=  536870912 cpu:       0.1
 (Enter /sw/target/amd/app/gaussian/Gaussian09RevA.02_gcc-4.9.2/g09/l401.exe)
 Initial guess read from the read-write file.
 B after Tr=     0.000000    0.000000    0.000000
         Rot=    1.000000    0.000000    0.000000    0.000000 Ang=   0.00 deg.
 Guess basis will be translated and rotated to current coordinates.
 Initial guess orbital symmetries:
       Occupied  (A) (A) (A) (A) (A) (A) (A) (A) (A) (A) (A) (A)
                 (A) (A) (A) (A) (A) (A) (A) (A) (A) (A) (A) (A)
                 (A) (A) (A) (A) (A) (A) (A) (A) (A)
       Virtual   (A) (A) (A) (A) (A) (A) (A) (A) (A) (A) (A) (A)
                 (A) (A) (A) (A) (A) (A) (A) (A) (A) (A) (A) (A)
                 (A) (A) (A) (A) (A) (A) (A) (A) (A) (A) (A) (A)
                 (A) (A) (A) (A) (A) (A) (A) (A) (A) (A) (A) (A)
                 (A) (A) (A) (A) (A) (A) (A) (A) (A) (A) (A) (A)
                 (A) (A) (A) (A) (A) (A) (A) (A) (A) (A) (A) (A)
                 (A) (A) (A) (A) (A) (A) (A) (A) (A) (A) (A) (A)
                 (A) (A) (A) (A) (A) (A) (A) (A) (A) (A) (A) (A)
                 (A) (A) (A) (A) (A) (A) (A)
 The electronic state of the initial guess is 1-A.
 Generating alternative initial guess.
 Harris functional with IExCor=  402 diagonalized for initial guess.
 ExpMin= 1.17D-01 ExpMax= 2.19D+04 ExpMxC= 3.30D+03 IAcc=1 IRadAn=         1 AccDes= 0.00D+00
 HarFok:  IExCor=  402 AccDes= 0.00D+00 IRadAn=         1 IDoV= 1
 ScaDFX=  1.000000  1.000000  1.000000  1.000000
 FoFCou: FMM=F IPFlag=           0 FMFlag=      100000 FMFlg1=           0
         NFxFlg=           0 DoJE=T BraDBF=F KetDBF=T FulRan=T
         Omega=  0.000000  0.000000  1.000000  0.000000  0.000000 ICntrl=     500 IOpCl=  0
         NMat0=    1 NMatS0=    1 NMatT0=    0 NMatD0=    1 NMtDS0=    0 NMtDT0=    0
         I1Cent=           4 NGrid=           0.
 Petite list used in FoFCou.
 Harris En= -705.718107979545    
 Leave Link  401 at Mon Oct  4 08:13:23 2021, MaxMem=  536870912 cpu:       3.1
 (Enter /sw/target/amd/app/gaussian/Gaussian09RevA.02_gcc-4.9.2/g09/l502.exe)
 Closed shell SCF:
 Requested convergence on RMS density matrix=1.00D-08 within  64 cycles.
 Requested convergence on MAX density matrix=1.00D-06.
 Requested convergence on             energy=1.00D-06.
 No special actions if energy rises.
 Using DIIS extrapolation, IDIIS=  1040.
 Integral symmetry usage will be decided dynamically.
       116956 words used for storage of precomputed grid.
 Keep R1 ints in memory in canonical form, NReq=44864031.
 IEnd=      179823 IEndB=      179823 NGot=   536870912 MDV=   493315332
 LenX=   493315332 LenY=   493296395
 Symmetry not used in FoFDir.
 MinBra= 0 MaxBra= 2 Meth= 1.
 IRaf=       0 NMat=   1 IRICut=       1 DoRegI=T DoRafI=F ISym2E= 0 JSym2E=0.
 Integral accuracy reduced to 1.0D-05 until final iterations.

 Cycle   1  Pass 0  IDiag  1:
 E= -705.649929727788    
 DIIS: error= 2.96D-03 at cycle   1 NSaved=   1.
 NSaved= 1 IEnMin= 1 EnMin= -705.649929727788     IErMin= 1 ErrMin= 2.96D-03
 ErrMax= 2.96D-03 EMaxC= 1.00D-01 BMatC= 2.12D-03 BMatP= 2.12D-03
 IDIUse=3 WtCom= 9.70D-01 WtEn= 2.96D-02
 Coeff-Com:  0.100D+01
 Coeff-En:   0.100D+01
 Coeff:      0.100D+01
 Gap=     0.191 Goal=   None    Shift=    0.000
 GapD=    0.191 DampG=1.000 DampE=1.000 DampFc=1.0000 IDamp=-1.
 RMSDP=6.91D-04 MaxDP=1.85D-02              OVMax= 1.84D-02

 Cycle   2  Pass 0  IDiag  1:
 E= -705.653002190590     Delta-E=       -0.003072462802 Rises=F Damp=F
 DIIS: error= 1.07D-03 at cycle   2 NSaved=   2.
 NSaved= 2 IEnMin= 2 EnMin= -705.653002190590     IErMin= 2 ErrMin= 1.07D-03
 ErrMax= 1.07D-03 EMaxC= 1.00D-01 BMatC= 1.97D-04 BMatP= 2.12D-03
 IDIUse=3 WtCom= 9.89D-01 WtEn= 1.07D-02
 Coeff-Com:  0.740D-01 0.926D+00
 Coeff-En:   0.000D+00 0.100D+01
 Coeff:      0.732D-01 0.927D+00
 Gap=     0.185 Goal=   None    Shift=    0.000
 RMSDP=2.53D-04 MaxDP=7.26D-03 DE=-3.07D-03 OVMax= 9.95D-03

 Cycle   3  Pass 0  IDiag  1:
 E= -705.652660530395     Delta-E=        0.000341660195 Rises=F Damp=F
 DIIS: error= 1.65D-03 at cycle   3 NSaved=   3.
 NSaved= 3 IEnMin= 2 EnMin= -705.653002190590     IErMin= 2 ErrMin= 1.07D-03
 ErrMax= 1.65D-03 EMaxC= 1.00D-01 BMatC= 5.93D-04 BMatP= 1.97D-04
 IDIUse=3 WtCom= 1.97D-01 WtEn= 8.03D-01
 Coeff-Com: -0.331D-01 0.658D+00 0.375D+00
 Coeff-En:   0.000D+00 0.704D+00 0.296D+00
 Coeff:     -0.652D-02 0.695D+00 0.312D+00
 Gap=     0.184 Goal=   None    Shift=    0.000
 RMSDP=1.49D-04 MaxDP=4.42D-03 DE= 3.42D-04 OVMax= 5.94D-03

 Cycle   4  Pass 0  IDiag  1:
 E= -705.653174741778     Delta-E=       -0.000514211383 Rises=F Damp=F
 DIIS: error= 2.04D-04 at cycle   4 NSaved=   4.
 NSaved= 4 IEnMin= 4 EnMin= -705.653174741778     IErMin= 4 ErrMin= 2.04D-04
 ErrMax= 2.04D-04 EMaxC= 1.00D-01 BMatC= 1.17D-05 BMatP= 1.97D-04
 IDIUse=3 WtCom= 9.98D-01 WtEn= 2.04D-03
 Coeff-Com: -0.198D-01 0.291D+00 0.990D-01 0.630D+00
 Coeff-En:   0.000D+00 0.000D+00 0.000D+00 0.100D+01
 Coeff:     -0.197D-01 0.290D+00 0.988D-01 0.631D+00
 Gap=     0.184 Goal=   None    Shift=    0.000
 RMSDP=3.13D-05 MaxDP=8.89D-04 DE=-5.14D-04 OVMax= 1.47D-03

 Cycle   5  Pass 0  IDiag  1:
 E= -705.653184629266     Delta-E=       -0.000009887488 Rises=F Damp=F
 DIIS: error= 8.14D-05 at cycle   5 NSaved=   5.
 NSaved= 5 IEnMin= 5 EnMin= -705.653184629266     IErMin= 5 ErrMin= 8.14D-05
 ErrMax= 8.14D-05 EMaxC= 1.00D-01 BMatC= 1.88D-06 BMatP= 1.17D-05
 IDIUse=1 WtCom= 1.00D+00 WtEn= 0.00D+00
 Coeff-Com: -0.710D-02 0.867D-01 0.977D-02 0.387D+00 0.524D+00
 Coeff:     -0.710D-02 0.867D-01 0.977D-02 0.387D+00 0.524D+00
 Gap=     0.184 Goal=   None    Shift=    0.000
 RMSDP=1.14D-05 MaxDP=2.45D-04 DE=-9.89D-06 OVMax= 5.10D-04

 Cycle   6  Pass 0  IDiag  1:
 E= -705.653186290892     Delta-E=       -0.000001661626 Rises=F Damp=F
 DIIS: error= 3.53D-05 at cycle   6 NSaved=   6.
 NSaved= 6 IEnMin= 6 EnMin= -705.653186290892     IErMin= 6 ErrMin= 3.53D-05
 ErrMax= 3.53D-05 EMaxC= 1.00D-01 BMatC= 1.20D-07 BMatP= 1.88D-06
 IDIUse=1 WtCom= 1.00D+00 WtEn= 0.00D+00
 Coeff-Com: -0.290D-02 0.322D-01-0.218D-03 0.187D+00 0.306D+00 0.478D+00
 Coeff:     -0.290D-02 0.322D-01-0.218D-03 0.187D+00 0.306D+00 0.478D+00
 Gap=     0.184 Goal=   None    Shift=    0.000
 RMSDP=4.08D-06 MaxDP=8.78D-05 DE=-1.66D-06 OVMax= 1.90D-04

 Initial convergence to 1.0D-05 achieved.  Increase integral accuracy.
 Cycle   7  Pass 1  IDiag  1:
 E= -705.653168021703     Delta-E=        0.000018269189 Rises=F Damp=F
 DIIS: error= 1.43D-05 at cycle   1 NSaved=   1.
 NSaved= 1 IEnMin= 1 EnMin= -705.653168021703     IErMin= 1 ErrMin= 1.43D-05
 ErrMax= 1.43D-05 EMaxC= 1.00D-01 BMatC= 5.09D-08 BMatP= 5.09D-08
 IDIUse=1 WtCom= 1.00D+00 WtEn= 0.00D+00
 Coeff-Com:  0.100D+01
 Coeff:      0.100D+01
 Gap=     0.184 Goal=   None    Shift=    0.000
 RMSDP=4.08D-06 MaxDP=8.78D-05 DE= 1.83D-05 OVMax= 1.57D-04

 Cycle   8  Pass 1  IDiag  1:
 E= -705.653168024871     Delta-E=       -0.000000003168 Rises=F Damp=F
 DIIS: error= 2.42D-05 at cycle   2 NSaved=   2.
 NSaved= 2 IEnMin= 2 EnMin= -705.653168024871     IErMin= 1 ErrMin= 1.43D-05
 ErrMax= 2.42D-05 EMaxC= 1.00D-01 BMatC= 5.45D-08 BMatP= 5.09D-08
 IDIUse=1 WtCom= 1.00D+00 WtEn= 0.00D+00
 Coeff-Com:  0.511D+00 0.489D+00
 Coeff:      0.511D+00 0.489D+00
 Gap=     0.184 Goal=   None    Shift=    0.000
 RMSDP=3.15D-06 MaxDP=9.24D-05 DE=-3.17D-09 OVMax= 1.62D-04

 Cycle   9  Pass 1  IDiag  1:
 E= -705.653168069636     Delta-E=       -0.000000044766 Rises=F Damp=F
 DIIS: error= 1.36D-05 at cycle   3 NSaved=   3.
 NSaved= 3 IEnMin= 3 EnMin= -705.653168069636     IErMin= 3 ErrMin= 1.36D-05
 ErrMax= 1.36D-05 EMaxC= 1.00D-01 BMatC= 1.55D-08 BMatP= 5.09D-08
 IDIUse=1 WtCom= 1.00D+00 WtEn= 0.00D+00
 Coeff-Com:  0.309D-01 0.343D+00 0.627D+00
 Coeff:      0.309D-01 0.343D+00 0.627D+00
 Gap=     0.184 Goal=   None    Shift=    0.000
 RMSDP=1.22D-06 MaxDP=2.62D-05 DE=-4.48D-08 OVMax= 7.04D-05

 Cycle  10  Pass 1  IDiag  1:
 E= -705.653168086186     Delta-E=       -0.000000016550 Rises=F Damp=F
 DIIS: error= 2.94D-06 at cycle   4 NSaved=   4.
 NSaved= 4 IEnMin= 4 EnMin= -705.653168086186     IErMin= 4 ErrMin= 2.94D-06
 ErrMax= 2.94D-06 EMaxC= 1.00D-01 BMatC= 1.47D-09 BMatP= 1.55D-08
 IDIUse=1 WtCom= 1.00D+00 WtEn= 0.00D+00
 Coeff-Com: -0.144D-01 0.179D+00 0.389D+00 0.447D+00
 Coeff:     -0.144D-01 0.179D+00 0.389D+00 0.447D+00
 Gap=     0.184 Goal=   None    Shift=    0.000
 RMSDP=3.16D-07 MaxDP=9.37D-06 DE=-1.65D-08 OVMax= 1.26D-05

 Cycle  11  Pass 1  IDiag  1:
 E= -705.653168087393     Delta-E=       -0.000000001207 Rises=F Damp=F
 DIIS: error= 6.60D-07 at cycle   5 NSaved=   5.
 NSaved= 5 IEnMin= 5 EnMin= -705.653168087393     IErMin= 5 ErrMin= 6.60D-07
 ErrMax= 6.60D-07 EMaxC= 1.00D-01 BMatC= 7.65D-11 BMatP= 1.47D-09
 IDIUse=1 WtCom= 1.00D+00 WtEn= 0.00D+00
 Coeff-Com: -0.854D-02 0.673D-01 0.164D+00 0.252D+00 0.526D+00
 Coeff:     -0.854D-02 0.673D-01 0.164D+00 0.252D+00 0.526D+00
 Gap=     0.184 Goal=   None    Shift=    0.000
 RMSDP=8.30D-08 MaxDP=2.04D-06 DE=-1.21D-09 OVMax= 3.09D-06

 Cycle  12  Pass 1  IDiag  1:
 E= -705.653168087452     Delta-E=       -0.000000000058 Rises=F Damp=F
 DIIS: error= 2.28D-07 at cycle   6 NSaved=   6.
 NSaved= 6 IEnMin= 6 EnMin= -705.653168087452     IErMin= 6 ErrMin= 2.28D-07
 ErrMax= 2.28D-07 EMaxC= 1.00D-01 BMatC= 1.13D-11 BMatP= 7.65D-11
 IDIUse=1 WtCom= 1.00D+00 WtEn= 0.00D+00
 Coeff-Com: -0.423D-02 0.250D-01 0.681D-01 0.120D+00 0.332D+00 0.459D+00
 Coeff:     -0.423D-02 0.250D-01 0.681D-01 0.120D+00 0.332D+00 0.459D+00
 Gap=     0.184 Goal=   None    Shift=    0.000
 RMSDP=2.86D-08 MaxDP=7.78D-07 DE=-5.82D-11 OVMax= 1.10D-06

 Cycle  13  Pass 1  IDiag  1:
 E= -705.653168087456     Delta-E=       -0.000000000005 Rises=F Damp=F
 DIIS: error= 5.33D-08 at cycle   7 NSaved=   7.
 NSaved= 7 IEnMin= 7 EnMin= -705.653168087456     IErMin= 7 ErrMin= 5.33D-08
 ErrMax= 5.33D-08 EMaxC= 1.00D-01 BMatC= 4.76D-13 BMatP= 1.13D-11
 IDIUse=1 WtCom= 1.00D+00 WtEn= 0.00D+00
 Coeff-Com: -0.947D-03 0.387D-02 0.130D-01 0.265D-01 0.784D-01 0.208D+00
 Coeff-Com:  0.671D+00
 Coeff:     -0.947D-03 0.387D-02 0.130D-01 0.265D-01 0.784D-01 0.208D+00
 Coeff:      0.671D+00
 Gap=     0.184 Goal=   None    Shift=    0.000
 RMSDP=8.75D-09 MaxDP=1.63D-07 DE=-4.55D-12 OVMax= 4.15D-07

 SCF Done:  E(RB3LYP) =  -705.653168087     A.U. after   13 cycles
             Convg  =    0.8754D-08             -V/T =  2.0060
 KE= 7.014450068481D+02 PE=-2.483935095372D+03 EE= 6.653372291675D+02
 Leave Link  502 at Mon Oct  4 08:16:10 2021, MaxMem=  536870912 cpu:      43.4
 (Enter /sw/target/amd/app/gaussian/Gaussian09RevA.02_gcc-4.9.2/g09/l508.exe)
 QCSCF skips out because SCF is already converged.
 Leave Link  508 at Mon Oct  4 08:16:10 2021, MaxMem=  536870912 cpu:       0.0
 (Enter /sw/target/amd/app/gaussian/Gaussian09RevA.02_gcc-4.9.2/g09/l701.exe)
 Compute integral first derivatives.
 ... and contract with generalized density number  0.
 Leave Link  701 at Mon Oct  4 08:16:12 2021, MaxMem=  536870912 cpu:       0.5
 (Enter /sw/target/amd/app/gaussian/Gaussian09RevA.02_gcc-4.9.2/g09/l702.exe)
 L702 exits ... SP integral derivatives will be done elsewhere.
 Leave Link  702 at Mon Oct  4 08:16:13 2021, MaxMem=  536870912 cpu:       0.1
 (Enter /sw/target/amd/app/gaussian/Gaussian09RevA.02_gcc-4.9.2/g09/l703.exe)
 Compute integral first derivatives, UseDBF=F ICtDFT=           0.
 Integral derivatives from FoFDir, PRISM(SPDF).
 Calling FoFJK, ICntrl=      2127 FMM=F ISym2X=0 I1Cent= 0 IOpClX= 0 NMat=1 NMatS=1 NMatT=0.
 FoFCou: FMM=F IPFlag=           0 FMFlag=      100000 FMFlg1=         800
         NFxFlg=           0 DoJE=F BraDBF=F KetDBF=F FulRan=T
         Omega=  0.000000  0.000000  1.000000  0.000000  0.000000 ICntrl=    2127 IOpCl=  0
         NMat0=    1 NMatS0=    1 NMatT0=    0 NMatD0=    1 NMtDS0=    0 NMtDT0=    0
         I1Cent=           0 NGrid=           0.
 Symmetry not used in FoFCou.
 Leave Link  703 at Mon Oct  4 08:17:18 2021, MaxMem=  536870912 cpu:      19.7
 (Enter /sw/target/amd/app/gaussian/Gaussian09RevA.02_gcc-4.9.2/g09/l716.exe)
 Dipole        =-6.92961343D-01 1.26873469D+00 4.55407725D-03
 ***** Axes restored to original set *****
 -------------------------------------------------------------------
 Center     Atomic                   Forces (Hartrees/Bohr)
 Number     Number              X              Y              Z
 -------------------------------------------------------------------
      1        6           0.001055534   -0.000267487   -0.002217706
      2        6           0.000018118   -0.001359461   -0.003251912
      3        8          -0.001963514   -0.000494613    0.001755803
      4        6          -0.004942290   -0.001415748    0.004610726
      5        6           0.002044953    0.000741839   -0.001863193
      6        6           0.001995209    0.000955595   -0.000506611
      7        6          -0.001153656    0.000595961    0.003646578
      8       16           0.002385377    0.000490184   -0.002809064
      9        1           0.000211111    0.000126252   -0.000253401
     10        1           0.000408622    0.000129911    0.000700744
     11        1           0.000184004    0.000747600    0.000449417
     12        1          -0.000350534   -0.000373841   -0.000477509
     13        1           0.000058398    0.000070017    0.000115545
     14        1           0.000048668    0.000053790    0.000100582
 -------------------------------------------------------------------
 Cartesian Forces:  Max     0.004942290 RMS     0.001673894
 Leave Link  716 at Mon Oct  4 08:17:19 2021, MaxMem=  536870912 cpu:       0.1
 (Enter /sw/target/amd/app/gaussian/Gaussian09RevA.02_gcc-4.9.2/g09/l103.exe)

 GradGradGradGradGradGradGradGradGradGradGradGradGradGradGradGradGradGrad
 Berny optimization.
 Using GEDIIS/GDIIS optimizer.
 Internal  Forces:  Max     0.003090895 RMS     0.000976103
 Search for a local minimum.
 Step number   2 out of a maximum of   72
 All quantities printed in internal units (Hartrees-Bohrs-Radians)
 RMS Force = .97610D-03 SwitMx=.10000D-02 MixMth= 2
 Mixed Optimization -- En-DIIS/RFO-DIIS
 Update second derivatives using D2CorX and points    1    2
 DE= -1.84D-03 DEPred=-1.83D-03 R= 1.00D+00
 SS=  1.41D+00  RLast= 1.21D-01 DXNew= 5.0454D-01 3.6335D-01
 Trust test= 1.00D+00 RLast= 1.21D-01 DXMaxT set to 3.63D-01
 Use linear search instead of GDIIS.
     Eigenvalues ---    0.00617   0.00888   0.01303   0.01718   0.01807
     Eigenvalues ---    0.01964   0.02072   0.02127   0.02215   0.06981
     Eigenvalues ---    0.07423   0.15682   0.16000   0.16000   0.16000
     Eigenvalues ---    0.16000   0.16236   0.22056   0.23486   0.24531
     Eigenvalues ---    0.25000   0.27315   0.30090   0.32934   0.33629
     Eigenvalues ---    0.34338   0.34423   0.34534   0.35580   0.35589
     Eigenvalues ---    0.35798   0.36889   0.41119   0.45633   0.49573
     Eigenvalues ---    0.889021000.000001000.000001000.000001000.00000
     Eigenvalues --- 1000.000001000.000001000.000001000.000001000.00000
     Eigenvalues --- 1000.000001000.000001000.000001000.000001000.00000
     Eigenvalues --- 1000.000001000.000001000.000001000.000001000.00000
     Eigenvalues --- 1000.000001000.000001000.000001000.000001000.00000
     Eigenvalues --- 1000.000001000.00000
 RFO step:  Lambda=-1.97688966D-04 EMin= 6.16717961D-03
 Quartic linear search produced a step of  0.01967.
 Iteration  1 RMS(Cart)=  0.00546655 RMS(Int)=  0.00001711
 Iteration  2 RMS(Cart)=  0.00002140 RMS(Int)=  0.00000703
 Iteration  3 RMS(Cart)=  0.00000000 RMS(Int)=  0.00000703
 Variable       Old X    -DE/DX   Delta X   Delta X   Delta X     New X
                                 (Linear)    (Quad)   (Total)
    R1        2.88129  -0.00223   0.00050  -0.00641  -0.00591   2.87538
    R2        2.06287   0.00008  -0.00010   0.00005  -0.00005   2.06282
    R3        2.07152  -0.00002   0.00010   0.00013   0.00024   2.07176
    R4        2.07135  -0.00012   0.00010  -0.00018  -0.00008   2.07127
    R5        2.31622  -0.00237  -0.00025  -0.00312  -0.00337   2.31285
    R6        2.77427   0.00267   0.00032   0.00791   0.00823   2.78251
    R7        2.61403  -0.00177  -0.00003  -0.00391  -0.00394   2.61009
    R8        3.28628   0.00309   0.00083   0.01097   0.01180   3.29809
    R9        2.67991   0.00133  -0.00031   0.00242   0.00211   2.68203
   R10        2.04843   0.00025   0.00002   0.00075   0.00078   2.04920
   R11        2.60081  -0.00197   0.00002  -0.00405  -0.00403   2.59678
   R12        2.04903   0.00012   0.00003   0.00041   0.00044   2.04947
   R13        3.25059   0.00256   0.00044   0.00851   0.00895   3.25954
   R14        2.04532   0.00010   0.00003   0.00032   0.00035   2.04567
    A1        1.89473  -0.00006  -0.00032   0.00128   0.00096   1.89570
    A2        1.93697  -0.00039   0.00032  -0.00312  -0.00282   1.93415
    A3        1.94174  -0.00055   0.00035  -0.00396  -0.00362   1.93812
    A4        1.90204   0.00056   0.00021   0.00600   0.00621   1.90825
    A5        1.90285   0.00067   0.00028   0.00702   0.00730   1.91014
    A6        1.88495  -0.00019  -0.00084  -0.00681  -0.00768   1.87727
    A7        2.12364  -0.00148   0.00086  -0.00451  -0.00365   2.11998
    A8        2.05375   0.00007   0.00036   0.00093   0.00129   2.05504
    A9        2.10580   0.00141  -0.00123   0.00357   0.00234   2.10814
   A10        2.26017   0.00197  -0.00006   0.00797   0.00791   2.26807
   A11        2.08191  -0.00072  -0.00002  -0.00294  -0.00295   2.07896
   A12        1.94111  -0.00125   0.00008  -0.00503  -0.00495   1.93615
   A13        1.96905   0.00139   0.00007   0.00561   0.00568   1.97474
   A14        2.15732  -0.00137  -0.00015  -0.00728  -0.00743   2.14989
   A15        2.15681  -0.00002   0.00008   0.00167   0.00175   2.15855
   A16        1.95748   0.00030   0.00007   0.00066   0.00073   1.95821
   A17        2.16743  -0.00007  -0.00018  -0.00006  -0.00024   2.16719
   A18        2.15828  -0.00023   0.00011  -0.00060  -0.00049   2.15779
   A19        1.96365  -0.00040   0.00017  -0.00148  -0.00131   1.96234
   A20        2.22462   0.00012  -0.00014   0.00012  -0.00003   2.22459
   A21        2.09492   0.00028  -0.00003   0.00136   0.00133   2.09625
   A22        1.59349  -0.00004  -0.00039   0.00024  -0.00016   1.59333
    D1        0.02587  -0.00000  -0.00011  -0.00021  -0.00032   0.02555
    D2       -3.11673  -0.00006  -0.00006  -0.00605  -0.00610  -3.12283
    D3       -2.06412  -0.00042  -0.00036  -0.00651  -0.00686  -2.07098
    D4        1.07646  -0.00047  -0.00030  -0.01235  -0.01264   1.06383
    D5        2.11976   0.00045   0.00025   0.00686   0.00709   2.12685
    D6       -1.02285   0.00040   0.00030   0.00103   0.00132  -1.02153
    D7        0.00473  -0.00001  -0.00008   0.00035   0.00028   0.00501
    D8       -3.13692   0.00001  -0.00008   0.00114   0.00107  -3.13585
    D9       -3.13787  -0.00006  -0.00002  -0.00543  -0.00546   3.13986
   D10        0.00367  -0.00005  -0.00002  -0.00464  -0.00467  -0.00100
   D11       -3.14072  -0.00002   0.00003  -0.00108  -0.00105   3.14141
   D12        0.00005   0.00000  -0.00000   0.00027   0.00027   0.00032
   D13        0.00092  -0.00004   0.00003  -0.00182  -0.00179  -0.00087
   D14       -3.14149  -0.00001  -0.00000  -0.00047  -0.00047   3.14122
   D15        3.14106   0.00001  -0.00001   0.00052   0.00050   3.14156
   D16       -0.00058   0.00002  -0.00002   0.00117   0.00115   0.00058
   D17       -0.00087   0.00003  -0.00004   0.00167   0.00164   0.00078
   D18        3.14122   0.00002  -0.00002   0.00104   0.00102  -3.14095
   D19        3.14155   0.00001  -0.00000   0.00033   0.00033  -3.14131
   D20        0.00044  -0.00001   0.00001  -0.00030  -0.00029   0.00015
   D21        0.00042  -0.00002   0.00002  -0.00077  -0.00074  -0.00032
   D22       -3.14144  -0.00001   0.00001  -0.00021  -0.00020   3.14155
   D23        3.14152  -0.00000   0.00001  -0.00014  -0.00012   3.14140
   D24       -0.00033   0.00001   0.00000   0.00041   0.00042   0.00008
   D25        0.00009  -0.00000  -0.00001  -0.00022  -0.00023  -0.00014
   D26       -3.14127  -0.00001   0.00000  -0.00073  -0.00072   3.14120
         Item               Value     Threshold  Converged?
 Maximum Force            0.003091     0.000450     NO 
 RMS     Force            0.000976     0.000300     NO 
 Maximum Displacement     0.017086     0.001800     NO 
 RMS     Displacement     0.005456     0.001200     NO 
 Predicted change in Energy=-9.956060D-05
 GradGradGradGradGradGradGradGradGradGradGradGradGradGradGradGradGradGrad

 Leave Link  103 at Mon Oct  4 08:17:23 2021, MaxMem=  536870912 cpu:       0.8
 (Enter /sw/target/amd/app/gaussian/Gaussian09RevA.02_gcc-4.9.2/g09/l202.exe)
                          Input orientation:                          
 ---------------------------------------------------------------------
 Center     Atomic      Atomic             Coordinates (Angstroms)
 Number     Number       Type             X           Y           Z
 ---------------------------------------------------------------------
      1          6           0        1.311205   -0.655949    0.201415
      2          6           0        2.632511    0.024342   -0.125033
      3          8           0        3.133428   -0.054170   -1.238975
      4          6           0        3.290641    0.792663    0.944838
      5          6           0        2.899731    1.006839    2.252135
      6          6           0        3.812268    1.811948    2.982475
      7          6           0        4.886859    2.201208    2.219561
      8         16           0        4.803434    1.594716    0.606987
      9          1           0        0.968289   -1.194245   -0.684152
     10          1           0        0.554697    0.081926    0.493262
     11          1           0        1.425776   -1.359221    1.034272
     12          1           0        1.987575    0.598740    2.673240
     13          1           0        3.681412    2.090759    4.022356
     14          1           0        5.724230    2.814887    2.526247
 ---------------------------------------------------------------------
                    Distance matrix (angstroms):
                    1          2          3          4          5
     1  C    0.000000
     2  C    1.521583   0.000000
     3  O    2.399450   1.223907   0.000000
     4  C    2.563069   1.472439   2.347526   0.000000
     5  C    3.081190   2.586046   3.656256   1.381199   0.000000
     6  C    4.481085   3.774118   4.665175   2.337307   1.419267
     7  C    5.002156   3.913815   4.485835   2.481296   2.318675
     8  S    4.174404   2.777559   2.985854   1.745272   2.583834
     9  H    1.091597   2.137102   2.509069   3.463341   4.146930
    10  H    1.096330   2.168621   3.109505   2.862596   3.073806
    11  H    1.096069   2.171277   3.128400   2.848916   3.042035
    12  H    2.853356   2.928516   4.128523   2.173238   1.084391
    13  H    5.268954   4.750906   5.708118   3.362867   2.218015
    14  H    6.076705   4.937120   5.396355   3.537316   3.364814
                    6          7          8          9         10
     6  C    0.000000
     7  C    1.374157   0.000000
     8  S    2.583126   1.724873   0.000000
     9  H    5.528975   5.942713   4.914640   0.000000
[...]
                 (A) (A) (A) (A) (A) (A) (A) (A) (A) (A) (A) (A)
                 (A) (A) (A) (A) (A) (A) (A) (A) (A) (A) (A) (A)
                 (A) (A) (A) (A) (A) (A) (A) (A) (A) (A) (A) (A)
                 (A) (A) (A) (A) (A) (A) (A) (A) (A) (A) (A) (A)
                 (A) (A) (A) (A) (A) (A) (A) (A) (A) (A) (A) (A)
                 (A) (A) (A) (A) (A) (A) (A)
 The electronic state is 1-A.
 Alpha  occ. eigenvalues --  -88.91678 -19.13560 -10.28187 -10.22964 -10.22416
 Alpha  occ. eigenvalues --  -10.21240 -10.20591 -10.19310  -7.97741  -5.94136
 Alpha  occ. eigenvalues --   -5.93765  -5.93471  -1.03558  -0.88908  -0.76908
 Alpha  occ. eigenvalues --   -0.74568  -0.72261  -0.61539  -0.56870  -0.53500
 Alpha  occ. eigenvalues --   -0.49633  -0.44669  -0.44660  -0.43608  -0.40976
 Alpha  occ. eigenvalues --   -0.39386  -0.39106  -0.38297  -0.35409  -0.35181
 Alpha  occ. eigenvalues --   -0.26255  -0.25209  -0.24681
 Alpha virt. eigenvalues --   -0.06205   0.02258   0.03126   0.08145   0.08894
 Alpha virt. eigenvalues --    0.09984   0.11437   0.15303   0.16158   0.16995
 Alpha virt. eigenvalues --    0.17877   0.20570   0.24682   0.26951   0.28195
 Alpha virt. eigenvalues --    0.33700   0.36214   0.36490   0.39318   0.42794
 Alpha virt. eigenvalues --    0.43381   0.49313   0.52389   0.52397   0.54079
 Alpha virt. eigenvalues --    0.57442   0.58410   0.59979   0.62653   0.63523
 Alpha virt. eigenvalues --    0.64132   0.66689   0.68126   0.72855   0.78830
 Alpha virt. eigenvalues --    0.78841   0.79322   0.81442   0.82857   0.85148
 Alpha virt. eigenvalues --    0.85691   0.86898   0.87510   0.90733   0.91429
 Alpha virt. eigenvalues --    0.95028   0.96138   0.99926   1.00583   1.03092
 Alpha virt. eigenvalues --    1.03489   1.08019   1.12862   1.14323   1.21046
 Alpha virt. eigenvalues --    1.28442   1.30537   1.31586   1.38656   1.41670
 Alpha virt. eigenvalues --    1.42139   1.44325   1.49870   1.61104   1.63622
 Alpha virt. eigenvalues --    1.71344   1.76094   1.79281   1.80611   1.88272
 Alpha virt. eigenvalues --    1.89601   1.93310   1.94442   1.95345   2.01839
 Alpha virt. eigenvalues --    2.05675   2.08365   2.15708   2.20834   2.22301
 Alpha virt. eigenvalues --    2.24657   2.25112   2.27272   2.37931   2.41129
 Alpha virt. eigenvalues --    2.48339   2.49512   2.57993   2.59896   2.65261
 Alpha virt. eigenvalues --    2.76861   2.87387   2.96338   3.04506   3.08805
 Alpha virt. eigenvalues --    3.93769   3.95323   4.08771   4.10649   4.19228
 Alpha virt. eigenvalues --    4.30452   4.41538   4.55287
          Condensed to atoms (all electrons):
              1          2          3          4          5          6
     1  C    5.173451   0.350050  -0.049554  -0.051713  -0.012638   0.000077
     2  C    0.350050   4.647796   0.318880   0.494159  -0.038818   0.005213
     3  O   -0.049554   0.318880   8.062661  -0.042656   0.004139  -0.000075
     4  C   -0.051713   0.494159  -0.042656   5.158273   0.491210  -0.025729
     5  C   -0.012638  -0.038818   0.004139   0.491210   4.984945   0.531913
     6  C    0.000077   0.005213  -0.000075  -0.025729   0.531913   4.797772
     7  C   -0.000058   0.003704   0.000052  -0.041363  -0.063981   0.568438
     8  S    0.003985  -0.071593   0.005552   0.285572  -0.077578  -0.076628
     9  H    0.361873  -0.025503  -0.000882   0.004290   0.000232  -0.000001
    10  H    0.365785  -0.027332   0.001367  -0.006048   0.003168  -0.000004
    11  H    0.365784  -0.027335   0.001367  -0.006047   0.003168  -0.000004
    12  H    0.003806  -0.008561   0.000030  -0.053493   0.360783  -0.043236
    13  H   -0.000002  -0.000114   0.000000   0.004868  -0.038090   0.361400
    14  H    0.000001  -0.000077  -0.000000   0.002345   0.004821  -0.022536
              7          8          9         10         11         12
     1  C   -0.000058   0.003985   0.361873   0.365785   0.365784   0.003806
     2  C    0.003704  -0.071593  -0.025503  -0.027332  -0.027335  -0.008561
     3  O    0.000052   0.005552  -0.000882   0.001367   0.001367   0.000030
     4  C   -0.041363   0.285572   0.004290  -0.006048  -0.006047  -0.053493
     5  C   -0.063981  -0.077578   0.000232   0.003168   0.003168   0.360783
     6  C    0.568438  -0.076628  -0.000001  -0.000004  -0.000004  -0.043236
     7  C    5.284552   0.294668   0.000001  -0.000007  -0.000007   0.006829
     8  S    0.294668  15.415736  -0.000102   0.000122   0.000122   0.007144
     9  H    0.000001  -0.000102   0.520338  -0.023565  -0.023567   0.000010
    10  H   -0.000007   0.000122  -0.023565   0.521073  -0.036833   0.000751
    11  H   -0.000007   0.000122  -0.023567  -0.036833   0.521082   0.000750
    12  H    0.006829   0.007144   0.000010   0.000751   0.000750   0.605834
    13  H   -0.048866   0.006770   0.000000   0.000000   0.000000  -0.002644
    14  H    0.357100  -0.036653  -0.000000   0.000000   0.000000  -0.000122
             13         14
     1  C   -0.000002   0.000001
     2  C   -0.000114  -0.000077
     3  O    0.000000  -0.000000
     4  C    0.004868   0.002345
     5  C   -0.038090   0.004821
     6  C    0.361400  -0.022536
     7  C   -0.048866   0.357100
     8  S    0.006770  -0.036653
     9  H    0.000000  -0.000000
    10  H    0.000000   0.000000
    11  H    0.000000   0.000000
    12  H   -0.002644  -0.000122
    13  H    0.581572  -0.003445
    14  H   -0.003445   0.535256
 Mulliken atomic charges:
              1
     1  C   -0.510845
     2  C    0.379533
     3  O   -0.300881
     4  C   -0.213667
     5  C   -0.153273
     6  C   -0.096598
     7  C   -0.361061
     8  S    0.242887
     9  H    0.186877
    10  H    0.201523
    11  H    0.201522
    12  H    0.122120
    13  H    0.138551
    14  H    0.163311
 Sum of Mulliken atomic charges =   0.00000
 Mulliken charges with hydrogens summed into heavy atoms:
              1
     1  C    0.079077
     2  C    0.379533
     3  O   -0.300881
     4  C   -0.213667
     5  C   -0.031152
     6  C    0.041953
     7  C   -0.197750
     8  S    0.242887
 Sum of Mulliken charges with hydrogens summed into heavy atoms =   0.00000
 Electronic spatial extent (au):  <R**2>=           1114.5676
 Charge=              0.0000 electrons
 Dipole moment (field-independent basis, Debye):
    X=             -1.4887    Y=              2.3207    Z=              0.0000  Tot=              2.7571
 Quadrupole moment (field-independent basis, Debye-Ang):
   XX=            -44.4447   YY=            -52.4187   ZZ=            -56.2289
   XY=             -3.9839   XZ=              0.0001   YZ=              0.0000
 Traceless Quadrupole moment (field-independent basis, Debye-Ang):
   XX=              6.5861   YY=             -1.3879   ZZ=             -5.1981
   XY=             -3.9839   XZ=              0.0001   YZ=              0.0000
 Octapole moment (field-independent basis, Debye-Ang**2):
  XXX=             -9.8386  YYY=              4.2112  ZZZ=              0.0003  XYY=              0.1951
  XXY=              6.9366  XXZ=              0.0001  XZZ=             -8.0479  YZZ=             -1.9714
  YYZ=             -0.0001  XYZ=             -0.0000
 Hexadecapole moment (field-independent basis, Debye-Ang**3):
 XXXX=           -883.4191 YYYY=           -407.5511 ZZZZ=            -66.6953 XXXY=            -14.7382
 XXXZ=              0.0013 YYYX=              3.9660 YYYZ=             -0.0004 ZZZX=             -0.0008
 ZZZY=              0.0002 XXYY=           -225.3777 XXZZ=           -185.1126 YYZZ=            -84.2361
 XXYZ=              0.0006 YYXZ=              0.0003 ZZXY=             -1.4709
 N-N= 4.110540846245D+02 E-N=-2.482924030899D+03  KE= 7.015195340832D+02
 No NMR shielding tensors so no spin-rotation constants.
 Leave Link  601 at Mon Oct  4 10:30:05 2021, MaxMem=  536870912 cpu:       0.5
 (Enter /sw/target/amd/app/gaussian/Gaussian09RevA.02_gcc-4.9.2/g09/l604.exe)
 Evaluate density.
 Using the total density.
 Monte-Carlo method of calculating molar volume:
 based on  0.001 e/bohr**3 density envelope.
 Number of points per bohr**3 =   20 CutOff= 1.00D-04
 Using the CI density.
 There are       392 points.  Will hold       392 in memory.
 LenV=   536797400 MDV=   536870912.
 Box volume = 7586.681 fraction occupied=0.140
 Integrated density= 6.0946576400598005D+01 error=-5.0534235994019951D+00
 Molar volume = 1064.458 bohr**3/mol ( 94.991 cm**3/mol)
 Recommended a0 for SCRF calculation =  4.19 angstrom (  7.92 bohr)
 Leave Link  604 at Mon Oct  4 10:30:06 2021, MaxMem=  536870912 cpu:       0.2
 (Enter /sw/target/amd/app/gaussian/Gaussian09RevA.02_gcc-4.9.2/g09/l607.exe)
 ******************************Gaussian NBO Version 3.1******************************
             N A T U R A L   A T O M I C   O R B I T A L   A N D
          N A T U R A L   B O N D   O R B I T A L   A N A L Y S I S
 ******************************Gaussian NBO Version 3.1******************************
       /RESON  / : Allow strongly delocalized NBO set

 Analyzing the CI density

 Job title: CC(=O)c1cccs1_conf_0                                            

 Storage needed:     56226 in NPA ( 536869792 available)


 NATURAL POPULATIONS:  Natural atomic orbital occupancies 
                                                          
   NAO  Atom  No  lang   Type(AO)    Occupancy
 --------------------------------------------
     1    C    1  S      Cor( 1S)     1.99933
     2    C    1  S      Val( 2S)     1.13025
     3    C    1  S      Ryd( 3S)     0.00012
     4    C    1  S      Ryd( 4S)     0.00001
     5    C    1  px     Val( 2p)     1.17147
     6    C    1  px     Ryd( 3p)     0.00150
     7    C    1  py     Val( 2p)     1.12918
     8    C    1  py     Ryd( 3p)     0.00140
     9    C    1  pz     Val( 2p)     1.26676
    10    C    1  pz     Ryd( 3p)     0.00007
    11    C    1  dxy    Ryd( 3d)     0.00081
    12    C    1  dxz    Ryd( 3d)     0.00032
    13    C    1  dyz    Ryd( 3d)     0.00112
    14    C    1  dx2y2  Ryd( 3d)     0.00047
    15    C    1  dz2    Ryd( 3d)     0.00072

    16    C    2  S      Cor( 1S)     1.99919
    17    C    2  S      Val( 2S)     0.83308
    18    C    2  S      Ryd( 3S)     0.00419
    19    C    2  S      Ryd( 4S)     0.00017
    20    C    2  px     Val( 2p)     1.00190
    21    C    2  px     Ryd( 3p)     0.00333
    22    C    2  py     Val( 2p)     0.80701
    23    C    2  py     Ryd( 3p)     0.01562
    24    C    2  pz     Val( 2p)     0.95412
    25    C    2  pz     Ryd( 3p)     0.00295
    26    C    2  dxy    Ryd( 3d)     0.00125
    27    C    2  dxz    Ryd( 3d)     0.00097
    28    C    2  dyz    Ryd( 3d)     0.00191
    29    C    2  dx2y2  Ryd( 3d)     0.00129
    30    C    2  dz2    Ryd( 3d)     0.00035

    31    O    3  S      Cor( 1S)     1.99982
    32    O    3  S      Val( 2S)     1.70522
    33    O    3  S      Ryd( 3S)     0.00011
    34    O    3  S      Ryd( 4S)     0.00001
    35    O    3  px     Val( 2p)     1.18347
    36    O    3  px     Ryd( 3p)     0.00147
    37    O    3  py     Val( 2p)     1.54888
    38    O    3  py     Ryd( 3p)     0.00030
    39    O    3  pz     Val( 2p)     1.79018
    40    O    3  pz     Ryd( 3p)     0.00305
    41    O    3  dxy    Ryd( 3d)     0.00320
    42    O    3  dxz    Ryd( 3d)     0.00049
    43    O    3  dyz    Ryd( 3d)     0.00428
    44    O    3  dx2y2  Ryd( 3d)     0.00352
    45    O    3  dz2    Ryd( 3d)     0.00129

    46    C    4  S      Cor( 1S)     1.99885
    47    C    4  S      Val( 2S)     0.95593
    48    C    4  S      Ryd( 3S)     0.00211
    49    C    4  S      Ryd( 4S)     0.00006
    50    C    4  px     Val( 2p)     1.03788
    51    C    4  px     Ryd( 3p)     0.00356
    52    C    4  py     Val( 2p)     1.09289
    53    C    4  py     Ryd( 3p)     0.00666
    54    C    4  pz     Val( 2p)     1.23915
    55    C    4  pz     Ryd( 3p)     0.00095
    56    C    4  dxy    Ryd( 3d)     0.00121
    57    C    4  dxz    Ryd( 3d)     0.00090
    58    C    4  dyz    Ryd( 3d)     0.00087
    59    C    4  dx2y2  Ryd( 3d)     0.00071
    60    C    4  dz2    Ryd( 3d)     0.00076

    61    C    5  S      Cor( 1S)     1.99893
    62    C    5  S      Val( 2S)     0.95000
    63    C    5  S      Ryd( 3S)     0.00091
    64    C    5  S      Ryd( 4S)     0.00004
    65    C    5  px     Val( 2p)     1.08032
    66    C    5  px     Ryd( 3p)     0.00412
    67    C    5  py     Val( 2p)     1.16040
    68    C    5  py     Ryd( 3p)     0.00450
    69    C    5  pz     Val( 2p)     1.09479
    70    C    5  pz     Ryd( 3p)     0.00301
    71    C    5  dxy    Ryd( 3d)     0.00087
    72    C    5  dxz    Ryd( 3d)     0.00057
    73    C    5  dyz    Ryd( 3d)     0.00041
    74    C    5  dx2y2  Ryd( 3d)     0.00053
    75    C    5  dz2    Ryd( 3d)     0.00045

    76    C    6  S      Cor( 1S)     1.99901
    77    C    6  S      Val( 2S)     0.96701
    78    C    6  S      Ryd( 3S)     0.00092
    79    C    6  S      Ryd( 4S)     0.00005
    80    C    6  px     Val( 2p)     1.09807
    81    C    6  px     Ryd( 3p)     0.00491
    82    C    6  py     Val( 2p)     1.15486
    83    C    6  py     Ryd( 3p)     0.00512
    84    C    6  pz     Val( 2p)     1.03783
    85    C    6  pz     Ryd( 3p)     0.00091
    86    C    6  dxy    Ryd( 3d)     0.00083
    87    C    6  dxz    Ryd( 3d)     0.00064
    88    C    6  dyz    Ryd( 3d)     0.00059
    89    C    6  dx2y2  Ryd( 3d)     0.00060
    90    C    6  dz2    Ryd( 3d)     0.00044

    91    C    7  S      Cor( 1S)     1.99908
    92    C    7  S      Val( 2S)     1.04703
    93    C    7  S      Ryd( 3S)     0.00120
    94    C    7  S      Ryd( 4S)     0.00005
    95    C    7  px     Val( 2p)     1.16798
    96    C    7  px     Ryd( 3p)     0.00403
    97    C    7  py     Val( 2p)     1.06859
    98    C    7  py     Ryd( 3p)     0.00535
    99    C    7  pz     Val( 2p)     1.16538
   100    C    7  pz     Ryd( 3p)     0.00179
   101    C    7  dxy    Ryd( 3d)     0.00147
   102    C    7  dxz    Ryd( 3d)     0.00064
   103    C    7  dyz    Ryd( 3d)     0.00073
   104    C    7  dx2y2  Ryd( 3d)     0.00064
   105    C    7  dz2    Ryd( 3d)     0.00082

   106    S    8  S      Cor( 1S)     2.00000
   107    S    8  S      Cor( 2S)     1.99935
   108    S    8  S      Val( 3S)     1.62095
   109    S    8  S      Ryd( 4S)     0.00668
   110    S    8  S      Ryd( 5S)     0.00001
   111    S    8  px     Cor( 2p)     1.99987
   112    S    8  px     Val( 3p)     0.89293
   113    S    8  px     Ryd( 4p)     0.00565
   114    S    8  py     Cor( 2p)     1.99985
   115    S    8  py     Val( 3p)     1.32243
   116    S    8  py     Ryd( 4p)     0.00154
   117    S    8  pz     Cor( 2p)     1.99995
   118    S    8  pz     Val( 3p)     1.68842
   119    S    8  pz     Ryd( 4p)     0.00747
   120    S    8  dxy    Ryd( 3d)     0.00962
   121    S    8  dxz    Ryd( 3d)     0.00499
   122    S    8  dyz    Ryd( 3d)     0.00338
   123    S    8  dx2y2  Ryd( 3d)     0.00229
   124    S    8  dz2    Ryd( 3d)     0.00291

   125    H    9  S      Val( 1S)     0.74067
   126    H    9  S      Ryd( 2S)     0.00104

   127    H   10  S      Val( 1S)     0.73440
   128    H   10  S      Ryd( 2S)     0.00116

   129    H   11  S      Val( 1S)     0.73440
   130    H   11  S      Ryd( 2S)     0.00116

   131    H   12  S      Val( 1S)     0.76287
   132    H   12  S      Ryd( 2S)     0.00065

   133    H   13  S      Val( 1S)     0.75253
   134    H   13  S      Ryd( 2S)     0.00059

   135    H   14  S      Val( 1S)     0.74668
   136    H   14  S      Ryd( 2S)     0.00053

 WARNING:  1 low occupancy (<1.9990e) core orbital  found on  C    4
           1 low occupancy (<1.9990e) core orbital  found on  C    5


 Summary of Natural Population Analysis:                  
                                                          
                                       Natural Population 
                Natural  -----------------------------------------------
    Atom  No    Charge         Core      Valence    Rydberg      Total
 -----------------------------------------------------------------------
      C    1   -0.70350      1.99933     4.69765    0.00653     6.70350
      C    2    0.37268      1.99919     3.59612    0.03202     5.62732
      O    3   -0.24530      1.99982     6.22776    0.01773     8.24530
      C    4   -0.34250      1.99885     4.32585    0.01780     6.34250
      C    5   -0.29984      1.99893     4.28551    0.01540     6.29984
      C    6   -0.27179      1.99901     4.25777    0.01501     6.27179
      C    7   -0.46477      1.99908     4.44898    0.01672     6.46477
      S    8    0.43172      9.99902     5.52473    0.04453    15.56828
      H    9    0.25829      0.00000     0.74067    0.00104     0.74171
      H   10    0.26445      0.00000     0.73440    0.00116     0.73555
      H   11    0.26445      0.00000     0.73440    0.00116     0.73555
      H   12    0.23648      0.00000     0.76287    0.00065     0.76352
      H   13    0.24687      0.00000     0.75253    0.00059     0.75313
      H   14    0.25279      0.00000     0.74668    0.00053     0.74721
 =======================================================================
   * Total *    0.00000     23.99321    41.83592    0.17087    66.00000

                                 Natural Population      
 --------------------------------------------------------
   Core                      23.99321 ( 99.9717% of  24)
   Valence                   41.83592 ( 99.6093% of  42)
   Natural Minimal Basis     65.82913 ( 99.7411% of  66)
   Natural Rydberg Basis      0.17087 (  0.2589% of  66)
 --------------------------------------------------------

    Atom  No          Natural Electron Configuration
 ----------------------------------------------------------------------------
      C    1      [core]2S( 1.13)2p( 3.57)
      C    2      [core]2S( 0.83)2p( 2.76)3p( 0.02)3d( 0.01)
      O    3      [core]2S( 1.71)2p( 4.52)3d( 0.01)
      C    4      [core]2S( 0.96)2p( 3.37)3p( 0.01)
      C    5      [core]2S( 0.95)2p( 3.34)3p( 0.01)
      C    6      [core]2S( 0.97)2p( 3.29)3p( 0.01)
      C    7      [core]2S( 1.05)2p( 3.40)3p( 0.01)
      S    8      [core]3S( 1.62)3p( 3.90)4S( 0.01)3d( 0.02)4p( 0.01)
      H    9            1S( 0.74)
      H   10            1S( 0.73)
      H   11            1S( 0.73)
      H   12            1S( 0.76)
      H   13            1S( 0.75)
      H   14            1S( 0.75)


 NBO analysis skipped by request.
 Leave Link  607 at Mon Oct  4 10:30:36 2021, MaxMem=  536870912 cpu:       6.8
 (Enter /sw/target/amd/app/gaussian/Gaussian09RevA.02_gcc-4.9.2/g09/l9999.exe)
 1\1\GINC-HERMITE\SP\RTD-B3LYP-FC\6-31G(d)\C6H6O1S1\JSCHLEINITZ\04-Oct-
 2021\0\\#p TD(NStates=10, Root=1) b3lyp/6-31G* volume pop=NPA density=
 current Geom=AllCheck Guess=Read\\CC(=O)c1cccs1_conf_0\\0,1\C,0,1.3127
 785567,-0.6571686377,0.2000768048\C,0,2.6321532929,0.0247487397,-0.125
 7918436\O,0,3.1376370804,-0.0570389364,-1.2371835659\C,0,3.2866857468,
 0.7924081712,0.9473887264\C,0,2.8962006162,1.0108439616,2.2524710816\C
 ,0,3.8110066668,1.8158108887,2.9818668545\C,0,4.8870315069,2.199359960
 1,2.2197079089\S,0,4.805008157,1.5891844155,0.6069668319\H,0,0.9590597
 616,-1.1798507703,-0.6903128824\H,0,0.56116344,0.0763270905,0.51460880
 39\H,0,1.4360886691,-1.3753253161,1.0191752724\H,0,1.9822333992,0.6065
 610199,2.6740648435\H,0,3.6787725037,2.0973414277,4.0208032617\H,0,5.7
 262355726,2.8112405087,2.524784702\\Version=AM64L-G09RevA.02\State=1-A
 \HF=-705.6532973\RMSD=6.161e-09\Dipole=-0.9268722,-0.4334426,0.3601236
 \Quadrupole=2.6041993,-0.7020858,-1.9021135,4.3762557,1.3726708,1.5096
 949\PG=C01 [X(C6H6O1S1)]\\@


 THE MORE POWERFUL THE METHOD, THE MORE CATASTROPHIC THE ERRORS.
     -- M.D. KAMEN
 Job cpu time:  0 days  0 hours 23 minutes 19.8 seconds.
 File lengths (MBytes):  RWF=     58 Int=      0 D2E=      0 Chk=      9 Scr=      1
 Normal termination of Gaussian 09 at Mon Oct  4 10:30:58 2021.
