 Entering Gaussian System, Link 0=g09
 Input=C6H7BO2_e176_conf_0.com
 Output=C6H7BO2_e176_conf_0.log
 Initial command:
 /sw/target/amd/app/gaussian/Gaussian09RevA.02_gcc-4.9.2/g09/l1.exe /home/jschleinitz/gaussian/Gau-800089.inp -scrdir=/home/jschleinitz/gaussian/
 Entering Link 1 = /sw/target/amd/app/gaussian/Gaussian09RevA.02_gcc-4.9.2/g09/l1.exe PID=    800247.
  
 Copyright (c) 1988,1990,1992,1993,1995,1998,2003,2009, Gaussian, Inc.
                  All Rights Reserved.
  
 This is part of the Gaussian(R) 09 program.  It is based on
 the Gaussian(R) 03 system (copyright 2003, Gaussian, Inc.),
 the Gaussian(R) 98 system (copyright 1998, Gaussian, Inc.),
 the Gaussian(R) 94 system (copyright 1995, Gaussian, Inc.),
 the Gaussian 92(TM) system (copyright 1992, Gaussian, Inc.),
 the Gaussian 90(TM) system (copyright 1990, Gaussian, Inc.),
 the Gaussian 88(TM) system (copyright 1988, Gaussian, Inc.),
 the Gaussian 86(TM) system (copyright 1986, Carnegie Mellon
 University), and the Gaussian 82(TM) system (copyright 1983,
 Carnegie Mellon University). Gaussian is a federally registered
 trademark of Gaussian, Inc.
  
 This software contains proprietary and confidential information,
 including trade secrets, belonging to Gaussian, Inc.
  
 This software is provided under written license and may be
 used, copied, transmitted, or stored only in accord with that
 written license.
  
 The following legend is applicable only to US Government
 contracts under FAR:
  
                    RESTRICTED RIGHTS LEGEND
  
 Use, reproduction and disclosure by the US Government is
 subject to restrictions as set forth in subparagraphs (a)
 and (c) of the Commercial Computer Software - Restricted
 Rights clause in FAR 52.227-19.
  
 Gaussian, Inc.
 340 Quinnipiac St., Bldg. 40, Wallingford CT 06492
  
  
 ---------------------------------------------------------------
 Warning -- This program may not be used in any manner that
 competes with the business of Gaussian, Inc. or will provide
 assistance to any competitor of Gaussian, Inc.  The licensee
 of this program is prohibited from giving any competitor of
 Gaussian, Inc. access to this program.  By using this program,
 the user acknowledges that Gaussian, Inc. is engaged in the
 business of creating and licensing software in the field of
 computational chemistry and represents and warrants to the
 licensee that it is not a competitor of Gaussian, Inc. and that
 it will not use this program in any manner prohibited above.
 ---------------------------------------------------------------
  

 Cite this work as:
 Gaussian 09, Revision A.02,
 M. J. Frisch, G. W. Trucks, H. B. Schlegel, G. E. Scuseria, 
 M. A. Robb, J. R. Cheeseman, G. Scalmani, V. Barone, B. Mennucci, 
 G. A. Petersson, H. Nakatsuji, M. Caricato, X. Li, H. P. Hratchian, 
 A. F. Izmaylov, J. Bloino, G. Zheng, J. L. Sonnenberg, M. Hada, 
 M. Ehara, K. Toyota, R. Fukuda, J. Hasegawa, M. Ishida, T. Nakajima, 
 Y. Honda, O. Kitao, H. Nakai, T. Vreven, J. A. Montgomery, Jr., 
 J. E. Peralta, F. Ogliaro, M. Bearpark, J. J. Heyd, E. Brothers, 
 K. N. Kudin, V. N. Staroverov, R. Kobayashi, J. Normand, 
 K. Raghavachari, A. Rendell, J. C. Burant, S. S. Iyengar, J. Tomasi, 
 M. Cossi, N. Rega, J. M. Millam, M. Klene, J. E. Knox, J. B. Cross, 
 V. Bakken, C. Adamo, J. Jaramillo, R. Gomperts, R. E. Stratmann, 
 O. Yazyev, A. J. Austin, R. Cammi, C. Pomelli, J. W. Ochterski, 
 R. L. Martin, K. Morokuma, V. G. Zakrzewski, G. A. Voth, 
 P. Salvador, J. J. Dannenberg, S. Dapprich, A. D. Daniels, 
 O. Farkas, J. B. Foresman, J. V. Ortiz, J. Cioslowski, 
 and D. J. Fox, Gaussian, Inc., Wallingford CT, 2009.
 
 ******************************************
 Gaussian 09:  AM64L-G09RevA.02 11-Jun-2009
                 3-Oct-2021 
 ******************************************
 %nproc=2
 Will use up to    2 processors via shared memory.
 %mem=4gb
 %chk=C6H7BO2_e176_conf_0.chk
 -----------------------------------
 #p opt b3lyp/6-31G* scf=(xqc,tight)
 -----------------------------------
 1/14=-1,18=20,19=15,26=3,38=1/1,3;
 2/9=110,12=2,17=6,18=5,40=1/2;
 3/5=1,6=6,7=1,11=2,16=1,25=1,30=1,71=1,74=-5/1,2,3;
 4//1;
 5/5=2,8=3,13=1,32=2,38=5/2,8;
 6/7=2,8=2,9=2,10=2,28=1/1;
 7//1,2,3,16;
 1/14=-1,18=20,19=15/3(2);
 2/9=110/2;
 99//99;
 2/9=110/2;
 3/5=1,6=6,7=1,11=2,16=1,25=1,30=1,71=1,74=-5/1,2,3;
 4/5=5,16=3/1;
 5/5=2,8=3,13=1,32=2,38=5/2,8;
 7//1,2,3,16;
 1/14=-1,18=20,19=15/3(-5);
 2/9=110/2;
 6/7=2,8=2,9=2,10=2,19=2,28=1/1;
 99/9=1/99;
 Leave Link    1 at Sun Oct  3 13:44:47 2021, MaxMem=  536870912 cpu:       0.1
 (Enter /sw/target/amd/app/gaussian/Gaussian09RevA.02_gcc-4.9.2/g09/l101.exe)
 --------------------
 OB(c1ccccc1)O_conf_0
 --------------------
 Symbolic Z-matrix:
 Charge =  0 Multiplicity = 1
 O                     2.74459  -1.10796  -0.97219 
 B                     2.40651   0.01181  -0.0954 
 C                     3.31166   1.30149  -0.06653 
 C                     2.98672   2.37767   0.77658 
 C                     3.79178   3.52116   0.80026 
 C                     4.92386   3.59861  -0.0151 
 C                     5.25332   2.53248  -0.85606 
 C                     4.45168   1.38668  -0.88364 
 O                     1.22032  -0.07683   0.75432 
 H                     3.32337  -1.69271  -0.42061 
 H                     2.11359   2.33792   1.41654 
 H                     3.53763   4.34769   1.45126 
 H                     5.54553   4.48439   0.00473 
 H                     6.13053   2.5937   -1.48719 
 H                     4.72482   0.57153  -1.54273 
 H                     0.48531   0.28531   0.19776 
 
 NAtoms=     16 NQM=     16 NQMF=      0 NMic=      0 NMicF=      0 NTot=     16.
                    Isotopes and Nuclear Properties:
 (Nuclear quadrupole moments (NQMom) in fm**2, nuclear magnetic moments (NMagM)
  in nuclear magnetons)

  Atom         1           2           3           4           5           6           7           8           9          10
 IAtWgt=          16          11          12          12          12          12          12          12          16           1
 AtmWgt=  15.9949146  11.0093053  12.0000000  12.0000000  12.0000000  12.0000000  12.0000000  12.0000000  15.9949146   1.0078250
 NucSpn=           0           3           0           0           0           0           0           0           0           1
 AtZEff=   0.0000000   0.0000000   0.0000000   0.0000000   0.0000000   0.0000000   0.0000000   0.0000000   0.0000000   0.0000000
 NQMom=    0.0000000   4.0590000   0.0000000   0.0000000   0.0000000   0.0000000   0.0000000   0.0000000   0.0000000   0.0000000
 NMagM=    0.0000000   2.6886370   0.0000000   0.0000000   0.0000000   0.0000000   0.0000000   0.0000000   0.0000000   2.7928460

  Atom        11          12          13          14          15          16
 IAtWgt=           1           1           1           1           1           1
 AtmWgt=   1.0078250   1.0078250   1.0078250   1.0078250   1.0078250   1.0078250
 NucSpn=           1           1           1           1           1           1
 AtZEff=   0.0000000   0.0000000   0.0000000   0.0000000   0.0000000   0.0000000
 NQMom=    0.0000000   0.0000000   0.0000000   0.0000000   0.0000000   0.0000000
 NMagM=    2.7928460   2.7928460   2.7928460   2.7928460   2.7928460   2.7928460
 Leave Link  101 at Sun Oct  3 13:44:50 2021, MaxMem=  536870912 cpu:       0.2
 (Enter /sw/target/amd/app/gaussian/Gaussian09RevA.02_gcc-4.9.2/g09/l103.exe)

 GradGradGradGradGradGradGradGradGradGradGradGradGradGradGradGradGradGrad
 Berny optimization.
 Initialization pass.
                           ----------------------------
                           !    Initial Parameters    !
                           ! (Angstroms and Degrees)  !
 --------------------------                            --------------------------
 ! Name  Definition              Value          Derivative Info.                !
 --------------------------------------------------------------------------------
 ! R1    R(1,2)                  1.4618         estimate D2E/DX2                !
 ! R2    R(1,10)                 0.9905         estimate D2E/DX2                !
 ! R3    R(2,3)                  1.5759         estimate D2E/DX2                !
 ! R4    R(2,9)                  1.4618         estimate D2E/DX2                !
 ! R5    R(3,4)                  1.4052         estimate D2E/DX2                !
 ! R6    R(3,8)                  1.4052         estimate D2E/DX2                !
 ! R7    R(4,5)                  1.3987         estimate D2E/DX2                !
 ! R8    R(4,11)                 1.0833         estimate D2E/DX2                !
 ! R9    R(5,6)                  1.3973         estimate D2E/DX2                !
 ! R10   R(5,12)                 1.0824         estimate D2E/DX2                !
 ! R11   R(6,7)                  1.3973         estimate D2E/DX2                !
 ! R12   R(6,13)                 1.0823         estimate D2E/DX2                !
 ! R13   R(7,8)                  1.3987         estimate D2E/DX2                !
 ! R14   R(7,14)                 1.0824         estimate D2E/DX2                !
 ! R15   R(8,15)                 1.0833         estimate D2E/DX2                !
 ! R16   R(9,16)                 0.9905         estimate D2E/DX2                !
 ! A1    A(2,1,10)             104.6754         estimate D2E/DX2                !
 ! A2    A(1,2,3)              120.3344         estimate D2E/DX2                !
 ! A3    A(1,2,9)              119.3311         estimate D2E/DX2                !
 ! A4    A(3,2,9)              120.3345         estimate D2E/DX2                !
 ! A5    A(2,3,4)              120.3274         estimate D2E/DX2                !
 ! A6    A(2,3,8)              120.3274         estimate D2E/DX2                !
 ! A7    A(4,3,8)              119.3452         estimate D2E/DX2                !
 ! A8    A(3,4,5)              120.2111         estimate D2E/DX2                !
 ! A9    A(3,4,11)             120.8466         estimate D2E/DX2                !
 ! A10   A(5,4,11)             118.9423         estimate D2E/DX2                !
 ! A11   A(4,5,6)              120.1181         estimate D2E/DX2                !
 ! A12   A(4,5,12)             119.9561         estimate D2E/DX2                !
 ! A13   A(6,5,12)             119.9257         estimate D2E/DX2                !
 ! A14   A(5,6,7)              119.9963         estimate D2E/DX2                !
 ! A15   A(5,6,13)             120.0018         estimate D2E/DX2                !
 ! A16   A(7,6,13)             120.0019         estimate D2E/DX2                !
 ! A17   A(6,7,8)              120.1181         estimate D2E/DX2                !
 ! A18   A(6,7,14)             119.9258         estimate D2E/DX2                !
 ! A19   A(8,7,14)             119.9561         estimate D2E/DX2                !
 ! A20   A(3,8,7)              120.2111         estimate D2E/DX2                !
 ! A21   A(3,8,15)             120.8466         estimate D2E/DX2                !
 ! A22   A(7,8,15)             118.9423         estimate D2E/DX2                !
 ! A23   A(2,9,16)             104.6756         estimate D2E/DX2                !
 ! D1    D(10,1,2,3)            90.6421         estimate D2E/DX2                !
 ! D2    D(10,1,2,9)           -89.3578         estimate D2E/DX2                !
 ! D3    D(1,2,3,4)           -179.9843         estimate D2E/DX2                !
 ! D4    D(1,2,3,8)              0.0157         estimate D2E/DX2                !
 ! D5    D(9,2,3,4)              0.0156         estimate D2E/DX2                !
 ! D6    D(9,2,3,8)           -179.9844         estimate D2E/DX2                !
 ! D7    D(1,2,9,16)           -89.3584         estimate D2E/DX2                !
 ! D8    D(3,2,9,16)            90.6416         estimate D2E/DX2                !
 ! D9    D(2,3,4,5)           -179.9995         estimate D2E/DX2                !
 ! D10   D(2,3,4,11)             0.0002         estimate D2E/DX2                !
 ! D11   D(8,3,4,5)              0.0005         estimate D2E/DX2                !
 ! D12   D(8,3,4,11)          -179.9998         estimate D2E/DX2                !
 ! D13   D(2,3,8,7)           -179.9996         estimate D2E/DX2                !
 ! D14   D(2,3,8,15)             0.0001         estimate D2E/DX2                !
 ! D15   D(4,3,8,7)              0.0004         estimate D2E/DX2                !
 ! D16   D(4,3,8,15)          -179.9999         estimate D2E/DX2                !
 ! D17   D(3,4,5,6)             -0.0009         estimate D2E/DX2                !
 ! D18   D(3,4,5,12)           179.9996         estimate D2E/DX2                !
 ! D19   D(11,4,5,6)           179.9994         estimate D2E/DX2                !
 ! D20   D(11,4,5,12)           -0.0002         estimate D2E/DX2                !
 ! D21   D(4,5,6,7)              0.0004         estimate D2E/DX2                !
 ! D22   D(4,5,6,13)          -179.9996         estimate D2E/DX2                !
 ! D23   D(12,5,6,7)           180.0            estimate D2E/DX2                !
 ! D24   D(12,5,6,13)            0.0            estimate D2E/DX2                !
 ! D25   D(5,6,7,8)              0.0005         estimate D2E/DX2                !
 ! D26   D(5,6,7,14)          -180.0            estimate D2E/DX2                !
 ! D27   D(13,6,7,8)          -179.9995         estimate D2E/DX2                !
 ! D28   D(13,6,7,14)            0.0            estimate D2E/DX2                !
 ! D29   D(6,7,8,3)             -0.0009         estimate D2E/DX2                !
 ! D30   D(6,7,8,15)           179.9994         estimate D2E/DX2                !
 ! D31   D(14,7,8,3)           179.9996         estimate D2E/DX2                !
 ! D32   D(14,7,8,15)           -0.0002         estimate D2E/DX2                !
 --------------------------------------------------------------------------------
 Trust Radius=3.00D-01 FncErr=1.00D-07 GrdErr=1.00D-06
 Number of steps in this run=  81 maximum allowed number of steps= 100.
 GradGradGradGradGradGradGradGradGradGradGradGradGradGradGradGradGradGrad

 Leave Link  103 at Sun Oct  3 13:44:51 2021, MaxMem=  536870912 cpu:       0.0
 (Enter /sw/target/amd/app/gaussian/Gaussian09RevA.02_gcc-4.9.2/g09/l202.exe)
                          Input orientation:                          
 ---------------------------------------------------------------------
 Center     Atomic      Atomic             Coordinates (Angstroms)
 Number     Number       Type             X           Y           Z
 ---------------------------------------------------------------------
      1          8           0        2.744595   -1.107964   -0.972187
      2          5           0        2.406513    0.011812   -0.095405
      3          6           0        3.311658    1.301493   -0.066529
      4          6           0        2.986719    2.377667    0.776583
      5          6           0        3.791782    3.521159    0.800262
      6          6           0        4.923857    3.598613   -0.015098
      7          6           0        5.253324    2.532482   -0.856062
      8          6           0        4.451679    1.386678   -0.883639
      9          8           0        1.220320   -0.076831    0.754321
     10          1           0        3.323368   -1.692706   -0.420606
     11          1           0        2.113594    2.337923    1.416538
     12          1           0        3.537632    4.347690    1.451264
     13          1           0        5.545526    4.484392    0.004734
     14          1           0        6.130526    2.593697   -1.487187
     15          1           0        4.724815    0.571533   -1.542734
     16          1           0        0.485310    0.285306    0.197761
 ---------------------------------------------------------------------
                    Distance matrix (angstroms):
                    1          2          3          4          5
     1  O    0.000000
     2  B    1.461830   0.000000
     3  C    2.635766   1.575880   0.000000
     4  C    3.907230   2.587329   1.405195   0.000000
     5  C    5.066257   3.877718   2.430794   1.398664   0.000000
     6  C    5.274189   4.382762   2.806882   2.422802   1.397284
     7  C    4.422675   3.877719   2.430794   2.797677   2.420123
     8  C    3.024106   2.587329   1.405195   2.425800   2.797677
     9  O    2.523387   1.461830   2.635767   3.024106   4.422675
    10  H    0.990526   1.962590   3.015084   4.256116   5.375343
    11  H    4.240084   2.789725   2.170031   1.083268   2.143865
    12  H    6.022141   4.740406   3.410876   2.153994   1.082381
    13  H    6.330406   5.465107   3.889228   3.403166   2.153207
    14  H    5.043020   4.740406   3.410876   3.880057   3.400343
    15  H    2.658478   2.789726   2.170031   3.415015   3.880782
    16  H    2.900750   1.962592   3.015083   3.312107   4.665459
                    6          7          8          9         10
     6  C    0.000000
     7  C    1.397285   0.000000
     8  C    2.422803   1.398664   0.000000
     9  O    5.274190   5.066258   3.907231   0.000000
    10  H    5.542928   4.665465   3.312112   2.900744   0.000000
    11  H    3.396542   3.880782   3.415015   2.658478   4.591799
    12  H    2.152429   3.400343   3.880057   5.043019   6.327415
    13  H    1.082345   2.153208   3.403166   6.330406   6.578407
    14  H    2.152430   1.082381   2.153994   6.022142   5.233639
    15  H    3.396543   2.143866   1.083268   4.240085   2.889637
    16  H    5.542924   5.375342   4.256117   0.990526   3.514183
                   11         12         13         14         15
    11  H    0.000000
    12  H    2.463382   0.000000
    13  H    4.287036   2.478462   0.000000
    14  H    4.963142   4.293493   2.478464   0.000000
    15  H    4.323876   4.963142   4.287037   2.463382   0.000000
    16  H    2.889630   5.233631   6.578402   6.327414   4.591802
                   16
    16  H    0.000000
 Stoichiometry    C6H7BO2
 Framework group  C1[X(C6H7BO2)]
 Deg. of freedom    42
 Full point group                 C1      NOp   1
 Largest Abelian subgroup         C1      NOp   1
 Largest concise Abelian subgroup C1      NOp   1
                         Standard orientation:                         
 ---------------------------------------------------------------------
 Center     Atomic      Atomic             Coordinates (Angstroms)
 Number     Number       Type             X           Y           Z
 ---------------------------------------------------------------------
      1          8           0        2.476868   -1.260952    0.043254
      2          5           0        1.738576    0.000000    0.000000
      3          6           0        0.162696    0.000000    0.000000
      4          6           0       -0.546844    1.212176   -0.041913
      5          6           0       -1.945505    1.209339   -0.041805
      6          6           0       -2.644187   -0.000000   -0.000000
      7          6           0       -1.945506   -1.209339    0.041805
      8          6           0       -0.546844   -1.212176    0.041912
      9          8           0        2.476869    1.260951   -0.043253
     10          1           0        2.612875   -1.504839   -0.907095
     11          1           0       -0.024544    2.160646   -0.074710
     12          1           0       -2.487879    2.145465   -0.074166
     13          1           0       -3.726532    0.000001    0.000002
     14          1           0       -2.487880   -2.145465    0.074165
     15          1           0       -0.024545   -2.160647    0.074708
     16          1           0        2.612869    1.504845    0.907095
 ---------------------------------------------------------------------
 Rotational constants (GHZ):      3.4542610      1.1142233      0.8475429
 Leave Link  202 at Sun Oct  3 13:44:51 2021, MaxMem=  536870912 cpu:       0.0
 (Enter /sw/target/amd/app/gaussian/Gaussian09RevA.02_gcc-4.9.2/g09/l301.exe)
 Standard basis: 6-31G(d) (6D, 7F)
 Ernie: Thresh=  0.10000D-02 Tol=  0.10000D-05 Strict=F.
 There are   149 symmetry adapted basis functions of A   symmetry.
 Integral buffers will be    131072 words long.
 Raffenetti 2 integral format.
 Two-electron integral symmetry is turned on.
   149 basis functions,   280 primitive gaussians,   149 cartesian basis functions
    32 alpha electrons       32 beta electrons
       nuclear repulsion energy       388.0297725920 Hartrees.
 IExCor=  402 DFT=T Ex+Corr=B3LYP ExCW=0 ScaHFX=  0.200000
 ScaDFX=  0.800000  0.720000  1.000000  0.810000 ScalE2=  1.000000  1.000000
 IRadAn=      0 IRanWt=     -1 IRanGd=            0 ICorTp=0
 NAtoms=   16 NActive=   16 NUniq=   16 SFac= 7.50D-01 NAtFMM=   80 NAOKFM=F Big=F
 Leave Link  301 at Sun Oct  3 13:44:52 2021, MaxMem=  536870912 cpu:       0.1
 (Enter /sw/target/amd/app/gaussian/Gaussian09RevA.02_gcc-4.9.2/g09/l302.exe)
 NPDir=0 NMtPBC=     1 NCelOv=     1 NCel=       1 NClECP=     1 NCelD=      1
         NCelK=      1 NCelE2=     1 NClLst=     1 CellRange=     0.0.
 One-electron integrals computed using PRISM.
 NBasis=   149 RedAO= T  NBF=   149
 NBsUse=   149 1.00D-06 NBFU=   149
 Precomputing XC quadrature grid using
 IXCGrd= 2 IRadAn=           0 IRanWt=          -1 IRanGd=           0 AccXCQ= 1.00D-10.
 NRdTot=     999 NPtTot=      126816 NUsed=      134030 NTot=      134062
 NSgBfM=   149   149   149   149   149 NAtAll=    16    16.
 Leave Link  302 at Sun Oct  3 13:44:55 2021, MaxMem=  536870912 cpu:       0.8
 (Enter /sw/target/amd/app/gaussian/Gaussian09RevA.02_gcc-4.9.2/g09/l303.exe)
 DipDrv:  MaxL=1.
 Leave Link  303 at Sun Oct  3 13:44:55 2021, MaxMem=  536870912 cpu:       0.1
 (Enter /sw/target/amd/app/gaussian/Gaussian09RevA.02_gcc-4.9.2/g09/l401.exe)
 Harris functional with IExCor=  402 diagonalized for initial guess.
 ExpMin= 1.27D-01 ExpMax= 5.48D+03 ExpMxC= 8.25D+02 IAcc=1 IRadAn=         1 AccDes= 0.00D+00
 HarFok:  IExCor=  402 AccDes= 0.00D+00 IRadAn=         1 IDoV= 1
 ScaDFX=  1.000000  1.000000  1.000000  1.000000
 FoFCou: FMM=F IPFlag=           0 FMFlag=      100000 FMFlg1=           0
         NFxFlg=           0 DoJE=T BraDBF=F KetDBF=T FulRan=T
         Omega=  0.000000  0.000000  1.000000  0.000000  0.000000 ICntrl=     500 IOpCl=  0
         NMat0=    1 NMatS0=    1 NMatT0=    0 NMatD0=    1 NMtDS0=    0 NMtDT0=    0
         I1Cent=           4 NGrid=           0.
 Petite list used in FoFCou.
 Harris En= -408.327327448566    
 Initial guess orbital symmetries:
       Occupied  (A) (A) (A) (A) (A) (A) (A) (A) (A) (A) (A) (A)
                 (A) (A) (A) (A) (A) (A) (A) (A) (A) (A) (A) (A)
                 (A) (A) (A) (A) (A) (A) (A) (A)
       Virtual   (A) (A) (A) (A) (A) (A) (A) (A) (A) (A) (A) (A)
                 (A) (A) (A) (A) (A) (A) (A) (A) (A) (A) (A) (A)
                 (A) (A) (A) (A) (A) (A) (A) (A) (A) (A) (A) (A)
                 (A) (A) (A) (A) (A) (A) (A) (A) (A) (A) (A) (A)
                 (A) (A) (A) (A) (A) (A) (A) (A) (A) (A) (A) (A)
                 (A) (A) (A) (A) (A) (A) (A) (A) (A) (A) (A) (A)
                 (A) (A) (A) (A) (A) (A) (A) (A) (A) (A) (A) (A)
                 (A) (A) (A) (A) (A) (A) (A) (A) (A) (A) (A) (A)
                 (A) (A) (A) (A) (A) (A) (A) (A) (A) (A) (A) (A)
                 (A) (A) (A) (A) (A) (A) (A) (A) (A)
 The electronic state of the initial guess is 1-A.
 Leave Link  401 at Sun Oct  3 13:45:09 2021, MaxMem=  536870912 cpu:       3.6
 (Enter /sw/target/amd/app/gaussian/Gaussian09RevA.02_gcc-4.9.2/g09/l502.exe)
 Closed shell SCF:
 Requested convergence on RMS density matrix=1.00D-08 within  64 cycles.
 Requested convergence on MAX density matrix=1.00D-06.
 Requested convergence on             energy=1.00D-06.
 No special actions if energy rises.
 Using DIIS extrapolation, IDIIS=  1040.
 Integral symmetry usage will be decided dynamically.
       133873 words used for storage of precomputed grid.
 Keep R1 ints in memory in canonical form, NReq=64341372.
 IEnd=      208033 IEndB=      208033 NGot=   536870912 MDV=   474243526
 LenX=   474243526 LenY=   474220884
 Symmetry not used in FoFDir.
 MinBra= 0 MaxBra= 2 Meth= 1.
 IRaf=       0 NMat=   1 IRICut=       1 DoRegI=T DoRafI=F ISym2E= 0 JSym2E=0.
 Integral accuracy reduced to 1.0D-05 until final iterations.

 Cycle   1  Pass 0  IDiag  1:
 E= -407.939003602206    
 DIIS: error= 4.96D-02 at cycle   1 NSaved=   1.
 NSaved= 1 IEnMin= 1 EnMin= -407.939003602206     IErMin= 1 ErrMin= 4.96D-02
 ErrMax= 4.96D-02 EMaxC= 1.00D-01 BMatC= 3.06D-01 BMatP= 3.06D-01
 IDIUse=3 WtCom= 5.04D-01 WtEn= 4.96D-01
 Coeff-Com:  0.100D+01
 Coeff-En:   0.100D+01
 Coeff:      0.100D+01
 Gap=     0.191 Goal=   None    Shift=    0.000
 GapD=    0.191 DampG=1.000 DampE=0.500 DampFc=0.5000 IDamp=-1.
 Damping current iteration by 5.00D-01
 RMSDP=8.07D-03 MaxDP=1.59D-01              OVMax= 1.85D-01

 Cycle   2  Pass 0  IDiag  1:
 E= -408.050559744654     Delta-E=       -0.111556142448 Rises=F Damp=T
 DIIS: error= 8.65D-03 at cycle   2 NSaved=   2.
 NSaved= 2 IEnMin= 2 EnMin= -408.050559744654     IErMin= 2 ErrMin= 8.65D-03
 ErrMax= 8.65D-03 EMaxC= 1.00D-01 BMatC= 2.09D-02 BMatP= 3.06D-01
 IDIUse=3 WtCom= 9.13D-01 WtEn= 8.65D-02
 Coeff-Com:  0.140D+00 0.860D+00
 Coeff-En:   0.206D+00 0.794D+00
 Coeff:      0.146D+00 0.854D+00
 Gap=     0.252 Goal=   None    Shift=    0.000
 RMSDP=1.61D-03 MaxDP=3.52D-02 DE=-1.12D-01 OVMax= 1.39D-01

 Cycle   3  Pass 0  IDiag  1:
 E= -408.214394563706     Delta-E=       -0.163834819053 Rises=F Damp=F
 DIIS: error= 6.22D-03 at cycle   3 NSaved=   3.
 NSaved= 3 IEnMin= 3 EnMin= -408.214394563706     IErMin= 3 ErrMin= 6.22D-03
 ErrMax= 6.22D-03 EMaxC= 1.00D-01 BMatC= 6.38D-03 BMatP= 2.09D-02
 IDIUse=3 WtCom= 9.38D-01 WtEn= 6.22D-02
 Coeff-Com:  0.254D-01 0.348D+00 0.627D+00
 Coeff-En:   0.000D+00 0.000D+00 0.100D+01
 Coeff:      0.238D-01 0.326D+00 0.650D+00
 Gap=     0.205 Goal=   None    Shift=    0.000
 RMSDP=8.09D-04 MaxDP=1.88D-02 DE=-1.64D-01 OVMax= 2.57D-02

 Cycle   4  Pass 0  IDiag  1:
 E= -408.218717273392     Delta-E=       -0.004322709686 Rises=F Damp=F
 DIIS: error= 2.37D-03 at cycle   4 NSaved=   4.
 NSaved= 4 IEnMin= 4 EnMin= -408.218717273392     IErMin= 4 ErrMin= 2.37D-03
 ErrMax= 2.37D-03 EMaxC= 1.00D-01 BMatC= 1.59D-03 BMatP= 6.38D-03
 IDIUse=3 WtCom= 9.76D-01 WtEn= 2.37D-02
 Coeff-Com:  0.121D-02 0.756D-01 0.351D+00 0.572D+00
 Coeff-En:   0.000D+00 0.000D+00 0.201D+00 0.799D+00
 Coeff:      0.118D-02 0.738D-01 0.348D+00 0.577D+00
 Gap=     0.205 Goal=   None    Shift=    0.000
 RMSDP=3.56D-04 MaxDP=1.05D-02 DE=-4.32D-03 OVMax= 1.70D-02

 Cycle   5  Pass 0  IDiag  1:
 E= -408.220116523740     Delta-E=       -0.001399250348 Rises=F Damp=F
 DIIS: error= 1.45D-03 at cycle   5 NSaved=   5.
 NSaved= 5 IEnMin= 5 EnMin= -408.220116523740     IErMin= 5 ErrMin= 1.45D-03
 ErrMax= 1.45D-03 EMaxC= 1.00D-01 BMatC= 1.50D-04 BMatP= 1.59D-03
 IDIUse=3 WtCom= 9.85D-01 WtEn= 1.45D-02
 Coeff-Com: -0.122D-02 0.134D-01 0.137D+00 0.314D+00 0.536D+00
 Coeff-En:   0.000D+00 0.000D+00 0.000D+00 0.190D-01 0.981D+00
 Coeff:     -0.121D-02 0.132D-01 0.135D+00 0.310D+00 0.543D+00
 Gap=     0.205 Goal=   None    Shift=    0.000
 RMSDP=1.10D-04 MaxDP=2.60D-03 DE=-1.40D-03 OVMax= 6.98D-03

 Cycle   6  Pass 0  IDiag  1:
 E= -408.220254494134     Delta-E=       -0.000137970394 Rises=F Damp=F
 DIIS: error= 6.41D-04 at cycle   6 NSaved=   6.
 NSaved= 6 IEnMin= 6 EnMin= -408.220254494134     IErMin= 6 ErrMin= 6.41D-04
 ErrMax= 6.41D-04 EMaxC= 1.00D-01 BMatC= 2.38D-05 BMatP= 1.50D-04
 IDIUse=3 WtCom= 9.94D-01 WtEn= 6.41D-03
 Coeff-Com: -0.833D-03 0.153D-02 0.513D-01 0.137D+00 0.339D+00 0.472D+00
 Coeff-En:   0.000D+00 0.000D+00 0.000D+00 0.000D+00 0.135D+00 0.865D+00
 Coeff:     -0.828D-03 0.152D-02 0.510D-01 0.137D+00 0.338D+00 0.474D+00
 Gap=     0.205 Goal=   None    Shift=    0.000
 RMSDP=3.86D-05 MaxDP=8.66D-04 DE=-1.38D-04 OVMax= 2.43D-03

 Cycle   7  Pass 0  IDiag  1:
 E= -408.220281086944     Delta-E=       -0.000026592810 Rises=F Damp=F
 DIIS: error= 6.25D-05 at cycle   7 NSaved=   7.
 NSaved= 7 IEnMin= 7 EnMin= -408.220281086944     IErMin= 7 ErrMin= 6.25D-05
 ErrMax= 6.25D-05 EMaxC= 1.00D-01 BMatC= 4.57D-07 BMatP= 2.38D-05
 IDIUse=1 WtCom= 1.00D+00 WtEn= 0.00D+00
 Coeff-Com: -0.307D-03-0.185D-03 0.151D-01 0.447D-01 0.122D+00 0.215D+00
 Coeff-Com:  0.603D+00
 Coeff:     -0.307D-03-0.185D-03 0.151D-01 0.447D-01 0.122D+00 0.215D+00
 Coeff:      0.603D+00
 Gap=     0.205 Goal=   None    Shift=    0.000
 RMSDP=5.64D-06 MaxDP=1.13D-04 DE=-2.66D-05 OVMax= 2.73D-04

 Initial convergence to 1.0D-05 achieved.  Increase integral accuracy.
 Cycle   8  Pass 1  IDiag  1:
 E= -408.220289263383     Delta-E=       -0.000008176439 Rises=F Damp=F
 DIIS: error= 6.53D-05 at cycle   1 NSaved=   1.
 NSaved= 1 IEnMin= 1 EnMin= -408.220289263383     IErMin= 1 ErrMin= 6.53D-05
 ErrMax= 6.53D-05 EMaxC= 1.00D-01 BMatC= 8.29D-08 BMatP= 8.29D-08
 IDIUse=1 WtCom= 1.00D+00 WtEn= 0.00D+00
 Coeff-Com:  0.100D+01
 Coeff:      0.100D+01
 Gap=     0.205 Goal=   None    Shift=    0.000
 RMSDP=5.64D-06 MaxDP=1.13D-04 DE=-8.18D-06 OVMax= 1.04D-04

 Cycle   9  Pass 1  IDiag  1:
 E= -408.220289360361     Delta-E=       -0.000000096977 Rises=F Damp=F
 DIIS: error= 1.35D-05 at cycle   2 NSaved=   2.
 NSaved= 2 IEnMin= 2 EnMin= -408.220289360361     IErMin= 2 ErrMin= 1.35D-05
 ErrMax= 1.35D-05 EMaxC= 1.00D-01 BMatC= 2.18D-08 BMatP= 8.29D-08
 IDIUse=1 WtCom= 1.00D+00 WtEn= 0.00D+00
 Coeff-Com:  0.265D+00 0.735D+00
 Coeff:      0.265D+00 0.735D+00
 Gap=     0.205 Goal=   None    Shift=    0.000
 RMSDP=1.52D-06 MaxDP=5.10D-05 DE=-9.70D-08 OVMax= 7.54D-05

 Cycle  10  Pass 1  IDiag  1:
 E= -408.220289367645     Delta-E=       -0.000000007284 Rises=F Damp=F
 DIIS: error= 1.13D-05 at cycle   3 NSaved=   3.
 NSaved= 3 IEnMin= 3 EnMin= -408.220289367645     IErMin= 3 ErrMin= 1.13D-05
 ErrMax= 1.13D-05 EMaxC= 1.00D-01 BMatC= 1.37D-08 BMatP= 2.18D-08
 IDIUse=1 WtCom= 1.00D+00 WtEn= 0.00D+00
 Coeff-Com: -0.875D-02 0.441D+00 0.567D+00
 Coeff:     -0.875D-02 0.441D+00 0.567D+00
 Gap=     0.205 Goal=   None    Shift=    0.000
 RMSDP=8.18D-07 MaxDP=2.65D-05 DE=-7.28D-09 OVMax= 4.03D-05

 Cycle  11  Pass 1  IDiag  1:
 E= -408.220289380865     Delta-E=       -0.000000013220 Rises=F Damp=F
 DIIS: error= 2.58D-06 at cycle   4 NSaved=   4.
 NSaved= 4 IEnMin= 4 EnMin= -408.220289380865     IErMin= 4 ErrMin= 2.58D-06
 ErrMax= 2.58D-06 EMaxC= 1.00D-01 BMatC= 4.73D-10 BMatP= 1.37D-08
 IDIUse=1 WtCom= 1.00D+00 WtEn= 0.00D+00
 Coeff-Com: -0.119D-01 0.205D+00 0.297D+00 0.510D+00
 Coeff:     -0.119D-01 0.205D+00 0.297D+00 0.510D+00
 Gap=     0.205 Goal=   None    Shift=    0.000
 RMSDP=1.90D-07 MaxDP=4.60D-06 DE=-1.32D-08 OVMax= 1.19D-05

 Cycle  12  Pass 1  IDiag  1:
 E= -408.220289381295     Delta-E=       -0.000000000430 Rises=F Damp=F
 DIIS: error= 1.02D-06 at cycle   5 NSaved=   5.
 NSaved= 5 IEnMin= 5 EnMin= -408.220289381295     IErMin= 5 ErrMin= 1.02D-06
 ErrMax= 1.02D-06 EMaxC= 1.00D-01 BMatC= 6.81D-11 BMatP= 4.73D-10
 IDIUse=1 WtCom= 1.00D+00 WtEn= 0.00D+00
 Coeff-Com: -0.646D-02 0.835D-01 0.130D+00 0.317D+00 0.477D+00
 Coeff:     -0.646D-02 0.835D-01 0.130D+00 0.317D+00 0.477D+00
 Gap=     0.205 Goal=   None    Shift=    0.000
 RMSDP=6.90D-08 MaxDP=1.67D-06 DE=-4.30D-10 OVMax= 4.07D-06

 Cycle  13  Pass 1  IDiag  1:
 E= -408.220289381375     Delta-E=       -0.000000000081 Rises=F Damp=F
 DIIS: error= 1.54D-07 at cycle   6 NSaved=   6.
 NSaved= 6 IEnMin= 6 EnMin= -408.220289381375     IErMin= 6 ErrMin= 1.54D-07
 ErrMax= 1.54D-07 EMaxC= 1.00D-01 BMatC= 1.88D-12 BMatP= 6.81D-11
 IDIUse=1 WtCom= 1.00D+00 WtEn= 0.00D+00
 Coeff-Com: -0.197D-02 0.225D-01 0.365D-01 0.101D+00 0.211D+00 0.631D+00
 Coeff:     -0.197D-02 0.225D-01 0.365D-01 0.101D+00 0.211D+00 0.631D+00
 Gap=     0.205 Goal=   None    Shift=    0.000
 RMSDP=1.20D-08 MaxDP=2.55D-07 DE=-8.07D-11 OVMax= 6.49D-07

 Cycle  14  Pass 1  IDiag  1:
 E= -408.220289381379     Delta-E=       -0.000000000003 Rises=F Damp=F
 DIIS: error= 4.43D-08 at cycle   7 NSaved=   7.
 NSaved= 7 IEnMin= 7 EnMin= -408.220289381379     IErMin= 7 ErrMin= 4.43D-08
 ErrMax= 4.43D-08 EMaxC= 1.00D-01 BMatC= 2.54D-13 BMatP= 1.88D-12
 IDIUse=1 WtCom= 1.00D+00 WtEn= 0.00D+00
 Coeff-Com: -0.301D-03 0.216D-02 0.423D-02 0.159D-01 0.521D-01 0.310D+00
 Coeff-Com:  0.616D+00
 Coeff:     -0.301D-03 0.216D-02 0.423D-02 0.159D-01 0.521D-01 0.310D+00
 Coeff:      0.616D+00
 Gap=     0.205 Goal=   None    Shift=    0.000
 RMSDP=3.24D-09 MaxDP=8.61D-08 DE=-3.30D-12 OVMax= 1.20D-07

 SCF Done:  E(RB3LYP) =  -408.220289381     A.U. after   14 cycles
             Convg  =    0.3239D-08             -V/T =  2.0100
 KE= 4.041858736461D+02 PE=-1.728019816752D+03 EE= 5.275838811323D+02
 Leave Link  502 at Sun Oct  3 13:50:11 2021, MaxMem=  536870912 cpu:      66.5
 (Enter /sw/target/amd/app/gaussian/Gaussian09RevA.02_gcc-4.9.2/g09/l508.exe)
 QCSCF skips out because SCF is already converged.
 Leave Link  508 at Sun Oct  3 13:50:12 2021, MaxMem=  536870912 cpu:       0.0
 (Enter /sw/target/amd/app/gaussian/Gaussian09RevA.02_gcc-4.9.2/g09/l601.exe)
 Copying SCF densities to generalized density rwf, IOpCl= 0 IROHF=0.

 **********************************************************************

            Population analysis using the SCF density.

 **********************************************************************

 Orbital symmetries:
       Occupied  (A) (A) (A) (A) (A) (A) (A) (A) (A) (A) (A) (A)
                 (A) (A) (A) (A) (A) (A) (A) (A) (A) (A) (A) (A)
                 (A) (A) (A) (A) (A) (A) (A) (A)
       Virtual   (A) (A) (A) (A) (A) (A) (A) (A) (A) (A) (A) (A)
                 (A) (A) (A) (A) (A) (A) (A) (A) (A) (A) (A) (A)
                 (A) (A) (A) (A) (A) (A) (A) (A) (A) (A) (A) (A)
                 (A) (A) (A) (A) (A) (A) (A) (A) (A) (A) (A) (A)
                 (A) (A) (A) (A) (A) (A) (A) (A) (A) (A) (A) (A)
                 (A) (A) (A) (A) (A) (A) (A) (A) (A) (A) (A) (A)
                 (A) (A) (A) (A) (A) (A) (A) (A) (A) (A) (A) (A)
                 (A) (A) (A) (A) (A) (A) (A) (A) (A) (A) (A) (A)
                 (A) (A) (A) (A) (A) (A) (A) (A) (A) (A) (A) (A)
                 (A) (A) (A) (A) (A) (A) (A) (A) (A)
 The electronic state is 1-A.
 Alpha  occ. eigenvalues --  -19.14345 -19.14344 -10.19810 -10.19363 -10.19363
 Alpha  occ. eigenvalues --  -10.19200 -10.19198 -10.17500  -6.81330  -0.99864
 Alpha  occ. eigenvalues --   -0.97498  -0.85050  -0.74509  -0.74379  -0.60356
 Alpha  occ. eigenvalues --   -0.60276  -0.53329  -0.50886  -0.49620  -0.45801
 Alpha  occ. eigenvalues --   -0.44399  -0.42161  -0.42000  -0.38093  -0.38006
 Alpha  occ. eigenvalues --   -0.36285  -0.34493  -0.34302  -0.28385  -0.28190
 Alpha  occ. eigenvalues --   -0.25773  -0.25207
 Alpha virt. eigenvalues --   -0.04688  -0.00275   0.05438   0.05484   0.09123
 Alpha virt. eigenvalues --    0.10194   0.14516   0.16311   0.17087   0.18788
 Alpha virt. eigenvalues --    0.19105   0.24087   0.25754   0.28793   0.30456
 Alpha virt. eigenvalues --    0.31887   0.34387   0.34753   0.45321   0.46627
 Alpha virt. eigenvalues --    0.48023   0.51945   0.53210   0.54861   0.56069
 Alpha virt. eigenvalues --    0.57377   0.59369   0.59545   0.61010   0.61747
 Alpha virt. eigenvalues --    0.62317   0.63327   0.65593   0.69841   0.74259
 Alpha virt. eigenvalues --    0.75663   0.78940   0.82219   0.82652   0.84331
 Alpha virt. eigenvalues --    0.84447   0.85676   0.88147   0.89296   0.92520
 Alpha virt. eigenvalues --    0.93693   0.94356   0.98164   1.02535   1.04874
 Alpha virt. eigenvalues --    1.07419   1.08105   1.11200   1.13745   1.14140
 Alpha virt. eigenvalues --    1.18128   1.20673   1.25428   1.30307   1.30422
 Alpha virt. eigenvalues --    1.33592   1.42470   1.43243   1.43938   1.45127
 Alpha virt. eigenvalues --    1.48241   1.48855   1.50941   1.53156   1.60198
 Alpha virt. eigenvalues --    1.65836   1.68090   1.70271   1.75731   1.78868
 Alpha virt. eigenvalues --    1.79436   1.82901   1.87637   1.90340   1.97419
 Alpha virt. eigenvalues --    2.02185   2.03153   2.04369   2.10951   2.13442
 Alpha virt. eigenvalues --    2.15042   2.15320   2.19746   2.20488   2.21788
 Alpha virt. eigenvalues --    2.30244   2.32616   2.36769   2.38726   2.38847
 Alpha virt. eigenvalues --    2.52036   2.56618   2.58159   2.65086   2.66895
 Alpha virt. eigenvalues --    2.71961   2.72973   2.75526   2.81577   2.83065
 Alpha virt. eigenvalues --    2.84597   3.07040   3.39759   3.61000   3.80219
 Alpha virt. eigenvalues --    3.97474   4.08769   4.12130   4.18081   4.33586
 Alpha virt. eigenvalues --    4.39498   4.69347
          Condensed to atoms (all electrons):
              1          2          3          4          5          6
     1  O    8.088375   0.379466  -0.067515   0.000542  -0.000025  -0.000004
     2  B    0.379466   3.608760   0.339557  -0.035413   0.007354  -0.000409
     3  C   -0.067515   0.339557   4.929595   0.480337  -0.022992  -0.036318
     4  C    0.000542  -0.035413   0.480337   5.019834   0.491885  -0.027617
     5  C   -0.000025   0.007354  -0.022992   0.491885   4.911563   0.542384
     6  C   -0.000004  -0.000409  -0.036318  -0.027617   0.542384   4.850073
     7  C    0.000373   0.007354  -0.022992  -0.047328  -0.027922   0.542384
     8  C    0.004971  -0.035413   0.480337  -0.036159  -0.047328  -0.027617
     9  O   -0.039774   0.379466  -0.067515   0.004971   0.000373  -0.000004
    10  H    0.236269  -0.014415  -0.000001  -0.000079   0.000003   0.000000
    11  H    0.000099  -0.009036  -0.048631   0.358238  -0.049492   0.004723
    12  H    0.000000  -0.000176   0.003854  -0.040461   0.358570  -0.044752
    13  H    0.000000   0.000014   0.000558   0.004677  -0.043512   0.359453
    14  H   -0.000000  -0.000176   0.003854   0.000731   0.004723  -0.044752
    15  H    0.011019  -0.009036  -0.048631   0.006599   0.000191   0.004723
    16  H    0.000452  -0.014415  -0.000001  -0.000958  -0.000005   0.000000
              7          8          9         10         11         12
     1  O    0.000373   0.004971  -0.039774   0.236269   0.000099   0.000000
     2  B    0.007354  -0.035413   0.379466  -0.014415  -0.009036  -0.000176
     3  C   -0.022992   0.480337  -0.067515  -0.000001  -0.048631   0.003854
     4  C   -0.047328  -0.036159   0.004971  -0.000079   0.358238  -0.040461
     5  C   -0.027922  -0.047328   0.000373   0.000003  -0.049492   0.358570
     6  C    0.542384  -0.027617  -0.000004   0.000000   0.004723  -0.044752
     7  C    4.911563   0.491885  -0.000025  -0.000005   0.000191   0.004723
     8  C    0.491885   5.019834   0.000542  -0.000958   0.006599   0.000731
     9  O   -0.000025   0.000542   8.088375   0.000452   0.011019  -0.000000
    10  H   -0.000005  -0.000958   0.000452   0.377204  -0.000018  -0.000000
    11  H    0.000191   0.006599   0.011019  -0.000018   0.588659  -0.005022
    12  H    0.004723   0.000731  -0.000000  -0.000000  -0.005022   0.597040
    13  H   -0.043512   0.004677   0.000000  -0.000000  -0.000179  -0.005734
    14  H    0.358570  -0.040461   0.000000  -0.000000   0.000019  -0.000176
    15  H   -0.049492   0.358238   0.000099  -0.000548  -0.000125   0.000019
    16  H    0.000003  -0.000079   0.236269   0.000193  -0.000548  -0.000000
             13         14         15         16
     1  O    0.000000  -0.000000   0.011019   0.000452
     2  B    0.000014  -0.000176  -0.009036  -0.014415
     3  C    0.000558   0.003854  -0.048631  -0.000001
     4  C    0.004677   0.000731   0.006599  -0.000958
     5  C   -0.043512   0.004723   0.000191  -0.000005
     6  C    0.359453  -0.044752   0.004723   0.000000
     7  C   -0.043512   0.358570  -0.049492   0.000003
     8  C    0.004677  -0.040461   0.358238  -0.000079
     9  O    0.000000   0.000000   0.000099   0.236269
    10  H   -0.000000  -0.000000  -0.000548   0.000193
    11  H   -0.000179   0.000019  -0.000125  -0.000548
    12  H   -0.005734  -0.000176   0.000019  -0.000000
    13  H    0.594175  -0.005734  -0.000179  -0.000000
    14  H   -0.005734   0.597040  -0.005022  -0.000000
    15  H   -0.000179  -0.005022   0.588659  -0.000018
    16  H   -0.000000  -0.000000  -0.000018   0.377203
 Mulliken atomic charges:
              1
     1  O   -0.614248
     2  B    0.396519
     3  C    0.076504
     4  C   -0.179799
     5  C   -0.125770
     6  C   -0.122268
     7  C   -0.125770
     8  C   -0.179800
     9  O   -0.614248
    10  H    0.401903
    11  H    0.143503
    12  H    0.131385
    13  H    0.135297
    14  H    0.131385
    15  H    0.143504
    16  H    0.401904
 Sum of Mulliken atomic charges =  -0.00000
 Mulliken charges with hydrogens summed into heavy atoms:
              1
     1  O   -0.212344
     2  B    0.396519
     3  C    0.076504
     4  C   -0.036296
     5  C    0.005614
     6  C    0.013029
     7  C    0.005615
     8  C   -0.036296
     9  O   -0.212344
 Sum of Mulliken charges with hydrogens summed into heavy atoms =  -0.00000
 Electronic spatial extent (au):  <R**2>=           1288.8561
 Charge=             -0.0000 electrons
 Dipole moment (field-independent basis, Debye):
    X=             -1.4669    Y=              0.0000    Z=             -0.0000  Tot=              1.4669
 Quadrupole moment (field-independent basis, Debye-Ang):
   XX=            -51.0136   YY=            -48.4620   ZZ=            -50.2499
   XY=              0.0000   XZ=             -0.0000   YZ=              5.1812
 Traceless Quadrupole moment (field-independent basis, Debye-Ang):
   XX=             -1.1050   YY=              1.4465   ZZ=             -0.3414
   XY=              0.0000   XZ=             -0.0000   YZ=              5.1812
 Octapole moment (field-independent basis, Debye-Ang**2):
  XXX=            -13.4127  YYY=              0.0001  ZZZ=              0.0000  XYY=             -0.6494
  XXY=             -0.0000  XXZ=             -0.0001  XZZ=             20.4010  YZZ=              0.0000
  YYZ=              0.0000  XYZ=             14.9039
 Hexadecapole moment (field-independent basis, Debye-Ang**3):
 XXXX=          -1147.7693 YYYY=           -399.6599 ZZZZ=            -53.6724 XXXY=             -0.0002
 XXXZ=             -0.0004 YYYX=              0.0002 YYYZ=             14.4456 ZZZX=             -0.0000
 ZZZY=              7.5294 XXYY=           -252.3320 XXZZ=           -187.6111 YYZZ=            -77.7209
 XXYZ=             38.5798 YYXZ=              0.0001 ZZXY=              0.0000
 N-N= 3.880297725920D+02 E-N=-1.728019821649D+03  KE= 4.041858736461D+02
 No NMR shielding tensors so no spin-rotation constants.
 Leave Link  601 at Sun Oct  3 13:50:13 2021, MaxMem=  536870912 cpu:       0.4
 (Enter /sw/target/amd/app/gaussian/Gaussian09RevA.02_gcc-4.9.2/g09/l701.exe)
 Compute integral first derivatives.
 ... and contract with generalized density number  0.
 Leave Link  701 at Sun Oct  3 13:50:15 2021, MaxMem=  536870912 cpu:       0.5
 (Enter /sw/target/amd/app/gaussian/Gaussian09RevA.02_gcc-4.9.2/g09/l702.exe)
 L702 exits ... SP integral derivatives will be done elsewhere.
 Leave Link  702 at Sun Oct  3 13:50:16 2021, MaxMem=  536870912 cpu:       0.1
 (Enter /sw/target/amd/app/gaussian/Gaussian09RevA.02_gcc-4.9.2/g09/l703.exe)
 Compute integral first derivatives, UseDBF=F ICtDFT=           0.
 Integral derivatives from FoFDir, PRISM(SPDF).
 Calling FoFJK, ICntrl=      2127 FMM=F ISym2X=0 I1Cent= 0 IOpClX= 0 NMat=1 NMatS=1 NMatT=0.
 FoFCou: FMM=F IPFlag=           0 FMFlag=      100000 FMFlg1=         800
         NFxFlg=           0 DoJE=F BraDBF=F KetDBF=F FulRan=T
         Omega=  0.000000  0.000000  1.000000  0.000000  0.000000 ICntrl=    2127 IOpCl=  0
         NMat0=    1 NMatS0=    1 NMatT0=    0 NMatD0=    1 NMtDS0=    0 NMtDT0=    0
         I1Cent=           0 NGrid=           0.
 Symmetry not used in FoFCou.
 Leave Link  703 at Sun Oct  3 13:51:57 2021, MaxMem=  536870912 cpu:      27.9
 (Enter /sw/target/amd/app/gaussian/Gaussian09RevA.02_gcc-4.9.2/g09/l716.exe)
 Dipole        =-5.77121780D-01 3.99902867D-06-2.34658586D-07
 ***** Axes restored to original set *****
 -------------------------------------------------------------------
 Center     Atomic                   Forces (Hartrees/Bohr)
 Number     Number              X              Y              Z
 -------------------------------------------------------------------
      1        8           0.002549004    0.023164434    0.041221361
      2        5          -0.015630689   -0.022270929   -0.000498854
      3        6          -0.012112205   -0.017258359   -0.000386518
      4        6           0.008217697    0.008926091   -0.001531192
      5        6          -0.001647840   -0.003902390   -0.001052115
      6        6          -0.002617129   -0.003728388   -0.000083363
      7        6          -0.003130367   -0.002905868    0.000899830
      8        6           0.005563640    0.010710125    0.001970675
      9        8           0.021777780    0.011497390   -0.040445053
     10        1          -0.010432712    0.005127504   -0.013656900
     11        1          -0.001944992   -0.003483821    0.000188859
     12        1          -0.000685744    0.002579906    0.001988526
     13        1           0.001920158    0.002735707    0.000061230
     14        1           0.002700683    0.000290848   -0.001924375
     15        1          -0.002609706   -0.003005479   -0.000333977
     16        1           0.008082422   -0.008476771    0.013581867
 -------------------------------------------------------------------
 Cartesian Forces:  Max     0.041221361 RMS     0.011846515
 Leave Link  716 at Sun Oct  3 13:52:01 2021, MaxMem=  536870912 cpu:       0.1
 (Enter /sw/target/amd/app/gaussian/Gaussian09RevA.02_gcc-4.9.2/g09/l103.exe)

 GradGradGradGradGradGradGradGradGradGradGradGradGradGradGradGradGradGrad
 Berny optimization.
 Internal  Forces:  Max     0.040026127 RMS     0.007825253
 Search for a local minimum.
 Step number   1 out of a maximum of   81
 All quantities printed in internal units (Hartrees-Bohrs-Radians)
 RMS Force = .78253D-02 SwitMx=.10000D-02 MixMth= 1
 Mixed Optimization -- RFO/linear search
 Second derivative matrix not updated -- first step.
     Eigenvalues ---    0.00292   0.00842   0.01403   0.01403   0.01488
     Eigenvalues ---    0.02031   0.02059   0.02066   0.02093   0.02114
     Eigenvalues ---    0.02116   0.02120   0.02125   0.16000   0.16000
     Eigenvalues ---    0.16000   0.16000   0.16000   0.16000   0.16000
     Eigenvalues ---    0.22000   0.22000   0.23478   0.25000   0.25000
     Eigenvalues ---    0.25000   0.25563   0.35602   0.35602   0.35708
     Eigenvalues ---    0.35708   0.35712   0.36736   0.36736   0.41415
     Eigenvalues ---    0.41457   0.44999   0.45507   0.45843   0.46031
     Eigenvalues ---    0.49394   0.493941000.000001000.000001000.00000
     Eigenvalues --- 1000.000001000.000001000.000001000.000001000.00000
     Eigenvalues --- 1000.000001000.000001000.000001000.000001000.00000
     Eigenvalues --- 1000.000001000.000001000.000001000.000001000.00000
     Eigenvalues --- 1000.000001000.000001000.000001000.000001000.00000
     Eigenvalues --- 1000.000001000.000001000.000001000.000001000.00000
     Eigenvalues --- 1000.00000
 RFO step:  Lambda=-1.27143550D-02 EMin= 2.91501578D-03
 Linear search not attempted -- first point.
 Iteration  1 RMS(Cart)=  0.03672948 RMS(Int)=  0.00112204
 Iteration  2 RMS(Cart)=  0.00160923 RMS(Int)=  0.00002844
 Iteration  3 RMS(Cart)=  0.00000132 RMS(Int)=  0.00002842
 Iteration  4 RMS(Cart)=  0.00000000 RMS(Int)=  0.00002842
 Variable       Old X    -DE/DX   Delta X   Delta X   Delta X     New X
                                 (Linear)    (Quad)   (Total)
    R1        2.76246  -0.04003   0.00000  -0.10531  -0.10531   2.65715
    R2        1.87182  -0.01673   0.00000  -0.03302  -0.03302   1.83880
    R3        2.97798  -0.01105   0.00000  -0.04117  -0.04117   2.93681
    R4        2.76246  -0.04003   0.00000  -0.10531  -0.10531   2.65715
    R5        2.65543   0.00114   0.00000   0.00242   0.00243   2.65786
    R6        2.65543   0.00114   0.00000   0.00242   0.00243   2.65786
    R7        2.64309  -0.00301   0.00000  -0.00640  -0.00640   2.63670
    R8        2.04708   0.00181   0.00000   0.00490   0.00490   2.05198
    R9        2.64049   0.00025   0.00000   0.00059   0.00058   2.64107
   R10        2.04540   0.00333   0.00000   0.00900   0.00900   2.05440
   R11        2.64049   0.00025   0.00000   0.00059   0.00058   2.64107
   R12        2.04534   0.00334   0.00000   0.00904   0.00904   2.05437
   R13        2.64309  -0.00301   0.00000  -0.00640  -0.00640   2.63670
   R14        2.04540   0.00333   0.00000   0.00900   0.00900   2.05440
   R15        2.04708   0.00181   0.00000   0.00490   0.00490   2.05198
   R16        1.87182  -0.01673   0.00000  -0.03302  -0.03302   1.83880
    A1        1.82693   0.01179   0.00000   0.06824   0.06824   1.89517
    A2        2.10023   0.00135   0.00000   0.00513   0.00513   2.10536
    A3        2.08272  -0.00270   0.00000  -0.01026  -0.01026   2.07246
    A4        2.10023   0.00135   0.00000   0.00513   0.00513   2.10536
    A5        2.10011   0.00196   0.00000   0.00771   0.00770   2.10781
    A6        2.10011   0.00196   0.00000   0.00771   0.00770   2.10781
    A7        2.08297  -0.00392   0.00000  -0.01542  -0.01540   2.06757
    A8        2.09808   0.00279   0.00000   0.01153   0.01153   2.10961
    A9        2.10917  -0.00501   0.00000  -0.02669  -0.02670   2.08247
   A10        2.07594   0.00222   0.00000   0.01516   0.01515   2.09108
   A11        2.09646  -0.00107   0.00000  -0.00482  -0.00482   2.09163
   A12        2.09363   0.00064   0.00000   0.00300   0.00300   2.09663
   A13        2.09310   0.00043   0.00000   0.00181   0.00182   2.09492
   A14        2.09433   0.00049   0.00000   0.00200   0.00198   2.09631
   A15        2.09443  -0.00024   0.00000  -0.00100  -0.00099   2.09344
   A16        2.09443  -0.00024   0.00000  -0.00100  -0.00099   2.09344
   A17        2.09646  -0.00107   0.00000  -0.00481  -0.00482   2.09163
   A18        2.09310   0.00043   0.00000   0.00181   0.00182   2.09492
   A19        2.09363   0.00064   0.00000   0.00300   0.00300   2.09663
   A20        2.09808   0.00279   0.00000   0.01153   0.01153   2.10961
   A21        2.10917  -0.00501   0.00000  -0.02669  -0.02670   2.08247
   A22        2.07593   0.00222   0.00000   0.01516   0.01515   2.09108
   A23        1.82693   0.01179   0.00000   0.06824   0.06824   1.89517
    D1        1.58200   0.00135   0.00000   0.05031   0.05031   1.63231
    D2       -1.55959   0.00135   0.00000   0.05031   0.05031  -1.50928
    D3       -3.14132   0.00072   0.00000   0.04607   0.04607  -3.09524
    D4        0.00027   0.00072   0.00000   0.04608   0.04608   0.04635
    D5        0.00027   0.00072   0.00000   0.04607   0.04607   0.04635
    D6       -3.14132   0.00072   0.00000   0.04607   0.04607  -3.09525
    D7       -1.55960   0.00135   0.00000   0.05030   0.05030  -1.50930
    D8        1.58199   0.00135   0.00000   0.05030   0.05030   1.63230
    D9       -3.14158  -0.00001   0.00000  -0.00023  -0.00024   3.14136
   D10        0.00000   0.00023   0.00000   0.00698   0.00690   0.00690
   D11        0.00001  -0.00001   0.00000  -0.00023  -0.00024  -0.00023
   D12       -3.14159   0.00023   0.00000   0.00697   0.00690  -3.13469
   D13       -3.14159  -0.00001   0.00000  -0.00023  -0.00024   3.14136
   D14        0.00000   0.00023   0.00000   0.00697   0.00690   0.00690
   D15        0.00001  -0.00001   0.00000  -0.00023  -0.00024  -0.00023
   D16       -3.14159   0.00023   0.00000   0.00698   0.00690  -3.13469
   D17       -0.00002   0.00002   0.00000   0.00046   0.00048   0.00046
   D18        3.14158   0.00008   0.00000   0.00231   0.00234  -3.13926
   D19        3.14158  -0.00022   0.00000  -0.00661  -0.00669   3.13489
   D20       -0.00000  -0.00016   0.00000  -0.00476  -0.00484  -0.00484
   D21        0.00001  -0.00001   0.00000  -0.00023  -0.00024  -0.00023
   D22       -3.14159  -0.00001   0.00000  -0.00023  -0.00024   3.14136
   D23        3.14159  -0.00007   0.00000  -0.00207  -0.00209   3.13950
   D24       -0.00000  -0.00007   0.00000  -0.00207  -0.00209  -0.00209
   D25        0.00001  -0.00001   0.00000  -0.00023  -0.00024  -0.00023
   D26       -3.14159  -0.00007   0.00000  -0.00207  -0.00209   3.13950
   D27       -3.14158  -0.00001   0.00000  -0.00023  -0.00024   3.14136
   D28        0.00000  -0.00007   0.00000  -0.00207  -0.00209  -0.00209
   D29       -0.00001   0.00002   0.00000   0.00046   0.00048   0.00046
   D30        3.14158  -0.00022   0.00000  -0.00661  -0.00669   3.13489
   D31        3.14159   0.00008   0.00000   0.00230   0.00234  -3.13926
   D32       -0.00000  -0.00016   0.00000  -0.00476  -0.00484  -0.00484
         Item               Value     Threshold  Converged?
 Maximum Force            0.040026     0.000450     NO 
 RMS     Force            0.007825     0.000300     NO 
 Maximum Displacement     0.130291     0.001800     NO 
 RMS     Displacement     0.036348     0.001200     NO 
 Predicted change in Energy=-6.722523D-03
 GradGradGradGradGradGradGradGradGradGradGradGradGradGradGradGradGradGrad

 Leave Link  103 at Sun Oct  3 13:52:05 2021, MaxMem=  536870912 cpu:       1.1
 (Enter /sw/target/amd/app/gaussian/Gaussian09RevA.02_gcc-4.9.2/g09/l202.exe)
                          Input orientation:                          
 ---------------------------------------------------------------------
 Center     Atomic      Atomic             Coordinates (Angstroms)
 Number     Number       Type             X           Y           Z
 ---------------------------------------------------------------------
      1          8           0        2.758761   -1.073823   -0.903240
      2          5           0        2.415366    0.024425   -0.095123
      3          6           0        3.307996    1.296276   -0.066646
      4          6           0        2.997788    2.374177    0.781932
      5          6           0        3.797847    3.516959    0.809439
      6          6           0        4.923380    3.597932   -0.015113
      7          6           0        5.247506    2.537033   -0.865230
      8          6           0        4.444745    1.396059   -0.888856
      9          8           0        1.249051   -0.049855    0.686743
     10          1           0        3.276325   -1.701693   -0.369633
     11          1           0        2.126962    2.309221    1.427329
     12          1           0        3.548029    4.342162    1.471639
     13          1           0        5.547797    4.487625    0.004807
     14          1           0        6.122221    2.602205   -1.507495
     15          1           0        4.693510    0.574680   -1.554098
     16          1           0        0.493940    0.239560    0.145564
 ---------------------------------------------------------------------
                    Distance matrix (angstroms):
                    1          2          3          4          5
     1  O    0.000000
     2  B    1.406102   0.000000
     3  C    2.572726   1.554093   0.000000
     4  C    3.845210   2.574835   1.406479   0.000000
     5  C    5.008817   3.863584   2.436988   1.395279   0.000000
     6  C    5.224906   4.366519   2.812426   2.416767   1.397593
     7  C    4.385610   3.863584   2.436988   2.793009   2.422041
     8  C    2.990497   2.574835   1.406479   2.417009   2.793009
     9  O    2.419871   1.406102   2.572726   2.990497   4.385611
    10  H    0.973052   1.948356   3.013407   4.244573   5.375549
    11  H    4.156406   2.760676   2.157049   1.085861   2.152273
    12  H    5.966229   4.730806   3.420725   2.156717   1.087142
    13  H    6.287526   5.453647   3.899554   3.401931   2.156838
    14  H    5.019081   4.730806   3.420725   3.880149   3.407003
    15  H    2.623820   2.760676   2.157049   3.401573   3.878856
    16  H    2.820351   1.948356   3.013402   3.351239   4.700838
                    6          7          8          9         10
     6  C    0.000000
     7  C    1.397592   0.000000
     8  C    2.416767   1.395279   0.000000
     9  O    5.224906   5.008817   3.845210   0.000000
    10  H    5.560980   4.700847   3.351248   2.820344   0.000000
    11  H    3.400201   3.878856   3.401573   2.623821   4.542856
    12  H    2.157753   3.407003   3.880149   5.019081   6.323946
    13  H    1.087128   2.156838   3.401931   6.287526   6.603594
    14  H    2.157753   1.087142   2.156717   5.966229   5.283691
    15  H    3.400201   2.152273   1.085861   4.156406   2.931423
    16  H    5.560972   5.375544   4.244570   0.973052   3.431554
                   11         12         13         14         15
    11  H    0.000000
    12  H    2.480775   0.000000
    13  H    4.297805   2.484316   0.000000
    14  H    4.965997   4.304551   2.484317   0.000000
    15  H    4.299385   4.965998   4.297805   2.480775   0.000000
    16  H    2.931412   5.283680   6.603585   6.323942   4.542856
                   16
    16  H    0.000000
 Stoichiometry    C6H7BO2
 Framework group  C1[X(C6H7BO2)]
 Deg. of freedom    42
 Full point group                 C1      NOp   1
 Largest Abelian subgroup         C1      NOp   1
 Largest concise Abelian subgroup C1      NOp   1
                         Standard orientation:                         
 ---------------------------------------------------------------------
 Center     Atomic      Atomic             Coordinates (Angstroms)
 Number     Number       Type             X           Y           Z
 ---------------------------------------------------------------------
      1          8           0       -2.448692   -1.209934   -0.002153
      2          5           0       -1.732328   -0.000000   -0.000001
      3          6           0       -0.178236   -0.000000   -0.000000
      4          6           0        0.541279    1.207105    0.058139
      5          6           0        1.936556    1.209605    0.058538
      6          6           0        2.634191   -0.000000    0.000000
      7          6           0        1.936556   -1.209605   -0.058538
      8          6           0        0.541279   -1.207105   -0.058139
      9          8           0       -2.448693    1.209933    0.002153
     10          1           0       -2.655480   -1.449545    0.917986
     11          1           0       -0.000234    2.146879    0.109941
     12          1           0        2.480537    2.149663    0.106003
     13          1           0        3.721319    0.000000   -0.000000
     14          1           0        2.480537   -2.149664   -0.106003
     15          1           0       -0.000234   -2.146879   -0.109941
     16          1           0       -2.655470    1.449553   -0.917985
 ---------------------------------------------------------------------
 Rotational constants (GHZ):      3.5673926      1.1286110      0.8628936
 Leave Link  202 at Sun Oct  3 13:52:05 2021, MaxMem=  536870912 cpu:       0.0
 (Enter /sw/target/amd/app/gaussian/Gaussian09RevA.02_gcc-4.9.2/g09/l301.exe)
 Standard basis: 6-31G(d) (6D, 7F)
 Ernie: Thresh=  0.10000D-02 Tol=  0.10000D-05 Strict=F.
 There are   149 symmetry adapted basis functions of A   symmetry.
 Integral buffers will be    131072 words long.
 Raffenetti 2 integral format.
 Two-electron integral symmetry is turned on.
   149 basis functions,   280 primitive gaussians,   149 cartesian basis functions
    32 alpha electrons       32 beta electrons
       nuclear repulsion energy       391.5242682854 Hartrees.
 IExCor=  402 DFT=T Ex+Corr=B3LYP ExCW=0 ScaHFX=  0.200000
 ScaDFX=  0.800000  0.720000  1.000000  0.810000 ScalE2=  1.000000  1.000000
 IRadAn=      0 IRanWt=     -1 IRanGd=            0 ICorTp=0
 NAtoms=   16 NActive=   16 NUniq=   16 SFac= 7.50D-01 NAtFMM=   80 NAOKFM=F Big=F
 Leave Link  301 at Sun Oct  3 13:52:07 2021, MaxMem=  536870912 cpu:       0.1
 (Enter /sw/target/amd/app/gaussian/Gaussian09RevA.02_gcc-4.9.2/g09/l302.exe)
 NPDir=0 NMtPBC=     1 NCelOv=     1 NCel=       1 NClECP=     1 NCelD=      1
         NCelK=      1 NCelE2=     1 NClLst=     1 CellRange=     0.0.
 One-electron integrals computed using PRISM.
 NBasis=   149 RedAO= T  NBF=   149
 NBsUse=   149 1.00D-06 NBFU=   149
 Precomputing XC quadrature grid using
 IXCGrd= 2 IRadAn=           0 IRanWt=          -1 IRanGd=           0 AccXCQ= 1.00D-10.
 NRdTot=     999 NPtTot=      126816 NUsed=      134030 NTot=      134062
 NSgBfM=   149   149   149   149   149 NAtAll=    16    16.
 Leave Link  302 at Sun Oct  3 13:52:18 2021, MaxMem=  536870912 cpu:       0.9
 (Enter /sw/target/amd/app/gaussian/Gaussian09RevA.02_gcc-4.9.2/g09/l303.exe)
 DipDrv:  MaxL=1.
 Leave Link  303 at Sun Oct  3 13:52:28 2021, MaxMem=  536870912 cpu:       0.1
 (Enter /sw/target/amd/app/gaussian/Gaussian09RevA.02_gcc-4.9.2/g09/l401.exe)
 Initial guess read from the read-write file.
 B after Tr=     0.000000    0.000000    0.000000
         Rot=    1.000000    0.000000    0.000000    0.000000 Ang=   0.00 deg.
 Guess basis will be translated and rotated to current coordinates.
 Initial guess orbital symmetries:
       Occupied  (A) (A) (A) (A) (A) (A) (A) (A) (A) (A) (A) (A)
                 (A) (A) (A) (A) (A) (A) (A) (A) (A) (A) (A) (A)
                 (A) (A) (A) (A) (A) (A) (A) (A)
       Virtual   (A) (A) (A) (A) (A) (A) (A) (A) (A) (A) (A) (A)
                 (A) (A) (A) (A) (A) (A) (A) (A) (A) (A) (A) (A)
                 (A) (A) (A) (A) (A) (A) (A) (A) (A) (A) (A) (A)
                 (A) (A) (A) (A) (A) (A) (A) (A) (A) (A) (A) (A)
                 (A) (A) (A) (A) (A) (A) (A) (A) (A) (A) (A) (A)
                 (A) (A) (A) (A) (A) (A) (A) (A) (A) (A) (A) (A)
                 (A) (A) (A) (A) (A) (A) (A) (A) (A) (A) (A) (A)
                 (A) (A) (A) (A) (A) (A) (A) (A) (A) (A) (A) (A)
                 (A) (A) (A) (A) (A) (A) (A) (A) (A) (A) (A) (A)
                 (A) (A) (A) (A) (A) (A) (A) (A) (A)
 The electronic state of the initial guess is 1-A.
 Generating alternative initial guess.
 Harris functional with IExCor=  402 diagonalized for initial guess.
 ExpMin= 1.27D-01 ExpMax= 5.48D+03 ExpMxC= 8.25D+02 IAcc=1 IRadAn=         1 AccDes= 0.00D+00
 HarFok:  IExCor=  402 AccDes= 0.00D+00 IRadAn=         1 IDoV= 1
 ScaDFX=  1.000000  1.000000  1.000000  1.000000
 FoFCou: FMM=F IPFlag=           0 FMFlag=      100000 FMFlg1=           0
         NFxFlg=           0 DoJE=T BraDBF=F KetDBF=T FulRan=T
         Omega=  0.000000  0.000000  1.000000  0.000000  0.000000 ICntrl=     500 IOpCl=  0
         NMat0=    1 NMatS0=    1 NMatT0=    0 NMatD0=    1 NMtDS0=    0 NMtDT0=    0
         I1Cent=           4 NGrid=           0.
 Petite list used in FoFCou.
 Harris En= -408.339850486643    
 Leave Link  401 at Sun Oct  3 13:52:41 2021, MaxMem=  536870912 cpu:       3.9
 (Enter /sw/target/amd/app/gaussian/Gaussian09RevA.02_gcc-4.9.2/g09/l502.exe)
 Closed shell SCF:
 Requested convergence on RMS density matrix=1.00D-08 within  64 cycles.
 Requested convergence on MAX density matrix=1.00D-06.
 Requested convergence on             energy=1.00D-06.
 No special actions if energy rises.
 Using DIIS extrapolation, IDIIS=  1040.
 Integral symmetry usage will be decided dynamically.
       133873 words used for storage of precomputed grid.
 Keep R1 ints in memory in canonical form, NReq=64341372.
 IEnd=      208033 IEndB=      208033 NGot=   536870912 MDV=   474243526
 LenX=   474243526 LenY=   474220884
 Symmetry not used in FoFDir.
 MinBra= 0 MaxBra= 2 Meth= 1.
 IRaf=       0 NMat=   1 IRICut=       1 DoRegI=T DoRafI=F ISym2E= 0 JSym2E=0.
 Integral accuracy reduced to 1.0D-05 until final iterations.

 Cycle   1  Pass 0  IDiag  1:
 E= -400.757255925471    
 DIIS: error= 1.30D-01 at cycle   1 NSaved=   1.
 NSaved= 1 IEnMin= 1 EnMin= -400.757255925471     IErMin= 1 ErrMin= 1.30D-01
 ErrMax= 1.30D-01 EMaxC= 1.00D-01 BMatC= 2.57D+00 BMatP= 2.57D+00
 IDIUse=3 WtCom= 0.00D+00 WtEn= 1.00D+00
 Coeff-Com:  0.100D+01
 Coeff-En:   0.100D+01
 Coeff:      0.100D+01
 Recover alternate guess density for next cycle.
 RMSDP=2.72D-02 MaxDP=7.15D-01              OVMax= 0.00D+00

 Cycle   2  Pass 0  IDiag  1:
 E= -407.944576547051     Delta-E=       -7.187320621580 Rises=F Damp=F
 DIIS: error= 4.93D-02 at cycle   2 NSaved=   2.
 NSaved= 2 IEnMin= 2 EnMin= -407.944576547051     IErMin= 2 ErrMin= 4.93D-02
 ErrMax= 4.93D-02 EMaxC= 1.00D-01 BMatC= 3.10D-01 BMatP= 2.57D+00
 IDIUse=3 WtCom= 5.07D-01 WtEn= 4.93D-01
 Coeff-Com:  0.257D-02 0.997D+00
 Coeff-En:   0.000D+00 0.100D+01
 Coeff:      0.130D-02 0.999D+00
 Gap=     0.199 Goal=   None    Shift=    0.000
 RMSDP=8.15D-03 MaxDP=1.59D-01 DE=-7.19D+00 OVMax= 1.75D-01

 Cycle   3  Pass 0  IDiag  1:
 E= -407.820166796136     Delta-E=        0.124409750916 Rises=F Damp=F
 DIIS: error= 6.28D-02 at cycle   3 NSaved=   3.
 NSaved= 3 IEnMin= 2 EnMin= -407.944576547051     IErMin= 2 ErrMin= 4.93D-02
 ErrMax= 6.28D-02 EMaxC= 1.00D-01 BMatC= 4.97D-01 BMatP= 3.10D-01
 IDIUse=2 WtCom= 0.00D+00 WtEn= 1.00D+00
 Coeff-En:   0.000D+00 0.586D+00 0.414D+00
 Coeff:      0.000D+00 0.586D+00 0.414D+00
 Gap=     0.252 Goal=   None    Shift=    0.000
 RMSDP=4.57D-03 MaxDP=8.75D-02 DE= 1.24D-01 OVMax= 1.22D-01

 Cycle   4  Pass 0  IDiag  1:
 E= -408.224699728381     Delta-E=       -0.404532932245 Rises=F Damp=F
 DIIS: error= 5.85D-03 at cycle   4 NSaved=   4.
 NSaved= 4 IEnMin= 4 EnMin= -408.224699728381     IErMin= 4 ErrMin= 5.85D-03
 ErrMax= 5.85D-03 EMaxC= 1.00D-01 BMatC= 3.67D-03 BMatP= 3.10D-01
 IDIUse=3 WtCom= 9.42D-01 WtEn= 5.85D-02
 Coeff-Com: -0.266D-02 0.174D+00 0.118D+00 0.711D+00
 Coeff-En:   0.000D+00 0.000D+00 0.000D+00 0.100D+01
 Coeff:     -0.251D-02 0.164D+00 0.111D+00 0.728D+00
 Gap=     0.209 Goal=   None    Shift=    0.000
 RMSDP=7.03D-04 MaxDP=1.31D-02 DE=-4.05D-01 OVMax= 1.93D-02

 Cycle   5  Pass 0  IDiag  1:
 E= -408.227554963458     Delta-E=       -0.002855235078 Rises=F Damp=F
 DIIS: error= 2.05D-03 at cycle   5 NSaved=   5.
 NSaved= 5 IEnMin= 5 EnMin= -408.227554963458     IErMin= 5 ErrMin= 2.05D-03
 ErrMax= 2.05D-03 EMaxC= 1.00D-01 BMatC= 1.17D-03 BMatP= 3.67D-03
 IDIUse=3 WtCom= 9.79D-01 WtEn= 2.05D-02
 Coeff-Com:  0.177D-03 0.285D-01 0.109D-01 0.369D+00 0.592D+00
 Coeff-En:   0.000D+00 0.000D+00 0.000D+00 0.181D+00 0.819D+00
 Coeff:      0.174D-03 0.280D-01 0.107D-01 0.365D+00 0.597D+00
 Gap=     0.208 Goal=   None    Shift=    0.000
 RMSDP=2.98D-04 MaxDP=8.70D-03 DE=-2.86D-03 OVMax= 1.12D-02

 Cycle   6  Pass 0  IDiag  1:
 E= -408.228598392659     Delta-E=       -0.001043429201 Rises=F Damp=F
 DIIS: error= 7.33D-04 at cycle   6 NSaved=   6.
 NSaved= 6 IEnMin= 6 EnMin= -408.228598392659     IErMin= 6 ErrMin= 7.33D-04
 ErrMax= 7.33D-04 EMaxC= 1.00D-01 BMatC= 7.04D-05 BMatP= 1.17D-03
 IDIUse=3 WtCom= 9.93D-01 WtEn= 7.33D-03
 Coeff-Com:  0.158D-04 0.379D-02-0.190D-02 0.129D+00 0.284D+00 0.584D+00
 Coeff-En:   0.000D+00 0.000D+00 0.000D+00 0.000D+00 0.000D+00 0.100D+01
 Coeff:      0.157D-04 0.376D-02-0.188D-02 0.129D+00 0.282D+00 0.588D+00
 Gap=     0.208 Goal=   None    Shift=    0.000
 RMSDP=7.67D-05 MaxDP=2.15D-03 DE=-1.04D-03 OVMax= 4.81D-03

 Cycle   7  Pass 0  IDiag  1:
 E= -408.228654654901     Delta-E=       -0.000056262242 Rises=F Damp=F
 DIIS: error= 4.75D-04 at cycle   7 NSaved=   7.
 NSaved= 7 IEnMin= 7 EnMin= -408.228654654901     IErMin= 7 ErrMin= 4.75D-04
 ErrMax= 4.75D-04 EMaxC= 1.00D-01 BMatC= 1.40D-05 BMatP= 7.04D-05
 IDIUse=3 WtCom= 9.95D-01 WtEn= 4.75D-03
 Coeff-Com: -0.187D-04 0.557D-03-0.206D-02 0.580D-01 0.140D+00 0.374D+00
 Coeff-Com:  0.429D+00
 Coeff-En:   0.000D+00 0.000D+00 0.000D+00 0.000D+00 0.000D+00 0.162D+00
 Coeff-En:   0.838D+00
 Coeff:     -0.186D-04 0.554D-03-0.205D-02 0.578D-01 0.140D+00 0.373D+00
 Coeff:      0.431D+00
 Gap=     0.209 Goal=   None    Shift=    0.000
 RMSDP=2.97D-05 MaxDP=6.76D-04 DE=-5.63D-05 OVMax= 1.92D-03

 Cycle   8  Pass 0  IDiag  1:
 E= -408.228670260716     Delta-E=       -0.000015605815 Rises=F Damp=F
 DIIS: error= 6.49D-05 at cycle   8 NSaved=   8.
 NSaved= 8 IEnMin= 8 EnMin= -408.228670260716     IErMin= 8 ErrMin= 6.49D-05
 ErrMax= 6.49D-05 EMaxC= 1.00D-01 BMatC= 3.52D-07 BMatP= 1.40D-05
 IDIUse=1 WtCom= 1.00D+00 WtEn= 0.00D+00
 Coeff-Com:  0.425D-05-0.529D-05-0.913D-03 0.181D-01 0.464D-01 0.135D+00
 Coeff-Com:  0.209D+00 0.593D+00
 Coeff:      0.425D-05-0.529D-05-0.913D-03 0.181D-01 0.464D-01 0.135D+00
 Coeff:      0.209D+00 0.593D+00
 Gap=     0.209 Goal=   None    Shift=    0.000
 RMSDP=5.21D-06 MaxDP=1.08D-04 DE=-1.56D-05 OVMax= 2.66D-04

 Initial convergence to 1.0D-05 achieved.  Increase integral accuracy.
 Cycle   9  Pass 1  IDiag  1:
 E= -408.228655103073     Delta-E=        0.000015157643 Rises=F Damp=F
 DIIS: error= 6.14D-05 at cycle   1 NSaved=   1.
 NSaved= 1 IEnMin= 1 EnMin= -408.228655103073     IErMin= 1 ErrMin= 6.14D-05
 ErrMax= 6.14D-05 EMaxC= 1.00D-01 BMatC= 8.49D-08 BMatP= 8.49D-08
 IDIUse=1 WtCom= 1.00D+00 WtEn= 0.00D+00
 Coeff-Com:  0.100D+01
 Coeff:      0.100D+01
 Gap=     0.209 Goal=   None    Shift=    0.000
 RMSDP=5.21D-06 MaxDP=1.08D-04 DE= 1.52D-05 OVMax= 1.18D-04

 Cycle  10  Pass 1  IDiag  1:
 E= -408.228655196766     Delta-E=       -0.000000093693 Rises=F Damp=F
 DIIS: error= 1.29D-05 at cycle   2 NSaved=   2.
 NSaved= 2 IEnMin= 2 EnMin= -408.228655196766     IErMin= 2 ErrMin= 1.29D-05
 ErrMax= 1.29D-05 EMaxC= 1.00D-01 BMatC= 2.65D-08 BMatP= 8.49D-08
 IDIUse=1 WtCom= 1.00D+00 WtEn= 0.00D+00
 Coeff-Com:  0.295D+00 0.705D+00
 Coeff:      0.295D+00 0.705D+00
 Gap=     0.209 Goal=   None    Shift=    0.000
 RMSDP=1.73D-06 MaxDP=5.51D-05 DE=-9.37D-08 OVMax= 9.00D-05

 Cycle  11  Pass 1  IDiag  1:
 E= -408.228655205843     Delta-E=       -0.000000009077 Rises=F Damp=F
 DIIS: error= 1.20D-05 at cycle   3 NSaved=   3.
 NSaved= 3 IEnMin= 3 EnMin= -408.228655205843     IErMin= 3 ErrMin= 1.20D-05
 ErrMax= 1.20D-05 EMaxC= 1.00D-01 BMatC= 1.63D-08 BMatP= 2.65D-08
 IDIUse=1 WtCom= 1.00D+00 WtEn= 0.00D+00
 Coeff-Com: -0.206D-02 0.438D+00 0.564D+00
 Coeff:     -0.206D-02 0.438D+00 0.564D+00
 Gap=     0.209 Goal=   None    Shift=    0.000
 RMSDP=9.79D-07 MaxDP=2.91D-05 DE=-9.08D-09 OVMax= 5.90D-05

 Cycle  12  Pass 1  IDiag  1:
 E= -408.228655221760     Delta-E=       -0.000000015917 Rises=F Damp=F
 DIIS: error= 3.91D-06 at cycle   4 NSaved=   4.
 NSaved= 4 IEnMin= 4 EnMin= -408.228655221760     IErMin= 4 ErrMin= 3.91D-06
 ErrMax= 3.91D-06 EMaxC= 1.00D-01 BMatC= 1.10D-09 BMatP= 1.63D-08
 IDIUse=1 WtCom= 1.00D+00 WtEn= 0.00D+00
 Coeff-Com: -0.134D-01 0.227D+00 0.335D+00 0.451D+00
 Coeff:     -0.134D-01 0.227D+00 0.335D+00 0.451D+00
 Gap=     0.209 Goal=   None    Shift=    0.000
 RMSDP=2.69D-07 MaxDP=8.11D-06 DE=-1.59D-08 OVMax= 1.77D-05

 Cycle  13  Pass 1  IDiag  1:
 E= -408.228655222925     Delta-E=       -0.000000001165 Rises=F Damp=F
 DIIS: error= 7.04D-07 at cycle   5 NSaved=   5.
 NSaved= 5 IEnMin= 5 EnMin= -408.228655222925     IErMin= 5 ErrMin= 7.04D-07
 ErrMax= 7.04D-07 EMaxC= 1.00D-01 BMatC= 5.59D-11 BMatP= 1.10D-09
 IDIUse=1 WtCom= 1.00D+00 WtEn= 0.00D+00
 Coeff-Com: -0.685D-02 0.822D-01 0.130D+00 0.244D+00 0.551D+00
 Coeff:     -0.685D-02 0.822D-01 0.130D+00 0.244D+00 0.551D+00
 Gap=     0.209 Goal=   None    Shift=    0.000
 RMSDP=6.55D-08 MaxDP=1.56D-06 DE=-1.17D-09 OVMax= 3.70D-06

 Cycle  14  Pass 1  IDiag  1:
 E= -408.228655222979     Delta-E=       -0.000000000054 Rises=F Damp=F
 DIIS: error= 1.37D-07 at cycle   6 NSaved=   6.
 NSaved= 6 IEnMin= 6 EnMin= -408.228655222979     IErMin= 6 ErrMin= 1.37D-07
 ErrMax= 1.37D-07 EMaxC= 1.00D-01 BMatC= 1.73D-12 BMatP= 5.59D-11
 IDIUse=1 WtCom= 1.00D+00 WtEn= 0.00D+00
 Coeff-Com: -0.196D-02 0.210D-01 0.349D-01 0.735D-01 0.225D+00 0.647D+00
 Coeff:     -0.196D-02 0.210D-01 0.349D-01 0.735D-01 0.225D+00 0.647D+00
 Gap=     0.209 Goal=   None    Shift=    0.000
 RMSDP=1.17D-08 MaxDP=2.65D-07 DE=-5.35D-11 OVMax= 6.95D-07

 Cycle  15  Pass 1  IDiag  1:
 E= -408.228655222977     Delta-E=        0.000000000002 Rises=F Damp=F
 DIIS: error= 3.42D-08 at cycle   7 NSaved=   7.
 NSaved= 7 IEnMin= 6 EnMin= -408.228655222979     IErMin= 7 ErrMin= 3.42D-08
 ErrMax= 3.42D-08 EMaxC= 1.00D-01 BMatC= 1.61D-13 BMatP= 1.73D-12
 IDIUse=1 WtCom= 1.00D+00 WtEn= 0.00D+00
 Coeff-Com: -0.175D-03 0.507D-03 0.166D-02 0.646D-02 0.371D-01 0.266D+00
 Coeff-Com:  0.689D+00
 Coeff:     -0.175D-03 0.507D-03 0.166D-02 0.646D-02 0.371D-01 0.266D+00
 Coeff:      0.689D+00
 Gap=     0.209 Goal=   None    Shift=    0.000
 RMSDP=2.99D-09 MaxDP=4.44D-08 DE= 1.59D-12 OVMax= 8.37D-08

 SCF Done:  E(RB3LYP) =  -408.228655223     A.U. after   15 cycles
             Convg  =    0.2987D-08             -V/T =  2.0094
 KE= 4.044452010116D+02 PE=-1.735313982683D+03 EE= 5.311158581630D+02
 Leave Link  502 at Sun Oct  3 13:57:20 2021, MaxMem=  536870912 cpu:      69.1
 (Enter /sw/target/amd/app/gaussian/Gaussian09RevA.02_gcc-4.9.2/g09/l508.exe)
 QCSCF skips out because SCF is already converged.
 Leave Link  508 at Sun Oct  3 13:57:21 2021, MaxMem=  536870912 cpu:       0.0
 (Enter /sw/target/amd/app/gaussian/Gaussian09RevA.02_gcc-4.9.2/g09/l701.exe)
 Compute integral first derivatives.
 ... and contract with generalized density number  0.
 Leave Link  701 at Sun Oct  3 13:57:27 2021, MaxMem=  536870912 cpu:       0.5
 (Enter /sw/target/amd/app/gaussian/Gaussian09RevA.02_gcc-4.9.2/g09/l702.exe)
 L702 exits ... SP integral derivatives will be done elsewhere.
 Leave Link  702 at Sun Oct  3 13:57:27 2021, MaxMem=  536870912 cpu:       0.1
 (Enter /sw/target/amd/app/gaussian/Gaussian09RevA.02_gcc-4.9.2/g09/l703.exe)
 Compute integral first derivatives, UseDBF=F ICtDFT=           0.
 Integral derivatives from FoFDir, PRISM(SPDF).
 Calling FoFJK, ICntrl=      2127 FMM=F ISym2X=0 I1Cent= 0 IOpClX= 0 NMat=1 NMatS=1 NMatT=0.
 FoFCou: FMM=F IPFlag=           0 FMFlag=      100000 FMFlg1=         800
         NFxFlg=           0 DoJE=F BraDBF=F KetDBF=F FulRan=T
         Omega=  0.000000  0.000000  1.000000  0.000000  0.000000 ICntrl=    2127 IOpCl=  0
         NMat0=    1 NMatS0=    1 NMatT0=    0 NMatD0=    1 NMtDS0=    0 NMtDT0=    0
         I1Cent=           0 NGrid=           0.
 Symmetry not used in FoFCou.
 Leave Link  703 at Sun Oct  3 13:58:57 2021, MaxMem=  536870912 cpu:      26.9
 (Enter /sw/target/amd/app/gaussian/Gaussian09RevA.02_gcc-4.9.2/g09/l716.exe)
 Dipole        = 3.49867206D-01 4.84878258D-06-5.37162311D-07
 ***** Axes restored to original set *****
 -------------------------------------------------------------------
 Center     Atomic                   Forces (Hartrees/Bohr)
 Number     Number              X              Y              Z
 -------------------------------------------------------------------
      1        8           0.004481483    0.006912515    0.011803958
      2        5          -0.007106034   -0.010125148   -0.000226700
      3        6          -0.001173576   -0.001672017   -0.000037549
      4        6           0.002651115    0.003432956   -0.000049000
      5        6          -0.000784373   -0.000597877    0.000479289
      6        6          -0.000195348   -0.000278208   -0.000006221
      7        6          -0.000285100   -0.000926031   -0.000513383
      8        6           0.002324488    0.003656473    0.000207695
      9        8           0.005222396    0.006913750   -0.011494246
     10        1          -0.003515598   -0.001875559   -0.005788134
     11        1          -0.000547645   -0.000843565   -0.000095487
     12        1           0.000120794    0.000072457   -0.000047912
     13        1           0.000079262    0.000112851    0.000002521
     14        1           0.000026014    0.000136736    0.000052580
     15        1          -0.000608772   -0.000804124    0.000058599
     16        1          -0.000689105   -0.004115209    0.005653991
 -------------------------------------------------------------------
 Cartesian Forces:  Max     0.011803958 RMS     0.003853152
 Leave Link  716 at Sun Oct  3 13:58:58 2021, MaxMem=  536870912 cpu:       0.1
 (Enter /sw/target/amd/app/gaussian/Gaussian09RevA.02_gcc-4.9.2/g09/l103.exe)

 GradGradGradGradGradGradGradGradGradGradGradGradGradGradGradGradGradGrad
 Berny optimization.
 Using GEDIIS/GDIIS optimizer.
 Internal  Forces:  Max     0.010004944 RMS     0.002310126
 Search for a local minimum.
 Step number   2 out of a maximum of   81
 All quantities printed in internal units (Hartrees-Bohrs-Radians)
 RMS Force = .23101D-02 SwitMx=.10000D-02 MixMth= 1
 Mixed Optimization -- RFO/linear search
 Update second derivatives using D2CorX and points    1    2
 DE= -8.37D-03 DEPred=-6.72D-03 R= 1.24D+00
 SS=  1.41D+00  RLast= 2.40D-01 DXNew= 5.0454D-01 7.1917D-01
 Trust test= 1.24D+00 RLast= 2.40D-01 DXMaxT set to 5.05D-01
 Use linear search instead of GDIIS.
     Eigenvalues ---    0.00296   0.00837   0.01322   0.01403   0.01479
     Eigenvalues ---    0.02031   0.02062   0.02067   0.02093   0.02114
     Eigenvalues ---    0.02116   0.02120   0.02125   0.12164   0.16000
     Eigenvalues ---    0.16000   0.16000   0.16000   0.16000   0.16095
     Eigenvalues ---    0.21993   0.22000   0.23319   0.25000   0.25000
     Eigenvalues ---    0.25028   0.26227   0.35586   0.35602   0.35661
     Eigenvalues ---    0.35708   0.35712   0.36736   0.37732   0.41430
     Eigenvalues ---    0.41560   0.45004   0.45510   0.45810   0.46031
     Eigenvalues ---    0.48896   0.493941000.000001000.000001000.00000
     Eigenvalues --- 1000.000001000.000001000.000001000.000001000.00000
     Eigenvalues --- 1000.000001000.000001000.000001000.000001000.00000
     Eigenvalues --- 1000.000001000.000001000.000001000.000001000.00000
     Eigenvalues --- 1000.000001000.000001000.000001000.000001000.00000
     Eigenvalues --- 1000.000001000.000001000.000001000.000001000.00000
     Eigenvalues --- 1000.00000
 RFO step:  Lambda=-2.24323504D-03 EMin= 2.96178912D-03
 Quartic linear search produced a step of  0.33164.
 Iteration  1 RMS(Cart)=  0.05942413 RMS(Int)=  0.00398993
 Iteration  2 RMS(Cart)=  0.00410703 RMS(Int)=  0.00001293
 Iteration  3 RMS(Cart)=  0.00001342 RMS(Int)=  0.00000990
 Iteration  4 RMS(Cart)=  0.00000000 RMS(Int)=  0.00000990
 Variable       Old X    -DE/DX   Delta X   Delta X   Delta X     New X
                                 (Linear)    (Quad)   (Total)
    R1        2.65715  -0.00715  -0.03492  -0.00613  -0.04105   2.61609
    R2        1.83880  -0.00384  -0.01095  -0.00444  -0.01539   1.82341
    R3        2.93681   0.00280  -0.01365   0.02272   0.00907   2.94588
    R4        2.65715  -0.00715  -0.03492  -0.00613  -0.04105   2.61610
    R5        2.65786   0.00132   0.00080   0.00355   0.00437   2.66223
    R6        2.65786   0.00132   0.00080   0.00355   0.00437   2.66223
    R7        2.63670  -0.00090  -0.00212  -0.00146  -0.00358   2.63311
    R8        2.05198   0.00043   0.00163   0.00069   0.00231   2.05429
    R9        2.64107   0.00002   0.00019  -0.00015   0.00003   2.64110
   R10        2.05440  -0.00000   0.00298  -0.00169   0.00130   2.05570
   R11        2.64107   0.00002   0.00019  -0.00015   0.00003   2.64110
   R12        2.05437   0.00014   0.00300  -0.00118   0.00182   2.05619
   R13        2.63670  -0.00090  -0.00212  -0.00146  -0.00358   2.63311
   R14        2.05440  -0.00000   0.00298  -0.00169   0.00130   2.05570
   R15        2.05198   0.00043   0.00162   0.00069   0.00231   2.05429
   R16        1.83880  -0.00384  -0.01095  -0.00444  -0.01539   1.82341
    A1        1.89517   0.01000   0.02263   0.06591   0.08854   1.98371
    A2        2.10536  -0.00094   0.00170  -0.00599  -0.00429   2.10107
    A3        2.07246   0.00188  -0.00340   0.01198   0.00858   2.08104
    A4        2.10536  -0.00094   0.00170  -0.00599  -0.00429   2.10107
    A5        2.10781   0.00096   0.00255   0.00339   0.00593   2.11374
    A6        2.10781   0.00096   0.00255   0.00339   0.00593   2.11374
    A7        2.06757  -0.00191  -0.00511  -0.00678  -0.01187   2.05570
    A8        2.10961   0.00106   0.00382   0.00390   0.00773   2.11734
    A9        2.08247  -0.00147  -0.00886  -0.00471  -0.01357   2.06890
   A10        2.09108   0.00041   0.00502   0.00083   0.00585   2.09693
[...]
 Alpha virt. eigenvalues --    1.49880   1.50459   1.52674   1.54705   1.60457
 Alpha virt. eigenvalues --    1.66983   1.68701   1.74612   1.75624   1.81123
 Alpha virt. eigenvalues --    1.82171   1.84327   1.88216   1.92447   1.98311
 Alpha virt. eigenvalues --    2.03594   2.04312   2.12035   2.12342   2.15193
 Alpha virt. eigenvalues --    2.15356   2.17029   2.23266   2.23985   2.27155
 Alpha virt. eigenvalues --    2.32233   2.38622   2.40094   2.40111   2.45752
 Alpha virt. eigenvalues --    2.57764   2.60371   2.60760   2.67192   2.71221
 Alpha virt. eigenvalues --    2.74225   2.75790   2.80442   2.86632   2.87669
 Alpha virt. eigenvalues --    2.91269   3.11938   3.41596   3.58655   3.86948
 Alpha virt. eigenvalues --    4.08737   4.10219   4.14728   4.20142   4.35360
 Alpha virt. eigenvalues --    4.42105   4.71388
          Condensed to atoms (all electrons):
              1          2          3          4          5          6
     1  O    7.999271   0.408281  -0.050078   0.000118  -0.000032  -0.000002
     2  B    0.408281   3.625734   0.433600  -0.059461   0.009185   0.000014
     3  C   -0.050078   0.433600   4.878499   0.419222  -0.028711  -0.020895
     4  C    0.000118  -0.059461   0.419222   5.172045   0.418354  -0.042432
     5  C   -0.000032   0.009185  -0.028711   0.418354   5.025969   0.481376
     6  C   -0.000002   0.000014  -0.020895  -0.042432   0.481376   5.006610
     7  C    0.000212   0.009185  -0.028711  -0.040217  -0.024756   0.481376
     8  C    0.005733  -0.059461   0.419222  -0.018658  -0.040217  -0.042432
     9  O   -0.039665   0.408281  -0.050078   0.005733   0.000212  -0.000002
    10  H    0.242940  -0.027456   0.005306  -0.000024   0.000003   0.000000
    11  H    0.000118  -0.013151  -0.040686   0.363259  -0.055337   0.004637
    12  H    0.000000  -0.000233   0.003464  -0.040929   0.359516  -0.042235
    13  H    0.000000   0.000011   0.000504   0.004775  -0.042635   0.362208
    14  H   -0.000001  -0.000233   0.003464   0.000698   0.004627  -0.042235
    15  H    0.007743  -0.013151  -0.040686   0.007380   0.000114   0.004637
    16  H   -0.003086  -0.027456   0.005306  -0.000407   0.000004   0.000000
              7          8          9         10         11         12
     1  O    0.000212   0.005733  -0.039665   0.242940   0.000118   0.000000
     2  B    0.009185  -0.059461   0.408281  -0.027456  -0.013151  -0.000233
     3  C   -0.028711   0.419222  -0.050078   0.005306  -0.040686   0.003464
     4  C   -0.040217  -0.018658   0.005733  -0.000024   0.363259  -0.040929
     5  C   -0.024756  -0.040217   0.000212   0.000003  -0.055337   0.359516
     6  C    0.481376  -0.042432  -0.000002   0.000000   0.004637  -0.042235
     7  C    5.025969   0.418354  -0.000032   0.000004   0.000114   0.004627
     8  C    0.418354   5.172045   0.000118  -0.000407   0.007380   0.000698
     9  O   -0.000032   0.000118   7.999271  -0.003086   0.007743  -0.000001
    10  H    0.000004  -0.000407  -0.003086   0.392809  -0.000015  -0.000000
    11  H    0.000114   0.007380   0.007743  -0.000015   0.575464  -0.004899
    12  H    0.004627   0.000698  -0.000001  -0.000000  -0.004899   0.585639
    13  H   -0.042635   0.004775   0.000000   0.000000  -0.000169  -0.005759
    14  H    0.359516  -0.040929   0.000000  -0.000000   0.000019  -0.000167
    15  H   -0.055337   0.363259   0.000118  -0.000420  -0.000134   0.000019
    16  H    0.000003  -0.000024   0.242940   0.005897  -0.000420  -0.000000
             13         14         15         16
     1  O    0.000000  -0.000001   0.007743  -0.003086
     2  B    0.000011  -0.000233  -0.013151  -0.027456
     3  C    0.000504   0.003464  -0.040686   0.005306
     4  C    0.004775   0.000698   0.007380  -0.000407
     5  C   -0.042635   0.004627   0.000114   0.000004
     6  C    0.362208  -0.042235   0.004637   0.000000
     7  C   -0.042635   0.359516  -0.055337   0.000003
     8  C    0.004775  -0.040929   0.363259  -0.000024
     9  O    0.000000   0.000000   0.000118   0.242940
    10  H    0.000000  -0.000000  -0.000420   0.005897
    11  H   -0.000169   0.000019  -0.000134  -0.000420
    12  H   -0.005759  -0.000167   0.000019  -0.000000
    13  H    0.596019  -0.005759  -0.000169   0.000000
    14  H   -0.005759   0.585639  -0.004899  -0.000000
    15  H   -0.000169  -0.004899   0.575464  -0.000015
    16  H    0.000000  -0.000000  -0.000015   0.392809
 Mulliken atomic charges:
              1
     1  O   -0.571551
     2  B    0.306311
     3  C    0.091258
     4  C   -0.189456
     5  C   -0.107671
     6  C   -0.150626
     7  C   -0.107671
     8  C   -0.189456
     9  O   -0.571551
    10  H    0.384451
    11  H    0.156078
    12  H    0.140260
    13  H    0.128833
    14  H    0.140260
    15  H    0.156078
    16  H    0.384451
 Sum of Mulliken atomic charges =  -0.00000
 Mulliken charges with hydrogens summed into heavy atoms:
              1
     1  O   -0.187099
     2  B    0.306311
     3  C    0.091258
     4  C   -0.033378
     5  C    0.032589
     6  C   -0.021793
     7  C    0.032589
     8  C   -0.033378
     9  O   -0.187099
 Sum of Mulliken charges with hydrogens summed into heavy atoms =  -0.00000
 Electronic spatial extent (au):  <R**2>=           1266.0501
 Charge=             -0.0000 electrons
 Dipole moment (field-independent basis, Debye):
    X=             -1.1535    Y=              0.0000    Z=              0.0000  Tot=              1.1535
 Quadrupole moment (field-independent basis, Debye-Ang):
   XX=            -33.6230   YY=            -50.2451   ZZ=            -54.3368
   XY=             -0.0000   XZ=             -0.0002   YZ=              0.0003
 Traceless Quadrupole moment (field-independent basis, Debye-Ang):
   XX=             12.4453   YY=             -4.1768   ZZ=             -8.2684
   XY=             -0.0000   XZ=             -0.0002   YZ=              0.0003
 Octapole moment (field-independent basis, Debye-Ang**2):
  XXX=            -80.2801  YYY=              0.0000  ZZZ=              0.0002  XYY=              4.1036
  XXY=              0.0000  XXZ=              0.0012  XZZ=            -10.0940  YZZ=              0.0000
  YYZ=              0.0002  XYZ=             -0.0007
 Hexadecapole moment (field-independent basis, Debye-Ang**3):
 XXXX=           -803.9659 YYYY=           -392.9410 ZZZZ=            -53.1958 XXXY=             -0.0000
 XXXZ=             -0.0038 YYYX=             -0.0000 YYYZ=              0.0006 ZZZX=             -0.0005
 ZZZY=             -0.0001 XXYY=           -239.9635 XXZZ=           -214.0889 YYZZ=            -82.6067
 XXYZ=              0.0019 YYXZ=             -0.0005 ZZXY=              0.0000
 N-N= 3.927165374755D+02 E-N=-1.737867297482D+03  KE= 4.047508810429D+02
 No NMR shielding tensors so no spin-rotation constants.
 Leave Link  601 at Sun Oct  3 17:32:52 2021, MaxMem=  536870912 cpu:       0.4
 (Enter /sw/target/amd/app/gaussian/Gaussian09RevA.02_gcc-4.9.2/g09/l604.exe)
 Evaluate density.
 Using the total density.
 Monte-Carlo method of calculating molar volume:
 based on  0.001 e/bohr**3 density envelope.
 Number of points per bohr**3 =   20 CutOff= 1.00D-04
 Using the CI density.
 There are       354 points.  Will hold       354 in memory.
 LenV=   536794400 MDV=   536870912.
 Box volume = 5569.349 fraction occupied=0.169
 Integrated density= 5.6659753194164274D+01 error=-7.3402468058357258D+00
 Molar volume =  943.958 bohr**3/mol ( 84.238 cm**3/mol)
 Recommended a0 for SCRF calculation =  4.04 angstrom (  7.64 bohr)
 Leave Link  604 at Sun Oct  3 17:32:53 2021, MaxMem=  536870912 cpu:       0.2
 (Enter /sw/target/amd/app/gaussian/Gaussian09RevA.02_gcc-4.9.2/g09/l607.exe)
 ******************************Gaussian NBO Version 3.1******************************
             N A T U R A L   A T O M I C   O R B I T A L   A N D
          N A T U R A L   B O N D   O R B I T A L   A N A L Y S I S
 ******************************Gaussian NBO Version 3.1******************************
       /RESON  / : Allow strongly delocalized NBO set

 Analyzing the CI density

 Job title: OB(c1ccccc1)O_conf_0                                            

 Storage needed:     67536 in NPA ( 536869504 available)


 NATURAL POPULATIONS:  Natural atomic orbital occupancies 
                                                          
   NAO  Atom  No  lang   Type(AO)    Occupancy
 --------------------------------------------
     1    O    1  S      Cor( 1S)     1.99975
     2    O    1  S      Val( 2S)     1.68779
     3    O    1  S      Ryd( 3S)     0.00075
     4    O    1  S      Ryd( 4S)     0.00003
     5    O    1  px     Val( 2p)     1.53729
     6    O    1  px     Ryd( 3p)     0.00105
     7    O    1  py     Val( 2p)     1.81973
     8    O    1  py     Ryd( 3p)     0.00174
     9    O    1  pz     Val( 2p)     1.84177
    10    O    1  pz     Ryd( 3p)     0.00061
    11    O    1  dxy    Ryd( 3d)     0.00119
    12    O    1  dxz    Ryd( 3d)     0.00042
    13    O    1  dyz    Ryd( 3d)     0.00144
    14    O    1  dx2y2  Ryd( 3d)     0.00151
    15    O    1  dz2    Ryd( 3d)     0.00099

    16    B    2  S      Cor( 1S)     1.99924
    17    B    2  S      Val( 2S)     0.49863
    18    B    2  S      Ryd( 3S)     0.00139
    19    B    2  S      Ryd( 4S)     0.00068
    20    B    2  px     Val( 2p)     0.55701
    21    B    2  px     Ryd( 3p)     0.00157
    22    B    2  py     Val( 2p)     0.39116
    23    B    2  py     Ryd( 3p)     0.01175
    24    B    2  pz     Val( 2p)     0.49175
    25    B    2  pz     Ryd( 3p)     0.00195
    26    B    2  dxy    Ryd( 3d)     0.00256
    27    B    2  dxz    Ryd( 3d)     0.00130
    28    B    2  dyz    Ryd( 3d)     0.00219
    29    B    2  dx2y2  Ryd( 3d)     0.00258
    30    B    2  dz2    Ryd( 3d)     0.00052

    31    C    3  S      Cor( 1S)     1.99900
    32    C    3  S      Val( 2S)     1.00125
    33    C    3  S      Ryd( 3S)     0.00222
    34    C    3  S      Ryd( 4S)     0.00003
    35    C    3  px     Val( 2p)     1.30253
    36    C    3  px     Ryd( 3p)     0.00693
    37    C    3  py     Val( 2p)     1.07512
    38    C    3  py     Ryd( 3p)     0.00610
    39    C    3  pz     Val( 2p)     1.01537
    40    C    3  pz     Ryd( 3p)     0.00218
    41    C    3  dxy    Ryd( 3d)     0.00069
    42    C    3  dxz    Ryd( 3d)     0.00057
    43    C    3  dyz    Ryd( 3d)     0.00052
    44    C    3  dx2y2  Ryd( 3d)     0.00046
    45    C    3  dz2    Ryd( 3d)     0.00033

    46    C    4  S      Cor( 1S)     1.99914
    47    C    4  S      Val( 2S)     0.96978
    48    C    4  S      Ryd( 3S)     0.00063
    49    C    4  S      Ryd( 4S)     0.00005
    50    C    4  px     Val( 2p)     1.07938
    51    C    4  px     Ryd( 3p)     0.00406
    52    C    4  py     Val( 2p)     1.16616
    53    C    4  py     Ryd( 3p)     0.00523
    54    C    4  pz     Val( 2p)     0.92292
    55    C    4  pz     Ryd( 3p)     0.00380
    56    C    4  dxy    Ryd( 3d)     0.00087
    57    C    4  dxz    Ryd( 3d)     0.00063
    58    C    4  dyz    Ryd( 3d)     0.00036
    59    C    4  dx2y2  Ryd( 3d)     0.00086
    60    C    4  dz2    Ryd( 3d)     0.00043

    61    C    5  S      Cor( 1S)     1.99914
    62    C    5  S      Val( 2S)     0.97882
    63    C    5  S      Ryd( 3S)     0.00065
    64    C    5  S      Ryd( 4S)     0.00004
    65    C    5  px     Val( 2p)     1.09208
    66    C    5  px     Ryd( 3p)     0.00484
    67    C    5  py     Val( 2p)     1.15783
    68    C    5  py     Ryd( 3p)     0.00490
    69    C    5  pz     Val( 2p)     0.93517
    70    C    5  pz     Ryd( 3p)     0.00332
    71    C    5  dxy    Ryd( 3d)     0.00085
    72    C    5  dxz    Ryd( 3d)     0.00067
    73    C    5  dyz    Ryd( 3d)     0.00044
    74    C    5  dx2y2  Ryd( 3d)     0.00076
    75    C    5  dz2    Ryd( 3d)     0.00043

    76    C    6  S      Cor( 1S)     1.99916
    77    C    6  S      Val( 2S)     0.97029
    78    C    6  S      Ryd( 3S)     0.00063
    79    C    6  S      Ryd( 4S)     0.00003
    80    C    6  px     Val( 2p)     1.19204
    81    C    6  px     Ryd( 3p)     0.00493
    82    C    6  py     Val( 2p)     1.05396
    83    C    6  py     Ryd( 3p)     0.00512
    84    C    6  pz     Val( 2p)     1.05605
    85    C    6  pz     Ryd( 3p)     0.00413
    86    C    6  dxy    Ryd( 3d)     0.00065
    87    C    6  dxz    Ryd( 3d)     0.00037
    88    C    6  dyz    Ryd( 3d)     0.00054
    89    C    6  dx2y2  Ryd( 3d)     0.00084
    90    C    6  dz2    Ryd( 3d)     0.00043

    91    C    7  S      Cor( 1S)     1.99914
    92    C    7  S      Val( 2S)     0.97882
    93    C    7  S      Ryd( 3S)     0.00065
    94    C    7  S      Ryd( 4S)     0.00004
    95    C    7  px     Val( 2p)     1.09208
    96    C    7  px     Ryd( 3p)     0.00484
    97    C    7  py     Val( 2p)     1.15783
    98    C    7  py     Ryd( 3p)     0.00490
    99    C    7  pz     Val( 2p)     0.93517
   100    C    7  pz     Ryd( 3p)     0.00332
   101    C    7  dxy    Ryd( 3d)     0.00085
   102    C    7  dxz    Ryd( 3d)     0.00067
   103    C    7  dyz    Ryd( 3d)     0.00044
   104    C    7  dx2y2  Ryd( 3d)     0.00076
   105    C    7  dz2    Ryd( 3d)     0.00043

   106    C    8  S      Cor( 1S)     1.99914
   107    C    8  S      Val( 2S)     0.96978
   108    C    8  S      Ryd( 3S)     0.00063
   109    C    8  S      Ryd( 4S)     0.00005
   110    C    8  px     Val( 2p)     1.07938
   111    C    8  px     Ryd( 3p)     0.00406
   112    C    8  py     Val( 2p)     1.16616
   113    C    8  py     Ryd( 3p)     0.00523
   114    C    8  pz     Val( 2p)     0.92292
   115    C    8  pz     Ryd( 3p)     0.00380
   116    C    8  dxy    Ryd( 3d)     0.00087
   117    C    8  dxz    Ryd( 3d)     0.00063
   118    C    8  dyz    Ryd( 3d)     0.00036
   119    C    8  dx2y2  Ryd( 3d)     0.00086
   120    C    8  dz2    Ryd( 3d)     0.00043

   121    O    9  S      Cor( 1S)     1.99975
   122    O    9  S      Val( 2S)     1.68779
   123    O    9  S      Ryd( 3S)     0.00075
   124    O    9  S      Ryd( 4S)     0.00003
   125    O    9  px     Val( 2p)     1.53729
   126    O    9  px     Ryd( 3p)     0.00105
   127    O    9  py     Val( 2p)     1.81973
   128    O    9  py     Ryd( 3p)     0.00174
   129    O    9  pz     Val( 2p)     1.84177
   130    O    9  pz     Ryd( 3p)     0.00061
   131    O    9  dxy    Ryd( 3d)     0.00119
   132    O    9  dxz    Ryd( 3d)     0.00042
   133    O    9  dyz    Ryd( 3d)     0.00144
   134    O    9  dx2y2  Ryd( 3d)     0.00151
   135    O    9  dz2    Ryd( 3d)     0.00099

   136    H   10  S      Val( 1S)     0.51963
   137    H   10  S      Ryd( 2S)     0.00212

   138    H   11  S      Val( 1S)     0.75903
   139    H   11  S      Ryd( 2S)     0.00133

   140    H   12  S      Val( 1S)     0.76862
   141    H   12  S      Ryd( 2S)     0.00092

   142    H   13  S      Val( 1S)     0.76855
   143    H   13  S      Ryd( 2S)     0.00084

   144    H   14  S      Val( 1S)     0.76862
   145    H   14  S      Ryd( 2S)     0.00092

   146    H   15  S      Val( 1S)     0.75903
   147    H   15  S      Ryd( 2S)     0.00133

   148    H   16  S      Val( 1S)     0.51963
   149    H   16  S      Ryd( 2S)     0.00212

 WARNING:  1 low occupancy (<1.9990e) core orbital  found on  C    3


 Summary of Natural Population Analysis:                  
                                                          
                                       Natural Population 
                Natural  -----------------------------------------------
    Atom  No    Charge         Core      Valence    Rydberg      Total
 -----------------------------------------------------------------------
      O    1   -0.89607      1.99975     6.88658    0.00974     8.89607
      B    2    1.03573      1.99924     1.93855    0.02648     3.96427
      C    3   -0.41328      1.99900     4.39426    0.02001     6.41328
      C    4   -0.15428      1.99914     4.13824    0.01690     6.15428
      C    5   -0.17993      1.99914     4.16390    0.01689     6.17993
      C    6   -0.28918      1.99916     4.27235    0.01767     6.28918
      C    7   -0.17993      1.99914     4.16390    0.01689     6.17993
      C    8   -0.15428      1.99914     4.13824    0.01690     6.15428
      O    9   -0.89607      1.99975     6.88658    0.00974     8.89607
      H   10    0.47825      0.00000     0.51963    0.00212     0.52175
      H   11    0.23963      0.00000     0.75903    0.00133     0.76037
      H   12    0.23046      0.00000     0.76862    0.00092     0.76954
      H   13    0.23060      0.00000     0.76855    0.00084     0.76940
      H   14    0.23046      0.00000     0.76862    0.00092     0.76954
      H   15    0.23963      0.00000     0.75903    0.00133     0.76037
      H   16    0.47825      0.00000     0.51963    0.00212     0.52175
 =======================================================================
   * Total *   -0.00000     17.99344    45.84574    0.16082    64.00000

                                 Natural Population      
 --------------------------------------------------------
   Core                      17.99344 ( 99.9636% of  18)
   Valence                   45.84574 ( 99.6646% of  46)
   Natural Minimal Basis     63.83918 ( 99.7487% of  64)
   Natural Rydberg Basis      0.16082 (  0.2513% of  64)
 --------------------------------------------------------

    Atom  No          Natural Electron Configuration
 ----------------------------------------------------------------------------
      O    1      [core]2S( 1.69)2p( 5.20)3d( 0.01)
      B    2      [core]2S( 0.50)2p( 1.44)3p( 0.02)3d( 0.01)
      C    3      [core]2S( 1.00)2p( 3.39)3p( 0.02)
      C    4      [core]2S( 0.97)2p( 3.17)3p( 0.01)
      C    5      [core]2S( 0.98)2p( 3.19)3p( 0.01)
      C    6      [core]2S( 0.97)2p( 3.30)3p( 0.01)
      C    7      [core]2S( 0.98)2p( 3.19)3p( 0.01)
      C    8      [core]2S( 0.97)2p( 3.17)3p( 0.01)
      O    9      [core]2S( 1.69)2p( 5.20)3d( 0.01)
      H   10            1S( 0.52)
      H   11            1S( 0.76)
      H   12            1S( 0.77)
      H   13            1S( 0.77)
      H   14            1S( 0.77)
      H   15            1S( 0.76)
      H   16            1S( 0.52)


 NBO analysis skipped by request.
 Leave Link  607 at Sun Oct  3 17:33:12 2021, MaxMem=  536870912 cpu:       5.1
 (Enter /sw/target/amd/app/gaussian/Gaussian09RevA.02_gcc-4.9.2/g09/l9999.exe)
 1\1\GINC-HERMITE\SP\RTD-B3LYP-FC\6-31G(d)\C6H7B1O2\JSCHLEINITZ\03-Oct-
 2021\0\\#p TD(NStates=10, Root=1) b3lyp/6-31G* volume pop=NPA density=
 current Geom=AllCheck Guess=Read\\OB(c1ccccc1)O_conf_0\\0,1\O,0,2.8651
 256702,-0.9828306799,-0.8634597709\B,0,2.4555779771,0.0816881128,-0.09
 38146855\C,0,3.3526026224,1.3598170483,-0.0652106536\C,0,2.9907792368,
 2.4821272258,0.7011220309\C,0,3.7892824742,3.6250905132,0.7290298482\C
 ,0,4.9717010237,3.6667902547,-0.0135777141\C,0,5.350380894,2.563282576
 4,-0.781816487\C,0,4.5469226773,1.4236909957,-0.8049956356\O,0,1.29924
 40055,0.0822318793,0.6519564329\H,0,2.272621709,-1.7473125988,-0.84457
 13194\H,0,2.0715179969,2.4526789387,1.2798882003\H,0,3.4923612728,4.48
 2667709,1.3277620711\H,0,5.5962619895,4.5566961658,0.0063395789\H,0,6.
 2702151523,2.5932628691,-1.3606836901\H,0,4.8441475992,0.566829657,-1.
 4035979325\H,0,0.7824780623,-0.7337668568,0.5976488746\\Version=AM64L-
 G09RevA.02\State=1-A\HF=-408.2589508\RMSD=1.896e-09\Dipole=-0.2606816,
 -0.3714112,-0.0083282\Quadrupole=0.2010044,4.7534014,-4.9544058,6.3767
 633,-1.0649852,1.0656516\PG=C01 [X(C6H7B1O2)]\\@


 I DON'T EXACTLY UNDERSTAND WHAT YOU ARE SAYING,
 BUT YOU ARE ABSOLUTELY RIGHT.
     M.S.GORDON, IN A NDSU FACULTY MEETING
 Job cpu time:  0 days  0 hours 33 minutes 16.8 seconds.
 File lengths (MBytes):  RWF=     78 Int=      0 D2E=      0 Chk=     11 Scr=      1
 Normal termination of Gaussian 09 at Sun Oct  3 17:33:14 2021.
