 Entering Gaussian System, Link 0=g09
 Input=C6H7NO3_7848_conf_0.com
 Output=C6H7NO3_7848_conf_0.log
 Initial command:
 /sw/target/amd/app/gaussian/Gaussian09RevA.02_gcc-4.9.2/g09/l1.exe /home/jschleinitz/gaussian/Gau-1695813.inp -scrdir=/home/jschleinitz/gaussian/
 Entering Link 1 = /sw/target/amd/app/gaussian/Gaussian09RevA.02_gcc-4.9.2/g09/l1.exe PID=   1696065.
  
 Copyright (c) 1988,1990,1992,1993,1995,1998,2003,2009, Gaussian, Inc.
                  All Rights Reserved.
  
 This is part of the Gaussian(R) 09 program.  It is based on
 the Gaussian(R) 03 system (copyright 2003, Gaussian, Inc.),
 the Gaussian(R) 98 system (copyright 1998, Gaussian, Inc.),
 the Gaussian(R) 94 system (copyright 1995, Gaussian, Inc.),
 the Gaussian 92(TM) system (copyright 1992, Gaussian, Inc.),
 the Gaussian 90(TM) system (copyright 1990, Gaussian, Inc.),
 the Gaussian 88(TM) system (copyright 1988, Gaussian, Inc.),
 the Gaussian 86(TM) system (copyright 1986, Carnegie Mellon
 University), and the Gaussian 82(TM) system (copyright 1983,
 Carnegie Mellon University). Gaussian is a federally registered
 trademark of Gaussian, Inc.
  
 This software contains proprietary and confidential information,
 including trade secrets, belonging to Gaussian, Inc.
  
 This software is provided under written license and may be
 used, copied, transmitted, or stored only in accord with that
 written license.
  
 The following legend is applicable only to US Government
 contracts under FAR:
  
                    RESTRICTED RIGHTS LEGEND
  
 Use, reproduction and disclosure by the US Government is
 subject to restrictions as set forth in subparagraphs (a)
 and (c) of the Commercial Computer Software - Restricted
 Rights clause in FAR 52.227-19.
  
 Gaussian, Inc.
 340 Quinnipiac St., Bldg. 40, Wallingford CT 06492
  
  
 ---------------------------------------------------------------
 Warning -- This program may not be used in any manner that
 competes with the business of Gaussian, Inc. or will provide
 assistance to any competitor of Gaussian, Inc.  The licensee
 of this program is prohibited from giving any competitor of
 Gaussian, Inc. access to this program.  By using this program,
 the user acknowledges that Gaussian, Inc. is engaged in the
 business of creating and licensing software in the field of
 computational chemistry and represents and warrants to the
 licensee that it is not a competitor of Gaussian, Inc. and that
 it will not use this program in any manner prohibited above.
 ---------------------------------------------------------------
  

 Cite this work as:
 Gaussian 09, Revision A.02,
 M. J. Frisch, G. W. Trucks, H. B. Schlegel, G. E. Scuseria, 
 M. A. Robb, J. R. Cheeseman, G. Scalmani, V. Barone, B. Mennucci, 
 G. A. Petersson, H. Nakatsuji, M. Caricato, X. Li, H. P. Hratchian, 
 A. F. Izmaylov, J. Bloino, G. Zheng, J. L. Sonnenberg, M. Hada, 
 M. Ehara, K. Toyota, R. Fukuda, J. Hasegawa, M. Ishida, T. Nakajima, 
 Y. Honda, O. Kitao, H. Nakai, T. Vreven, J. A. Montgomery, Jr., 
 J. E. Peralta, F. Ogliaro, M. Bearpark, J. J. Heyd, E. Brothers, 
 K. N. Kudin, V. N. Staroverov, R. Kobayashi, J. Normand, 
 K. Raghavachari, A. Rendell, J. C. Burant, S. S. Iyengar, J. Tomasi, 
 M. Cossi, N. Rega, J. M. Millam, M. Klene, J. E. Knox, J. B. Cross, 
 V. Bakken, C. Adamo, J. Jaramillo, R. Gomperts, R. E. Stratmann, 
 O. Yazyev, A. J. Austin, R. Cammi, C. Pomelli, J. W. Ochterski, 
 R. L. Martin, K. Morokuma, V. G. Zakrzewski, G. A. Voth, 
 P. Salvador, J. J. Dannenberg, S. Dapprich, A. D. Daniels, 
 O. Farkas, J. B. Foresman, J. V. Ortiz, J. Cioslowski, 
 and D. J. Fox, Gaussian, Inc., Wallingford CT, 2009.
 
 ******************************************
 Gaussian 09:  AM64L-G09RevA.02 11-Jun-2009
                 4-Oct-2021 
 ******************************************
 %nproc=2
 Will use up to    2 processors via shared memory.
 %mem=4gb
 %chk=C6H7NO3_7848_conf_0.chk
 -----------------------------------
 #p opt b3lyp/6-31G* scf=(xqc,tight)
 -----------------------------------
 1/14=-1,18=20,19=15,26=3,38=1/1,3;
 2/9=110,12=2,17=6,18=5,40=1/2;
 3/5=1,6=6,7=1,11=2,16=1,25=1,30=1,71=1,74=-5/1,2,3;
 4//1;
 5/5=2,8=3,13=1,32=2,38=5/2,8;
 6/7=2,8=2,9=2,10=2,28=1/1;
 7//1,2,3,16;
 1/14=-1,18=20,19=15/3(2);
 2/9=110/2;
 99//99;
 2/9=110/2;
 3/5=1,6=6,7=1,11=2,16=1,25=1,30=1,71=1,74=-5/1,2,3;
 4/5=5,16=3/1;
 5/5=2,8=3,13=1,32=2,38=5/2,8;
 7//1,2,3,16;
 1/14=-1,18=20,19=15/3(-5);
 2/9=110/2;
 6/7=2,8=2,9=2,10=2,19=2,28=1/1;
 99/9=1/99;
 Leave Link    1 at Mon Oct  4 11:29:18 2021, MaxMem=  536870912 cpu:       0.1
 (Enter /sw/target/amd/app/gaussian/Gaussian09RevA.02_gcc-4.9.2/g09/l101.exe)
 ----------------------
 COC(=O)c1ncoc1C_conf_0
 ----------------------
 Symbolic Z-matrix:
 Charge =  0 Multiplicity = 1
 C                     1.69548   0.96245  -2.8072 
 O                     3.09496   0.82675  -2.571 
 C                     3.41944  -0.00084  -1.53404 
 O                     2.59837  -0.5896   -0.83878 
 C                     4.8602   -0.10789  -1.34414 
 N                     5.80845   0.54867  -2.11762 
 C                     6.95333   0.16969  -1.60122 
 O                     6.85777  -0.68482  -0.54856 
 C                     5.51096  -0.86292  -0.38548 
 C                     5.07987  -1.75853   0.70345 
 H                     1.56193   1.60641  -3.6811 
 H                     1.20739   1.43634  -1.95012 
 H                     1.24364  -0.01044  -3.02401 
 H                     7.95057   0.45172  -1.90809 
 H                     5.93973  -2.21514   1.2043 
 H                     4.45137  -2.56491   0.31374 
 H                     4.5082   -1.20364   1.4534 
 
 NAtoms=     17 NQM=     17 NQMF=      0 NMic=      0 NMicF=      0 NTot=     17.
                    Isotopes and Nuclear Properties:
 (Nuclear quadrupole moments (NQMom) in fm**2, nuclear magnetic moments (NMagM)
  in nuclear magnetons)

  Atom         1           2           3           4           5           6           7           8           9          10
 IAtWgt=          12          16          12          16          12          14          12          16          12          12
 AtmWgt=  12.0000000  15.9949146  12.0000000  15.9949146  12.0000000  14.0030740  12.0000000  15.9949146  12.0000000  12.0000000
 NucSpn=           0           0           0           0           0           2           0           0           0           0
 AtZEff=   0.0000000   0.0000000   0.0000000   0.0000000   0.0000000   0.0000000   0.0000000   0.0000000   0.0000000   0.0000000
 NQMom=    0.0000000   0.0000000   0.0000000   0.0000000   0.0000000   2.0440000   0.0000000   0.0000000   0.0000000   0.0000000
 NMagM=    0.0000000   0.0000000   0.0000000   0.0000000   0.0000000   0.4037610   0.0000000   0.0000000   0.0000000   0.0000000

  Atom        11          12          13          14          15          16          17
 IAtWgt=           1           1           1           1           1           1           1
 AtmWgt=   1.0078250   1.0078250   1.0078250   1.0078250   1.0078250   1.0078250   1.0078250
 NucSpn=           1           1           1           1           1           1           1
 AtZEff=   0.0000000   0.0000000   0.0000000   0.0000000   0.0000000   0.0000000   0.0000000
 NQMom=    0.0000000   0.0000000   0.0000000   0.0000000   0.0000000   0.0000000   0.0000000
 NMagM=    2.7928460   2.7928460   2.7928460   2.7928460   2.7928460   2.7928460   2.7928460
 Leave Link  101 at Mon Oct  4 11:29:19 2021, MaxMem=  536870912 cpu:       0.2
 (Enter /sw/target/amd/app/gaussian/Gaussian09RevA.02_gcc-4.9.2/g09/l103.exe)

 GradGradGradGradGradGradGradGradGradGradGradGradGradGradGradGradGradGrad
 Berny optimization.
 Initialization pass.
                           ----------------------------
                           !    Initial Parameters    !
                           ! (Angstroms and Degrees)  !
 --------------------------                            --------------------------
 ! Name  Definition              Value          Derivative Info.                !
 --------------------------------------------------------------------------------
 ! R1    R(1,2)                  1.4257         estimate D2E/DX2                !
 ! R2    R(1,11)                 1.0937         estimate D2E/DX2                !
 ! R3    R(1,12)                 1.0943         estimate D2E/DX2                !
 ! R4    R(1,13)                 1.0944         estimate D2E/DX2                !
 ! R5    R(2,3)                  1.3658         estimate D2E/DX2                !
 ! R6    R(3,4)                  1.2264         estimate D2E/DX2                !
 ! R7    R(3,5)                  1.4572         estimate D2E/DX2                !
 ! R8    R(5,6)                  1.3887         estimate D2E/DX2                !
 ! R9    R(5,9)                  1.383          estimate D2E/DX2                !
 ! R10   R(6,7)                  1.3119         estimate D2E/DX2                !
 ! R11   R(7,8)                  1.3592         estimate D2E/DX2                !
 ! R12   R(7,14)                 1.0808         estimate D2E/DX2                !
 ! R13   R(8,9)                  1.3683         estimate D2E/DX2                !
 ! R14   R(9,10)                 1.4744         estimate D2E/DX2                !
 ! R15   R(10,15)                1.0948         estimate D2E/DX2                !
 ! R16   R(10,16)                1.0941         estimate D2E/DX2                !
 ! R17   R(10,17)                1.0941         estimate D2E/DX2                !
 ! A1    A(2,1,11)             107.9548         estimate D2E/DX2                !
 ! A2    A(2,1,12)             110.4442         estimate D2E/DX2                !
 ! A3    A(2,1,13)             110.6999         estimate D2E/DX2                !
 ! A4    A(11,1,12)            108.4446         estimate D2E/DX2                !
 ! A5    A(11,1,13)            108.3431         estimate D2E/DX2                !
 ! A6    A(12,1,13)            110.8547         estimate D2E/DX2                !
 ! A7    A(1,2,3)              114.6231         estimate D2E/DX2                !
 ! A8    A(2,3,4)              124.2094         estimate D2E/DX2                !
 ! A9    A(2,3,5)              112.2319         estimate D2E/DX2                !
 ! A10   A(4,3,5)              123.5587         estimate D2E/DX2                !
 ! A11   A(3,5,6)              124.5986         estimate D2E/DX2                !
 ! A12   A(3,5,9)              126.5633         estimate D2E/DX2                !
 ! A13   A(6,5,9)              108.8382         estimate D2E/DX2                !
 ! A14   A(5,6,7)              103.8911         estimate D2E/DX2                !
 ! A15   A(6,7,8)              115.158          estimate D2E/DX2                !
 ! A16   A(6,7,14)             128.1745         estimate D2E/DX2                !
 ! A17   A(8,7,14)             116.6675         estimate D2E/DX2                !
 ! A18   A(7,8,9)              104.0838         estimate D2E/DX2                !
 ! A19   A(5,9,8)              108.0288         estimate D2E/DX2                !
 ! A20   A(5,9,10)             134.9129         estimate D2E/DX2                !
 ! A21   A(8,9,10)             117.0582         estimate D2E/DX2                !
 ! A22   A(9,10,15)            111.1973         estimate D2E/DX2                !
 ! A23   A(9,10,16)            110.6455         estimate D2E/DX2                !
 ! A24   A(9,10,17)            110.5445         estimate D2E/DX2                !
 ! A25   A(15,10,16)           107.8609         estimate D2E/DX2                !
 ! A26   A(15,10,17)           107.9567         estimate D2E/DX2                !
 ! A27   A(16,10,17)           108.5285         estimate D2E/DX2                !
 ! D1    D(11,1,2,3)          -177.4738         estimate D2E/DX2                !
 ! D2    D(12,1,2,3)            64.1188         estimate D2E/DX2                !
 ! D3    D(13,1,2,3)           -59.0432         estimate D2E/DX2                !
 ! D4    D(1,2,3,4)             -0.3284         estimate D2E/DX2                !
 ! D5    D(1,2,3,5)            179.6528         estimate D2E/DX2                !
 ! D6    D(2,3,5,6)              0.0358         estimate D2E/DX2                !
 ! D7    D(2,3,5,9)           -179.9505         estimate D2E/DX2                !
 ! D8    D(4,3,5,6)           -179.9829         estimate D2E/DX2                !
 ! D9    D(4,3,5,9)              0.0308         estimate D2E/DX2                !
 ! D10   D(3,5,6,7)            179.9354         estimate D2E/DX2                !
 ! D11   D(9,5,6,7)             -0.0762         estimate D2E/DX2                !
 ! D12   D(3,5,9,8)           -179.9165         estimate D2E/DX2                !
 ! D13   D(3,5,9,10)             0.0029         estimate D2E/DX2                !
 ! D14   D(6,5,9,8)              0.0954         estimate D2E/DX2                !
 ! D15   D(6,5,9,10)          -179.9852         estimate D2E/DX2                !
 ! D16   D(5,6,7,8)              0.031          estimate D2E/DX2                !
 ! D17   D(5,6,7,14)          -179.9578         estimate D2E/DX2                !
 ! D18   D(6,7,8,9)              0.0262         estimate D2E/DX2                !
 ! D19   D(14,7,8,9)          -179.9837         estimate D2E/DX2                !
 ! D20   D(7,8,9,5)             -0.0729         estimate D2E/DX2                !
 ! D21   D(7,8,9,10)           179.9912         estimate D2E/DX2                !
 ! D22   D(5,9,10,15)          176.5516         estimate D2E/DX2                !
 ! D23   D(5,9,10,16)           56.706          estimate D2E/DX2                !
 ! D24   D(5,9,10,17)          -63.5494         estimate D2E/DX2                !
 ! D25   D(8,9,10,15)           -3.5344         estimate D2E/DX2                !
 ! D26   D(8,9,10,16)         -123.38           estimate D2E/DX2                !
 ! D27   D(8,9,10,17)          116.3646         estimate D2E/DX2                !
 --------------------------------------------------------------------------------
 Trust Radius=3.00D-01 FncErr=1.00D-07 GrdErr=1.00D-06
 Number of steps in this run=  81 maximum allowed number of steps= 102.
 GradGradGradGradGradGradGradGradGradGradGradGradGradGradGradGradGradGrad

 Leave Link  103 at Mon Oct  4 11:29:19 2021, MaxMem=  536870912 cpu:       0.0
 (Enter /sw/target/amd/app/gaussian/Gaussian09RevA.02_gcc-4.9.2/g09/l202.exe)
                          Input orientation:                          
 ---------------------------------------------------------------------
 Center     Atomic      Atomic             Coordinates (Angstroms)
 Number     Number       Type             X           Y           Z
 ---------------------------------------------------------------------
      1          6           0        1.695479    0.962452   -2.807199
      2          8           0        3.094955    0.826747   -2.570999
      3          6           0        3.419438   -0.000837   -1.534038
      4          8           0        2.598368   -0.589597   -0.838782
      5          6           0        4.860197   -0.107892   -1.344142
      6          7           0        5.808446    0.548671   -2.117620
      7          6           0        6.953334    0.169686   -1.601218
      8          8           0        6.857770   -0.684817   -0.548560
      9          6           0        5.510964   -0.862916   -0.385485
     10          6           0        5.079872   -1.758533    0.703454
     11          1           0        1.561932    1.606409   -3.681095
     12          1           0        1.207386    1.436339   -1.950120
     13          1           0        1.243635   -0.010438   -3.024010
     14          1           0        7.950575    0.451716   -1.908094
     15          1           0        5.939727   -2.215144    1.204303
     16          1           0        4.451368   -2.564909    0.313743
     17          1           0        4.508203   -1.203637    1.453401
 ---------------------------------------------------------------------
                    Distance matrix (angstroms):
                    1          2          3          4          5
     1  C    0.000000
     2  O    1.425742   0.000000
     3  C    2.349659   1.365823   0.000000
     4  O    2.664344   2.291987   1.226448   0.000000
     5  C    3.647138   2.344101   1.457158   2.367129   0.000000
     6  N    4.190851   2.765125   2.519899   3.638088   1.388711
     7  C    5.452330   4.032281   3.538645   4.485927   2.127053
     8  O    5.870621   4.531431   3.641583   4.270339   2.226228
     9  C    4.873868   3.669950   2.537092   2.960303   1.382962
    10  C    5.584135   4.620132   3.294375   3.146866   2.639228
    11  H    1.093714   2.047033   3.262426   3.738367   4.390755
    12  H    1.094252   2.078464   2.670538   2.697095   4.011844
    13  H    1.094388   2.081702   2.637086   2.635517   3.988856
    14  H    6.339990   4.914991   4.569018   5.556426   3.190867
    15  H    6.648526   5.621275   4.330534   4.240433   3.478573
    16  H    5.456875   4.654560   3.324702   2.943430   2.992100
    17  H    5.545815   4.723931   3.399548   3.046082   3.025030
                    6          7          8          9         10
     6  N    0.000000
     7  C    1.311895   0.000000
     8  O    2.254889   1.359189   0.000000
     9  C    2.254189   2.150513   1.368284   0.000000
    10  C    3.716513   3.541101   2.425145   1.474367   0.000000
    11  H    4.647166   5.954602   6.565699   5.705565   6.551566
    12  H    4.688898   5.894240   6.196008   5.124006   5.678452
    13  H    4.687392   5.887057   6.172613   5.089069   5.627303
    14  H    2.154534   1.080835   2.081889   3.162009   4.466130
    15  H    4.323318   3.819130   2.501446   2.130677   1.094849
    16  H    4.177029   4.171920   3.173182   2.123310   1.094137
    17  H    4.184902   4.146730   3.130094   2.122055   1.094137
                   11         12         13         14         15
    11  H    0.000000
    12  H    1.775078   0.000000
    13  H    1.774054   1.802142   0.000000
    14  H    6.729904   6.814825   6.814829   0.000000
    15  H    7.591869   6.758607   6.692730   4.565377   0.000000
    16  H    6.458132   5.626587   5.287293   5.126504   1.769363
    17  H    6.552856   5.426677   5.668186   5.088199   1.770440
                   16         17
    16  H    0.000000
    17  H    1.776264   0.000000
 Stoichiometry    C6H7NO3
 Framework group  C1[X(C6H7NO3)]
 Deg. of freedom    45
 Full point group                 C1      NOp   1
 Largest Abelian subgroup         C1      NOp   1
 Largest concise Abelian subgroup C1      NOp   1
                         Standard orientation:                         
 ---------------------------------------------------------------------
 Center     Atomic      Atomic             Coordinates (Angstroms)
 Number     Number       Type             X           Y           Z
 ---------------------------------------------------------------------
      1          6           0        3.367676   -0.267006   -0.003662
      2          8           0        2.015022   -0.717591    0.002536
      3          6           0        1.082715    0.280545    0.002319
      4          8           0        1.353256    1.476782    0.003098
      5          6           0       -0.279338   -0.237258    0.000607
      6          7           0       -0.610204   -1.585978    0.000041
      7          6           0       -1.922097   -1.588441   -0.000113
      8          8           0       -2.502219   -0.359274   -0.000365
      9          6           0       -1.444133    0.508283   -0.000978
     10          6           0       -1.757996    1.948855   -0.001583
     11          1           0        4.015903   -1.146768   -0.048733
     12          1           0        3.592022    0.281573    0.916185
     13          1           0        3.565232    0.351847   -0.884388
     14          1           0       -2.588520   -2.439373    0.000103
     15          1           0       -2.837760    2.118739   -0.064376
     16          1           0       -1.289880    2.445312   -0.856880
     17          1           0       -1.394998    2.421306    0.916108
 ---------------------------------------------------------------------
 Rotational constants (GHZ):      2.6778923      0.9698509      0.7185234
 Leave Link  202 at Mon Oct  4 11:29:19 2021, MaxMem=  536870912 cpu:       0.0
 (Enter /sw/target/amd/app/gaussian/Gaussian09RevA.02_gcc-4.9.2/g09/l301.exe)
 Standard basis: 6-31G(d) (6D, 7F)
 Ernie: Thresh=  0.10000D-02 Tol=  0.10000D-05 Strict=F.
 There are   164 symmetry adapted basis functions of A   symmetry.
 Integral buffers will be    131072 words long.
 Raffenetti 2 integral format.
 Two-electron integral symmetry is turned on.
   164 basis functions,   308 primitive gaussians,   164 cartesian basis functions
    37 alpha electrons       37 beta electrons
       nuclear repulsion energy       523.5815006204 Hartrees.
 IExCor=  402 DFT=T Ex+Corr=B3LYP ExCW=0 ScaHFX=  0.200000
 ScaDFX=  0.800000  0.720000  1.000000  0.810000 ScalE2=  1.000000  1.000000
 IRadAn=      0 IRanWt=     -1 IRanGd=            0 ICorTp=0
 NAtoms=   17 NActive=   17 NUniq=   17 SFac= 7.50D-01 NAtFMM=   80 NAOKFM=F Big=F
 Leave Link  301 at Mon Oct  4 11:29:21 2021, MaxMem=  536870912 cpu:       0.1
 (Enter /sw/target/amd/app/gaussian/Gaussian09RevA.02_gcc-4.9.2/g09/l302.exe)
 NPDir=0 NMtPBC=     1 NCelOv=     1 NCel=       1 NClECP=     1 NCelD=      1
         NCelK=      1 NCelE2=     1 NClLst=     1 CellRange=     0.0.
 One-electron integrals computed using PRISM.
 NBasis=   164 RedAO= T  NBF=   164
 NBsUse=   164 1.00D-06 NBFU=   164
 Precomputing XC quadrature grid using
 IXCGrd= 2 IRadAn=           0 IRanWt=          -1 IRanGd=           0 AccXCQ= 1.00D-10.
 NRdTot=    1067 NPtTot=      135446 NUsed=      143149 NTot=      143181
 NSgBfM=   163   163   163   163   163 NAtAll=    17    17.
 Leave Link  302 at Mon Oct  4 11:29:28 2021, MaxMem=  536870912 cpu:       0.9
 (Enter /sw/target/amd/app/gaussian/Gaussian09RevA.02_gcc-4.9.2/g09/l303.exe)
 DipDrv:  MaxL=1.
 Leave Link  303 at Mon Oct  4 11:29:36 2021, MaxMem=  536870912 cpu:       0.1
 (Enter /sw/target/amd/app/gaussian/Gaussian09RevA.02_gcc-4.9.2/g09/l401.exe)
 Harris functional with IExCor=  402 diagonalized for initial guess.
 ExpMin= 1.61D-01 ExpMax= 5.48D+03 ExpMxC= 8.25D+02 IAcc=1 IRadAn=         1 AccDes= 0.00D+00
 HarFok:  IExCor=  402 AccDes= 0.00D+00 IRadAn=         1 IDoV= 1
 ScaDFX=  1.000000  1.000000  1.000000  1.000000
 FoFCou: FMM=F IPFlag=           0 FMFlag=      100000 FMFlg1=           0
         NFxFlg=           0 DoJE=T BraDBF=F KetDBF=T FulRan=T
         Omega=  0.000000  0.000000  1.000000  0.000000  0.000000 ICntrl=     500 IOpCl=  0
         NMat0=    1 NMatS0=    1 NMatT0=    0 NMatD0=    1 NMtDS0=    0 NMtDT0=    0
         I1Cent=           4 NGrid=           0.
 Petite list used in FoFCou.
 Harris En= -513.310790202014    
 Initial guess orbital symmetries:
       Occupied  (A) (A) (A) (A) (A) (A) (A) (A) (A) (A) (A) (A)
                 (A) (A) (A) (A) (A) (A) (A) (A) (A) (A) (A) (A)
                 (A) (A) (A) (A) (A) (A) (A) (A) (A) (A) (A) (A)
                 (A)
       Virtual   (A) (A) (A) (A) (A) (A) (A) (A) (A) (A) (A) (A)
                 (A) (A) (A) (A) (A) (A) (A) (A) (A) (A) (A) (A)
                 (A) (A) (A) (A) (A) (A) (A) (A) (A) (A) (A) (A)
                 (A) (A) (A) (A) (A) (A) (A) (A) (A) (A) (A) (A)
                 (A) (A) (A) (A) (A) (A) (A) (A) (A) (A) (A) (A)
                 (A) (A) (A) (A) (A) (A) (A) (A) (A) (A) (A) (A)
                 (A) (A) (A) (A) (A) (A) (A) (A) (A) (A) (A) (A)
                 (A) (A) (A) (A) (A) (A) (A) (A) (A) (A) (A) (A)
                 (A) (A) (A) (A) (A) (A) (A) (A) (A) (A) (A) (A)
                 (A) (A) (A) (A) (A) (A) (A) (A) (A) (A) (A) (A)
                 (A) (A) (A) (A) (A) (A) (A)
 The electronic state of the initial guess is 1-A.
 Leave Link  401 at Mon Oct  4 11:29:49 2021, MaxMem=  536870912 cpu:       4.2
 (Enter /sw/target/amd/app/gaussian/Gaussian09RevA.02_gcc-4.9.2/g09/l502.exe)
 Closed shell SCF:
 Requested convergence on RMS density matrix=1.00D-08 within  64 cycles.
 Requested convergence on MAX density matrix=1.00D-06.
 Requested convergence on             energy=1.00D-06.
 No special actions if energy rises.
 Using DIIS extrapolation, IDIIS=  1040.
 Integral symmetry usage will be decided dynamically.
       142983 words used for storage of precomputed grid.
 Keep R1 ints in memory in canonical form, NReq=94014638.
 IEnd=      231429 IEndB=      231429 NGot=   536870912 MDV=   445133525
 LenX=   445133525 LenY=   445106188
 Symmetry not used in FoFDir.
 MinBra= 0 MaxBra= 2 Meth= 1.
 IRaf=       0 NMat=   1 IRICut=       1 DoRegI=T DoRafI=F ISym2E= 0 JSym2E=0.
 Integral accuracy reduced to 1.0D-05 until final iterations.

 Cycle   1  Pass 0  IDiag  1:
 E= -513.039364816141    
 DIIS: error= 3.52D-02 at cycle   1 NSaved=   1.
 NSaved= 1 IEnMin= 1 EnMin= -513.039364816141     IErMin= 1 ErrMin= 3.52D-02
 ErrMax= 3.52D-02 EMaxC= 1.00D-01 BMatC= 2.60D-01 BMatP= 2.60D-01
 IDIUse=3 WtCom= 6.48D-01 WtEn= 3.52D-01
 Coeff-Com:  0.100D+01
 Coeff-En:   0.100D+01
 Coeff:      0.100D+01
 Gap=     0.204 Goal=   None    Shift=    0.000
 GapD=    0.204 DampG=1.000 DampE=0.500 DampFc=0.5000 IDamp=-1.
 Damping current iteration by 5.00D-01
 RMSDP=6.96D-03 MaxDP=2.26D-01              OVMax= 3.16D-01

 Cycle   2  Pass 0  IDiag  1:
 E= -513.098474233399     Delta-E=       -0.059109417258 Rises=F Damp=T
 DIIS: error= 1.18D-02 at cycle   2 NSaved=   2.
 NSaved= 2 IEnMin= 2 EnMin= -513.098474233399     IErMin= 2 ErrMin= 1.18D-02
 ErrMax= 1.18D-02 EMaxC= 1.00D-01 BMatC= 4.56D-02 BMatP= 2.60D-01
 IDIUse=3 WtCom= 8.82D-01 WtEn= 1.18D-01
 Coeff-Com:  0.232D+00 0.768D+00
 Coeff-En:   0.358D+00 0.642D+00
 Coeff:      0.247D+00 0.753D+00
 Gap=     0.269 Goal=   None    Shift=    0.000
 RMSDP=2.04D-03 MaxDP=5.79D-02 DE=-5.91D-02 OVMax= 1.97D-01

 Cycle   3  Pass 0  IDiag  1:
 E= -513.240263798012     Delta-E=       -0.141789564613 Rises=F Damp=F
 DIIS: error= 1.23D-02 at cycle   3 NSaved=   3.
 NSaved= 3 IEnMin= 3 EnMin= -513.240263798012     IErMin= 2 ErrMin= 1.18D-02
 ErrMax= 1.23D-02 EMaxC= 1.00D-01 BMatC= 3.42D-02 BMatP= 4.56D-02
 IDIUse=3 WtCom= 8.77D-01 WtEn= 1.23D-01
 Coeff-Com:  0.760D-01 0.456D+00 0.468D+00
 Coeff-En:   0.000D+00 0.000D+00 0.100D+01
 Coeff:      0.667D-01 0.400D+00 0.533D+00
 Gap=     0.213 Goal=   None    Shift=    0.000
 RMSDP=1.34D-03 MaxDP=4.71D-02 DE=-1.42D-01 OVMax= 7.90D-02

 Cycle   4  Pass 0  IDiag  1:
 E= -513.263749680353     Delta-E=       -0.023485882341 Rises=F Damp=F
 DIIS: error= 7.62D-03 at cycle   4 NSaved=   4.
 NSaved= 4 IEnMin= 4 EnMin= -513.263749680353     IErMin= 4 ErrMin= 7.62D-03
 ErrMax= 7.62D-03 EMaxC= 1.00D-01 BMatC= 7.45D-03 BMatP= 3.42D-02
 IDIUse=3 WtCom= 9.24D-01 WtEn= 7.62D-02
 Coeff-Com:  0.195D-01 0.116D+00 0.327D+00 0.537D+00
 Coeff-En:   0.000D+00 0.000D+00 0.191D+00 0.809D+00
 Coeff:      0.180D-01 0.107D+00 0.317D+00 0.558D+00
 Gap=     0.212 Goal=   None    Shift=    0.000
 RMSDP=5.02D-04 MaxDP=1.82D-02 DE=-2.35D-02 OVMax= 3.50D-02

 Cycle   5  Pass 0  IDiag  1:
 E= -513.268902998954     Delta-E=       -0.005153318601 Rises=F Damp=F
 DIIS: error= 2.75D-03 at cycle   5 NSaved=   5.
 NSaved= 5 IEnMin= 5 EnMin= -513.268902998954     IErMin= 5 ErrMin= 2.75D-03
 ErrMax= 2.75D-03 EMaxC= 1.00D-01 BMatC= 8.10D-04 BMatP= 7.45D-03
 IDIUse=3 WtCom= 9.73D-01 WtEn= 2.75D-02
 Coeff-Com:  0.495D-02 0.178D-01 0.142D+00 0.354D+00 0.482D+00
 Coeff-En:   0.000D+00 0.000D+00 0.000D+00 0.599D-01 0.940D+00
 Coeff:      0.481D-02 0.173D-01 0.138D+00 0.346D+00 0.494D+00
 Gap=     0.212 Goal=   None    Shift=    0.000
 RMSDP=1.65D-04 MaxDP=5.75D-03 DE=-5.15D-03 OVMax= 9.76D-03

 Cycle   6  Pass 0  IDiag  1:
 E= -513.269484886036     Delta-E=       -0.000581887082 Rises=F Damp=F
 DIIS: error= 7.18D-04 at cycle   6 NSaved=   6.
 NSaved= 6 IEnMin= 6 EnMin= -513.269484886036     IErMin= 6 ErrMin= 7.18D-04
 ErrMax= 7.18D-04 EMaxC= 1.00D-01 BMatC= 6.86D-05 BMatP= 8.10D-04
 IDIUse=3 WtCom= 9.93D-01 WtEn= 7.18D-03
 Coeff-Com:  0.172D-02 0.735D-03 0.546D-01 0.156D+00 0.299D+00 0.489D+00
 Coeff-En:   0.000D+00 0.000D+00 0.000D+00 0.000D+00 0.355D-01 0.965D+00
 Coeff:      0.171D-02 0.730D-03 0.542D-01 0.154D+00 0.297D+00 0.492D+00
 Gap=     0.211 Goal=   None    Shift=    0.000
 RMSDP=5.80D-05 MaxDP=1.82D-03 DE=-5.82D-04 OVMax= 3.18D-03

 Cycle   7  Pass 0  IDiag  1:
 E= -513.269532332214     Delta-E=       -0.000047446178 Rises=F Damp=F
 DIIS: error= 2.89D-04 at cycle   7 NSaved=   7.
 NSaved= 7 IEnMin= 7 EnMin= -513.269532332214     IErMin= 7 ErrMin= 2.89D-04
 ErrMax= 2.89D-04 EMaxC= 1.00D-01 BMatC= 1.27D-05 BMatP= 6.86D-05
 IDIUse=3 WtCom= 9.97D-01 WtEn= 2.89D-03
 Coeff-Com:  0.481D-03-0.251D-02 0.175D-01 0.559D-01 0.137D+00 0.343D+00
 Coeff-Com:  0.449D+00
 Coeff-En:   0.000D+00 0.000D+00 0.000D+00 0.000D+00 0.000D+00 0.166D+00
 Coeff-En:   0.834D+00
 Coeff:      0.480D-03-0.250D-02 0.175D-01 0.557D-01 0.137D+00 0.342D+00
 Coeff:      0.450D+00
 Gap=     0.212 Goal=   None    Shift=    0.000
 RMSDP=1.94D-05 MaxDP=5.66D-04 DE=-4.74D-05 OVMax= 1.08D-03

 Cycle   8  Pass 0  IDiag  1:
 E= -513.269542970936     Delta-E=       -0.000010638722 Rises=F Damp=F
 DIIS: error= 2.61D-05 at cycle   8 NSaved=   8.
 NSaved= 8 IEnMin= 8 EnMin= -513.269542970936     IErMin= 8 ErrMin= 2.61D-05
 ErrMax= 2.61D-05 EMaxC= 1.00D-01 BMatC= 3.14D-07 BMatP= 1.27D-05
 IDIUse=1 WtCom= 1.00D+00 WtEn= 0.00D+00
 Coeff-Com:  0.175D-03-0.130D-02 0.422D-02 0.137D-01 0.426D-01 0.127D+00
 Coeff-Com:  0.208D+00 0.606D+00
 Coeff:      0.175D-03-0.130D-02 0.422D-02 0.137D-01 0.426D-01 0.127D+00
 Coeff:      0.208D+00 0.606D+00
 Gap=     0.212 Goal=   None    Shift=    0.000
 RMSDP=3.80D-06 MaxDP=7.59D-05 DE=-1.06D-05 OVMax= 1.38D-04

 Initial convergence to 1.0D-05 achieved.  Increase integral accuracy.
 Cycle   9  Pass 1  IDiag  1:
 E= -513.269561537359     Delta-E=       -0.000018566423 Rises=F Damp=F
 DIIS: error= 1.02D-05 at cycle   1 NSaved=   1.
 NSaved= 1 IEnMin= 1 EnMin= -513.269561537359     IErMin= 1 ErrMin= 1.02D-05
 ErrMax= 1.02D-05 EMaxC= 1.00D-01 BMatC= 4.40D-08 BMatP= 4.40D-08
 IDIUse=1 WtCom= 1.00D+00 WtEn= 0.00D+00
 Coeff-Com:  0.100D+01
 Coeff:      0.100D+01
 Gap=     0.212 Goal=   None    Shift=    0.000
 RMSDP=3.80D-06 MaxDP=7.59D-05 DE=-1.86D-05 OVMax= 9.44D-05

 Cycle  10  Pass 1  IDiag  1:
 E= -513.269561551035     Delta-E=       -0.000000013676 Rises=F Damp=F
 DIIS: error= 1.37D-05 at cycle   2 NSaved=   2.
 NSaved= 2 IEnMin= 2 EnMin= -513.269561551035     IErMin= 1 ErrMin= 1.02D-05
 ErrMax= 1.37D-05 EMaxC= 1.00D-01 BMatC= 4.24D-08 BMatP= 4.40D-08
 IDIUse=1 WtCom= 1.00D+00 WtEn= 0.00D+00
 Coeff-Com:  0.494D+00 0.506D+00
 Coeff:      0.494D+00 0.506D+00
 Gap=     0.212 Goal=   None    Shift=    0.000
 RMSDP=1.62D-06 MaxDP=4.19D-05 DE=-1.37D-08 OVMax= 9.62D-05

 Cycle  11  Pass 1  IDiag  1:
 E= -513.269561579836     Delta-E=       -0.000000028801 Rises=F Damp=F
 DIIS: error= 7.51D-06 at cycle   3 NSaved=   3.
 NSaved= 3 IEnMin= 3 EnMin= -513.269561579836     IErMin= 3 ErrMin= 7.51D-06
 ErrMax= 7.51D-06 EMaxC= 1.00D-01 BMatC= 1.10D-08 BMatP= 4.24D-08
 IDIUse=1 WtCom= 1.00D+00 WtEn= 0.00D+00
 Coeff-Com:  0.691D-01 0.331D+00 0.600D+00
 Coeff:      0.691D-01 0.331D+00 0.600D+00
 Gap=     0.212 Goal=   None    Shift=    0.000
 RMSDP=6.80D-07 MaxDP=1.95D-05 DE=-2.88D-08 OVMax= 3.35D-05

 Cycle  12  Pass 1  IDiag  1:
 E= -513.269561587909     Delta-E=       -0.000000008073 Rises=F Damp=F
 DIIS: error= 3.01D-06 at cycle   4 NSaved=   4.
 NSaved= 4 IEnMin= 4 EnMin= -513.269561587909     IErMin= 4 ErrMin= 3.01D-06
 ErrMax= 3.01D-06 EMaxC= 1.00D-01 BMatC= 1.62D-09 BMatP= 1.10D-08
 IDIUse=1 WtCom= 1.00D+00 WtEn= 0.00D+00
 Coeff-Com: -0.135D-01 0.154D+00 0.379D+00 0.481D+00
 Coeff:     -0.135D-01 0.154D+00 0.379D+00 0.481D+00
 Gap=     0.212 Goal=   None    Shift=    0.000
 RMSDP=2.37D-07 MaxDP=8.44D-06 DE=-8.07D-09 OVMax= 1.28D-05

 Cycle  13  Pass 1  IDiag  1:
 E= -513.269561589234     Delta-E=       -0.000000001324 Rises=F Damp=F
 DIIS: error= 4.66D-07 at cycle   5 NSaved=   5.
 NSaved= 5 IEnMin= 5 EnMin= -513.269561589234     IErMin= 5 ErrMin= 4.66D-07
 ErrMax= 4.66D-07 EMaxC= 1.00D-01 BMatC= 5.37D-11 BMatP= 1.62D-09
 IDIUse=1 WtCom= 1.00D+00 WtEn= 0.00D+00
 Coeff-Com: -0.970D-02 0.668D-01 0.174D+00 0.261D+00 0.508D+00
 Coeff:     -0.970D-02 0.668D-01 0.174D+00 0.261D+00 0.508D+00
 Gap=     0.212 Goal=   None    Shift=    0.000
 RMSDP=5.14D-08 MaxDP=1.01D-06 DE=-1.32D-09 OVMax= 1.85D-06

 Cycle  14  Pass 1  IDiag  1:
 E= -513.269561589282     Delta-E=       -0.000000000048 Rises=F Damp=F
 DIIS: error= 9.95D-08 at cycle   6 NSaved=   6.
 NSaved= 6 IEnMin= 6 EnMin= -513.269561589282     IErMin= 6 ErrMin= 9.95D-08
 ErrMax= 9.95D-08 EMaxC= 1.00D-01 BMatC= 2.72D-12 BMatP= 5.37D-11
 IDIUse=1 WtCom= 1.00D+00 WtEn= 0.00D+00
 Coeff-Com: -0.331D-02 0.190D-01 0.501D-01 0.857D-01 0.231D+00 0.617D+00
 Coeff:     -0.331D-02 0.190D-01 0.501D-01 0.857D-01 0.231D+00 0.617D+00
 Gap=     0.212 Goal=   None    Shift=    0.000
 RMSDP=1.18D-08 MaxDP=3.50D-07 DE=-4.77D-11 OVMax= 6.67D-07

 Cycle  15  Pass 1  IDiag  1:
 E= -513.269561589280     Delta-E=        0.000000000002 Rises=F Damp=F
 DIIS: error= 4.35D-08 at cycle   7 NSaved=   7.
 NSaved= 7 IEnMin= 6 EnMin= -513.269561589282     IErMin= 7 ErrMin= 4.35D-08
 ErrMax= 4.35D-08 EMaxC= 1.00D-01 BMatC= 5.82D-13 BMatP= 2.72D-12
 IDIUse=1 WtCom= 1.00D+00 WtEn= 0.00D+00
 Coeff-Com: -0.620D-03 0.185D-02 0.470D-02 0.145D-01 0.606D-01 0.352D+00
 Coeff-Com:  0.567D+00
 Coeff:     -0.620D-03 0.185D-02 0.470D-02 0.145D-01 0.606D-01 0.352D+00
 Coeff:      0.567D+00
 Gap=     0.212 Goal=   None    Shift=    0.000
 RMSDP=4.56D-09 MaxDP=1.66D-07 DE= 1.82D-12 OVMax= 2.34D-07

 SCF Done:  E(RB3LYP) =  -513.269561589     A.U. after   15 cycles
             Convg  =    0.4559D-08             -V/T =  2.0092
 KE= 5.085999749269D+02 PE=-2.245942196561D+03 EE= 7.004911594246D+02
 Leave Link  502 at Mon Oct  4 11:33:22 2021, MaxMem=  536870912 cpu:      71.1
 (Enter /sw/target/amd/app/gaussian/Gaussian09RevA.02_gcc-4.9.2/g09/l508.exe)
 QCSCF skips out because SCF is already converged.
 Leave Link  508 at Mon Oct  4 11:33:23 2021, MaxMem=  536870912 cpu:       0.0
 (Enter /sw/target/amd/app/gaussian/Gaussian09RevA.02_gcc-4.9.2/g09/l601.exe)
 Copying SCF densities to generalized density rwf, IOpCl= 0 IROHF=0.

 **********************************************************************

            Population analysis using the SCF density.

 **********************************************************************

 Orbital symmetries:
       Occupied  (A) (A) (A) (A) (A) (A) (A) (A) (A) (A) (A) (A)
                 (A) (A) (A) (A) (A) (A) (A) (A) (A) (A) (A) (A)
                 (A) (A) (A) (A) (A) (A) (A) (A) (A) (A) (A) (A)
                 (A)
       Virtual   (A) (A) (A) (A) (A) (A) (A) (A) (A) (A) (A) (A)
                 (A) (A) (A) (A) (A) (A) (A) (A) (A) (A) (A) (A)
                 (A) (A) (A) (A) (A) (A) (A) (A) (A) (A) (A) (A)
                 (A) (A) (A) (A) (A) (A) (A) (A) (A) (A) (A) (A)
                 (A) (A) (A) (A) (A) (A) (A) (A) (A) (A) (A) (A)
                 (A) (A) (A) (A) (A) (A) (A) (A) (A) (A) (A) (A)
                 (A) (A) (A) (A) (A) (A) (A) (A) (A) (A) (A) (A)
                 (A) (A) (A) (A) (A) (A) (A) (A) (A) (A) (A) (A)
                 (A) (A) (A) (A) (A) (A) (A) (A) (A) (A) (A) (A)
                 (A) (A) (A) (A) (A) (A) (A) (A) (A) (A) (A) (A)
                 (A) (A) (A) (A) (A) (A) (A)
 The electronic state is 1-A.
 Alpha  occ. eigenvalues --  -19.24565 -19.18914 -19.13534 -14.34384 -10.31928
 Alpha  occ. eigenvalues --  -10.28299 -10.27281 -10.23612 -10.22861 -10.20301
 Alpha  occ. eigenvalues --   -1.14793  -1.09435  -1.00898  -0.92989  -0.81010
 Alpha  occ. eigenvalues --   -0.74357  -0.70681  -0.65479  -0.60422  -0.56678
 Alpha  occ. eigenvalues --   -0.53568  -0.49481  -0.48331  -0.47454  -0.46546
 Alpha  occ. eigenvalues --   -0.44872  -0.42345  -0.42244  -0.41007  -0.39939
 Alpha  occ. eigenvalues --   -0.39755  -0.35161  -0.32663  -0.29771  -0.29759
 Alpha  occ. eigenvalues --   -0.27487  -0.24795
 Alpha virt. eigenvalues --   -0.03638   0.00038   0.10009   0.10840   0.11309
 Alpha virt. eigenvalues --    0.11953   0.13195   0.13494   0.16167   0.17610
 Alpha virt. eigenvalues --    0.18441   0.18769   0.21220   0.23092   0.26385
 Alpha virt. eigenvalues --    0.28240   0.33578   0.35394   0.38606   0.43768
 Alpha virt. eigenvalues --    0.50185   0.51095   0.52359   0.53188   0.55165
 Alpha virt. eigenvalues --    0.55279   0.56536   0.57531   0.58759   0.62883
 Alpha virt. eigenvalues --    0.63416   0.66353   0.66504   0.68030   0.71391
 Alpha virt. eigenvalues --    0.72785   0.74723   0.76249   0.80231   0.80590
 Alpha virt. eigenvalues --    0.83443   0.84474   0.84610   0.86380   0.87000
 Alpha virt. eigenvalues --    0.89852   0.92133   0.92752   0.96458   0.96743
 Alpha virt. eigenvalues --    0.97582   0.99076   0.99656   1.02326   1.04726
 Alpha virt. eigenvalues --    1.09914   1.12924   1.21615   1.23378   1.26711
 Alpha virt. eigenvalues --    1.30524   1.33149   1.35164   1.35905   1.40474
 Alpha virt. eigenvalues --    1.42310   1.45699   1.46000   1.48771   1.51784
 Alpha virt. eigenvalues --    1.53577   1.62418   1.62667   1.69169   1.69757
 Alpha virt. eigenvalues --    1.75952   1.78023   1.82030   1.84232   1.85763
 Alpha virt. eigenvalues --    1.87753   1.89604   1.93911   1.95482   1.99909
 Alpha virt. eigenvalues --    2.01110   2.05536   2.09587   2.12390   2.13809
 Alpha virt. eigenvalues --    2.14125   2.18016   2.21524   2.24881   2.27769
 Alpha virt. eigenvalues --    2.28911   2.31697   2.33010   2.33780   2.41391
 Alpha virt. eigenvalues --    2.42184   2.47033   2.52475   2.56213   2.56699
 Alpha virt. eigenvalues --    2.61123   2.66511   2.68168   2.71762   2.81289
 Alpha virt. eigenvalues --    2.82549   2.88654   2.93858   3.01118   3.04047
 Alpha virt. eigenvalues --    3.20599   3.31050   3.91833   4.01592   4.06274
 Alpha virt. eigenvalues --    4.12604   4.19017   4.21529   4.26812   4.44869
 Alpha virt. eigenvalues --    4.54308   4.64988
          Condensed to atoms (all electrons):
              1          2          3          4          5          6
     1  C    4.883893   0.215511  -0.022013   0.003373   0.008552  -0.000248
     2  O    0.215511   8.226776   0.260829  -0.081184  -0.084598   0.002744
     3  C   -0.022013   0.260829   4.402862   0.529548   0.352432  -0.051842
     4  O    0.003373  -0.081184   0.529548   8.118250  -0.069019   0.002362
     5  C    0.008552  -0.084598   0.352432  -0.069019   4.959590   0.342258
     6  N   -0.000248   0.002744  -0.051842   0.002362   0.342258   6.823392
     7  C    0.000008   0.000120   0.008361  -0.000074  -0.080511   0.505524
     8  O    0.000001  -0.000015   0.003544   0.000020  -0.040460  -0.074454
     9  C   -0.000071   0.002347  -0.065195  -0.010974   0.527908  -0.076499
    10  C   -0.000006   0.000076  -0.003099   0.005539  -0.062393   0.007762
    11  H    0.377318  -0.030448   0.004451   0.000593   0.000090  -0.000025
    12  H    0.374890  -0.032659  -0.005569   0.005196  -0.000295   0.000001
    13  H    0.373402  -0.032149  -0.006131   0.006625  -0.000267  -0.000001
    14  H   -0.000000  -0.000000  -0.000078   0.000001   0.005268  -0.040843
    15  H   -0.000000   0.000001   0.000045   0.000230   0.003953  -0.000088
    16  H   -0.000000   0.000006   0.001026   0.002453  -0.003858   0.000012
    17  H    0.000000   0.000003   0.000838   0.001439  -0.003609  -0.000007
              7          8          9         10         11         12
     1  C    0.000008   0.000001  -0.000071  -0.000006   0.377318   0.374890
     2  O    0.000120  -0.000015   0.002347   0.000076  -0.030448  -0.032659
     3  C    0.008361   0.003544  -0.065195  -0.003099   0.004451  -0.005569
     4  O   -0.000074   0.000020  -0.010974   0.005539   0.000593   0.005196
     5  C   -0.080511  -0.040460   0.527908  -0.062393   0.000090  -0.000295
     6  N    0.505524  -0.074454  -0.076499   0.007762  -0.000025   0.000001
     7  C    4.739856   0.301323  -0.102441   0.005525  -0.000000   0.000001
     8  O    0.301323   8.021830   0.295696  -0.060350  -0.000000  -0.000000
     9  C   -0.102441   0.295696   4.785194   0.378126   0.000003   0.000004
    10  C    0.005525  -0.060350   0.378126   5.174197  -0.000000  -0.000001
    11  H   -0.000000  -0.000000   0.000003  -0.000000   0.550560  -0.034652
    12  H    0.000001  -0.000000   0.000004  -0.000001  -0.034652   0.562514
    13  H    0.000001  -0.000000   0.000004  -0.000002  -0.033995  -0.035181
    14  H    0.380761  -0.041710   0.004004  -0.000216  -0.000000  -0.000000
    15  H    0.000022  -0.000849  -0.021568   0.349597  -0.000000  -0.000000
    16  H    0.000027   0.001555  -0.024362   0.366036  -0.000000  -0.000000
    17  H    0.000060   0.001343  -0.025355   0.366262  -0.000000   0.000000
             13         14         15         16         17
     1  C    0.373402  -0.000000  -0.000000  -0.000000   0.000000
     2  O   -0.032149  -0.000000   0.000001   0.000006   0.000003
     3  C   -0.006131  -0.000078   0.000045   0.001026   0.000838
     4  O    0.006625   0.000001   0.000230   0.002453   0.001439
     5  C   -0.000267   0.005268   0.003953  -0.003858  -0.003609
     6  N   -0.000001  -0.040843  -0.000088   0.000012  -0.000007
     7  C    0.000001   0.380761   0.000022   0.000027   0.000060
     8  O   -0.000000  -0.041710  -0.000849   0.001555   0.001343
     9  C    0.000004   0.004004  -0.021568  -0.024362  -0.025355
    10  C   -0.000002  -0.000216   0.349597   0.366036   0.366262
    11  H   -0.033995  -0.000000  -0.000000  -0.000000  -0.000000
    12  H   -0.035181  -0.000000  -0.000000  -0.000000   0.000000
    13  H    0.560581  -0.000000  -0.000000   0.000000  -0.000000
    14  H   -0.000000   0.513051  -0.000011   0.000006   0.000006
    15  H   -0.000000  -0.000011   0.546882  -0.025443  -0.026196
    16  H    0.000000   0.000006  -0.025443   0.512797  -0.026002
    17  H   -0.000000   0.000006  -0.026196  -0.026002   0.517764
 Mulliken atomic charges:
              1
     1  C   -0.214610
     2  O   -0.447359
     3  C    0.589990
     4  O   -0.514380
     5  C    0.144960
     6  N   -0.440048
     7  C    0.241437
     8  O   -0.407473
     9  C    0.333179
    10  C   -0.527054
    11  H    0.166107
    12  H    0.165752
    13  H    0.167111
    14  H    0.179763
    15  H    0.173425
    16  H    0.195746
    17  H    0.193455
 Sum of Mulliken atomic charges =  -0.00000
 Mulliken charges with hydrogens summed into heavy atoms:
              1
     1  C    0.284359
     2  O   -0.447359
     3  C    0.589990
     4  O   -0.514380
     5  C    0.144960
     6  N   -0.440048
     7  C    0.421200
     8  O   -0.407473
     9  C    0.333179
    10  C    0.035571
 Sum of Mulliken charges with hydrogens summed into heavy atoms =  -0.00000
 Electronic spatial extent (au):  <R**2>=           1535.7122
 Charge=             -0.0000 electrons
 Dipole moment (field-independent basis, Debye):
    X=             -1.2419    Y=              0.2057    Z=             -0.0133  Tot=              1.2589
 Quadrupole moment (field-independent basis, Debye-Ang):
   XX=            -45.6997   YY=            -58.9808   ZZ=            -55.8197
   XY=             -1.0648   XZ=             -0.0509   YZ=             -0.0166
 Traceless Quadrupole moment (field-independent basis, Debye-Ang):
   XX=              7.8004   YY=             -5.4808   ZZ=             -2.3196
   XY=             -1.0648   XZ=             -0.0509   YZ=             -0.0166
 Octapole moment (field-independent basis, Debye-Ang**2):
  XXX=             32.6460  YYY=             -0.8370  ZZZ=              0.1897  XYY=            -21.9974
  XXY=            -12.9873  XXZ=             -0.2480  XZZ=              3.2290  YZZ=              2.8384
  YYZ=             -0.1290  XYZ=              0.0019
 Hexadecapole moment (field-independent basis, Debye-Ang**3):
 XXXX=          -1201.5629 YYYY=           -528.3353 ZZZZ=            -62.7302 XXXY=              3.0794
 XXXZ=             -0.0610 YYYX=             13.0845 YYYZ=             -0.1667 ZZZX=              0.0180
 ZZZY=              0.2526 XXYY=           -277.5865 XXZZ=           -231.7092 YYZZ=            -97.6344
 XXYZ=             -0.0199 YYXZ=             -0.3499 ZZXY=              2.0380
 N-N= 5.235815006204D+02 E-N=-2.245942203041D+03  KE= 5.085999749269D+02
 No NMR shielding tensors so no spin-rotation constants.
 Leave Link  601 at Mon Oct  4 11:33:25 2021, MaxMem=  536870912 cpu:       0.5
 (Enter /sw/target/amd/app/gaussian/Gaussian09RevA.02_gcc-4.9.2/g09/l701.exe)
 Compute integral first derivatives.
 ... and contract with generalized density number  0.
 Leave Link  701 at Mon Oct  4 11:33:27 2021, MaxMem=  536870912 cpu:       0.5
 (Enter /sw/target/amd/app/gaussian/Gaussian09RevA.02_gcc-4.9.2/g09/l702.exe)
 L702 exits ... SP integral derivatives will be done elsewhere.
 Leave Link  702 at Mon Oct  4 11:33:27 2021, MaxMem=  536870912 cpu:       0.0
 (Enter /sw/target/amd/app/gaussian/Gaussian09RevA.02_gcc-4.9.2/g09/l703.exe)
 Compute integral first derivatives, UseDBF=F ICtDFT=           0.
 Integral derivatives from FoFDir, PRISM(SPDF).
 Calling FoFJK, ICntrl=      2127 FMM=F ISym2X=0 I1Cent= 0 IOpClX= 0 NMat=1 NMatS=1 NMatT=0.
 FoFCou: FMM=F IPFlag=           0 FMFlag=      100000 FMFlg1=         800
         NFxFlg=           0 DoJE=F BraDBF=F KetDBF=F FulRan=T
         Omega=  0.000000  0.000000  1.000000  0.000000  0.000000 ICntrl=    2127 IOpCl=  0
         NMat0=    1 NMatS0=    1 NMatT0=    0 NMatD0=    1 NMtDS0=    0 NMtDT0=    0
         I1Cent=           0 NGrid=           0.
 Symmetry not used in FoFCou.
 Leave Link  703 at Mon Oct  4 11:34:45 2021, MaxMem=  536870912 cpu:      28.9
 (Enter /sw/target/amd/app/gaussian/Gaussian09RevA.02_gcc-4.9.2/g09/l716.exe)
 Dipole        =-4.88587646D-01 8.09168710D-02-5.23002310D-03
 ***** Axes restored to original set *****
 -------------------------------------------------------------------
 Center     Atomic                   Forces (Hartrees/Bohr)
 Number     Number              X              Y              Z
 -------------------------------------------------------------------
      1        6          -0.007475727    0.002056100   -0.003238477
      2        8           0.005621569   -0.007906358    0.009104573
      3        6          -0.016849645    0.000961972   -0.001854328
      4        8           0.008127125    0.006734415   -0.008069400
      5        6           0.018511777   -0.005795922    0.007876884
      6        7           0.025030898   -0.005318835    0.007842856
      7        6          -0.015028558    0.011444550   -0.014663744
      8        8          -0.010334242    0.003614120   -0.005049007
      9        6          -0.004344328    0.001804117   -0.002969781
     10        6          -0.000905894   -0.006064257    0.006346635
     11        1           0.006101668    0.000017102    0.000605464
     12        1          -0.001427819   -0.003579232    0.000918690
     13        1          -0.001067757    0.000185595    0.003892285
     14        1          -0.000738747    0.000034689   -0.000109315
     15        1           0.000917746    0.001889195   -0.001813719
     16        1          -0.003049064    0.001319149    0.001210541
     17        1          -0.003089003   -0.001396399   -0.000030157
 -------------------------------------------------------------------
 Cartesian Forces:  Max     0.025030898 RMS     0.007402934
 Leave Link  716 at Mon Oct  4 11:34:46 2021, MaxMem=  536870912 cpu:       0.1
 (Enter /sw/target/amd/app/gaussian/Gaussian09RevA.02_gcc-4.9.2/g09/l103.exe)

 GradGradGradGradGradGradGradGradGradGradGradGradGradGradGradGradGradGrad
 Berny optimization.
 Internal  Forces:  Max     0.026027127 RMS     0.005293293
 Search for a local minimum.
 Step number   1 out of a maximum of   81
 All quantities printed in internal units (Hartrees-Bohrs-Radians)
 RMS Force = .52933D-02 SwitMx=.10000D-02 MixMth= 1
 Mixed Optimization -- RFO/linear search
 Second derivative matrix not updated -- first step.
     Eigenvalues ---    0.01105   0.01333   0.01351   0.01606   0.01643
     Eigenvalues ---    0.01812   0.02144   0.02199   0.02333   0.02594
     Eigenvalues ---    0.07451   0.07491   0.10108   0.10518   0.16000
     Eigenvalues ---    0.16000   0.16000   0.16000   0.16000   0.16000
     Eigenvalues ---    0.16000   0.23443   0.25000   0.25000   0.25000
     Eigenvalues ---    0.25000   0.25000   0.25000   0.34258   0.34310
     Eigenvalues ---    0.34326   0.34339   0.34339   0.34387   0.35223
     Eigenvalues ---    0.35894   0.37322   0.41607   0.43889   0.45623
     Eigenvalues ---    0.49925   0.51652   0.51788   0.61395   0.92583
     Eigenvalues --- 1000.000001000.000001000.000001000.000001000.00000
     Eigenvalues --- 1000.000001000.000001000.000001000.000001000.00000
     Eigenvalues --- 1000.000001000.000001000.000001000.000001000.00000
     Eigenvalues --- 1000.000001000.000001000.000001000.000001000.00000
     Eigenvalues --- 1000.000001000.000001000.000001000.000001000.00000
     Eigenvalues --- 1000.00000
 RFO step:  Lambda=-5.09861125D-03 EMin= 1.10502445D-02
 Linear search not attempted -- first point.
 Iteration  1 RMS(Cart)=  0.03410248 RMS(Int)=  0.00024142
 Iteration  2 RMS(Cart)=  0.00053287 RMS(Int)=  0.00003074
 Iteration  3 RMS(Cart)=  0.00000004 RMS(Int)=  0.00003074
 Variable       Old X    -DE/DX   Delta X   Delta X   Delta X     New X
                                 (Linear)    (Quad)   (Total)
    R1        2.69426   0.00331   0.00000   0.00786   0.00786   2.70212
    R2        2.06682  -0.00122   0.00000  -0.00349  -0.00349   2.06333
    R3        2.06784  -0.00019   0.00000  -0.00056  -0.00056   2.06728
    R4        2.06809  -0.00050   0.00000  -0.00143  -0.00143   2.06667
    R5        2.58103  -0.01457   0.00000  -0.02786  -0.02786   2.55318
    R6        2.31765  -0.01325   0.00000  -0.01423  -0.01423   2.30342
    R7        2.75363   0.00660   0.00000   0.01744   0.01744   2.77107
    R8        2.62428   0.00644   0.00000   0.01290   0.01292   2.63721
    R9        2.61342  -0.01267   0.00000  -0.02479  -0.02476   2.58865
   R10        2.47912  -0.02603   0.00000  -0.04137  -0.04138   2.43774
   R11        2.56850   0.00417   0.00000   0.00740   0.00737   2.57586
   R12        2.04248  -0.00064   0.00000  -0.00176  -0.00176   2.04072
   R13        2.58568  -0.00282   0.00000  -0.00436  -0.00437   2.58131
   R14        2.78615   0.00860   0.00000   0.02406   0.02406   2.81021
   R15        2.06896  -0.00090   0.00000  -0.00258  -0.00258   2.06638
   R16        2.06762   0.00035   0.00000   0.00100   0.00100   2.06862
   R17        2.06762   0.00089   0.00000   0.00254   0.00254   2.07016
    A1        1.88417  -0.00822   0.00000  -0.04724  -0.04715   1.83702
    A2        1.92761   0.00203   0.00000   0.01091   0.01097   1.93859
    A3        1.93208   0.00141   0.00000   0.00732   0.00737   1.93945
    A4        1.89271   0.00400   0.00000   0.02665   0.02676   1.91947
    A5        1.89094   0.00444   0.00000   0.02958   0.02966   1.92060
    A6        1.93478  -0.00368   0.00000  -0.02693  -0.02689   1.90789
    A7        2.00055   0.00045   0.00000   0.00175   0.00175   2.00230
    A8        2.16786  -0.00214   0.00000  -0.00838  -0.00838   2.15948
    A9        1.95882   0.00195   0.00000   0.00766   0.00766   1.96648
   A10        2.15651   0.00018   0.00000   0.00072   0.00072   2.15723
   A11        2.17465   0.00204   0.00000   0.00729   0.00727   2.18192
   A12        2.20895  -0.00804   0.00000  -0.03222  -0.03224   2.17670
   A13        1.89958   0.00600   0.00000   0.02493   0.02497   1.92456
   A14        1.81324   0.00097   0.00000  -0.00041  -0.00039   1.81285
   A15        2.00989  -0.00384   0.00000  -0.01958  -0.01962   1.99027
   A16        2.23707   0.00153   0.00000   0.00743   0.00745   2.24452
   A17        2.03623   0.00231   0.00000   0.01215   0.01217   2.04840
   A18        1.81660   0.00779   0.00000   0.03354   0.03348   1.85009
   A19        1.88546  -0.01092   0.00000  -0.03846  -0.03844   1.84702
   A20        2.35467   0.00214   0.00000   0.00624   0.00623   2.36090
   A21        2.04305   0.00878   0.00000   0.03223   0.03222   2.07527
   A22        1.94076  -0.00355   0.00000  -0.01730  -0.01725   1.92351
   A23        1.93113   0.00125   0.00000   0.00577   0.00580   1.93693
   A24        1.92936   0.00213   0.00000   0.01047   0.01051   1.93988
   A25        1.88253   0.00210   0.00000   0.01731   0.01735   1.89988
   A26        1.88420   0.00142   0.00000   0.01213   0.01218   1.89638
   A27        1.89418  -0.00337   0.00000  -0.02851  -0.02850   1.86568
    D1       -3.09750  -0.00012   0.00000  -0.00411  -0.00413  -3.10163
    D2        1.11908  -0.00119   0.00000  -0.01427  -0.01422   1.10487
    D3       -1.03050   0.00111   0.00000   0.00738   0.00735  -1.02315
    D4       -0.00573   0.00010   0.00000   0.00367   0.00368  -0.00205
    D5        3.13553   0.00012   0.00000   0.00456   0.00456   3.14009
    D6        0.00062  -0.00000   0.00000  -0.00020  -0.00020   0.00042
    D7       -3.14073  -0.00001   0.00000  -0.00063  -0.00063  -3.14136
    D8       -3.14129   0.00001   0.00000   0.00068   0.00068  -3.14062
    D9        0.00054   0.00000   0.00000   0.00025   0.00025   0.00079
   D10        3.14047   0.00005   0.00000   0.00206   0.00210  -3.14062
   D11       -0.00133   0.00006   0.00000   0.00242   0.00246   0.00114
   D12       -3.14014  -0.00009   0.00000  -0.00312  -0.00310   3.13995
   D13        0.00005  -0.00010   0.00000  -0.00372  -0.00370  -0.00364
   D14        0.00166  -0.00010   0.00000  -0.00350  -0.00347  -0.00181
   D15       -3.14133  -0.00011   0.00000  -0.00409  -0.00407   3.13778
   D16        0.00054  -0.00002   0.00000  -0.00055  -0.00054   0.00000
   D17       -3.14086  -0.00005   0.00000  -0.00150  -0.00151   3.14082
   D18        0.00046  -0.00004   0.00000  -0.00154  -0.00157  -0.00111
   D19       -3.14131  -0.00002   0.00000  -0.00071  -0.00072   3.14116
   D20       -0.00127   0.00008   0.00000   0.00299   0.00299   0.00172
   D21        3.14144   0.00009   0.00000   0.00347   0.00348  -3.13826
   D22        3.08141   0.00004   0.00000  -0.00219  -0.00217   3.07923
   D23        0.98971  -0.00110   0.00000  -0.01643  -0.01641   0.97330
   D24       -1.10915   0.00091   0.00000   0.00866   0.00866  -1.10049
   D25       -0.06169   0.00002   0.00000  -0.00287  -0.00287  -0.06456
   D26       -2.15339  -0.00112   0.00000  -0.01711  -0.01711  -2.17050
   D27        2.03095   0.00089   0.00000   0.00798   0.00796   2.03890
         Item               Value     Threshold  Converged?
 Maximum Force            0.026027     0.000450     NO 
 RMS     Force            0.005293     0.000300     NO 
 Maximum Displacement     0.105585     0.001800     NO 
 RMS     Displacement     0.034329     0.001200     NO 
 Predicted change in Energy=-2.595336D-03
 GradGradGradGradGradGradGradGradGradGradGradGradGradGradGradGradGradGrad

 Leave Link  103 at Mon Oct  4 11:34:50 2021, MaxMem=  536870912 cpu:       1.0
 (Enter /sw/target/amd/app/gaussian/Gaussian09RevA.02_gcc-4.9.2/g09/l202.exe)
                          Input orientation:                          
 ---------------------------------------------------------------------
 Center     Atomic      Atomic             Coordinates (Angstroms)
 Number     Number       Type             X           Y           Z
 ---------------------------------------------------------------------
      1          6           0        1.694935    0.943615   -2.783280
      2          8           0        3.101850    0.815909   -2.562159
      3          6           0        3.441484   -0.000061   -1.540265
      4          8           0        2.630805   -0.589430   -0.846578
      5          6           0        4.892691   -0.099758   -1.354922
      6          7           0        5.846252    0.561791   -2.129927
      7          6           0        6.971366    0.187523   -1.621858
      8          8           0        6.847461   -0.670583   -0.570043
      9          6           0        5.506046   -0.858004   -0.392963
     10          6           0        5.043609   -1.754624    0.699597
     11          1           0        1.599058    1.593139   -3.655692
     12          1           0        1.201122    1.400846   -1.920824
     13          1           0        1.238307   -0.028812   -2.988000
     14          1           0        7.971259    0.464076   -1.921725
     15          1           0        5.900755   -2.214285    1.199313
     16          1           0        4.395495   -2.545819    0.309397
     17          1           0        4.459154   -1.202224    1.443468
 ---------------------------------------------------------------------
                    Distance matrix (angstroms):
                    1          2          3          4          5
     1  C    0.000000
     2  O    1.429899   0.000000
     3  C    2.342230   1.351083   0.000000
     4  O    2.641382   2.267174   1.218917   0.000000
     5  C    3.654378   2.345843   1.466388   2.369456   0.000000
     6  N    4.219726   2.789829   2.538954   3.648478   1.395550
     7  C    5.455392   4.031401   3.535804   4.477185   2.115343
     8  O    5.835459   4.495307   3.604388   4.226494   2.182431
     9  C    4.846031   3.645210   2.512924   2.923168   1.369857
    10  C    5.533945   4.584443   3.265314   3.093534   2.642424
    11  H    1.091868   2.014519   3.226120   3.703948   4.359755
    12  H    1.093957   2.089552   2.669566   2.675667   4.024890
    13  H    1.093633   2.089901   2.636428   2.615154   4.003311
    14  H    6.353304   4.923930   4.569442   5.548537   3.180685
    15  H    6.597144   5.582528   4.296055   4.185498   3.465766
    16  H    5.388304   4.606578   3.288202   2.877128   3.000062
    17  H    5.487343   4.686170   3.373947   2.993775   3.038811
                    6          7          8          9         10
     6  N    0.000000
     7  C    1.289997   0.000000
     8  O    2.225849   1.363089   0.000000
     9  C    2.269053   2.179557   1.365972   0.000000
    10  C    3.743824   3.588500   2.457848   1.487099   0.000000
    11  H    4.629287   5.913876   6.495491   5.649607   6.483902
    12  H    4.724930   5.904002   6.164136   5.095992   5.620347
    13  H    4.724220   5.897551   6.141742   5.063139   5.572892
    14  H    2.137417   1.079902   2.092228   3.187834   4.512770
    15  H    4.335137   3.856669   2.531777   2.128529   1.093483
    16  H    4.208591   4.223270   3.209683   2.139007   1.094667
    17  H    4.219590   4.199860   3.168735   2.141717   1.095481
                   11         12         13         14         15
    11  H    0.000000
    12  H    1.790278   0.000000
    13  H    1.790720   1.784423   0.000000
    14  H    6.699729   6.834639   6.834656   0.000000
    15  H    7.521446   6.700073   6.636890   4.604508   0.000000
    16  H    6.377535   5.545634   5.213059   5.179137   1.779796
    17  H    6.480404   5.358098   5.602559   5.141591   1.778227
                   16         17
    16  H    0.000000
    17  H    1.759381   0.000000
 Stoichiometry    C6H7NO3
 Framework group  C1[X(C6H7NO3)]
 Deg. of freedom    45
 Full point group                 C1      NOp   1
 Largest Abelian subgroup         C1      NOp   1
 Largest concise Abelian subgroup C1      NOp   1
                         Standard orientation:                         
 ---------------------------------------------------------------------
 Center     Atomic      Atomic             Coordinates (Angstroms)
 Number     Number       Type             X           Y           Z
 ---------------------------------------------------------------------
      1          6           0        3.354252   -0.275662   -0.000970
      2          8           0        1.997377   -0.726769    0.001156
      3          6           0        1.073984    0.259521    0.000038
      4          8           0        1.351439    1.446440   -0.000484
      5          6           0       -0.300053   -0.252645    0.000269
      6          7           0       -0.651177   -1.603300    0.001979
      7          6           0       -1.941076   -1.587456    0.000309
      8          8           0       -2.480897   -0.335818   -0.002380
      9          6           0       -1.424345    0.529962   -0.000955
     10          6           0       -1.693520    1.992495    0.001066
     11          1           0        3.958867   -1.183929   -0.041803
     12          1           0        3.583653    0.285411    0.909696
     13          1           0        3.559855    0.350989   -0.873364
     14          1           0       -2.625140   -2.423066    0.000122
     15          1           0       -2.768995    2.178732   -0.065077
     16          1           0       -1.196955    2.483536   -0.841904
     17          1           0       -1.311846    2.463320    0.913605
 ---------------------------------------------------------------------
 Rotational constants (GHZ):      2.6467919      0.9832742      0.7234305
 Leave Link  202 at Mon Oct  4 11:34:50 2021, MaxMem=  536870912 cpu:       0.0
 (Enter /sw/target/amd/app/gaussian/Gaussian09RevA.02_gcc-4.9.2/g09/l301.exe)
 Standard basis: 6-31G(d) (6D, 7F)
 Ernie: Thresh=  0.10000D-02 Tol=  0.10000D-05 Strict=F.
 There are   164 symmetry adapted basis functions of A   symmetry.
 Integral buffers will be    131072 words long.
 Raffenetti 2 integral format.
 Two-electron integral symmetry is turned on.
   164 basis functions,   308 primitive gaussians,   164 cartesian basis functions
    37 alpha electrons       37 beta electrons
       nuclear repulsion energy       524.8914272172 Hartrees.
 IExCor=  402 DFT=T Ex+Corr=B3LYP ExCW=0 ScaHFX=  0.200000
 ScaDFX=  0.800000  0.720000  1.000000  0.810000 ScalE2=  1.000000  1.000000
 IRadAn=      0 IRanWt=     -1 IRanGd=            0 ICorTp=0
 NAtoms=   17 NActive=   17 NUniq=   17 SFac= 7.50D-01 NAtFMM=   80 NAOKFM=F Big=F
 Leave Link  301 at Mon Oct  4 11:34:51 2021, MaxMem=  536870912 cpu:       0.1
 (Enter /sw/target/amd/app/gaussian/Gaussian09RevA.02_gcc-4.9.2/g09/l302.exe)
 NPDir=0 NMtPBC=     1 NCelOv=     1 NCel=       1 NClECP=     1 NCelD=      1
         NCelK=      1 NCelE2=     1 NClLst=     1 CellRange=     0.0.
 One-electron integrals computed using PRISM.
 NBasis=   164 RedAO= T  NBF=   164
 NBsUse=   164 1.00D-06 NBFU=   164
 Precomputing XC quadrature grid using
 IXCGrd= 2 IRadAn=           0 IRanWt=          -1 IRanGd=           0 AccXCQ= 1.00D-10.
 NRdTot=    1068 NPtTot=      135446 NUsed=      143156 NTot=      143188
 NSgBfM=   163   163   163   163   163 NAtAll=    17    17.
 Leave Link  302 at Mon Oct  4 11:34:55 2021, MaxMem=  536870912 cpu:       0.9
 (Enter /sw/target/amd/app/gaussian/Gaussian09RevA.02_gcc-4.9.2/g09/l303.exe)
 DipDrv:  MaxL=1.
 Leave Link  303 at Mon Oct  4 11:34:55 2021, MaxMem=  536870912 cpu:       0.2
 (Enter /sw/target/amd/app/gaussian/Gaussian09RevA.02_gcc-4.9.2/g09/l401.exe)
 Initial guess read from the read-write file.
 B after Tr=     0.000000    0.000000    0.000000
         Rot=    1.000000    0.000000    0.000000    0.000000 Ang=   0.00 deg.
 Guess basis will be translated and rotated to current coordinates.
 Initial guess orbital symmetries:
       Occupied  (A) (A) (A) (A) (A) (A) (A) (A) (A) (A) (A) (A)
                 (A) (A) (A) (A) (A) (A) (A) (A) (A) (A) (A) (A)
                 (A) (A) (A) (A) (A) (A) (A) (A) (A) (A) (A) (A)
                 (A)
       Virtual   (A) (A) (A) (A) (A) (A) (A) (A) (A) (A) (A) (A)
                 (A) (A) (A) (A) (A) (A) (A) (A) (A) (A) (A) (A)
                 (A) (A) (A) (A) (A) (A) (A) (A) (A) (A) (A) (A)
                 (A) (A) (A) (A) (A) (A) (A) (A) (A) (A) (A) (A)
                 (A) (A) (A) (A) (A) (A) (A) (A) (A) (A) (A) (A)
                 (A) (A) (A) (A) (A) (A) (A) (A) (A) (A) (A) (A)
                 (A) (A) (A) (A) (A) (A) (A) (A) (A) (A) (A) (A)
                 (A) (A) (A) (A) (A) (A) (A) (A) (A) (A) (A) (A)
                 (A) (A) (A) (A) (A) (A) (A) (A) (A) (A) (A) (A)
                 (A) (A) (A) (A) (A) (A) (A) (A) (A) (A) (A) (A)
                 (A) (A) (A) (A) (A) (A) (A)
 The electronic state of the initial guess is 1-A.
 Generating alternative initial guess.
 Harris functional with IExCor=  402 diagonalized for initial guess.
 ExpMin= 1.61D-01 ExpMax= 5.48D+03 ExpMxC= 8.25D+02 IAcc=1 IRadAn=         1 AccDes= 0.00D+00
 HarFok:  IExCor=  402 AccDes= 0.00D+00 IRadAn=         1 IDoV= 1
 ScaDFX=  1.000000  1.000000  1.000000  1.000000
 FoFCou: FMM=F IPFlag=           0 FMFlag=      100000 FMFlg1=           0
         NFxFlg=           0 DoJE=T BraDBF=F KetDBF=T FulRan=T
         Omega=  0.000000  0.000000  1.000000  0.000000  0.000000 ICntrl=     500 IOpCl=  0
         NMat0=    1 NMatS0=    1 NMatT0=    0 NMatD0=    1 NMtDS0=    0 NMtDT0=    0
         I1Cent=           4 NGrid=           0.
 Petite list used in FoFCou.
 Harris En= -513.312724997362    
 Leave Link  401 at Mon Oct  4 11:35:12 2021, MaxMem=  536870912 cpu:       5.1
 (Enter /sw/target/amd/app/gaussian/Gaussian09RevA.02_gcc-4.9.2/g09/l502.exe)
 Closed shell SCF:
 Requested convergence on RMS density matrix=1.00D-08 within  64 cycles.
 Requested convergence on MAX density matrix=1.00D-06.
 Requested convergence on             energy=1.00D-06.
 No special actions if energy rises.
 Using DIIS extrapolation, IDIIS=  1040.
 Integral symmetry usage will be decided dynamically.
       142990 words used for storage of precomputed grid.
 Keep R1 ints in memory in canonical form, NReq=94014645.
 IEnd=      231436 IEndB=      231436 NGot=   536870912 MDV=   445133518
 LenX=   445133518 LenY=   445106181
 Symmetry not used in FoFDir.
 MinBra= 0 MaxBra= 2 Meth= 1.
 IRaf=       0 NMat=   1 IRICut=       1 DoRegI=T DoRafI=F ISym2E= 0 JSym2E=0.
 Integral accuracy reduced to 1.0D-05 until final iterations.

 Cycle   1  Pass 0  IDiag  1:
 E= -513.269857428176    
 DIIS: error= 1.54D-03 at cycle   1 NSaved=   1.
 NSaved= 1 IEnMin= 1 EnMin= -513.269857428176     IErMin= 1 ErrMin= 1.54D-03
 ErrMax= 1.54D-03 EMaxC= 1.00D-01 BMatC= 1.20D-03 BMatP= 1.20D-03
 IDIUse=3 WtCom= 9.85D-01 WtEn= 1.54D-02
 Coeff-Com:  0.100D+01
 Coeff-En:   0.100D+01
 Coeff:      0.100D+01
 Gap=     0.220 Goal=   None    Shift=    0.000
 GapD=    0.220 DampG=1.000 DampE=1.000 DampFc=1.0000 IDamp=-1.
 RMSDP=4.24D-04 MaxDP=7.09D-03              OVMax= 1.03D-02

 Cycle   2  Pass 0  IDiag  1:
 E= -513.271668458811     Delta-E=       -0.001811030635 Rises=F Damp=F
 DIIS: error= 5.69D-04 at cycle   2 NSaved=   2.
 NSaved= 2 IEnMin= 2 EnMin= -513.271668458811     IErMin= 2 ErrMin= 5.69D-04
 ErrMax= 5.69D-04 EMaxC= 1.00D-01 BMatC= 1.21D-04 BMatP= 1.20D-03
 IDIUse=3 WtCom= 9.94D-01 WtEn= 5.69D-03
 Coeff-Com:  0.105D+00 0.895D+00
 Coeff-En:   0.000D+00 0.100D+01
 Coeff:      0.104D+00 0.896D+00
 Gap=     0.219 Goal=   None    Shift=    0.000
 RMSDP=1.28D-04 MaxDP=4.07D-03 DE=-1.81D-03 OVMax= 5.72D-03

 Cycle   3  Pass 0  IDiag  1:
 E= -513.271615873064     Delta-E=        0.000052585747 Rises=F Damp=F
 DIIS: error= 8.83D-04 at cycle   3 NSaved=   3.
 NSaved= 3 IEnMin= 2 EnMin= -513.271668458811     IErMin= 2 ErrMin= 5.69D-04
 ErrMax= 8.83D-04 EMaxC= 1.00D-01 BMatC= 1.91D-04 BMatP= 1.21D-04
 IDIUse=3 WtCom= 2.52D-01 WtEn= 7.48D-01
 Coeff-Com: -0.218D-01 0.568D+00 0.454D+00
 Coeff-En:   0.000D+00 0.591D+00 0.409D+00
 Coeff:     -0.549D-02 0.585D+00 0.420D+00
 Gap=     0.219 Goal=   None    Shift=    0.000
 RMSDP=7.42D-05 MaxDP=2.14D-03 DE= 5.26D-05 OVMax= 3.80D-03

 Cycle   4  Pass 0  IDiag  1:
 E= -513.271767180647     Delta-E=       -0.000151307582 Rises=F Damp=F
 DIIS: error= 1.53D-04 at cycle   4 NSaved=   4.
 NSaved= 4 IEnMin= 4 EnMin= -513.271767180647     IErMin= 4 ErrMin= 1.53D-04
 ErrMax= 1.53D-04 EMaxC= 1.00D-01 BMatC= 5.82D-06 BMatP= 1.21D-04
 IDIUse=3 WtCom= 9.98D-01 WtEn= 1.53D-03
 Coeff-Com: -0.172D-01 0.255D+00 0.224D+00 0.537D+00
 Coeff-En:   0.000D+00 0.000D+00 0.000D+00 0.100D+01
 Coeff:     -0.172D-01 0.255D+00 0.224D+00 0.538D+00
 Gap=     0.219 Goal=   None    Shift=    0.000
 RMSDP=1.78D-05 MaxDP=4.55D-04 DE=-1.51D-04 OVMax= 1.05D-03

 Cycle   5  Pass 0  IDiag  1:
 E= -513.271771584696     Delta-E=       -0.000004404050 Rises=F Damp=F
 DIIS: error= 7.64D-05 at cycle   5 NSaved=   5.
 NSaved= 5 IEnMin= 5 EnMin= -513.271771584696     IErMin= 5 ErrMin= 7.64D-05
 ErrMax= 7.64D-05 EMaxC= 1.00D-01 BMatC= 9.42D-07 BMatP= 5.82D-06
 IDIUse=1 WtCom= 1.00D+00 WtEn= 0.00D+00
 Coeff-Com: -0.765D-02 0.885D-01 0.837D-01 0.317D+00 0.519D+00
 Coeff:     -0.765D-02 0.885D-01 0.837D-01 0.317D+00 0.519D+00
 Gap=     0.219 Goal=   None    Shift=    0.000
 RMSDP=6.61D-06 MaxDP=2.10D-04 DE=-4.40D-06 OVMax= 4.41D-04

 Initial convergence to 1.0D-05 achieved.  Increase integral accuracy.
 Cycle   6  Pass 1  IDiag  1:
 E= -513.271778680259     Delta-E=       -0.000007095563 Rises=F Damp=F
 DIIS: error= 1.71D-05 at cycle   1 NSaved=   1.
 NSaved= 1 IEnMin= 1 EnMin= -513.271778680259     IErMin= 1 ErrMin= 1.71D-05
 ErrMax= 1.71D-05 EMaxC= 1.00D-01 BMatC= 1.14D-07 BMatP= 1.14D-07
 IDIUse=1 WtCom= 1.00D+00 WtEn= 0.00D+00
 Coeff-Com:  0.100D+01
 Coeff:      0.100D+01
 Gap=     0.219 Goal=   None    Shift=    0.000
 RMSDP=6.61D-06 MaxDP=2.10D-04 DE=-7.10D-06 OVMax= 2.24D-04

 Cycle   7  Pass 1  IDiag  1:
 E= -513.271778558911     Delta-E=        0.000000121348 Rises=F Damp=F
 DIIS: error= 3.81D-05 at cycle   2 NSaved=   2.
 NSaved= 2 IEnMin= 1 EnMin= -513.271778680259     IErMin= 1 ErrMin= 1.71D-05
 ErrMax= 3.81D-05 EMaxC= 1.00D-01 BMatC= 2.70D-07 BMatP= 1.14D-07
 IDIUse=1 WtCom= 1.00D+00 WtEn= 0.00D+00
 Coeff-Com:  0.618D+00 0.382D+00
 Coeff:      0.618D+00 0.382D+00
 Gap=     0.219 Goal=   None    Shift=    0.000
 RMSDP=3.21D-06 MaxDP=8.69D-05 DE= 1.21D-07 OVMax= 1.73D-04

 Cycle   8  Pass 1  IDiag  1:
 E= -513.271778793302     Delta-E=       -0.000000234392 Rises=F Damp=F
 DIIS: error= 1.04D-05 at cycle   3 NSaved=   3.
 NSaved= 3 IEnMin= 3 EnMin= -513.271778793302     IErMin= 3 ErrMin= 1.04D-05
 ErrMax= 1.04D-05 EMaxC= 1.00D-01 BMatC= 1.08D-08 BMatP= 1.14D-07
 IDIUse=1 WtCom= 1.00D+00 WtEn= 0.00D+00
 Coeff-Com:  0.166D+00 0.185D+00 0.649D+00
 Coeff:      0.166D+00 0.185D+00 0.649D+00
 Gap=     0.219 Goal=   None    Shift=    0.000
 RMSDP=8.04D-07 MaxDP=2.76D-05 DE=-2.34D-07 OVMax= 5.05D-05

 Cycle   9  Pass 1  IDiag  1:
 E= -513.271778799358     Delta-E=       -0.000000006055 Rises=F Damp=F
 DIIS: error= 5.18D-06 at cycle   4 NSaved=   4.
 NSaved= 4 IEnMin= 4 EnMin= -513.271778799358     IErMin= 4 ErrMin= 5.18D-06
 ErrMax= 5.18D-06 EMaxC= 1.00D-01 BMatC= 3.75D-09 BMatP= 1.08D-08
 IDIUse=1 WtCom= 1.00D+00 WtEn= 0.00D+00
 Coeff-Com:  0.535D-02 0.598D-01 0.424D+00 0.511D+00
 Coeff:      0.535D-02 0.598D-01 0.424D+00 0.511D+00
 Gap=     0.219 Goal=   None    Shift=    0.000
 RMSDP=3.72D-07 MaxDP=1.02D-05 DE=-6.06D-09 OVMax= 1.98D-05

 Cycle  10  Pass 1  IDiag  1:
 E= -513.271778802231     Delta-E=       -0.000000002873 Rises=F Damp=F
 DIIS: error= 1.41D-06 at cycle   5 NSaved=   5.
 NSaved= 5 IEnMin= 5 EnMin= -513.271778802231     IErMin= 5 ErrMin= 1.41D-06
 ErrMax= 1.41D-06 EMaxC= 1.00D-01 BMatC= 3.24D-10 BMatP= 3.75D-09
 IDIUse=1 WtCom= 1.00D+00 WtEn= 0.00D+00
 Coeff-Com: -0.102D-01 0.219D-01 0.203D+00 0.310D+00 0.476D+00
 Coeff:     -0.102D-01 0.219D-01 0.203D+00 0.310D+00 0.476D+00
 Gap=     0.219 Goal=   None    Shift=    0.000
 RMSDP=1.13D-07 MaxDP=3.50D-06 DE=-2.87D-09 OVMax= 4.86D-06

 Cycle  11  Pass 1  IDiag  1:
 E= -513.271778802483     Delta-E=       -0.000000000252 Rises=F Damp=F
 DIIS: error= 2.96D-07 at cycle   6 NSaved=   6.
 NSaved= 6 IEnMin= 6 EnMin= -513.271778802483     IErMin= 6 ErrMin= 2.96D-07
 ErrMax= 2.96D-07 EMaxC= 1.00D-01 BMatC= 1.98D-11 BMatP= 3.24D-10
 IDIUse=1 WtCom= 1.00D+00 WtEn= 0.00D+00
 Coeff-Com: -0.683D-02 0.117D-01 0.112D+00 0.175D+00 0.302D+00 0.406D+00
 Coeff:     -0.683D-02 0.117D-01 0.112D+00 0.175D+00 0.302D+00 0.406D+00
 Gap=     0.219 Goal=   None    Shift=    0.000
 RMSDP=2.60D-08 MaxDP=1.10D-06 DE=-2.52D-10 OVMax= 1.51D-06

 Cycle  12  Pass 1  IDiag  1:
 E= -513.271778802488     Delta-E=       -0.000000000005 Rises=F Damp=F
 DIIS: error= 8.88D-08 at cycle   7 NSaved=   7.
 NSaved= 7 IEnMin= 7 EnMin= -513.271778802488     IErMin= 7 ErrMin= 8.88D-08
 ErrMax= 8.88D-08 EMaxC= 1.00D-01 BMatC= 1.31D-12 BMatP= 1.98D-11
 IDIUse=1 WtCom= 1.00D+00 WtEn= 0.00D+00
 Coeff-Com: -0.154D-02 0.229D-02 0.211D-01 0.332D-01 0.726D-01 0.221D+00
 Coeff-Com:  0.652D+00
 Coeff:     -0.154D-02 0.229D-02 0.211D-01 0.332D-01 0.726D-01 0.221D+00
 Coeff:      0.652D+00
 Gap=     0.219 Goal=   None    Shift=    0.000
 RMSDP=7.02D-09 MaxDP=3.18D-07 DE=-5.00D-12 OVMax= 3.59D-07

 SCF Done:  E(RB3LYP) =  -513.271778802     A.U. after   12 cycles
             Convg  =    0.7020D-08             -V/T =  2.0090
 KE= 5.086969214645D+02 PE=-2.248702081780D+03 EE= 7.018419542954D+02
 Leave Link  502 at Mon Oct  4 11:38:54 2021, MaxMem=  536870912 cpu:      65.7
 (Enter /sw/target/amd/app/gaussian/Gaussian09RevA.02_gcc-4.9.2/g09/l508.exe)
 QCSCF skips out because SCF is already converged.
 Leave Link  508 at Mon Oct  4 11:38:55 2021, MaxMem=  536870912 cpu:       0.0
 (Enter /sw/target/amd/app/gaussian/Gaussian09RevA.02_gcc-4.9.2/g09/l701.exe)
 Compute integral first derivatives.
 ... and contract with generalized density number  0.
 Leave Link  701 at Mon Oct  4 11:38:57 2021, MaxMem=  536870912 cpu:       0.6
 (Enter /sw/target/amd/app/gaussian/Gaussian09RevA.02_gcc-4.9.2/g09/l702.exe)
 L702 exits ... SP integral derivatives will be done elsewhere.
 Leave Link  702 at Mon Oct  4 11:38:58 2021, MaxMem=  536870912 cpu:       0.1
 (Enter /sw/target/amd/app/gaussian/Gaussian09RevA.02_gcc-4.9.2/g09/l703.exe)
 Compute integral first derivatives, UseDBF=F ICtDFT=           0.
 Integral derivatives from FoFDir, PRISM(SPDF).
 Calling FoFJK, ICntrl=      2127 FMM=F ISym2X=0 I1Cent= 0 IOpClX= 0 NMat=1 NMatS=1 NMatT=0.
 FoFCou: FMM=F IPFlag=           0 FMFlag=      100000 FMFlg1=         800
         NFxFlg=           0 DoJE=F BraDBF=F KetDBF=F FulRan=T
         Omega=  0.000000  0.000000  1.000000  0.000000  0.000000 ICntrl=    2127 IOpCl=  0
         NMat0=    1 NMatS0=    1 NMatT0=    0 NMatD0=    1 NMtDS0=    0 NMtDT0=    0
         I1Cent=           0 NGrid=           0.
 Symmetry not used in FoFCou.
 Leave Link  703 at Mon Oct  4 11:40:30 2021, MaxMem=  536870912 cpu:      32.1
 (Enter /sw/target/amd/app/gaussian/Gaussian09RevA.02_gcc-4.9.2/g09/l716.exe)
 Dipole        =-4.49491994D-01 9.90033653D-02-1.02575080D-03
 ***** Axes restored to original set *****
 -------------------------------------------------------------------
 Center     Atomic                   Forces (Hartrees/Bohr)
 Number     Number              X              Y              Z
 -------------------------------------------------------------------
      1        6          -0.003058360    0.002599808   -0.003746638
      2        8           0.002560915   -0.003093366    0.003711034
      3        6          -0.003222956    0.003155740   -0.003681194
      4        8           0.000508494   -0.000738946    0.000900744
      5        6          -0.001238568    0.001358571   -0.001489127
      6        7          -0.000291013   -0.000641997    0.000600814
      7        6          -0.006430506   -0.000074810   -0.000242627
      8        8           0.006782051   -0.004114576    0.005764418
      9        6           0.001904462    0.003201786   -0.004243887
     10        6           0.001616868   -0.001212248    0.001043269
     11        1           0.000073054   -0.000257924    0.000526031
     12        1           0.000300677   -0.000994246    0.000544013
     13        1           0.000274691   -0.000182535    0.001080840
     14        1           0.000512639   -0.000763302    0.000952260
     15        1           0.000344365    0.000442588   -0.000425964
     16        1          -0.000369477    0.001017618   -0.000462714
     17        1          -0.000267334    0.000297838   -0.000831271
 -------------------------------------------------------------------
 Cartesian Forces:  Max     0.006782051 RMS     0.002360353
 Leave Link  716 at Mon Oct  4 11:40:34 2021, MaxMem=  536870912 cpu:       0.1
 (Enter /sw/target/amd/app/gaussian/Gaussian09RevA.02_gcc-4.9.2/g09/l103.exe)

 GradGradGradGradGradGradGradGradGradGradGradGradGradGradGradGradGradGrad
 Berny optimization.
 Using GEDIIS/GDIIS optimizer.
 Internal  Forces:  Max     0.006558745 RMS     0.001613877
 Search for a local minimum.
 Step number   2 out of a maximum of   81
 All quantities printed in internal units (Hartrees-Bohrs-Radians)
 RMS Force = .16139D-02 SwitMx=.10000D-02 MixMth= 1
 Mixed Optimization -- RFO/linear search
 Update second derivatives using D2CorX and points    1    2
 DE= -2.22D-03 DEPred=-2.60D-03 R= 8.54D-01
 SS=  1.41D+00  RLast= 1.35D-01 DXNew= 5.0454D-01 4.0432D-01
 Trust test= 8.54D-01 RLast= 1.35D-01 DXMaxT set to 4.04D-01
 Use linear search instead of GDIIS.
     Eigenvalues ---    0.01105   0.01333   0.01351   0.01604   0.01629
     Eigenvalues ---    0.01814   0.02144   0.02196   0.02325   0.02594
     Eigenvalues ---    0.07353   0.07475   0.09880   0.10697   0.15213
     Eigenvalues ---    0.16000   0.16000   0.16000   0.16000   0.16000
     Eigenvalues ---    0.16269   0.23704   0.24528   0.25000   0.25000
     Eigenvalues ---    0.25000   0.25000   0.31254   0.34247   0.34301
     Eigenvalues ---    0.34323   0.34335   0.34349   0.34359   0.35885
     Eigenvalues ---    0.35935   0.36766   0.41278   0.43651   0.46663
     Eigenvalues ---    0.50114   0.50323   0.51787   0.62229   0.92554
     Eigenvalues --- 1000.000001000.000001000.000001000.000001000.00000
     Eigenvalues --- 1000.000001000.000001000.000001000.000001000.00000
     Eigenvalues --- 1000.000001000.000001000.000001000.000001000.00000
     Eigenvalues --- 1000.000001000.000001000.000001000.000001000.00000
     Eigenvalues --- 1000.000001000.000001000.000001000.000001000.00000
     Eigenvalues --- 1000.00000
 RFO step:  Lambda=-5.04081158D-04 EMin= 1.10471189D-02
 Quartic linear search produced a step of -0.11901.
 Iteration  1 RMS(Cart)=  0.01052917 RMS(Int)=  0.00004909
 Iteration  2 RMS(Cart)=  0.00006128 RMS(Int)=  0.00001664
 Iteration  3 RMS(Cart)=  0.00000000 RMS(Int)=  0.00001664
 Variable       Old X    -DE/DX   Delta X   Delta X   Delta X     New X
                                 (Linear)    (Quad)   (Total)
    R1        2.70212   0.00272  -0.00093   0.00748   0.00654   2.70866
    R2        2.06333  -0.00058   0.00042  -0.00225  -0.00184   2.06150
    R3        2.06728  -0.00012   0.00007  -0.00044  -0.00037   2.06691
    R4        2.06667  -0.00016   0.00017  -0.00071  -0.00054   2.06612
    R5        2.55318  -0.00280   0.00332  -0.01087  -0.00755   2.54562
    R6        2.30342   0.00053   0.00169  -0.00260  -0.00091   2.30251
    R7        2.77107   0.00265  -0.00208   0.01009   0.00801   2.77909
    R8        2.63721  -0.00281  -0.00154  -0.00250  -0.00405   2.63315
    R9        2.58865   0.00172   0.00295  -0.00217   0.00077   2.58942
   R10        2.43774   0.00076   0.00492  -0.00820  -0.00328   2.43446
   R11        2.57586   0.00072  -0.00088   0.00279   0.00193   2.57779
   R12        2.04072   0.00001   0.00021  -0.00035  -0.00014   2.04058
   R13        2.58131   0.00018   0.00052  -0.00044   0.00009   2.58141
   R14        2.81021  -0.00124  -0.00286   0.00222  -0.00064   2.80957
   R15        2.06638  -0.00011   0.00031  -0.00086  -0.00055   2.06583
   R16        2.06862  -0.00035  -0.00012  -0.00068  -0.00080   2.06782
   R17        2.07016  -0.00027  -0.00030  -0.00013  -0.00044   2.06972
[...]
     6  N    0.000025   0.000313  -0.054840   0.001821   0.358046   6.798850
     7  C    0.000005   0.000188   0.007358  -0.000009  -0.088233   0.536431
     8  O    0.000001  -0.000020   0.004456   0.000013  -0.024154  -0.085192
     9  C   -0.000015   0.002091  -0.090348  -0.005019   0.491162  -0.062714
    10  C    0.000000   0.000003  -0.005624  -0.000824  -0.061162   0.007952
    11  H    0.386605  -0.030192   0.003524   0.000381   0.000012  -0.000009
    12  H    0.369695  -0.032200  -0.004641   0.001209  -0.000361   0.000002
    13  H    0.369692  -0.032215  -0.004629   0.001201  -0.000361   0.000002
    14  H   -0.000000  -0.000002  -0.000096   0.000001   0.005491  -0.043694
    15  H   -0.000000  -0.000000   0.000318  -0.000116   0.001941  -0.000143
    16  H    0.000006   0.000001  -0.000577   0.006702  -0.001493   0.000034
    17  H   -0.000000  -0.000000   0.000317  -0.000116   0.001949  -0.000143
              7          8          9         10         11         12
     1  C    0.000005   0.000001  -0.000015   0.000000   0.386605   0.369695
     2  O    0.000188  -0.000020   0.002091   0.000003  -0.030192  -0.032200
     3  C    0.007358   0.004456  -0.090348  -0.005624   0.003524  -0.004641
     4  O   -0.000009   0.000013  -0.005019  -0.000824   0.000381   0.001209
     5  C   -0.088233  -0.024154   0.491162  -0.061162   0.000012  -0.000361
     6  N    0.536431  -0.085192  -0.062714   0.007952  -0.000009   0.000002
     7  C    4.675733   0.314418  -0.085385   0.004531  -0.000001   0.000000
     8  O    0.314418   8.087008   0.238700  -0.060234  -0.000000   0.000000
     9  C   -0.085385   0.238700   4.935573   0.395312   0.000003  -0.000004
    10  C    0.004531  -0.060234   0.395312   5.166848  -0.000000  -0.000001
    11  H   -0.000001  -0.000000   0.000003  -0.000000   0.508757  -0.027985
    12  H    0.000000   0.000000  -0.000004  -0.000001  -0.027985   0.566026
    13  H    0.000000   0.000000  -0.000004  -0.000001  -0.028003  -0.045016
    14  H    0.380691  -0.042550   0.004056  -0.000212  -0.000000  -0.000000
    15  H    0.000197   0.000695  -0.036201   0.355776   0.000000  -0.000000
    16  H   -0.000104   0.002430  -0.025457   0.369871   0.000000   0.000001
    17  H    0.000195   0.000696  -0.036165   0.355777   0.000000   0.000000
             13         14         15         16         17
     1  C    0.369692  -0.000000  -0.000000   0.000006  -0.000000
     2  O   -0.032215  -0.000002  -0.000000   0.000001  -0.000000
     3  C   -0.004629  -0.000096   0.000318  -0.000577   0.000317
     4  O    0.001201   0.000001  -0.000116   0.006702  -0.000116
     5  C   -0.000361   0.005491   0.001941  -0.001493   0.001949
     6  N    0.000002  -0.043694  -0.000143   0.000034  -0.000143
     7  C    0.000000   0.380691   0.000197  -0.000104   0.000195
     8  O    0.000000  -0.042550   0.000695   0.002430   0.000696
     9  C   -0.000004   0.004056  -0.036201  -0.025457  -0.036165
    10  C   -0.000001  -0.000212   0.355776   0.369871   0.355777
    11  H   -0.028003  -0.000000   0.000000   0.000000   0.000000
    12  H   -0.045016  -0.000000  -0.000000   0.000001   0.000000
    13  H    0.566070  -0.000000   0.000000   0.000001  -0.000000
    14  H   -0.000000   0.528575  -0.000001   0.000005  -0.000001
    15  H    0.000000  -0.000001   0.584200  -0.025070  -0.045872
    16  H    0.000001   0.000005  -0.025070   0.527592  -0.025054
    17  H   -0.000000  -0.000001  -0.045872  -0.025054   0.584127
 Mulliken atomic charges:
              1
     1  C   -0.236254
     2  O   -0.411379
     3  C    0.540918
     4  O   -0.321938
     5  C    0.120415
     6  N   -0.456741
     7  C    0.253984
     8  O   -0.436266
     9  C    0.274415
    10  C   -0.528011
    11  H    0.186908
    12  H    0.173275
    13  H    0.173262
    14  H    0.167737
    15  H    0.164276
    16  H    0.171111
    17  H    0.164290
 Sum of Mulliken atomic charges =  -0.00000
 Mulliken charges with hydrogens summed into heavy atoms:
              1
     1  C    0.297191
     2  O   -0.411379
     3  C    0.540918
     4  O   -0.321938
     5  C    0.120415
     6  N   -0.456741
     7  C    0.421721
     8  O   -0.436266
     9  C    0.274415
    10  C   -0.028335
 Sum of Mulliken charges with hydrogens summed into heavy atoms =  -0.00000
 Electronic spatial extent (au):  <R**2>=           1532.3833
 Charge=             -0.0000 electrons
 Dipole moment (field-independent basis, Debye):
    X=             -2.0263    Y=              0.9766    Z=             -0.0001  Tot=              2.2493
 Quadrupole moment (field-independent basis, Debye-Ang):
   XX=            -44.1671   YY=            -57.7229   ZZ=            -57.2935
   XY=             -1.2742   XZ=              0.0004   YZ=              0.0033
 Traceless Quadrupole moment (field-independent basis, Debye-Ang):
   XX=              8.8941   YY=             -4.6618   ZZ=             -4.2323
   XY=             -1.2742   XZ=              0.0004   YZ=              0.0033
 Octapole moment (field-independent basis, Debye-Ang**2):
  XXX=            -52.7316  YYY=             -1.0836  ZZZ=             -0.0015  XYY=             13.0442
  XXY=            -13.1503  XXZ=             -0.0011  XZZ=             -3.1434  YZZ=              1.4425
  YYZ=             -0.0029  XYZ=             -0.0006
 Hexadecapole moment (field-independent basis, Debye-Ang**3):
 XXXX=          -1186.3439 YYYY=           -538.9652 ZZZZ=            -65.2129 XXXY=             -8.6649
 XXXZ=             -0.0023 YYYX=            -22.9223 YYYZ=              0.0034 ZZZX=             -0.0004
 ZZZY=             -0.0032 XXYY=           -273.1036 XXZZ=           -229.3151 YYZZ=           -102.2380
 XXYZ=              0.0062 YYXZ=             -0.0113 ZZXY=             -1.5012
 N-N= 5.243000518689D+02 E-N=-2.247335395739D+03  KE= 5.088834396146D+02
 No NMR shielding tensors so no spin-rotation constants.
 Leave Link  601 at Mon Oct  4 19:12:23 2021, MaxMem=  536870912 cpu:       0.4
 (Enter /sw/target/amd/app/gaussian/Gaussian09RevA.02_gcc-4.9.2/g09/l604.exe)
 Evaluate density.
 Using the total density.
 Monte-Carlo method of calculating molar volume:
 based on  0.001 e/bohr**3 density envelope.
 Number of points per bohr**3 =   20 CutOff= 1.00D-04
 Using the CI density.
 There are       361 points.  Will hold       361 in memory.
 LenV=   536783204 MDV=   536870912.
 Box volume = 5924.928 fraction occupied=0.169
 Integrated density= 4.4596822567437158D+01 error=-2.9403177432562842D+01
 Molar volume = 1001.165 bohr**3/mol ( 89.343 cm**3/mol)
 Recommended a0 for SCRF calculation =  4.11 angstrom (  7.78 bohr)
 Leave Link  604 at Mon Oct  4 19:12:30 2021, MaxMem=  536870912 cpu:       0.1
 (Enter /sw/target/amd/app/gaussian/Gaussian09RevA.02_gcc-4.9.2/g09/l607.exe)
 ******************************Gaussian NBO Version 3.1******************************
             N A T U R A L   A T O M I C   O R B I T A L   A N D
          N A T U R A L   B O N D   O R B I T A L   A N A L Y S I S
 ******************************Gaussian NBO Version 3.1******************************
       /RESON  / : Allow strongly delocalized NBO set

 Analyzing the CI density

 Job title: COC(=O)c1ncoc1C_conf_0                                          

 Storage needed:     81736 in NPA ( 536869297 available)


 NATURAL POPULATIONS:  Natural atomic orbital occupancies 
                                                          
   NAO  Atom  No  lang   Type(AO)    Occupancy
 --------------------------------------------
     1    C    1  S      Cor( 1S)     1.99943
     2    C    1  S      Val( 2S)     1.11296
     3    C    1  S      Ryd( 3S)     0.00136
     4    C    1  S      Ryd( 4S)     0.00002
     5    C    1  px     Val( 2p)     0.75904
     6    C    1  px     Ryd( 3p)     0.00258
     7    C    1  py     Val( 2p)     1.20762
     8    C    1  py     Ryd( 3p)     0.00325
     9    C    1  pz     Val( 2p)     1.23401
    10    C    1  pz     Ryd( 3p)     0.00048
    11    C    1  dxy    Ryd( 3d)     0.00153
    12    C    1  dxz    Ryd( 3d)     0.00127
    13    C    1  dyz    Ryd( 3d)     0.00117
    14    C    1  dx2y2  Ryd( 3d)     0.00141
    15    C    1  dz2    Ryd( 3d)     0.00107

    16    O    2  S      Cor( 1S)     1.99977
    17    O    2  S      Val( 2S)     1.62213
    18    O    2  S      Ryd( 3S)     0.00066
    19    O    2  S      Ryd( 4S)     0.00003
    20    O    2  px     Val( 2p)     1.38001
    21    O    2  px     Ryd( 3p)     0.00056
    22    O    2  py     Val( 2p)     1.61238
    23    O    2  py     Ryd( 3p)     0.00185
    24    O    2  pz     Val( 2p)     1.83549
    25    O    2  pz     Ryd( 3p)     0.00185
    26    O    2  dxy    Ryd( 3d)     0.00150
    27    O    2  dxz    Ryd( 3d)     0.00046
    28    O    2  dyz    Ryd( 3d)     0.00213
    29    O    2  dx2y2  Ryd( 3d)     0.00147
    30    O    2  dz2    Ryd( 3d)     0.00082

    31    C    3  S      Cor( 1S)     1.99932
    32    C    3  S      Val( 2S)     0.76004
    33    C    3  S      Ryd( 3S)     0.00359
    34    C    3  S      Ryd( 4S)     0.00044
    35    C    3  px     Val( 2p)     0.89153
    36    C    3  px     Ryd( 3p)     0.00283
    37    C    3  py     Val( 2p)     0.69398
    38    C    3  py     Ryd( 3p)     0.01834
    39    C    3  pz     Val( 2p)     1.00752
    40    C    3  pz     Ryd( 3p)     0.00283
    41    C    3  dxy    Ryd( 3d)     0.00210
    42    C    3  dxz    Ryd( 3d)     0.00199
    43    C    3  dyz    Ryd( 3d)     0.00272
    44    C    3  dx2y2  Ryd( 3d)     0.00214
    45    C    3  dz2    Ryd( 3d)     0.00047

    46    O    4  S      Cor( 1S)     1.99981
    47    O    4  S      Val( 2S)     1.71772
    48    O    4  S      Ryd( 3S)     0.00031
    49    O    4  S      Ryd( 4S)     0.00000
    50    O    4  px     Val( 2p)     1.12943
    51    O    4  px     Ryd( 3p)     0.00072
    52    O    4  py     Val( 2p)     1.56120
    53    O    4  py     Ryd( 3p)     0.00028
    54    O    4  pz     Val( 2p)     1.84320
    55    O    4  pz     Ryd( 3p)     0.00310
    56    O    4  dxy    Ryd( 3d)     0.00321
    57    O    4  dxz    Ryd( 3d)     0.00032
    58    O    4  dyz    Ryd( 3d)     0.00475
    59    O    4  dx2y2  Ryd( 3d)     0.00415
    60    O    4  dz2    Ryd( 3d)     0.00146

    61    C    5  S      Cor( 1S)     1.99875
    62    C    5  S      Val( 2S)     0.86674
    63    C    5  S      Ryd( 3S)     0.00230
    64    C    5  S      Ryd( 4S)     0.00009
    65    C    5  px     Val( 2p)     1.05618
    66    C    5  px     Ryd( 3p)     0.00602
    67    C    5  py     Val( 2p)     0.93115
    68    C    5  py     Ryd( 3p)     0.00801
    69    C    5  pz     Val( 2p)     1.19527
    70    C    5  pz     Ryd( 3p)     0.00199
    71    C    5  dxy    Ryd( 3d)     0.00117
    72    C    5  dxz    Ryd( 3d)     0.00139
    73    C    5  dyz    Ryd( 3d)     0.00098
    74    C    5  dx2y2  Ryd( 3d)     0.00080
    75    C    5  dz2    Ryd( 3d)     0.00038

    76    N    6  S      Cor( 1S)     1.99939
    77    N    6  S      Val( 2S)     1.39984
    78    N    6  S      Ryd( 3S)     0.00035
    79    N    6  S      Ryd( 4S)     0.00004
    80    N    6  px     Val( 2p)     1.38384
    81    N    6  px     Ryd( 3p)     0.00379
    82    N    6  py     Val( 2p)     1.43972
    83    N    6  py     Ryd( 3p)     0.00345
    84    N    6  pz     Val( 2p)     1.22059
    85    N    6  pz     Ryd( 3p)     0.00075
    86    N    6  dxy    Ryd( 3d)     0.00312
    87    N    6  dxz    Ryd( 3d)     0.00275
    88    N    6  dyz    Ryd( 3d)     0.00165
    89    N    6  dx2y2  Ryd( 3d)     0.00346
    90    N    6  dz2    Ryd( 3d)     0.00257

    91    C    7  S      Cor( 1S)     1.99936
    92    C    7  S      Val( 2S)     0.90358
    93    C    7  S      Ryd( 3S)     0.00217
    94    C    7  S      Ryd( 4S)     0.00018
    95    C    7  px     Val( 2p)     0.90626
    96    C    7  px     Ryd( 3p)     0.01173
    97    C    7  py     Val( 2p)     0.84789
    98    C    7  py     Ryd( 3p)     0.00743
    99    C    7  pz     Val( 2p)     0.97241
   100    C    7  pz     Ryd( 3p)     0.00243
   101    C    7  dxy    Ryd( 3d)     0.00300
   102    C    7  dxz    Ryd( 3d)     0.00135
   103    C    7  dyz    Ryd( 3d)     0.00125
   104    C    7  dx2y2  Ryd( 3d)     0.00161
   105    C    7  dz2    Ryd( 3d)     0.00058

   106    O    8  S      Cor( 1S)     1.99976
   107    O    8  S      Val( 2S)     1.60942
   108    O    8  S      Ryd( 3S)     0.00047
   109    O    8  S      Ryd( 4S)     0.00004
   110    O    8  px     Val( 2p)     1.73412
   111    O    8  px     Ryd( 3p)     0.00199
   112    O    8  py     Val( 2p)     1.41338
   113    O    8  py     Ryd( 3p)     0.00103
   114    O    8  pz     Val( 2p)     1.71105
   115    O    8  pz     Ryd( 3p)     0.00130
   116    O    8  dxy    Ryd( 3d)     0.00138
   117    O    8  dxz    Ryd( 3d)     0.00220
   118    O    8  dyz    Ryd( 3d)     0.00069
   119    O    8  dx2y2  Ryd( 3d)     0.00161
   120    O    8  dz2    Ryd( 3d)     0.00076

   121    C    9  S      Cor( 1S)     1.99889
   122    C    9  S      Val( 2S)     0.84101
   123    C    9  S      Ryd( 3S)     0.00197
   124    C    9  S      Ryd( 4S)     0.00014
   125    C    9  px     Val( 2p)     0.83387
   126    C    9  px     Ryd( 3p)     0.00768
   127    C    9  py     Val( 2p)     0.93831
   128    C    9  py     Ryd( 3p)     0.00325
   129    C    9  pz     Val( 2p)     1.13561
   130    C    9  pz     Ryd( 3p)     0.00438
   131    C    9  dxy    Ryd( 3d)     0.00190
   132    C    9  dxz    Ryd( 3d)     0.00113
   133    C    9  dyz    Ryd( 3d)     0.00102
   134    C    9  dx2y2  Ryd( 3d)     0.00131
   135    C    9  dz2    Ryd( 3d)     0.00060

   136    C   10  S      Cor( 1S)     1.99936
   137    C   10  S      Val( 2S)     1.10213
   138    C   10  S      Ryd( 3S)     0.00057
   139    C   10  S      Ryd( 4S)     0.00000
   140    C   10  px     Val( 2p)     1.24948
   141    C   10  px     Ryd( 3p)     0.00197
   142    C   10  py     Val( 2p)     1.10500
   143    C   10  py     Ryd( 3p)     0.00119
   144    C   10  pz     Val( 2p)     1.25235
   145    C   10  pz     Ryd( 3p)     0.00034
   146    C   10  dxy    Ryd( 3d)     0.00059
   147    C   10  dxz    Ryd( 3d)     0.00092
   148    C   10  dyz    Ryd( 3d)     0.00067
   149    C   10  dx2y2  Ryd( 3d)     0.00061
   150    C   10  dz2    Ryd( 3d)     0.00072

   151    H   11  S      Val( 1S)     0.76465
   152    H   11  S      Ryd( 2S)     0.00039

   153    H   12  S      Val( 1S)     0.78467
   154    H   12  S      Ryd( 2S)     0.00147

   155    H   13  S      Val( 1S)     0.78468
   156    H   13  S      Ryd( 2S)     0.00147

   157    H   14  S      Val( 1S)     0.78179
   158    H   14  S      Ryd( 2S)     0.00051

   159    H   15  S      Val( 1S)     0.75679
   160    H   15  S      Ryd( 2S)     0.00233

   161    H   16  S      Val( 1S)     0.75023
   162    H   16  S      Ryd( 2S)     0.00017

   163    H   17  S      Val( 1S)     0.75678
   164    H   17  S      Ryd( 2S)     0.00232

 WARNING:  1 low occupancy (<1.9990e) core orbital  found on  C    5
           1 low occupancy (<1.9990e) core orbital  found on  C    9


 Summary of Natural Population Analysis:                  
                                                          
                                       Natural Population 
                Natural  -----------------------------------------------
    Atom  No    Charge         Core      Valence    Rydberg      Total
 -----------------------------------------------------------------------
      C    1   -0.32718      1.99943     4.31363    0.01413     6.32718
      O    2   -0.46111      1.99977     6.45001    0.01133     8.46111
      C    3    0.61015      1.99932     3.35307    0.03746     5.38985
      O    4   -0.26967      1.99981     6.25155    0.01830     8.26967
      C    5   -0.07120      1.99875     4.04934    0.02311     6.07120
      N    6   -0.46532      1.99939     5.44399    0.02194     7.46532
      C    7    0.33875      1.99936     3.63014    0.03174     5.66125
      O    8   -0.47919      1.99976     6.46797    0.01146     8.47919
      C    9    0.22892      1.99889     3.74880    0.02339     5.77108
      C   10   -0.71592      1.99936     4.70897    0.00759     6.71592
      H   11    0.23495      0.00000     0.76465    0.00039     0.76505
      H   12    0.21386      0.00000     0.78467    0.00147     0.78614
      H   13    0.21385      0.00000     0.78468    0.00147     0.78615
      H   14    0.21770      0.00000     0.78179    0.00051     0.78230
      H   15    0.24088      0.00000     0.75679    0.00233     0.75912
      H   16    0.24960      0.00000     0.75023    0.00017     0.75040
      H   17    0.24090      0.00000     0.75678    0.00232     0.75910
 =======================================================================
   * Total *   -0.00000     19.99384    53.79704    0.20913    74.00000

                                 Natural Population      
 --------------------------------------------------------
   Core                      19.99384 ( 99.9692% of  20)
   Valence                   53.79704 ( 99.6242% of  54)
   Natural Minimal Basis     73.79088 ( 99.7174% of  74)
   Natural Rydberg Basis      0.20913 (  0.2826% of  74)
 --------------------------------------------------------

    Atom  No          Natural Electron Configuration
 ----------------------------------------------------------------------------
      C    1      [core]2S( 1.11)2p( 3.20)3p( 0.01)3d( 0.01)
      O    2      [core]2S( 1.62)2p( 4.83)3d( 0.01)
      C    3      [core]2S( 0.76)2p( 2.59)3p( 0.02)3d( 0.01)
      O    4      [core]2S( 1.72)2p( 4.53)3d( 0.01)
      C    5      [core]2S( 0.87)2p( 3.18)3p( 0.02)
      N    6      [core]2S( 1.40)2p( 4.04)3p( 0.01)3d( 0.01)
      C    7      [core]2S( 0.90)2p( 2.73)3p( 0.02)3d( 0.01)
      O    8      [core]2S( 1.61)2p( 4.86)3d( 0.01)
      C    9      [core]2S( 0.84)2p( 2.91)3p( 0.02)3d( 0.01)
      C   10      [core]2S( 1.10)2p( 3.61)
      H   11            1S( 0.76)
      H   12            1S( 0.78)
      H   13            1S( 0.78)
      H   14            1S( 0.78)
      H   15            1S( 0.76)
      H   16            1S( 0.75)
      H   17            1S( 0.76)


 NBO analysis skipped by request.
 Leave Link  607 at Mon Oct  4 19:13:33 2021, MaxMem=  536870912 cpu:       7.7
 (Enter /sw/target/amd/app/gaussian/Gaussian09RevA.02_gcc-4.9.2/g09/l9999.exe)
 1\1\GINC-HERMITE\SP\RTD-B3LYP-FC\6-31G(d)\C6H7N1O3\JSCHLEINITZ\04-Oct-
 2021\0\\#p TD(NStates=10, Root=1) b3lyp/6-31G* volume pop=NPA density=
 current Geom=AllCheck Guess=Read\\COC(=O)c1ncoc1C_conf_0\\0,1\C,0,1.69
 55408065,0.881069326,-2.8660951467\O,0,3.0998550601,0.7744559401,-2.58
 68945322\C,0,3.4173375766,-0.0305365736,-1.5573864786\O,0,2.5937023711
 ,-0.6370071855,-0.8934209385\C,0,4.8721633401,-0.0940232848,-1.3258079
 962\N,0,5.8187948758,0.5990121796,-2.082983892\C,0,6.9444087437,0.2669
 570339,-1.5531577086\O,0,6.846580343,-0.59475392,-0.4979858323\C,0,5.5
 056955627,-0.8251778547,-0.3547189931\C,0,5.0695041968,-1.7400183659,0
 .7293425098\H,0,1.6207411814,1.5613167959,-3.7147009158\H,0,1.16029746
 2,1.2827635709,-2.0014168152\H,0,1.2775790216,-0.0973506668,-3.1181532
 389\H,0,7.9412328233,0.5769797392,-1.831062585\H,0,5.5067862959,-2.737
 2122229,0.5981687542\H,0,3.9819781699,-1.8181210537,0.7107785938\H,0,5
 .3894497833,-1.3650557335,1.7090336501\\Version=AM64L-G09RevA.02\State
 =1-A\HF=-513.27333\RMSD=2.474e-09\Dipole=-0.8816056,-0.0140434,-0.0755
 064\Quadrupole=5.0159342,-2.8753766,-2.1405575,-1.9424272,3.2634335,-0
 .5377275\PG=C01 [X(C6H7N1O3)]\\@


 LOGIC IS A SYSTEMATIC METHOD OF COMING TO THE
 WRONG CONCLUSION WITH CONFIDENCE.
 Job cpu time:  0 days  0 hours 39 minutes  9.1 seconds.
 File lengths (MBytes):  RWF=     98 Int=      0 D2E=      0 Chk=     13 Scr=      1
 Normal termination of Gaussian 09 at Mon Oct  4 19:15:14 2021.
