 Entering Gaussian System, Link 0=g09
 Input=C7H12N2_1c34_conf_0.com
 Output=C7H12N2_1c34_conf_0.log
 Initial command:
 /sw/target/amd/app/gaussian/Gaussian09RevA.02_gcc-4.9.2/g09/l1.exe /home/jschleinitz/gaussian/Gau-3097942.inp -scrdir=/home/jschleinitz/gaussian/
 Entering Link 1 = /sw/target/amd/app/gaussian/Gaussian09RevA.02_gcc-4.9.2/g09/l1.exe PID=   3097987.
  
 Copyright (c) 1988,1990,1992,1993,1995,1998,2003,2009, Gaussian, Inc.
                  All Rights Reserved.
  
 This is part of the Gaussian(R) 09 program.  It is based on
 the Gaussian(R) 03 system (copyright 2003, Gaussian, Inc.),
 the Gaussian(R) 98 system (copyright 1998, Gaussian, Inc.),
 the Gaussian(R) 94 system (copyright 1995, Gaussian, Inc.),
 the Gaussian 92(TM) system (copyright 1992, Gaussian, Inc.),
 the Gaussian 90(TM) system (copyright 1990, Gaussian, Inc.),
 the Gaussian 88(TM) system (copyright 1988, Gaussian, Inc.),
 the Gaussian 86(TM) system (copyright 1986, Carnegie Mellon
 University), and the Gaussian 82(TM) system (copyright 1983,
 Carnegie Mellon University). Gaussian is a federally registered
 trademark of Gaussian, Inc.
  
 This software contains proprietary and confidential information,
 including trade secrets, belonging to Gaussian, Inc.
  
 This software is provided under written license and may be
 used, copied, transmitted, or stored only in accord with that
 written license.
  
 The following legend is applicable only to US Government
 contracts under FAR:
  
                    RESTRICTED RIGHTS LEGEND
  
 Use, reproduction and disclosure by the US Government is
 subject to restrictions as set forth in subparagraphs (a)
 and (c) of the Commercial Computer Software - Restricted
 Rights clause in FAR 52.227-19.
  
 Gaussian, Inc.
 340 Quinnipiac St., Bldg. 40, Wallingford CT 06492
  
  
 ---------------------------------------------------------------
 Warning -- This program may not be used in any manner that
 competes with the business of Gaussian, Inc. or will provide
 assistance to any competitor of Gaussian, Inc.  The licensee
 of this program is prohibited from giving any competitor of
 Gaussian, Inc. access to this program.  By using this program,
 the user acknowledges that Gaussian, Inc. is engaged in the
 business of creating and licensing software in the field of
 computational chemistry and represents and warrants to the
 licensee that it is not a competitor of Gaussian, Inc. and that
 it will not use this program in any manner prohibited above.
 ---------------------------------------------------------------
  

 Cite this work as:
 Gaussian 09, Revision A.02,
 M. J. Frisch, G. W. Trucks, H. B. Schlegel, G. E. Scuseria, 
 M. A. Robb, J. R. Cheeseman, G. Scalmani, V. Barone, B. Mennucci, 
 G. A. Petersson, H. Nakatsuji, M. Caricato, X. Li, H. P. Hratchian, 
 A. F. Izmaylov, J. Bloino, G. Zheng, J. L. Sonnenberg, M. Hada, 
 M. Ehara, K. Toyota, R. Fukuda, J. Hasegawa, M. Ishida, T. Nakajima, 
 Y. Honda, O. Kitao, H. Nakai, T. Vreven, J. A. Montgomery, Jr., 
 J. E. Peralta, F. Ogliaro, M. Bearpark, J. J. Heyd, E. Brothers, 
 K. N. Kudin, V. N. Staroverov, R. Kobayashi, J. Normand, 
 K. Raghavachari, A. Rendell, J. C. Burant, S. S. Iyengar, J. Tomasi, 
 M. Cossi, N. Rega, J. M. Millam, M. Klene, J. E. Knox, J. B. Cross, 
 V. Bakken, C. Adamo, J. Jaramillo, R. Gomperts, R. E. Stratmann, 
 O. Yazyev, A. J. Austin, R. Cammi, C. Pomelli, J. W. Ochterski, 
 R. L. Martin, K. Morokuma, V. G. Zakrzewski, G. A. Voth, 
 P. Salvador, J. J. Dannenberg, S. Dapprich, A. D. Daniels, 
 O. Farkas, J. B. Foresman, J. V. Ortiz, J. Cioslowski, 
 and D. J. Fox, Gaussian, Inc., Wallingford CT, 2009.
 
 ******************************************
 Gaussian 09:  AM64L-G09RevA.02 11-Jun-2009
                 4-Oct-2021 
 ******************************************
 %nproc=3
 Will use up to    3 processors via shared memory.
 %mem=6gb
 %chk=C7H12N2_1c34_conf_0.chk
 -----------------------------------
 #p opt b3lyp/6-31G* scf=(xqc,tight)
 -----------------------------------
 1/14=-1,18=20,19=15,26=3,38=1/1,3;
 2/9=110,12=2,17=6,18=5,40=1/2;
 3/5=1,6=6,7=1,11=2,16=1,25=1,30=1,71=1,74=-5/1,2,3;
 4//1;
 5/5=2,8=3,13=1,32=2,38=5/2,8;
 6/7=2,8=2,9=2,10=2,28=1/1;
 7//1,2,3,16;
 1/14=-1,18=20,19=15/3(2);
 2/9=110/2;
 99//99;
 2/9=110/2;
 3/5=1,6=6,7=1,11=2,16=1,25=1,30=1,71=1,74=-5/1,2,3;
 4/5=5,16=3/1;
 5/5=2,8=3,13=1,32=2,38=5/2,8;
 7//1,2,3,16;
 1/14=-1,18=20,19=15/3(-5);
 2/9=110/2;
 6/7=2,8=2,9=2,10=2,19=2,28=1/1;
 99/9=1/99;
 Leave Link    1 at Mon Oct  4 21:19:16 2021, MaxMem=  805306368 cpu:       0.1
 (Enter /sw/target/amd/app/gaussian/Gaussian09RevA.02_gcc-4.9.2/g09/l101.exe)
 ------------------
 CCCCn1cncc1_conf_0
 ------------------
 Symbolic Z-matrix:
 Charge =  0 Multiplicity = 1
 C                     1.02087  -0.09556  -0.20411 
 C                     2.5386   -0.0555   -0.10627 
 C                     3.00298   0.30576   1.30397 
 C                     4.52756   0.34983   1.39494 
 N                     4.98395   0.67075   2.73247 
 C                     5.27384  -0.22988   3.71619 
 N                     5.67015   0.37189   4.81475 
 C                     5.63957   1.71215   4.52312 
 C                     5.22003   1.92117   3.23008 
 H                     0.71402  -0.35997  -1.22103 
 H                     0.58503   0.87876   0.0389 
 H                     0.60246  -0.84004   0.48056 
 H                     2.92509   0.67613  -0.82526 
 H                     2.94121  -1.03447  -0.39068 
 H                     2.61064  -0.42746   2.01982 
 H                     2.58724   1.27919   1.59246 
 H                     4.94022   1.10571   0.71621 
 H                     4.96556  -0.61699   1.12035 
 H                     5.17957  -1.30005   3.58445 
 H                     5.92288   2.45339   5.25899 
 H                     5.07431   2.82227   2.6514 
 
 NAtoms=     21 NQM=     21 NQMF=      0 NMic=      0 NMicF=      0 NTot=     21.
                    Isotopes and Nuclear Properties:
 (Nuclear quadrupole moments (NQMom) in fm**2, nuclear magnetic moments (NMagM)
  in nuclear magnetons)

  Atom         1           2           3           4           5           6           7           8           9          10
 IAtWgt=          12          12          12          12          14          12          14          12          12           1
 AtmWgt=  12.0000000  12.0000000  12.0000000  12.0000000  14.0030740  12.0000000  14.0030740  12.0000000  12.0000000   1.0078250
 NucSpn=           0           0           0           0           2           0           2           0           0           1
 AtZEff=   0.0000000   0.0000000   0.0000000   0.0000000   0.0000000   0.0000000   0.0000000   0.0000000   0.0000000   0.0000000
 NQMom=    0.0000000   0.0000000   0.0000000   0.0000000   2.0440000   0.0000000   2.0440000   0.0000000   0.0000000   0.0000000
 NMagM=    0.0000000   0.0000000   0.0000000   0.0000000   0.4037610   0.0000000   0.4037610   0.0000000   0.0000000   2.7928460

  Atom        11          12          13          14          15          16          17          18          19          20
 IAtWgt=           1           1           1           1           1           1           1           1           1           1
 AtmWgt=   1.0078250   1.0078250   1.0078250   1.0078250   1.0078250   1.0078250   1.0078250   1.0078250   1.0078250   1.0078250
 NucSpn=           1           1           1           1           1           1           1           1           1           1
 AtZEff=   0.0000000   0.0000000   0.0000000   0.0000000   0.0000000   0.0000000   0.0000000   0.0000000   0.0000000   0.0000000
 NQMom=    0.0000000   0.0000000   0.0000000   0.0000000   0.0000000   0.0000000   0.0000000   0.0000000   0.0000000   0.0000000
 NMagM=    2.7928460   2.7928460   2.7928460   2.7928460   2.7928460   2.7928460   2.7928460   2.7928460   2.7928460   2.7928460

  Atom        21
 IAtWgt=           1
 AtmWgt=   1.0078250
 NucSpn=           1
 AtZEff=   0.0000000
 NQMom=    0.0000000
 NMagM=    2.7928460
 Leave Link  101 at Mon Oct  4 21:19:17 2021, MaxMem=  805306368 cpu:       0.2
 (Enter /sw/target/amd/app/gaussian/Gaussian09RevA.02_gcc-4.9.2/g09/l103.exe)

 GradGradGradGradGradGradGradGradGradGradGradGradGradGradGradGradGradGrad
 Berny optimization.
 Initialization pass.
                           ----------------------------
                           !    Initial Parameters    !
                           ! (Angstroms and Degrees)  !
 --------------------------                            --------------------------
 ! Name  Definition              Value          Derivative Info.                !
 --------------------------------------------------------------------------------
 ! R1    R(1,2)                  1.5214         estimate D2E/DX2                !
 ! R2    R(1,10)                 1.0946         estimate D2E/DX2                !
 ! R3    R(1,11)                 1.0947         estimate D2E/DX2                !
 ! R4    R(1,12)                 1.0946         estimate D2E/DX2                !
 ! R5    R(2,3)                  1.528          estimate D2E/DX2                !
 ! R6    R(2,13)                 1.0962         estimate D2E/DX2                !
 ! R7    R(2,14)                 1.0961         estimate D2E/DX2                !
 ! R8    R(3,4)                  1.5279         estimate D2E/DX2                !
 ! R9    R(3,15)                 1.0973         estimate D2E/DX2                !
 ! R10   R(3,16)                 1.0971         estimate D2E/DX2                !
 ! R11   R(4,5)                  1.4492         estimate D2E/DX2                !
 ! R12   R(4,17)                 1.0965         estimate D2E/DX2                !
 ! R13   R(4,18)                 1.0963         estimate D2E/DX2                !
 ! R14   R(5,6)                  1.3649         estimate D2E/DX2                !
 ! R15   R(5,9)                  1.3663         estimate D2E/DX2                !
 ! R16   R(6,7)                  1.3138         estimate D2E/DX2                !
 ! R17   R(6,19)                 1.0824         estimate D2E/DX2                !
 ! R18   R(7,8)                  1.372          estimate D2E/DX2                !
 ! R19   R(8,9)                  1.3754         estimate D2E/DX2                !
 ! R20   R(8,20)                 1.0822         estimate D2E/DX2                !
 ! R21   R(9,21)                 1.0808         estimate D2E/DX2                !
 ! A1    A(2,1,10)             110.2277         estimate D2E/DX2                !
 ! A2    A(2,1,11)             111.0679         estimate D2E/DX2                !
 ! A3    A(2,1,12)             111.0395         estimate D2E/DX2                !
 ! A4    A(10,1,11)            108.0366         estimate D2E/DX2                !
 ! A5    A(10,1,12)            108.0393         estimate D2E/DX2                !
 ! A6    A(11,1,12)            108.3194         estimate D2E/DX2                !
 ! A7    A(1,2,3)              111.6379         estimate D2E/DX2                !
 ! A8    A(1,2,13)             109.0941         estimate D2E/DX2                !
 ! A9    A(1,2,14)             109.0398         estimate D2E/DX2                !
 ! A10   A(3,2,13)             109.9007         estimate D2E/DX2                !
 ! A11   A(3,2,14)             109.8167         estimate D2E/DX2                !
 ! A12   A(13,2,14)            107.2435         estimate D2E/DX2                !
 ! A13   A(2,3,4)              111.4074         estimate D2E/DX2                !
 ! A14   A(2,3,15)             109.6007         estimate D2E/DX2                !
 ! A15   A(2,3,16)             109.7122         estimate D2E/DX2                !
 ! A16   A(4,3,15)             109.7066         estimate D2E/DX2                !
 ! A17   A(4,3,16)             109.6856         estimate D2E/DX2                !
 ! A18   A(15,3,16)            106.61           estimate D2E/DX2                !
 ! A19   A(3,4,5)              112.059          estimate D2E/DX2                !
 ! A20   A(3,4,17)             111.0112         estimate D2E/DX2                !
 ! A21   A(3,4,18)             110.995          estimate D2E/DX2                !
 ! A22   A(5,4,17)             107.464          estimate D2E/DX2                !
 ! A23   A(5,4,18)             107.4951         estimate D2E/DX2                !
 ! A24   A(17,4,18)            107.6097         estimate D2E/DX2                !
 ! A25   A(4,5,6)              125.8701         estimate D2E/DX2                !
 ! A26   A(4,5,9)              126.3837         estimate D2E/DX2                !
 ! A27   A(6,5,9)              107.7399         estimate D2E/DX2                !
 ! A28   A(5,6,7)              111.3761         estimate D2E/DX2                !
 ! A29   A(5,6,19)             123.1075         estimate D2E/DX2                !
 ! A30   A(7,6,19)             125.5163         estimate D2E/DX2                !
 ! A31   A(6,7,8)              105.2478         estimate D2E/DX2                !
 ! A32   A(7,8,9)              110.7993         estimate D2E/DX2                !
 ! A33   A(7,8,20)             121.247          estimate D2E/DX2                !
 ! A34   A(9,8,20)             127.9536         estimate D2E/DX2                !
 ! A35   A(5,9,8)              104.834          estimate D2E/DX2                !
 ! A36   A(5,9,21)             123.0054         estimate D2E/DX2                !
 ! A37   A(8,9,21)             132.1602         estimate D2E/DX2                !
 ! D1    D(10,1,2,3)          -179.7734         estimate D2E/DX2                !
 ! D2    D(10,1,2,13)           58.5693         estimate D2E/DX2                !
 ! D3    D(10,1,2,14)          -58.2585         estimate D2E/DX2                !
 ! D4    D(11,1,2,3)            60.52           estimate D2E/DX2                !
 ! D5    D(11,1,2,13)          -61.1373         estimate D2E/DX2                !
 ! D6    D(11,1,2,14)         -177.9651         estimate D2E/DX2                !
 ! D7    D(12,1,2,3)           -60.0816         estimate D2E/DX2                !
 ! D8    D(12,1,2,13)          178.2611         estimate D2E/DX2                !
 ! D9    D(12,1,2,14)           61.4333         estimate D2E/DX2                !
 ! D10   D(1,2,3,4)           -179.7782         estimate D2E/DX2                !
 ! D11   D(1,2,3,15)            58.6156         estimate D2E/DX2                !
 ! D12   D(1,2,3,16)           -58.1227         estimate D2E/DX2                !
 ! D13   D(13,2,3,4)           -58.5883         estimate D2E/DX2                !
 ! D14   D(13,2,3,15)          179.8055         estimate D2E/DX2                !
 ! D15   D(13,2,3,16)           63.0672         estimate D2E/DX2                !
 ! D16   D(14,2,3,4)            59.1578         estimate D2E/DX2                !
 ! D17   D(14,2,3,15)          -62.4484         estimate D2E/DX2                !
 ! D18   D(14,2,3,16)         -179.1867         estimate D2E/DX2                !
 ! D19   D(2,3,4,5)           -179.093          estimate D2E/DX2                !
 ! D20   D(2,3,4,17)            60.7404         estimate D2E/DX2                !
 ! D21   D(2,3,4,18)           -58.8979         estimate D2E/DX2                !
 ! D22   D(15,3,4,5)           -57.5483         estimate D2E/DX2                !
 ! D23   D(15,3,4,17)         -177.715          estimate D2E/DX2                !
 ! D24   D(15,3,4,18)           62.6467         estimate D2E/DX2                !
 ! D25   D(16,3,4,5)            59.236          estimate D2E/DX2                !
 ! D26   D(16,3,4,17)          -60.9306         estimate D2E/DX2                !
 ! D27   D(16,3,4,18)          179.431          estimate D2E/DX2                !
 ! D28   D(3,4,5,6)             91.2017         estimate D2E/DX2                !
 ! D29   D(3,4,5,9)            -89.8237         estimate D2E/DX2                !
 ! D30   D(17,4,5,6)          -146.5863         estimate D2E/DX2                !
 ! D31   D(17,4,5,9)            32.3883         estimate D2E/DX2                !
 ! D32   D(18,4,5,6)           -31.011          estimate D2E/DX2                !
 ! D33   D(18,4,5,9)           147.9636         estimate D2E/DX2                !
 ! D34   D(4,5,6,7)            179.6517         estimate D2E/DX2                !
 ! D35   D(4,5,6,19)            -0.4501         estimate D2E/DX2                !
 ! D36   D(9,5,6,7)              0.5184         estimate D2E/DX2                !
 ! D37   D(9,5,6,19)          -179.5834         estimate D2E/DX2                !
 ! D38   D(4,5,9,8)           -179.6415         estimate D2E/DX2                !
 ! D39   D(4,5,9,21)             0.5528         estimate D2E/DX2                !
 ! D40   D(6,5,9,8)             -0.514          estimate D2E/DX2                !
 ! D41   D(6,5,9,21)           179.6803         estimate D2E/DX2                !
 ! D42   D(5,6,7,8)             -0.2834         estimate D2E/DX2                !
 ! D43   D(19,6,7,8)           179.8213         estimate D2E/DX2                !
 ! D44   D(6,7,8,9)             -0.0545         estimate D2E/DX2                !
 ! D45   D(6,7,8,20)          -179.9395         estimate D2E/DX2                !
 ! D46   D(7,8,9,5)              0.3586         estimate D2E/DX2                !
 ! D47   D(7,8,9,21)          -179.8612         estimate D2E/DX2                !
 ! D48   D(20,8,9,5)          -179.7661         estimate D2E/DX2                !
 ! D49   D(20,8,9,21)            0.0141         estimate D2E/DX2                !
 --------------------------------------------------------------------------------
 Trust Radius=3.00D-01 FncErr=1.00D-07 GrdErr=1.00D-06
 Number of steps in this run= 117 maximum allowed number of steps= 126.
 GradGradGradGradGradGradGradGradGradGradGradGradGradGradGradGradGradGrad

 Leave Link  103 at Mon Oct  4 21:19:17 2021, MaxMem=  805306368 cpu:       0.0
 (Enter /sw/target/amd/app/gaussian/Gaussian09RevA.02_gcc-4.9.2/g09/l202.exe)
                          Input orientation:                          
 ---------------------------------------------------------------------
 Center     Atomic      Atomic             Coordinates (Angstroms)
 Number     Number       Type             X           Y           Z
 ---------------------------------------------------------------------
      1          6           0        1.020865   -0.095558   -0.204113
      2          6           0        2.538605   -0.055500   -0.106273
      3          6           0        3.002976    0.305756    1.303969
      4          6           0        4.527557    0.349826    1.394936
      5          7           0        4.983947    0.670753    2.732474
      6          6           0        5.273845   -0.229884    3.716189
      7          7           0        5.670150    0.371888    4.814754
      8          6           0        5.639566    1.712152    4.523125
      9          6           0        5.220027    1.921166    3.230083
     10          1           0        0.714016   -0.359965   -1.221029
     11          1           0        0.585026    0.878756    0.038903
     12          1           0        0.602460   -0.840035    0.480564
     13          1           0        2.925093    0.676135   -0.825255
     14          1           0        2.941207   -1.034465   -0.390685
     15          1           0        2.610645   -0.427462    2.019823
     16          1           0        2.587244    1.279189    1.592463
     17          1           0        4.940218    1.105710    0.716215
     18          1           0        4.965556   -0.616989    1.120346
     19          1           0        5.179573   -1.300050    3.584451
     20          1           0        5.922881    2.453393    5.258992
     21          1           0        5.074308    2.822274    2.651401
 ---------------------------------------------------------------------
                    Distance matrix (angstroms):
                    1          2          3          4          5
     1  C    0.000000
     2  C    1.521417   0.000000
     3  C    2.522722   1.528047   0.000000
     4  C    3.879718   2.524648   1.527928   0.000000
     5  N    4.991672   3.816494   2.469432   1.449239   0.000000
     6  C    5.785728   4.703527   3.355975   2.506238   1.364875
     7  N    6.857360   5.848568   4.409513   3.605713   2.212710
     8  C    6.851787   5.845672   4.392325   3.588602   2.172735
     9  C    5.787387   4.714712   3.351833   2.513243   1.366339
    10  H    1.094617   2.159747   3.472483   4.678693   5.909728
    11  H    1.094669   2.170341   2.788405   4.202635   5.162276
    12  H    1.094574   2.169915   2.784476   4.202170   5.152767
    13  H    2.146488   1.096174   2.162600   2.757465   4.110516
    14  H    2.145709   1.096062   2.161449   2.760654   4.103008
    15  H    2.753807   2.159590   1.097260   2.160837   2.710445
    16  H    2.751574   2.160895   1.097102   2.160450   2.722866
    17  H    4.201354   2.791531   2.176762   1.096500   2.063105
    18  H    4.193646   2.776681   2.176442   1.096346   2.063389
    19  H    5.753162   4.705854   3.537907   2.818013   2.155968
    20  H    7.769970   6.821579   5.364737   4.615501   3.231516
    21  H    5.753095   4.723996   3.526876   2.826772   2.154943
                    6          7          8          9         10
     6  C    0.000000
     7  N    1.313786   0.000000
     8  C    2.134573   1.371966   0.000000
     9  C    2.205950   2.261428   1.375375   0.000000
    10  H    6.721986   7.844078   7.845382   6.732021   0.000000
    11  H    6.061068   6.994580   6.808169   5.723066   1.771580
    12  H    5.715190   6.777569   6.944666   6.042021   1.771534
    13  H    5.192516   6.279937   6.086613   4.823131   2.473662
    14  H    4.791134   6.043306   6.242641   5.199879   2.470790
    15  H    3.163753   4.220329   4.474241   3.713444   3.755646
    16  H    3.742371   4.550897   4.253575   3.166304   3.756535
    17  H    3.300753   4.227212   3.917834   2.657592   4.874619
    18  H    2.642592   3.888827   4.178288   3.310283   4.860422
    19  H    1.082357   2.133000   3.188427   3.240903   6.627036
    20  H    3.162510   2.143335   1.082223   2.212180   8.777126
    21  H    3.238713   3.322577   2.248386   1.080788   6.643381
                   11         12         13         14         15
    11  H    0.000000
    12  H    1.774714   0.000000
    13  H    2.502746   3.065707   0.000000
    14  H    3.065379   2.503321   1.765011   0.000000
    15  H    3.119836   2.563657   3.067780   2.507642   0.000000
    16  H    2.565692   3.109148   2.514593   3.067762   1.759501
    17  H    4.413384   4.760001   2.573207   3.130755   3.078462
    18  H    4.753506   4.415391   3.101778   2.560369   2.527961
    19  H    6.199030   5.549387   5.332307   4.569740   3.131911
    20  H    7.630302   7.873178   7.011665   7.278350   5.455498
    21  H    5.545815   6.174339   4.616511   5.355263   4.126659
                   16         17         18         19         20
    16  H    0.000000
    17  H    2.516822   0.000000
    18  H    3.078109   1.769649   0.000000
    19  H    4.164212   3.751234   2.565967   0.000000
    20  H    5.093983   4.839287   5.241384   4.176713   0.000000
    21  H    3.112547   2.590273   3.766229   4.227910   2.766890
                   21
    21  H    0.000000
 Stoichiometry    C7H12N2
 Framework group  C1[X(C7H12N2)]
 Deg. of freedom    57
 Full point group                 C1      NOp   1
 Largest Abelian subgroup         C1      NOp   1
 Largest concise Abelian subgroup C1      NOp   1
                         Standard orientation:                         
 ---------------------------------------------------------------------
 Center     Atomic      Atomic             Coordinates (Angstroms)
 Number     Number       Type             X           Y           Z
 ---------------------------------------------------------------------
      1          6           0        3.885573    0.025420   -0.690163
      2          6           0        2.818751   -0.021745    0.393523
      3          6           0        1.411086    0.023803   -0.199210
      4          6           0        0.344146   -0.018337    0.893690
      5          7           0       -0.997365    0.002936    0.345792
      6          6           0       -1.746526   -1.091109    0.022208
      7          7           0       -2.924109   -0.743822   -0.445469
      8          6           0       -2.934148    0.627775   -0.415276
      9          6           0       -1.746248    1.114117    0.078711
     10          1           0        4.883126   -0.012471   -0.241122
     11          1           0        3.811937    0.947859   -1.274958
     12          1           0        3.789104   -0.823954   -1.373793
     13          1           0        2.963618    0.823458    1.076343
     14          1           0        2.945374   -0.938841    0.980254
     15          1           0        1.272615   -0.822056   -0.884286
     16          1           0        1.291005    0.935230   -0.797970
     17          1           0        0.437876    0.841230    1.567982
     18          1           0        0.438281   -0.927101    1.499710
     19          1           0       -1.392533   -2.106784    0.143003
     20          1           0       -3.796350    1.190340   -0.748945
     21          1           0       -1.389538    2.119755    0.250618
 ---------------------------------------------------------------------
 Rotational constants (GHZ):      5.3112148      0.6831229      0.6636870
 Leave Link  202 at Mon Oct  4 21:19:17 2021, MaxMem=  805306368 cpu:       0.0
 (Enter /sw/target/amd/app/gaussian/Gaussian09RevA.02_gcc-4.9.2/g09/l301.exe)
 Standard basis: 6-31G(d) (6D, 7F)
 Ernie: Thresh=  0.10000D-02 Tol=  0.10000D-05 Strict=F.
 There are   159 symmetry adapted basis functions of A   symmetry.
 Integral buffers will be    131072 words long.
 Raffenetti 2 integral format.
 Two-electron integral symmetry is turned on.
   159 basis functions,   300 primitive gaussians,   159 cartesian basis functions
    34 alpha electrons       34 beta electrons
       nuclear repulsion energy       434.3913316592 Hartrees.
 IExCor=  402 DFT=T Ex+Corr=B3LYP ExCW=0 ScaHFX=  0.200000
 ScaDFX=  0.800000  0.720000  1.000000  0.810000 ScalE2=  1.000000  1.000000
 IRadAn=      0 IRanWt=     -1 IRanGd=            0 ICorTp=0
 NAtoms=   21 NActive=   21 NUniq=   21 SFac= 7.50D-01 NAtFMM=   80 NAOKFM=F Big=F
 Leave Link  301 at Mon Oct  4 21:19:17 2021, MaxMem=  805306368 cpu:       0.1
 (Enter /sw/target/amd/app/gaussian/Gaussian09RevA.02_gcc-4.9.2/g09/l302.exe)
 NPDir=0 NMtPBC=     1 NCelOv=     1 NCel=       1 NClECP=     1 NCelD=      1
         NCelK=      1 NCelE2=     1 NClLst=     1 CellRange=     0.0.
 One-electron integrals computed using PRISM.
 NBasis=   159 RedAO= T  NBF=   159
 NBsUse=   159 1.00D-06 NBFU=   159
 Precomputing XC quadrature grid using
 IXCGrd= 2 IRadAn=           0 IRanWt=          -1 IRanGd=           0 AccXCQ= 1.00D-10.
 NRdTot=    1323 NPtTot=      168094 NUsed=      177641 NTot=      177673
 NSgBfM=   159   159   159   159   159 NAtAll=    21    21.
 Leave Link  302 at Mon Oct  4 21:19:18 2021, MaxMem=  805306368 cpu:       1.3
 (Enter /sw/target/amd/app/gaussian/Gaussian09RevA.02_gcc-4.9.2/g09/l303.exe)
 DipDrv:  MaxL=1.
 Leave Link  303 at Mon Oct  4 21:19:18 2021, MaxMem=  805306368 cpu:       0.1
 (Enter /sw/target/amd/app/gaussian/Gaussian09RevA.02_gcc-4.9.2/g09/l401.exe)
 Harris functional with IExCor=  402 diagonalized for initial guess.
 ExpMin= 1.61D-01 ExpMax= 4.17D+03 ExpMxC= 6.27D+02 IAcc=1 IRadAn=         1 AccDes= 0.00D+00
 HarFok:  IExCor=  402 AccDes= 0.00D+00 IRadAn=         1 IDoV= 1
 ScaDFX=  1.000000  1.000000  1.000000  1.000000
 FoFCou: FMM=F IPFlag=           0 FMFlag=      100000 FMFlg1=           0
         NFxFlg=           0 DoJE=T BraDBF=F KetDBF=T FulRan=T
         Omega=  0.000000  0.000000  1.000000  0.000000  0.000000 ICntrl=     500 IOpCl=  0
         NMat0=    1 NMatS0=    1 NMatT0=    0 NMatD0=    1 NMtDS0=    0 NMtDT0=    0
         I1Cent=           4 NGrid=           0.
 Petite list used in FoFCou.
 Harris En= -383.542787763346    
 Initial guess orbital symmetries:
       Occupied  (A) (A) (A) (A) (A) (A) (A) (A) (A) (A) (A) (A)
                 (A) (A) (A) (A) (A) (A) (A) (A) (A) (A) (A) (A)
                 (A) (A) (A) (A) (A) (A) (A) (A) (A) (A)
       Virtual   (A) (A) (A) (A) (A) (A) (A) (A) (A) (A) (A) (A)
                 (A) (A) (A) (A) (A) (A) (A) (A) (A) (A) (A) (A)
                 (A) (A) (A) (A) (A) (A) (A) (A) (A) (A) (A) (A)
                 (A) (A) (A) (A) (A) (A) (A) (A) (A) (A) (A) (A)
                 (A) (A) (A) (A) (A) (A) (A) (A) (A) (A) (A) (A)
                 (A) (A) (A) (A) (A) (A) (A) (A) (A) (A) (A) (A)
                 (A) (A) (A) (A) (A) (A) (A) (A) (A) (A) (A) (A)
                 (A) (A) (A) (A) (A) (A) (A) (A) (A) (A) (A) (A)
                 (A) (A) (A) (A) (A) (A) (A) (A) (A) (A) (A) (A)
                 (A) (A) (A) (A) (A) (A) (A) (A) (A) (A) (A) (A)
                 (A) (A) (A) (A) (A)
 The electronic state of the initial guess is 1-A.
 Leave Link  401 at Mon Oct  4 21:19:25 2021, MaxMem=  805306368 cpu:       4.9
 (Enter /sw/target/amd/app/gaussian/Gaussian09RevA.02_gcc-4.9.2/g09/l502.exe)
 Closed shell SCF:
 Requested convergence on RMS density matrix=1.00D-08 within  64 cycles.
 Requested convergence on MAX density matrix=1.00D-06.
 Requested convergence on             energy=1.00D-06.
 No special actions if energy rises.
 Using DIIS extrapolation, IDIIS=  1040.
 Integral symmetry usage will be decided dynamically.
       177439 words used for storage of precomputed grid.
 Keep R1 ints in memory in canonical form, NReq=83214483.
 IEnd=      260989 IEndB=      260989 NGot=   805306368 MDV=   724169456
 LenX=   724169456 LenY=   724143734
 Symmetry not used in FoFDir.
 MinBra= 0 MaxBra= 2 Meth= 1.
 IRaf=       0 NMat=   1 IRICut=       1 DoRegI=T DoRafI=F ISym2E= 0 JSym2E=0.
 Integral accuracy reduced to 1.0D-05 until final iterations.

 Cycle   1  Pass 0  IDiag  1:
 E= -383.193508481806    
 DIIS: error= 4.31D-02 at cycle   1 NSaved=   1.
 NSaved= 1 IEnMin= 1 EnMin= -383.193508481806     IErMin= 1 ErrMin= 4.31D-02
 ErrMax= 4.31D-02 EMaxC= 1.00D-01 BMatC= 2.50D-01 BMatP= 2.50D-01
 IDIUse=3 WtCom= 5.69D-01 WtEn= 4.31D-01
 Coeff-Com:  0.100D+01
 Coeff-En:   0.100D+01
 Coeff:      0.100D+01
 Gap=     0.232 Goal=   None    Shift=    0.000
 GapD=    0.232 DampG=1.000 DampE=0.500 DampFc=0.5000 IDamp=-1.
 Damping current iteration by 5.00D-01
 RMSDP=7.65D-03 MaxDP=1.45D-01              OVMax= 2.36D-01

 Cycle   2  Pass 0  IDiag  1:
 E= -383.310260417777     Delta-E=       -0.116751935971 Rises=F Damp=T
 DIIS: error= 8.50D-03 at cycle   2 NSaved=   2.
 NSaved= 2 IEnMin= 2 EnMin= -383.310260417777     IErMin= 2 ErrMin= 8.50D-03
 ErrMax= 8.50D-03 EMaxC= 1.00D-01 BMatC= 1.87D-02 BMatP= 2.50D-01
 IDIUse=3 WtCom= 9.15D-01 WtEn= 8.50D-02
 Coeff-Com:  0.103D+00 0.897D+00
 Coeff-En:   0.154D+00 0.846D+00
 Coeff:      0.107D+00 0.893D+00
 Gap=     0.326 Goal=   None    Shift=    0.000
 RMSDP=1.72D-03 MaxDP=4.67D-02 DE=-1.17D-01 OVMax= 1.77D-01

 Cycle   3  Pass 0  IDiag  1:
 E= -383.450281113182     Delta-E=       -0.140020695405 Rises=F Damp=F
 DIIS: error= 1.39D-02 at cycle   3 NSaved=   3.
 NSaved= 3 IEnMin= 3 EnMin= -383.450281113182     IErMin= 2 ErrMin= 8.50D-03
 ErrMax= 1.39D-02 EMaxC= 1.00D-01 BMatC= 2.14D-02 BMatP= 1.87D-02
 IDIUse=2 WtCom= 0.00D+00 WtEn= 1.00D+00
 Coeff-En:   0.000D+00 0.000D+00 0.100D+01
 Coeff:      0.000D+00 0.000D+00 0.100D+01
 Gap=     0.242 Goal=   None    Shift=    0.000
 RMSDP=2.61D-03 MaxDP=7.73D-02 DE=-1.40D-01 OVMax= 1.74D-01

 Cycle   4  Pass 0  IDiag  1:
 E= -383.379744216733     Delta-E=        0.070536896449 Rises=F Damp=F
 DIIS: error= 2.55D-02 at cycle   4 NSaved=   4.
 NSaved= 4 IEnMin= 3 EnMin= -383.450281113182     IErMin= 2 ErrMin= 8.50D-03
 ErrMax= 2.55D-02 EMaxC= 1.00D-01 BMatC= 9.76D-02 BMatP= 1.87D-02
 IDIUse=2 WtCom= 0.00D+00 WtEn= 1.00D+00
 Coeff-En:   0.000D+00 0.000D+00 0.768D+00 0.232D+00
 Coeff:      0.000D+00 0.000D+00 0.768D+00 0.232D+00
 Gap=     0.271 Goal=   None    Shift=    0.000
 RMSDP=1.38D-03 MaxDP=3.96D-02 DE= 7.05D-02 OVMax= 9.08D-02

 Cycle   5  Pass 0  IDiag  1:
 E= -383.464165454781     Delta-E=       -0.084421238048 Rises=F Damp=F
 DIIS: error= 7.02D-03 at cycle   5 NSaved=   5.
 NSaved= 5 IEnMin= 5 EnMin= -383.464165454781     IErMin= 5 ErrMin= 7.02D-03
 ErrMax= 7.02D-03 EMaxC= 1.00D-01 BMatC= 6.42D-03 BMatP= 1.87D-02
 IDIUse=3 WtCom= 9.30D-01 WtEn= 7.02D-02
 Coeff-Com: -0.118D-02 0.124D-01 0.271D+00-0.834D-01 0.801D+00
 Coeff-En:   0.000D+00 0.000D+00 0.280D+00 0.000D+00 0.720D+00
 Coeff:     -0.110D-02 0.115D-01 0.272D+00-0.775D-01 0.795D+00
 Gap=     0.253 Goal=   None    Shift=    0.000
 RMSDP=4.69D-04 MaxDP=1.41D-02 DE=-8.44D-02 OVMax= 2.97D-02

 Cycle   6  Pass 0  IDiag  1:
 E= -383.470089459526     Delta-E=       -0.005924004746 Rises=F Damp=F
 DIIS: error= 2.60D-04 at cycle   6 NSaved=   6.
 NSaved= 6 IEnMin= 6 EnMin= -383.470089459526     IErMin= 6 ErrMin= 2.60D-04
 ErrMax= 2.60D-04 EMaxC= 1.00D-01 BMatC= 1.74D-05 BMatP= 6.42D-03
 IDIUse=3 WtCom= 9.97D-01 WtEn= 2.60D-03
 Coeff-Com: -0.186D-02 0.455D-02 0.976D-01-0.567D-01 0.404D+00 0.552D+00
 Coeff-En:   0.000D+00 0.000D+00 0.000D+00 0.000D+00 0.000D+00 0.100D+01
 Coeff:     -0.185D-02 0.454D-02 0.974D-01-0.566D-01 0.403D+00 0.554D+00
 Gap=     0.253 Goal=   None    Shift=    0.000
 RMSDP=2.45D-05 MaxDP=1.01D-03 DE=-5.92D-03 OVMax= 1.64D-03

 Cycle   7  Pass 0  IDiag  1:
 E= -383.470104398499     Delta-E=       -0.000014938972 Rises=F Damp=F
 DIIS: error= 5.83D-05 at cycle   7 NSaved=   7.
 NSaved= 7 IEnMin= 7 EnMin= -383.470104398499     IErMin= 7 ErrMin= 5.83D-05
 ErrMax= 5.83D-05 EMaxC= 1.00D-01 BMatC= 8.45D-07 BMatP= 1.74D-05
 IDIUse=1 WtCom= 1.00D+00 WtEn= 0.00D+00
 Coeff-Com: -0.805D-03 0.166D-02 0.420D-01-0.262D-01 0.181D+00 0.300D+00
 Coeff-Com:  0.502D+00
 Coeff:     -0.805D-03 0.166D-02 0.420D-01-0.262D-01 0.181D+00 0.300D+00
 Coeff:      0.502D+00
 Gap=     0.253 Goal=   None    Shift=    0.000
 RMSDP=6.15D-06 MaxDP=2.05D-04 DE=-1.49D-05 OVMax= 4.05D-04

 Initial convergence to 1.0D-05 achieved.  Increase integral accuracy.
 Cycle   8  Pass 1  IDiag  1:
 E= -383.470068704847     Delta-E=        0.000035693652 Rises=F Damp=F
 DIIS: error= 1.74D-05 at cycle   1 NSaved=   1.
 NSaved= 1 IEnMin= 1 EnMin= -383.470068704847     IErMin= 1 ErrMin= 1.74D-05
 ErrMax= 1.74D-05 EMaxC= 1.00D-01 BMatC= 1.14D-07 BMatP= 1.14D-07
 IDIUse=1 WtCom= 1.00D+00 WtEn= 0.00D+00
 Coeff-Com:  0.100D+01
 Coeff:      0.100D+01
 Gap=     0.253 Goal=   None    Shift=    0.000
 RMSDP=6.15D-06 MaxDP=2.05D-04 DE= 3.57D-05 OVMax= 2.32D-04

 Cycle   9  Pass 1  IDiag  1:
 E= -383.470068686740     Delta-E=        0.000000018106 Rises=F Damp=F
 DIIS: error= 2.68D-05 at cycle   2 NSaved=   2.
 NSaved= 2 IEnMin= 1 EnMin= -383.470068704847     IErMin= 1 ErrMin= 1.74D-05
 ErrMax= 2.68D-05 EMaxC= 1.00D-01 BMatC= 1.56D-07 BMatP= 1.14D-07
 IDIUse=1 WtCom= 1.00D+00 WtEn= 0.00D+00
 Coeff-Com:  0.547D+00 0.453D+00
 Coeff:      0.547D+00 0.453D+00
 Gap=     0.253 Goal=   None    Shift=    0.000
 RMSDP=3.29D-06 MaxDP=8.84D-05 DE= 1.81D-08 OVMax= 2.08D-04

 Cycle  10  Pass 1  IDiag  1:
 E= -383.470068823229     Delta-E=       -0.000000136489 Rises=F Damp=F
 DIIS: error= 1.01D-05 at cycle   3 NSaved=   3.
 NSaved= 3 IEnMin= 3 EnMin= -383.470068823229     IErMin= 3 ErrMin= 1.01D-05
 ErrMax= 1.01D-05 EMaxC= 1.00D-01 BMatC= 2.20D-08 BMatP= 1.14D-07
 IDIUse=1 WtCom= 1.00D+00 WtEn= 0.00D+00
 Coeff-Com:  0.838D-01 0.270D+00 0.646D+00
 Coeff:      0.838D-01 0.270D+00 0.646D+00
 Gap=     0.253 Goal=   None    Shift=    0.000
 RMSDP=1.11D-06 MaxDP=3.42D-05 DE=-1.36D-07 OVMax= 6.79D-05

 Cycle  11  Pass 1  IDiag  1:
 E= -383.470068840297     Delta-E=       -0.000000017068 Rises=F Damp=F
 DIIS: error= 4.16D-06 at cycle   4 NSaved=   4.
 NSaved= 4 IEnMin= 4 EnMin= -383.470068840297     IErMin= 4 ErrMin= 4.16D-06
 ErrMax= 4.16D-06 EMaxC= 1.00D-01 BMatC= 4.19D-09 BMatP= 2.20D-08
 IDIUse=1 WtCom= 1.00D+00 WtEn= 0.00D+00
 Coeff-Com: -0.147D-01 0.118D+00 0.405D+00 0.493D+00
 Coeff:     -0.147D-01 0.118D+00 0.405D+00 0.493D+00
 Gap=     0.253 Goal=   None    Shift=    0.000
 RMSDP=3.72D-07 MaxDP=9.86D-06 DE=-1.71D-08 OVMax= 2.15D-05

 Cycle  12  Pass 1  IDiag  1:
 E= -383.470068844030     Delta-E=       -0.000000003733 Rises=F Damp=F
 DIIS: error= 5.37D-07 at cycle   5 NSaved=   5.
 NSaved= 5 IEnMin= 5 EnMin= -383.470068844030     IErMin= 5 ErrMin= 5.37D-07
 ErrMax= 5.37D-07 EMaxC= 1.00D-01 BMatC= 7.77D-11 BMatP= 4.19D-09
 IDIUse=1 WtCom= 1.00D+00 WtEn= 0.00D+00
 Coeff-Com: -0.950D-02 0.581D-01 0.203D+00 0.266D+00 0.482D+00
 Coeff:     -0.950D-02 0.581D-01 0.203D+00 0.266D+00 0.482D+00
 Gap=     0.253 Goal=   None    Shift=    0.000
 RMSDP=6.65D-08 MaxDP=2.44D-06 DE=-3.73D-09 OVMax= 4.24D-06

 Cycle  13  Pass 1  IDiag  1:
 E= -383.470068844089     Delta-E=       -0.000000000059 Rises=F Damp=F
 DIIS: error= 2.12D-07 at cycle   6 NSaved=   6.
 NSaved= 6 IEnMin= 6 EnMin= -383.470068844089     IErMin= 6 ErrMin= 2.12D-07
 ErrMax= 2.12D-07 EMaxC= 1.00D-01 BMatC= 6.14D-12 BMatP= 7.77D-11
 IDIUse=1 WtCom= 1.00D+00 WtEn= 0.00D+00
 Coeff-Com: -0.253D-02 0.117D-01 0.403D-01 0.598D-01 0.241D+00 0.650D+00
 Coeff:     -0.253D-02 0.117D-01 0.403D-01 0.598D-01 0.241D+00 0.650D+00
 Gap=     0.253 Goal=   None    Shift=    0.000
 RMSDP=1.83D-08 MaxDP=6.26D-07 DE=-5.92D-11 OVMax= 1.34D-06

 Cycle  14  Pass 1  IDiag  1:
 E= -383.470068844101     Delta-E=       -0.000000000012 Rises=F Damp=F
 DIIS: error= 4.08D-08 at cycle   7 NSaved=   7.
 NSaved= 7 IEnMin= 7 EnMin= -383.470068844101     IErMin= 7 ErrMin= 4.08D-08
 ErrMax= 4.08D-08 EMaxC= 1.00D-01 BMatC= 3.13D-13 BMatP= 6.14D-12
 IDIUse=1 WtCom= 1.00D+00 WtEn= 0.00D+00
 Coeff-Com: -0.350D-03 0.387D-03 0.161D-02 0.394D-02 0.604D-01 0.257D+00
 Coeff-Com:  0.677D+00
 Coeff:     -0.350D-03 0.387D-03 0.161D-02 0.394D-02 0.604D-01 0.257D+00
 Coeff:      0.677D+00
 Gap=     0.253 Goal=   None    Shift=    0.000
 RMSDP=4.75D-09 MaxDP=1.04D-07 DE=-1.16D-11 OVMax= 1.90D-07

 SCF Done:  E(RB3LYP) =  -383.470068844     A.U. after   14 cycles
             Convg  =    0.4751D-08             -V/T =  2.0095
 KE= 3.798794289575D+02 PE=-1.757236428265D+03 EE= 5.594955988040D+02
 Leave Link  502 at Mon Oct  4 21:57:48 2021, MaxMem=  805306368 cpu:      96.7
 (Enter /sw/target/amd/app/gaussian/Gaussian09RevA.02_gcc-4.9.2/g09/l508.exe)
 QCSCF skips out because SCF is already converged.
 Leave Link  508 at Mon Oct  4 21:57:57 2021, MaxMem=  805306368 cpu:       0.0
 (Enter /sw/target/amd/app/gaussian/Gaussian09RevA.02_gcc-4.9.2/g09/l601.exe)
 Copying SCF densities to generalized density rwf, IOpCl= 0 IROHF=0.

 **********************************************************************

            Population analysis using the SCF density.

 **********************************************************************

 Orbital symmetries:
       Occupied  (A) (A) (A) (A) (A) (A) (A) (A) (A) (A) (A) (A)
                 (A) (A) (A) (A) (A) (A) (A) (A) (A) (A) (A) (A)
                 (A) (A) (A) (A) (A) (A) (A) (A) (A) (A)
       Virtual   (A) (A) (A) (A) (A) (A) (A) (A) (A) (A) (A) (A)
                 (A) (A) (A) (A) (A) (A) (A) (A) (A) (A) (A) (A)
                 (A) (A) (A) (A) (A) (A) (A) (A) (A) (A) (A) (A)
                 (A) (A) (A) (A) (A) (A) (A) (A) (A) (A) (A) (A)
                 (A) (A) (A) (A) (A) (A) (A) (A) (A) (A) (A) (A)
                 (A) (A) (A) (A) (A) (A) (A) (A) (A) (A) (A) (A)
                 (A) (A) (A) (A) (A) (A) (A) (A) (A) (A) (A) (A)
                 (A) (A) (A) (A) (A) (A) (A) (A) (A) (A) (A) (A)
                 (A) (A) (A) (A) (A) (A) (A) (A) (A) (A) (A) (A)
                 (A) (A) (A) (A) (A) (A) (A) (A) (A) (A) (A) (A)
                 (A) (A) (A) (A) (A)
 The electronic state is 1-A.
 Alpha  occ. eigenvalues --  -14.38556 -14.29854 -10.23768 -10.22490 -10.20300
 Alpha  occ. eigenvalues --  -10.19545 -10.19316 -10.18549 -10.18188  -1.01192
 Alpha  occ. eigenvalues --   -0.88076  -0.80640  -0.74794  -0.72374  -0.65738
 Alpha  occ. eigenvalues --   -0.59711  -0.58944  -0.56726  -0.52660  -0.48874
 Alpha  occ. eigenvalues --   -0.46135  -0.44619  -0.42503  -0.42054  -0.41535
 Alpha  occ. eigenvalues --   -0.39690  -0.38876  -0.36965  -0.35317  -0.34604
 Alpha  occ. eigenvalues --   -0.34230  -0.25941  -0.25386  -0.21740
 Alpha virt. eigenvalues --    0.03561   0.07745   0.07890   0.10189   0.10587
 Alpha virt. eigenvalues --    0.12771   0.13315   0.14910   0.15296   0.16495
 Alpha virt. eigenvalues --    0.16800   0.17483   0.18381   0.18904   0.19641
 Alpha virt. eigenvalues --    0.22309   0.24062   0.25403   0.26662   0.28325
 Alpha virt. eigenvalues --    0.34235   0.35878   0.45800   0.47989   0.49172
 Alpha virt. eigenvalues --    0.50238   0.52673   0.54188   0.55883   0.57051
 Alpha virt. eigenvalues --    0.57912   0.60079   0.61415   0.62620   0.63959
 Alpha virt. eigenvalues --    0.64343   0.67208   0.67773   0.71168   0.72178
 Alpha virt. eigenvalues --    0.76065   0.78932   0.79638   0.80620   0.82337
 Alpha virt. eigenvalues --    0.84025   0.84483   0.84839   0.87667   0.88597
 Alpha virt. eigenvalues --    0.89299   0.91000   0.91201   0.91447   0.93888
 Alpha virt. eigenvalues --    0.94092   0.96193   0.96249   0.97618   1.00746
 Alpha virt. eigenvalues --    1.04153   1.07632   1.18090   1.23737   1.29616
 Alpha virt. eigenvalues --    1.34585   1.34779   1.37007   1.38214   1.39769
 Alpha virt. eigenvalues --    1.44852   1.49472   1.51525   1.52734   1.55554
 Alpha virt. eigenvalues --    1.57198   1.65906   1.70394   1.73293   1.83421
 Alpha virt. eigenvalues --    1.88192   1.88353   1.92851   1.93409   1.94915
 Alpha virt. eigenvalues --    1.95490   1.99441   2.00938   2.03506   2.06681
 Alpha virt. eigenvalues --    2.10615   2.12273   2.17692   2.18657   2.25063
 Alpha virt. eigenvalues --    2.26339   2.28197   2.28989   2.32276   2.33595
 Alpha virt. eigenvalues --    2.38425   2.40036   2.40950   2.42471   2.53448
 Alpha virt. eigenvalues --    2.54416   2.60274   2.62495   2.62961   2.70662
 Alpha virt. eigenvalues --    2.74574   2.79326   2.82414   3.02633   3.03688
 Alpha virt. eigenvalues --    3.13241   3.96634   4.03765   4.13455   4.16196
 Alpha virt. eigenvalues --    4.24780   4.30291   4.37208   4.43962   4.54402
          Condensed to atoms (all electrons):
              1          2          3          4          5          6
     1  C    5.057692   0.374905  -0.043293   0.003638  -0.000107  -0.000001
     2  C    0.374905   4.966139   0.365193  -0.037455   0.004015  -0.000012
     3  C   -0.043293   0.365193   5.047213   0.366618  -0.061239  -0.001821
     4  C    0.003638  -0.037455   0.366618   4.961729   0.259964  -0.033129
     5  N   -0.000107   0.004015  -0.061239   0.259964   6.684646   0.394463
     6  C   -0.000001  -0.000012  -0.001821  -0.033129   0.394463   4.757551
     7  N   -0.000000   0.000001  -0.000104   0.005924  -0.076945   0.523957
     8  C   -0.000000   0.000001  -0.000127   0.007442  -0.063112  -0.120687
     9  C   -0.000000  -0.000042  -0.000856  -0.039485   0.392289  -0.104402
    10  H    0.372868  -0.029497   0.004410  -0.000140   0.000001   0.000000
    11  H    0.379753  -0.035417  -0.005091   0.000044   0.000000   0.000000
    12  H    0.379911  -0.035421  -0.005100   0.000047  -0.000000  -0.000001
    13  H   -0.038791   0.379003  -0.040876  -0.003811   0.000045   0.000003
    14  H   -0.038808   0.379239  -0.040942  -0.003902   0.000038  -0.000000
    15  H   -0.003255  -0.036054   0.373942  -0.037163  -0.000180   0.002904
    16  H   -0.003176  -0.036545   0.373937  -0.036758  -0.000942  -0.000105
    17  H   -0.000057  -0.001354  -0.042906   0.372032  -0.034289   0.002959
    18  H   -0.000042  -0.001644  -0.042142   0.374677  -0.037516  -0.002031
    19  H    0.000000  -0.000013  -0.000019   0.000999  -0.058549   0.378252
    20  H    0.000000  -0.000000   0.000001  -0.000105   0.003559   0.007845
    21  H    0.000000  -0.000015  -0.000053  -0.000004  -0.046611   0.005428
              7          8          9         10         11         12
     1  C   -0.000000  -0.000000  -0.000000   0.372868   0.379753   0.379911
     2  C    0.000001   0.000001  -0.000042  -0.029497  -0.035417  -0.035421
     3  C   -0.000104  -0.000127  -0.000856   0.004410  -0.005091  -0.005100
     4  C    0.005924   0.007442  -0.039485  -0.000140   0.000044   0.000047
     5  N   -0.076945  -0.063112   0.392289   0.000001   0.000000  -0.000000
     6  C    0.523957  -0.120687  -0.104402   0.000000   0.000000  -0.000001
     7  N    6.665991   0.458647  -0.063404   0.000000  -0.000000   0.000000
     8  C    0.458647   4.843133   0.562253   0.000000   0.000000  -0.000000
     9  C   -0.063404   0.562253   4.936809   0.000000  -0.000001   0.000000
    10  H    0.000000   0.000000   0.000000   0.572372  -0.030108  -0.030076
    11  H   -0.000000   0.000000  -0.000001  -0.030108   0.570899  -0.031403
    12  H    0.000000  -0.000000   0.000000  -0.030076  -0.031403   0.569932
    13  H   -0.000000  -0.000000  -0.000001  -0.002920  -0.004684   0.005366
    14  H   -0.000000  -0.000000   0.000004  -0.002963   0.005367  -0.004639
    15  H   -0.000116  -0.000045  -0.000207  -0.000012  -0.000413   0.004864
    16  H    0.000001  -0.000136   0.003117  -0.000013   0.004876  -0.000421
    17  H   -0.000267  -0.000017  -0.002673   0.000004   0.000003   0.000005
    18  H    0.000189  -0.000245   0.003768   0.000003   0.000006   0.000002
    19  H   -0.038485   0.006367   0.004696  -0.000000   0.000000   0.000000
    20  H   -0.043355   0.380190  -0.056865  -0.000000  -0.000000   0.000000
    21  H    0.004638  -0.032441   0.359805  -0.000000  -0.000000   0.000000
             13         14         15         16         17         18
     1  C   -0.038791  -0.038808  -0.003255  -0.003176  -0.000057  -0.000042
     2  C    0.379003   0.379239  -0.036054  -0.036545  -0.001354  -0.001644
     3  C   -0.040876  -0.040942   0.373942   0.373937  -0.042906  -0.042142
     4  C   -0.003811  -0.003902  -0.037163  -0.036758   0.372032   0.374677
     5  N    0.000045   0.000038  -0.000180  -0.000942  -0.034289  -0.037516
     6  C    0.000003  -0.000000   0.002904  -0.000105   0.002959  -0.002031
     7  N   -0.000000  -0.000000  -0.000116   0.000001  -0.000267   0.000189
     8  C   -0.000000  -0.000000  -0.000045  -0.000136  -0.000017  -0.000245
     9  C   -0.000001   0.000004  -0.000207   0.003117  -0.002673   0.003768
    10  H   -0.002920  -0.002963  -0.000012  -0.000013   0.000004   0.000003
    11  H   -0.004684   0.005367  -0.000413   0.004876   0.000003   0.000006
    12  H    0.005366  -0.004639   0.004864  -0.000421   0.000005   0.000002
    13  H    0.604740  -0.038627   0.005646  -0.005119   0.004786  -0.000425
    14  H   -0.038627   0.603915  -0.005195   0.005650  -0.000368   0.004956
    15  H    0.005646  -0.005195   0.583250  -0.036643   0.005363  -0.004899
    16  H   -0.005119   0.005650  -0.036643   0.585089  -0.005201   0.005335
    17  H    0.004786  -0.000368   0.005363  -0.005201   0.574417  -0.033243
    18  H   -0.000425   0.004956  -0.004899   0.005335  -0.033243   0.570505
    19  H    0.000000   0.000002   0.000339   0.000015  -0.000083   0.003435
    20  H   -0.000000   0.000000  -0.000001   0.000002  -0.000011   0.000006
    21  H    0.000001   0.000000   0.000005   0.000531   0.002465   0.000046
             19         20         21
     1  C    0.000000   0.000000   0.000000
     2  C   -0.000013  -0.000000  -0.000015
     3  C   -0.000019   0.000001  -0.000053
     4  C    0.000999  -0.000105  -0.000004
     5  N   -0.058549   0.003559  -0.046611
     6  C    0.378252   0.007845   0.005428
     7  N   -0.038485  -0.043355   0.004638
     8  C    0.006367   0.380190  -0.032441
     9  C    0.004696  -0.056865   0.359805
    10  H   -0.000000  -0.000000  -0.000000
    11  H    0.000000  -0.000000  -0.000000
    12  H    0.000000   0.000000   0.000000
    13  H    0.000000  -0.000000   0.000001
    14  H    0.000002   0.000000   0.000000
    15  H    0.000339  -0.000001   0.000005
    16  H    0.000015   0.000002   0.000531
    17  H   -0.000083  -0.000011   0.002465
    18  H    0.003435   0.000006   0.000046
    19  H    0.555028  -0.000171  -0.000111
    20  H   -0.000171   0.579336   0.000293
    21  H   -0.000111   0.000293   0.559201
 Mulliken atomic charges:
              1
     1  C   -0.441238
     2  C   -0.255028
     3  C   -0.246743
     4  C   -0.161160
     5  N   -0.359531
     6  C    0.188824
     7  N   -0.436672
     8  C   -0.041223
     9  C    0.005198
    10  H    0.146072
    11  H    0.146167
    12  H    0.146933
    13  H    0.135662
    14  H    0.136274
    15  H    0.147870
    16  H    0.146503
    17  H    0.158436
    18  H    0.159259
    19  H    0.148298
    20  H    0.129275
    21  H    0.146822
 Sum of Mulliken atomic charges =  -0.00000
 Mulliken charges with hydrogens summed into heavy atoms:
              1
     1  C   -0.002066
     2  C    0.016909
     3  C    0.047629
     4  C    0.156535
     5  N   -0.359531
     6  C    0.337122
     7  N   -0.436672
     8  C    0.088053
     9  C    0.152020
 Sum of Mulliken charges with hydrogens summed into heavy atoms =  -0.00000
 Electronic spatial extent (au):  <R**2>=           1772.5139
 Charge=             -0.0000 electrons
 Dipole moment (field-independent basis, Debye):
    X=              3.9007    Y=              1.1219    Z=              1.3307  Tot=              4.2714
 Quadrupole moment (field-independent basis, Debye-Ang):
   XX=            -65.5601   YY=            -51.8921   ZZ=            -56.4340
   XY=             -5.1885   XZ=             -1.1386   YZ=             -1.0864
 Traceless Quadrupole moment (field-independent basis, Debye-Ang):
   XX=             -7.5980   YY=              6.0700   ZZ=              1.5280
   XY=             -5.1885   XZ=             -1.1386   YZ=             -1.0864
 Octapole moment (field-independent basis, Debye-Ang**2):
  XXX=             36.3517  YYY=              0.1798  ZZZ=              2.7956  XYY=              0.4339
  XXY=             20.3097  XXZ=              4.5292  XZZ=              3.9926  YZZ=              0.1173
  YYZ=              2.3921  XYZ=              4.6476
 Hexadecapole moment (field-independent basis, Debye-Ang**3):
 XXXX=          -2113.7587 YYYY=           -210.2943 ZZZZ=           -175.4673 XXXY=            -78.2655
 XXXZ=              5.4606 YYYX=             -4.0330 YYYZ=             -1.0795 ZZZX=             -1.3463
 ZZZY=              0.0656 XXYY=           -380.6558 XXZZ=           -377.6088 YYZZ=            -67.0298
 XXYZ=            -17.1599 YYXZ=             -3.3550 ZZXY=             -1.7866
 N-N= 4.343913316592D+02 E-N=-1.757236437985D+03  KE= 3.798794289575D+02
 No NMR shielding tensors so no spin-rotation constants.
 Leave Link  601 at Mon Oct  4 21:58:01 2021, MaxMem=  805306368 cpu:       0.8
 (Enter /sw/target/amd/app/gaussian/Gaussian09RevA.02_gcc-4.9.2/g09/l701.exe)
 Compute integral first derivatives.
 ... and contract with generalized density number  0.
 Leave Link  701 at Mon Oct  4 21:58:02 2021, MaxMem=  805306368 cpu:       0.9
 (Enter /sw/target/amd/app/gaussian/Gaussian09RevA.02_gcc-4.9.2/g09/l702.exe)
 L702 exits ... SP integral derivatives will be done elsewhere.
 Leave Link  702 at Mon Oct  4 21:58:02 2021, MaxMem=  805306368 cpu:       0.1
 (Enter /sw/target/amd/app/gaussian/Gaussian09RevA.02_gcc-4.9.2/g09/l703.exe)
 Compute integral first derivatives, UseDBF=F ICtDFT=           0.
 Integral derivatives from FoFDir, PRISM(SPDF).
 Calling FoFJK, ICntrl=      2127 FMM=F ISym2X=0 I1Cent= 0 IOpClX= 0 NMat=1 NMatS=1 NMatT=0.
 FoFCou: FMM=F IPFlag=           0 FMFlag=      100000 FMFlg1=         800
         NFxFlg=           0 DoJE=F BraDBF=F KetDBF=F FulRan=T
         Omega=  0.000000  0.000000  1.000000  0.000000  0.000000 ICntrl=    2127 IOpCl=  0
         NMat0=    1 NMatS0=    1 NMatT0=    0 NMatD0=    1 NMtDS0=    0 NMtDT0=    0
         I1Cent=           0 NGrid=           0.
 Symmetry not used in FoFCou.
 Leave Link  703 at Mon Oct  4 21:58:30 2021, MaxMem=  805306368 cpu:      34.5
 (Enter /sw/target/amd/app/gaussian/Gaussian09RevA.02_gcc-4.9.2/g09/l716.exe)
 Dipole        = 1.53465533D+00 4.41408595D-01 5.23528088D-01
 ***** Axes restored to original set *****
 -------------------------------------------------------------------
 Center     Atomic                   Forces (Hartrees/Bohr)
 Number     Number              X              Y              Z
 -------------------------------------------------------------------
      1        6          -0.002634078   -0.001079391   -0.004576780
      2        6          -0.003056111    0.000687562    0.002491017
      3        6           0.001318925   -0.001253262   -0.005525019
      4        6          -0.001253700    0.000829832    0.001145521
      5        7           0.001753386   -0.010112828   -0.011232447
      6        6           0.000279483    0.004753328    0.002913748
      7        7           0.002259385   -0.000747570    0.007067648
      8        6           0.000570152    0.003752217    0.002487395
      9        6           0.002455814    0.005284190    0.010633742
     10        1          -0.002579008   -0.000085248   -0.000266272
     11        1          -0.001405085    0.000514367    0.000491442
     12        1          -0.001490359   -0.000290473    0.000697090
     13        1           0.002252180    0.000296994   -0.001206857
     14        1           0.002314615   -0.000794580   -0.000937016
     15        1           0.000997489   -0.000096432    0.000983439
     16        1           0.000751358    0.000653496    0.000772270
     17        1          -0.000920949   -0.001658100   -0.001359862
     18        1          -0.001130972    0.000460208   -0.001464474
     19        1          -0.000416320    0.000365595   -0.001997813
     20        1           0.000247244   -0.000017935   -0.000081017
     21        1          -0.000313449   -0.001461969   -0.001035757
 -------------------------------------------------------------------
 Cartesian Forces:  Max     0.011232447 RMS     0.003122343
 Leave Link  716 at Mon Oct  4 21:58:30 2021, MaxMem=  805306368 cpu:       0.1
 (Enter /sw/target/amd/app/gaussian/Gaussian09RevA.02_gcc-4.9.2/g09/l103.exe)

 GradGradGradGradGradGradGradGradGradGradGradGradGradGradGradGradGradGrad
 Berny optimization.
 Internal  Forces:  Max     0.010907852 RMS     0.002738913
 Search for a local minimum.
 Step number   1 out of a maximum of  117
 All quantities printed in internal units (Hartrees-Bohrs-Radians)
 RMS Force = .27389D-02 SwitMx=.10000D-02 MixMth= 1
 Mixed Optimization -- RFO/linear search
 Second derivative matrix not updated -- first step.
     Eigenvalues ---    0.00395   0.00397   0.00483   0.01040   0.01647
     Eigenvalues ---    0.02197   0.02239   0.02328   0.02357   0.02449
     Eigenvalues ---    0.03666   0.03706   0.04304   0.04881   0.04923
     Eigenvalues ---    0.05356   0.05587   0.05695   0.08151   0.08188
     Eigenvalues ---    0.09565   0.12064   0.12083   0.12828   0.16000
     Eigenvalues ---    0.16000   0.16000   0.16000   0.16000   0.16000
     Eigenvalues ---    0.21879   0.21910   0.21958   0.22684   0.23420
     Eigenvalues ---    0.24995   0.29604   0.29616   0.30230   0.33987
     Eigenvalues ---    0.34005   0.34072   0.34089   0.34109   0.34121
     Eigenvalues ---    0.34279   0.34285   0.34289   0.35711   0.35727
     Eigenvalues ---    0.35899   0.38345   0.44051   0.46784   0.51007
     Eigenvalues ---    0.51322   0.609211000.000001000.000001000.00000
     Eigenvalues --- 1000.000001000.000001000.000001000.000001000.00000
     Eigenvalues --- 1000.000001000.000001000.000001000.000001000.00000
     Eigenvalues --- 1000.000001000.000001000.000001000.000001000.00000
     Eigenvalues --- 1000.000001000.000001000.000001000.000001000.00000
     Eigenvalues --- 1000.000001000.000001000.000001000.000001000.00000
     Eigenvalues --- 1000.000001000.000001000.000001000.000001000.00000
     Eigenvalues --- 1000.000001000.000001000.000001000.000001000.00000
     Eigenvalues --- 1000.000001000.000001000.000001000.000001000.00000
     Eigenvalues --- 1000.000001000.000001000.000001000.000001000.00000
     Eigenvalues --- 1000.000001000.00000
 RFO step:  Lambda=-3.19690713D-03 EMin= 3.94933778D-03
 Linear search not attempted -- first point.
 Iteration  1 RMS(Cart)=  0.03561405 RMS(Int)=  0.00020622
 Iteration  2 RMS(Cart)=  0.00031446 RMS(Int)=  0.00013134
 Iteration  3 RMS(Cart)=  0.00000011 RMS(Int)=  0.00013134
 Variable       Old X    -DE/DX   Delta X   Delta X   Delta X     New X
                                 (Linear)    (Quad)   (Total)
    R1        2.87506   0.00835   0.00000   0.02732   0.02732   2.90239
    R2        2.06853   0.00099   0.00000   0.00286   0.00286   2.07139
    R3        2.06862   0.00112   0.00000   0.00324   0.00324   2.07186
    R4        2.06845   0.00121   0.00000   0.00349   0.00349   2.07194
    R5        2.88759   0.00524   0.00000   0.01750   0.01750   2.90509
    R6        2.07147   0.00178   0.00000   0.00518   0.00518   2.07665
    R7        2.07126   0.00180   0.00000   0.00523   0.00523   2.07649
    R8        2.88737   0.00398   0.00000   0.01331   0.01331   2.90067
    R9        2.07352   0.00035   0.00000   0.00102   0.00102   2.07454
   R10        2.07322   0.00050   0.00000   0.00145   0.00145   2.07467
   R11        2.73867   0.01064   0.00000   0.02751   0.02751   2.76617
   R12        2.07208  -0.00064   0.00000  -0.00187  -0.00187   2.07022
   R13        2.07179  -0.00050   0.00000  -0.00144  -0.00144   2.07035
   R14        2.57924   0.00263   0.00000   0.00541   0.00550   2.58474
   R15        2.58201   0.01091   0.00000   0.02125   0.02131   2.60332
   R16        2.48270   0.00667   0.00000   0.01044   0.01045   2.49314
   R17        2.04536  -0.00008   0.00000  -0.00023  -0.00023   2.04513
   R18        2.59264   0.00098   0.00000   0.00150   0.00141   2.59405
   R19        2.59908   0.00213   0.00000   0.00400   0.00394   2.60302
   R20        2.04510  -0.00000   0.00000  -0.00001  -0.00001   2.04510
   R21        2.04239  -0.00062   0.00000  -0.00171  -0.00171   2.04068
    A1        1.92384   0.00319   0.00000   0.02221   0.02212   1.94596
    A2        1.93850   0.00059   0.00000   0.00223   0.00219   1.94069
    A3        1.93801   0.00068   0.00000   0.00284   0.00280   1.94081
    A4        1.88559  -0.00167   0.00000  -0.00773  -0.00781   1.87778
    A5        1.88564  -0.00171   0.00000  -0.00790  -0.00799   1.87765
    A6        1.89053  -0.00127   0.00000  -0.01277  -0.01277   1.87776
    A7        1.94845   0.00470   0.00000   0.02658   0.02649   1.97494
    A8        1.90405  -0.00059   0.00000   0.00493   0.00498   1.90903
    A9        1.90310  -0.00053   0.00000   0.00602   0.00605   1.90915
   A10        1.91813  -0.00185   0.00000  -0.01079  -0.01102   1.90711
   A11        1.91666  -0.00184   0.00000  -0.01012  -0.01039   1.90628
   A12        1.87175  -0.00007   0.00000  -0.01823  -0.01838   1.85337
   A13        1.94443   0.00550   0.00000   0.02705   0.02706   1.97149
   A14        1.91289  -0.00079   0.00000   0.00374   0.00385   1.91674
   A15        1.91484  -0.00105   0.00000   0.00118   0.00128   1.91612
   A16        1.91474  -0.00250   0.00000  -0.01557  -0.01576   1.89898
   A17        1.91437  -0.00229   0.00000  -0.01433  -0.01449   1.89988
   A18        1.86070   0.00091   0.00000  -0.00350  -0.00370   1.85700
   A19        1.95580   0.00552   0.00000   0.03021   0.03019   1.98599
   A20        1.93751  -0.00247   0.00000  -0.01676  -0.01713   1.92039
   A21        1.93723  -0.00227   0.00000  -0.01576  -0.01610   1.92113
   A22        1.87560  -0.00047   0.00000   0.00954   0.00965   1.88525
   A23        1.87614  -0.00072   0.00000   0.00703   0.00714   1.88329
   A24        1.87814   0.00034   0.00000  -0.01449  -0.01486   1.86329
   A25        2.19685   0.00474   0.00000   0.01866   0.01844   2.21529
   A26        2.20581   0.00402   0.00000   0.01580   0.01558   2.22139
   A27        1.88042  -0.00875   0.00000  -0.03403  -0.03402   1.84640
   A28        1.94388   0.00581   0.00000   0.02580   0.02589   1.96977
   A29        2.14863  -0.00502   0.00000  -0.02583  -0.02588   2.12275
   A30        2.19067  -0.00079   0.00000   0.00004  -0.00002   2.19066
   A31        1.83692  -0.00127   0.00000  -0.00747  -0.00755   1.82937
   A32        1.93381  -0.00115   0.00000  -0.00740  -0.00751   1.92630
   A33        2.11616   0.00057   0.00000   0.00365   0.00371   2.11987
   A34        2.23321   0.00058   0.00000   0.00375   0.00380   2.23701
   A35        1.82970   0.00536   0.00000   0.02321   0.02323   1.85293
   A36        2.14685  -0.00442   0.00000  -0.02224  -0.02225   2.12460
   A37        2.30663  -0.00094   0.00000  -0.00096  -0.00097   2.30566
    D1       -3.13764  -0.00003   0.00000  -0.00168  -0.00168  -3.13932
    D2        1.02223  -0.00036   0.00000  -0.00878  -0.00885   1.01338
    D3       -1.01680   0.00035   0.00000   0.00691   0.00699  -1.00982
    D4        1.05627  -0.00040   0.00000  -0.00797  -0.00800   1.04828
    D5       -1.06705  -0.00073   0.00000  -0.01507  -0.01516  -1.08221
    D6       -3.10608  -0.00002   0.00000   0.00062   0.00067  -3.10540
    D7       -1.04862   0.00035   0.00000   0.00478   0.00480  -1.04382
    D8        3.11124   0.00002   0.00000  -0.00232  -0.00236   3.10888
    D9        1.07221   0.00073   0.00000   0.01337   0.01347   1.08569
   D10       -3.13772  -0.00000   0.00000   0.00082   0.00084  -3.13688
   D11        1.02304   0.00006   0.00000   0.00007   0.00001   1.02305
   D12       -1.01443   0.00003   0.00000   0.00146   0.00151  -1.01292
   D13       -1.02256   0.00110   0.00000   0.01732   0.01724  -1.00532
   D14        3.13820   0.00116   0.00000   0.01657   0.01642  -3.12857
   D15        1.10073   0.00113   0.00000   0.01796   0.01791   1.11864
   D16        1.03250  -0.00119   0.00000  -0.01742  -0.01731   1.01519
   D17       -1.08993  -0.00113   0.00000  -0.01817  -0.01813  -1.10806
   D18       -3.12740  -0.00116   0.00000  -0.01678  -0.01664   3.13915
   D19       -3.12576  -0.00005   0.00000  -0.00613  -0.00613  -3.13190
   D20        1.06012  -0.00149   0.00000  -0.02724  -0.02705   1.03307
   D21       -1.02796   0.00121   0.00000   0.01246   0.01229  -1.01568
   D22       -1.00441   0.00089   0.00000   0.00587   0.00575  -0.99866
   D23       -3.10171  -0.00055   0.00000  -0.01523  -0.01516  -3.11688
   D24        1.09339   0.00215   0.00000   0.02446   0.02417   1.11756
   D25        1.03386  -0.00080   0.00000  -0.01577  -0.01566   1.01820
   D26       -1.06344  -0.00224   0.00000  -0.03687  -0.03658  -1.10002
   D27        3.13166   0.00047   0.00000   0.00283   0.00276   3.13442
   D28        1.59177  -0.00006   0.00000  -0.00056  -0.00078   1.59099
   D29       -1.56772   0.00058   0.00000   0.03449   0.03467  -1.53305
   D30       -2.55841  -0.00000   0.00000   0.00393   0.00388  -2.55453
   D31        0.56528   0.00064   0.00000   0.03899   0.03933   0.60461
   D32       -0.54124  -0.00021   0.00000  -0.00462  -0.00495  -0.54619
   D33        2.58245   0.00044   0.00000   0.03044   0.03051   2.61296
   D34        3.13551   0.00039   0.00000   0.01892   0.01878  -3.12889
   D35       -0.00786   0.00052   0.00000   0.02412   0.02394   0.01609
   D36        0.00905  -0.00024   0.00000  -0.01105  -0.01086  -0.00181
   D37       -3.13432  -0.00011   0.00000  -0.00585  -0.00570  -3.14002
   D38       -3.13534  -0.00042   0.00000  -0.01977  -0.01958   3.12827
   D39        0.00965  -0.00050   0.00000  -0.02321  -0.02299  -0.01334
   D40       -0.00897   0.00022   0.00000   0.01042   0.01023   0.00126
   D41        3.13601   0.00014   0.00000   0.00699   0.00682  -3.14035
   D42       -0.00495   0.00011   0.00000   0.00646   0.00650   0.00155
   D43        3.13847  -0.00001   0.00000   0.00114   0.00113   3.13960
   D44       -0.00095  -0.00001   0.00000   0.00025   0.00026  -0.00069
   D45       -3.14054   0.00008   0.00000   0.00204   0.00206  -3.13847
   D46        0.00626  -0.00011   0.00000  -0.00664  -0.00664  -0.00038
   D47       -3.13917  -0.00003   0.00000  -0.00281  -0.00279   3.14123
   D48       -3.13751  -0.00021   0.00000  -0.00859  -0.00859   3.13708
   D49        0.00025  -0.00013   0.00000  -0.00476  -0.00474  -0.00449
         Item               Value     Threshold  Converged?
 Maximum Force            0.010908     0.000450     NO 
 RMS     Force            0.002739     0.000300     NO 
 Maximum Displacement     0.099950     0.001800     NO 
 RMS     Displacement     0.035536     0.001200     NO 
 Predicted change in Energy=-1.632027D-03
 GradGradGradGradGradGradGradGradGradGradGradGradGradGradGradGradGradGrad

 Leave Link  103 at Mon Oct  4 21:58:34 2021, MaxMem=  805306368 cpu:       2.2
 (Enter /sw/target/amd/app/gaussian/Gaussian09RevA.02_gcc-4.9.2/g09/l202.exe)
                          Input orientation:                          
 ---------------------------------------------------------------------
 Center     Atomic      Atomic             Coordinates (Angstroms)
 Number     Number       Type             X           Y           Z
 ---------------------------------------------------------------------
      1          6           0        0.982747   -0.098906   -0.245198
      2          6           0        2.513393   -0.060809   -0.124415
      3          6           0        2.999501    0.297933    1.289203
      4          6           0        4.529623    0.341171    1.403167
      5          7           0        5.012696    0.668660    2.745588
      6          6           0        5.315748   -0.211886    3.747406
      7          7           0        5.714144    0.387255    4.853255
      8          6           0        5.668042    1.727973    4.562234
      9          6           0        5.237956    1.923200    3.268284
     10          1           0        0.666434   -0.359149   -1.261921
     11          1           0        0.541446    0.874282    0.000185
     12          1           0        0.549569   -0.840447    0.436431
     13          1           0        2.917847    0.666212   -0.842382
     14          1           0        2.926387   -1.037635   -0.411953
     15          1           0        2.611260   -0.430952    2.012503
     16          1           0        2.593949    1.274318    1.585024
     17          1           0        4.937003    1.081901    0.706386
     18          1           0        4.955369   -0.627485    1.119001
     19          1           0        5.228518   -1.281599    3.608344
     20          1           0        5.948347    2.474674    5.293717
     21          1           0        5.075787    2.818376    2.686474
 ---------------------------------------------------------------------
                    Distance matrix (angstroms):
                    1          2          3          4          5
     1  C    0.000000
     2  C    1.535877   0.000000
     3  C    2.564988   1.537306   0.000000
     4  C    3.935874   2.561304   1.534969   0.000000
     5  N    5.076853   3.874991   2.512260   1.463797   0.000000
     6  C    5.893093   4.781947   3.415798   2.533637   1.367787
     7  N    6.972566   5.934877   4.481041   3.648056   2.239080
     8  C    6.957074   5.925895   4.458571   3.633031   2.202686
     9  C    5.877097   4.782253   3.401314   2.546215   1.377615
    10  H    1.096132   2.189563   3.518976   4.745248   6.000542
    11  H    1.096382   2.185977   2.834745   4.261235   5.250866
    12  H    1.096423   2.186090   2.832896   4.262820   5.246819
    13  H    2.164866   1.098917   2.164705   2.783158   4.154747
    14  H    2.164891   1.098832   2.164028   2.786779   4.151409
    15  H    2.803484   2.170945   1.097801   2.155825   2.741068
    16  H    2.798469   2.170539   1.097867   2.156542   2.750285
    17  H    4.235086   2.805335   2.169837   1.095511   2.082028
    18  H    4.233457   2.798294   2.170434   1.095583   2.080640
    19  H    5.854495   4.774486   3.583553   2.825710   2.143464
    20  H    7.871472   6.898096   5.428630   4.658432   3.260382
    21  H    5.818780   4.770395   3.551896   2.842836   2.151454
                    6          7          8          9         10
     6  C    0.000000
     7  N    1.319315   0.000000
     8  C    2.133333   1.372714   0.000000
     9  C    2.189567   2.257878   1.377459   0.000000
    10  H    6.836020   7.964413   7.955686   6.828666   0.000000
    11  H    6.165662   7.109591   6.915422   5.817036   1.769147
    12  H    5.837303   6.905681   7.058173   6.134991   1.769096
    13  H    5.252346   6.351171   6.156361   4.884721   2.509231
    14  H    4.867358   6.125710   6.317262   5.258711   2.508023
    15  H    3.220580   4.285700   4.528355   3.744135   3.809115
    16  H    3.780594   4.604761   4.303444   3.200810   3.806393
    17  H    3.326430   4.275863   3.977359   2.713241   4.918193
    18  H    2.685351   3.943360   4.232249   3.347426   4.912816
    19  H    1.082235   2.137922   3.187571   3.222804   6.736691
    20  H    3.163679   2.146200   1.082220   2.216113   8.882879
    21  H    3.219573   3.318552   2.249049   1.079881   6.717803
                   11         12         13         14         15
    11  H    0.000000
    12  H    1.769370   0.000000
    13  H    2.529920   3.084497   0.000000
    14  H    3.084352   2.531384   1.757395   0.000000
    15  H    3.168152   2.627216   3.073781   2.518999   0.000000
    16  H    2.623836   3.157687   2.523292   3.073038   1.758120
    17  H    4.456764   4.797695   2.578463   3.128209   3.066553
    18  H    4.794765   4.463444   3.110011   2.574648   2.516310
    19  H    6.295655   5.669940   5.379788   4.639193   3.181249
    20  H    7.734165   7.983111   7.078571   7.350050   5.508645
    21  H    5.617464   6.239898   4.662761   5.393421   4.133553
                   16         17         18         19         20
    16  H    0.000000
    17  H    2.509767   0.000000
    18  H    3.067628   1.758576   0.000000
    19  H    4.191359   3.753994   2.588301   0.000000
    20  H    5.142688   4.899616   5.295059   4.179500   0.000000
    21  H    3.123592   2.637300   3.787536   4.205112   2.770778
                   21
    21  H    0.000000
 Stoichiometry    C7H12N2
 Framework group  C1[X(C7H12N2)]
 Deg. of freedom    57
 Full point group                 C1      NOp   1
 Largest Abelian subgroup         C1      NOp   1
 Largest concise Abelian subgroup C1      NOp   1
                         Standard orientation:                         
 ---------------------------------------------------------------------
 Center     Atomic      Atomic             Coordinates (Angstroms)
 Number     Number       Type             X           Y           Z
 ---------------------------------------------------------------------
      1          6           0        3.953278    0.056934   -0.687828
      2          6           0        2.860453   -0.037734    0.387201
      3          6           0        1.437187    0.026062   -0.190341
      4          6           0        0.348788   -0.062303    0.888412
      5          7           0       -1.014360   -0.016204    0.356997
      6          6           0       -1.789136   -1.081439   -0.011568
      7          7           0       -2.972403   -0.720327   -0.469901
      8          6           0       -2.972442    0.650608   -0.400039
      9          6           0       -1.774805    1.104890    0.106603
     10          1           0        4.955650    0.006465   -0.247135
     11          1           0        3.882528    0.999711   -1.243004
     12          1           0        3.868518   -0.761464   -1.412524
     13          1           0        2.993336    0.774996    1.114821
     14          1           0        2.981356   -0.974490    0.948718
     15          1           0        1.290156   -0.790622   -0.909074
     16          1           0        1.305417    0.960366   -0.751612
     17          1           0        0.461661    0.759874    1.603555
     18          1           0        0.457412   -0.992566    1.456845
     19          1           0       -1.434869   -2.099835    0.081151
     20          1           0       -3.829942    1.232058   -0.712783
     21          1           0       -1.403828    2.099108    0.306728
 ---------------------------------------------------------------------
 Rotational constants (GHZ):      5.3399337      0.6624075      0.6446253
 Leave Link  202 at Mon Oct  4 21:58:34 2021, MaxMem=  805306368 cpu:       0.0
 (Enter /sw/target/amd/app/gaussian/Gaussian09RevA.02_gcc-4.9.2/g09/l301.exe)
 Standard basis: 6-31G(d) (6D, 7F)
 Ernie: Thresh=  0.10000D-02 Tol=  0.10000D-05 Strict=F.
 There are   159 symmetry adapted basis functions of A   symmetry.
 Integral buffers will be    131072 words long.
 Raffenetti 2 integral format.
 Two-electron integral symmetry is turned on.
   159 basis functions,   300 primitive gaussians,   159 cartesian basis functions
    34 alpha electrons       34 beta electrons
       nuclear repulsion energy       430.9695767164 Hartrees.
 IExCor=  402 DFT=T Ex+Corr=B3LYP ExCW=0 ScaHFX=  0.200000
 ScaDFX=  0.800000  0.720000  1.000000  0.810000 ScalE2=  1.000000  1.000000
 IRadAn=      0 IRanWt=     -1 IRanGd=            0 ICorTp=0
 NAtoms=   21 NActive=   21 NUniq=   21 SFac= 7.50D-01 NAtFMM=   80 NAOKFM=F Big=F
 Leave Link  301 at Mon Oct  4 21:58:35 2021, MaxMem=  805306368 cpu:       0.1
 (Enter /sw/target/amd/app/gaussian/Gaussian09RevA.02_gcc-4.9.2/g09/l302.exe)
 NPDir=0 NMtPBC=     1 NCelOv=     1 NCel=       1 NClECP=     1 NCelD=      1
         NCelK=      1 NCelE2=     1 NClLst=     1 CellRange=     0.0.
 One-electron integrals computed using PRISM.
 NBasis=   159 RedAO= T  NBF=   159
 NBsUse=   159 1.00D-06 NBFU=   159
 Precomputing XC quadrature grid using
 IXCGrd= 2 IRadAn=           0 IRanWt=          -1 IRanGd=           0 AccXCQ= 1.00D-10.
 NRdTot=    1323 NPtTot=      168386 NUsed=      177933 NTot=      177965
 NSgBfM=   159   159   159   159   159 NAtAll=    21    21.
 Leave Link  302 at Mon Oct  4 21:58:36 2021, MaxMem=  805306368 cpu:       1.2
 (Enter /sw/target/amd/app/gaussian/Gaussian09RevA.02_gcc-4.9.2/g09/l303.exe)
 DipDrv:  MaxL=1.
 Leave Link  303 at Mon Oct  4 21:58:37 2021, MaxMem=  805306368 cpu:       0.1
 (Enter /sw/target/amd/app/gaussian/Gaussian09RevA.02_gcc-4.9.2/g09/l401.exe)
 Initial guess read from the read-write file.
 B after Tr=     0.000000    0.000000    0.000000
         Rot=    1.000000    0.000000    0.000000    0.000000 Ang=   0.00 deg.
 Guess basis will be translated and rotated to current coordinates.
 Initial guess orbital symmetries:
       Occupied  (A) (A) (A) (A) (A) (A) (A) (A) (A) (A) (A) (A)
                 (A) (A) (A) (A) (A) (A) (A) (A) (A) (A) (A) (A)
                 (A) (A) (A) (A) (A) (A) (A) (A) (A) (A)
       Virtual   (A) (A) (A) (A) (A) (A) (A) (A) (A) (A) (A) (A)
                 (A) (A) (A) (A) (A) (A) (A) (A) (A) (A) (A) (A)
                 (A) (A) (A) (A) (A) (A) (A) (A) (A) (A) (A) (A)
                 (A) (A) (A) (A) (A) (A) (A) (A) (A) (A) (A) (A)
                 (A) (A) (A) (A) (A) (A) (A) (A) (A) (A) (A) (A)
                 (A) (A) (A) (A) (A) (A) (A) (A) (A) (A) (A) (A)
                 (A) (A) (A) (A) (A) (A) (A) (A) (A) (A) (A) (A)
                 (A) (A) (A) (A) (A) (A) (A) (A) (A) (A) (A) (A)
                 (A) (A) (A) (A) (A) (A) (A) (A) (A) (A) (A) (A)
                 (A) (A) (A) (A) (A) (A) (A) (A) (A) (A) (A) (A)
                 (A) (A) (A) (A) (A)
 The electronic state of the initial guess is 1-A.
 Generating alternative initial guess.
 Harris functional with IExCor=  402 diagonalized for initial guess.
 ExpMin= 1.61D-01 ExpMax= 4.17D+03 ExpMxC= 6.27D+02 IAcc=1 IRadAn=         1 AccDes= 0.00D+00
 HarFok:  IExCor=  402 AccDes= 0.00D+00 IRadAn=         1 IDoV= 1
 ScaDFX=  1.000000  1.000000  1.000000  1.000000
 FoFCou: FMM=F IPFlag=           0 FMFlag=      100000 FMFlg1=           0
         NFxFlg=           0 DoJE=T BraDBF=F KetDBF=T FulRan=T
         Omega=  0.000000  0.000000  1.000000  0.000000  0.000000 ICntrl=     500 IOpCl=  0
         NMat0=    1 NMatS0=    1 NMatT0=    0 NMatD0=    1 NMtDS0=    0 NMtDT0=    0
         I1Cent=           4 NGrid=           0.
 Petite list used in FoFCou.
 Harris En= -383.539820727131    
 Leave Link  401 at Mon Oct  4 21:58:42 2021, MaxMem=  805306368 cpu:       5.7
 (Enter /sw/target/amd/app/gaussian/Gaussian09RevA.02_gcc-4.9.2/g09/l502.exe)
 Closed shell SCF:
 Requested convergence on RMS density matrix=1.00D-08 within  64 cycles.
 Requested convergence on MAX density matrix=1.00D-06.
 Requested convergence on             energy=1.00D-06.
 No special actions if energy rises.
 Using DIIS extrapolation, IDIIS=  1040.
 Integral symmetry usage will be decided dynamically.
       177731 words used for storage of precomputed grid.
 Keep R1 ints in memory in canonical form, NReq=83214775.
 IEnd=      261281 IEndB=      261281 NGot=   805306368 MDV=   724169164
 LenX=   724169164 LenY=   724143442
 Symmetry not used in FoFDir.
 MinBra= 0 MaxBra= 2 Meth= 1.
 IRaf=       0 NMat=   1 IRICut=       1 DoRegI=T DoRafI=F ISym2E= 0 JSym2E=0.
 Integral accuracy reduced to 1.0D-05 until final iterations.

 Cycle   1  Pass 0  IDiag  1:
 E= -383.467705472179    
 DIIS: error= 2.72D-03 at cycle   1 NSaved=   1.
 NSaved= 1 IEnMin= 1 EnMin= -383.467705472179     IErMin= 1 ErrMin= 2.72D-03
 ErrMax= 2.72D-03 EMaxC= 1.00D-01 BMatC= 1.83D-03 BMatP= 1.83D-03
 IDIUse=3 WtCom= 9.73D-01 WtEn= 2.72D-02
 Coeff-Com:  0.100D+01
 Coeff-En:   0.100D+01
 Coeff:      0.100D+01
 Gap=     0.255 Goal=   None    Shift=    0.000
 GapD=    0.255 DampG=1.000 DampE=1.000 DampFc=1.0000 IDamp=-1.
 RMSDP=4.35D-04 MaxDP=6.99D-03              OVMax= 1.24D-02

 Cycle   2  Pass 0  IDiag  1:
 E= -383.471148244889     Delta-E=       -0.003442772710 Rises=F Damp=F
 DIIS: error= 4.61D-04 at cycle   2 NSaved=   2.
 NSaved= 2 IEnMin= 2 EnMin= -383.471148244889     IErMin= 2 ErrMin= 4.61D-04
 ErrMax= 4.61D-04 EMaxC= 1.00D-01 BMatC= 4.15D-05 BMatP= 1.83D-03
 IDIUse=3 WtCom= 9.95D-01 WtEn= 4.61D-03
 Coeff-Com: -0.396D-01 0.104D+01
 Coeff-En:   0.000D+00 0.100D+01
 Coeff:     -0.395D-01 0.104D+01
 Gap=     0.250 Goal=   None    Shift=    0.000
 RMSDP=8.68D-05 MaxDP=1.58D-03 DE=-3.44D-03 OVMax= 3.09D-03

 Cycle   3  Pass 0  IDiag  1:
 E= -383.471156356533     Delta-E=       -0.000008111643 Rises=F Damp=F
 DIIS: error= 4.23D-04 at cycle   3 NSaved=   3.
 NSaved= 3 IEnMin= 3 EnMin= -383.471156356533     IErMin= 3 ErrMin= 4.23D-04
 ErrMax= 4.23D-04 EMaxC= 1.00D-01 BMatC= 5.13D-05 BMatP= 4.15D-05
 IDIUse=3 WtCom= 3.27D-01 WtEn= 6.73D-01
 Coeff-Com: -0.411D-01 0.570D+00 0.471D+00
 Coeff-En:   0.000D+00 0.448D+00 0.552D+00
 Coeff:     -0.135D-01 0.488D+00 0.525D+00
 Gap=     0.251 Goal=   None    Shift=    0.000
 RMSDP=5.95D-05 MaxDP=1.47D-03 DE=-8.11D-06 OVMax= 3.12D-03

 Cycle   4  Pass 0  IDiag  1:
 E= -383.471197282895     Delta-E=       -0.000040926362 Rises=F Damp=F
 DIIS: error= 2.68D-04 at cycle   4 NSaved=   4.
 NSaved= 4 IEnMin= 4 EnMin= -383.471197282895     IErMin= 4 ErrMin= 2.68D-04
 ErrMax= 2.68D-04 EMaxC= 1.00D-01 BMatC= 1.05D-05 BMatP= 4.15D-05
 IDIUse=3 WtCom= 9.97D-01 WtEn= 2.68D-03
 Coeff-Com: -0.199D-01 0.230D+00 0.344D+00 0.446D+00
 Coeff-En:   0.000D+00 0.000D+00 0.172D+00 0.828D+00
 Coeff:     -0.198D-01 0.229D+00 0.343D+00 0.447D+00
 Gap=     0.251 Goal=   None    Shift=    0.000
 RMSDP=2.20D-05 MaxDP=6.48D-04 DE=-4.09D-05 OVMax= 1.35D-03

 Cycle   5  Pass 0  IDiag  1:
 E= -383.471207054679     Delta-E=       -0.000009771784 Rises=F Damp=F
 DIIS: error= 4.44D-05 at cycle   5 NSaved=   5.
[...]
    16  H   -0.000019  -0.000260   0.006246  -0.000081   0.004679  -0.000367
    17  H   -0.000146  -0.000031   0.003582   0.000019   0.000001   0.000004
    18  H    0.000054  -0.000305   0.005001   0.000014   0.000007  -0.000002
    19  H   -0.040516   0.004718   0.005996   0.000000   0.000000   0.000000
    20  H   -0.040271   0.367511  -0.033267   0.000000  -0.000000  -0.000000
    21  H    0.003542  -0.042080   0.377967   0.000000   0.000000  -0.000000
             13         14         15         16         17         18
     1  C   -0.039609  -0.039440  -0.002998  -0.002766  -0.000169  -0.000095
     2  C    0.372739   0.374270  -0.036886  -0.038771  -0.001071  -0.002235
     3  C   -0.043210  -0.043071   0.373118   0.374974  -0.067799  -0.056530
     4  C   -0.004791  -0.004675  -0.037295  -0.038235   0.326779   0.336515
     5  N    0.000097   0.000103  -0.003182  -0.005479  -0.054441  -0.038731
     6  C   -0.000003  -0.000028   0.004164   0.000465   0.005995  -0.002391
     7  N    0.000000   0.000000  -0.000148  -0.000019  -0.000146   0.000054
     8  C   -0.000000   0.000000  -0.000098  -0.000260  -0.000031  -0.000305
     9  C   -0.000020  -0.000001   0.000648   0.006246   0.003582   0.005001
    10  H   -0.001981  -0.002073  -0.000056  -0.000081   0.000019   0.000014
    11  H   -0.004482   0.005200  -0.000384   0.004679   0.000001   0.000007
    12  H    0.005166  -0.004550   0.004569  -0.000367   0.000004  -0.000002
    13  H    0.615984  -0.038405   0.005459  -0.005883   0.007964   0.000410
    14  H   -0.038405   0.614615  -0.005746   0.005481   0.000469   0.006926
    15  H    0.005459  -0.005746   0.595283  -0.036427   0.004834  -0.006684
    16  H   -0.005883   0.005481  -0.036427   0.601323  -0.007749   0.004655
    17  H    0.007964   0.000469   0.004834  -0.007749   0.652106  -0.012475
    18  H    0.000410   0.006926  -0.006684   0.004655  -0.012475   0.620044
    19  H    0.000002   0.000008   0.000101  -0.000009   0.000361   0.006554
    20  H    0.000000   0.000000  -0.000000   0.000001   0.000005   0.000006
    21  H    0.000014   0.000002   0.000003   0.000562   0.004607   0.000146
             19         20         21
     1  C    0.000000   0.000000   0.000000
     2  C   -0.000002  -0.000000  -0.000020
     3  C   -0.000390   0.000001  -0.000175
     4  C   -0.002810  -0.000159  -0.003031
     5  N   -0.043668   0.003844  -0.044806
     6  C    0.372156   0.005778   0.004758
     7  N   -0.040516  -0.040271   0.003542
     8  C    0.004718   0.367511  -0.042080
     9  C    0.005996  -0.033267   0.377967
    10  H    0.000000   0.000000   0.000000
    11  H    0.000000  -0.000000   0.000000
    12  H    0.000000  -0.000000  -0.000000
    13  H    0.000002   0.000000   0.000014
    14  H    0.000008   0.000000   0.000002
    15  H    0.000101  -0.000000   0.000003
    16  H   -0.000009   0.000001   0.000562
    17  H    0.000361   0.000005   0.004607
    18  H    0.006554   0.000006   0.000146
    19  H    0.554735  -0.000192  -0.000161
    20  H   -0.000192   0.544104  -0.000943
    21  H   -0.000161  -0.000943   0.553306
 Mulliken atomic charges:
              1
     1  C   -0.440129
     2  C   -0.251635
     3  C   -0.243774
     4  C   -0.140077
     5  N   -0.374362
     6  C    0.143033
     7  N   -0.326379
     8  C   -0.021035
     9  C   -0.035970
    10  H    0.142392
    11  H    0.143510
    12  H    0.144304
    13  H    0.130548
    14  H    0.130913
    15  H    0.141723
    16  H    0.137658
    17  H    0.137154
    18  H    0.139117
    19  H    0.143116
    20  H    0.153583
    21  H    0.146308
 Sum of Mulliken atomic charges =  -0.00000
 Mulliken charges with hydrogens summed into heavy atoms:
              1
     1  C   -0.009924
     2  C    0.009826
     3  C    0.035607
     4  C    0.136195
     5  N   -0.374362
     6  C    0.286149
     7  N   -0.326379
     8  C    0.132549
     9  C    0.110338
 Sum of Mulliken charges with hydrogens summed into heavy atoms =  -0.00000
 Electronic spatial extent (au):  <R**2>=           1793.2926
 Charge=              0.0000 electrons
 Dipole moment (field-independent basis, Debye):
    X=              1.1374    Y=              0.1260    Z=              0.3577  Tot=              1.1990
 Quadrupole moment (field-independent basis, Debye-Ang):
   XX=            -55.9768   YY=            -52.1152   ZZ=            -57.4604
   XY=             -1.9503   XZ=              1.3535   YZ=              0.9310
 Traceless Quadrupole moment (field-independent basis, Debye-Ang):
   XX=             -0.7927   YY=              3.0690   ZZ=             -2.2763
   XY=             -1.9503   XZ=              1.3535   YZ=              0.9310
 Octapole moment (field-independent basis, Debye-Ang**2):
  XXX=             -8.4448  YYY=             -1.4343  ZZZ=              0.5526  XYY=             -5.9471
  XXY=              7.7664  XXZ=             -4.3727  XZZ=              3.7823  YZZ=             -0.5486
  YYZ=              0.3372  XYZ=              0.1482
 Hexadecapole moment (field-independent basis, Debye-Ang**3):
 XXXX=          -2012.4335 YYYY=           -222.7071 ZZZZ=           -172.7759 XXXY=            -39.6366
 XXXZ=             31.5107 YYYX=              0.4331 YYYZ=              5.2067 ZZZX=              0.8281
 ZZZY=              1.8260 XXYY=           -364.3694 XXZZ=           -381.8853 YYZZ=            -70.2875
 XXYZ=             -0.9150 YYXZ=              3.5394 ZZXY=              0.8102
 N-N= 4.319373812799D+02 E-N=-1.752164955629D+03  KE= 3.798256639265D+02
 No NMR shielding tensors so no spin-rotation constants.
 Leave Link  601 at Tue Oct  5 00:12:38 2021, MaxMem=  805306368 cpu:       0.6
 (Enter /sw/target/amd/app/gaussian/Gaussian09RevA.02_gcc-4.9.2/g09/l604.exe)
 Evaluate density.
 Using the total density.
 Monte-Carlo method of calculating molar volume:
 based on  0.001 e/bohr**3 density envelope.
 Number of points per bohr**3 =   20 CutOff= 1.00D-04
 Using the CI density.
 There are       381 points.  Will hold       381 in memory.
 LenV=   805218825 MDV=   805306368.
 Box volume = 6953.423 fraction occupied=0.184
 Integrated density= 4.9483690704055924D+01 error=-1.8516309295944076D+01
 Molar volume = 1277.532 bohr**3/mol (114.006 cm**3/mol)
 Recommended a0 for SCRF calculation =  4.42 angstrom (  8.35 bohr)
 Leave Link  604 at Tue Oct  5 00:12:47 2021, MaxMem=  805306368 cpu:       0.2
 (Enter /sw/target/amd/app/gaussian/Gaussian09RevA.02_gcc-4.9.2/g09/l607.exe)
 ******************************Gaussian NBO Version 3.1******************************
             N A T U R A L   A T O M I C   O R B I T A L   A N D
          N A T U R A L   B O N D   O R B I T A L   A N A L Y S I S
 ******************************Gaussian NBO Version 3.1******************************
       /RESON  / : Allow strongly delocalized NBO set

 Analyzing the CI density

 Job title: CCCCn1cncc1_conf_0                                              

 Storage needed:     77346 in NPA ( 805303953 available)


 NATURAL POPULATIONS:  Natural atomic orbital occupancies 
                                                          
   NAO  Atom  No  lang   Type(AO)    Occupancy
 --------------------------------------------
     1    C    1  S      Cor( 1S)     1.99947
     2    C    1  S      Val( 2S)     1.10163
     3    C    1  S      Ryd( 3S)     0.00032
     4    C    1  S      Ryd( 4S)     0.00001
     5    C    1  px     Val( 2p)     1.16373
     6    C    1  px     Ryd( 3p)     0.00169
     7    C    1  py     Val( 2p)     1.22290
     8    C    1  py     Ryd( 3p)     0.00110
     9    C    1  pz     Val( 2p)     1.17631
    10    C    1  pz     Ryd( 3p)     0.00110
    11    C    1  dxy    Ryd( 3d)     0.00022
    12    C    1  dxz    Ryd( 3d)     0.00053
    13    C    1  dyz    Ryd( 3d)     0.00055
    14    C    1  dx2y2  Ryd( 3d)     0.00116
    15    C    1  dz2    Ryd( 3d)     0.00086

    16    C    2  S      Cor( 1S)     1.99935
    17    C    2  S      Val( 2S)     1.03530
    18    C    2  S      Ryd( 3S)     0.00081
    19    C    2  S      Ryd( 4S)     0.00002
    20    C    2  px     Val( 2p)     1.03547
    21    C    2  px     Ryd( 3p)     0.00154
    22    C    2  py     Val( 2p)     1.21535
    23    C    2  py     Ryd( 3p)     0.00238
    24    C    2  pz     Val( 2p)     1.16288
    25    C    2  pz     Ryd( 3p)     0.00160
    26    C    2  dxy    Ryd( 3d)     0.00036
    27    C    2  dxz    Ryd( 3d)     0.00056
    28    C    2  dyz    Ryd( 3d)     0.00059
    29    C    2  dx2y2  Ryd( 3d)     0.00109
    30    C    2  dz2    Ryd( 3d)     0.00093

    31    C    3  S      Cor( 1S)     1.99932
    32    C    3  S      Val( 2S)     1.04246
    33    C    3  S      Ryd( 3S)     0.00100
    34    C    3  S      Ryd( 4S)     0.00002
    35    C    3  px     Val( 2p)     1.03152
    36    C    3  px     Ryd( 3p)     0.00194
    37    C    3  py     Val( 2p)     1.22032
    38    C    3  py     Ryd( 3p)     0.00284
    39    C    3  pz     Val( 2p)     1.16319
    40    C    3  pz     Ryd( 3p)     0.00193
    41    C    3  dxy    Ryd( 3d)     0.00038
    42    C    3  dxz    Ryd( 3d)     0.00065
    43    C    3  dyz    Ryd( 3d)     0.00060
    44    C    3  dx2y2  Ryd( 3d)     0.00100
    45    C    3  dz2    Ryd( 3d)     0.00086

    46    C    4  S      Cor( 1S)     1.99932
    47    C    4  S      Val( 2S)     1.00708
    48    C    4  S      Ryd( 3S)     0.00170
    49    C    4  S      Ryd( 4S)     0.00003
    50    C    4  px     Val( 2p)     0.85230
    51    C    4  px     Ryd( 3p)     0.00249
    52    C    4  py     Val( 2p)     1.22276
    53    C    4  py     Ryd( 3p)     0.00548
    54    C    4  pz     Val( 2p)     1.14022
    55    C    4  pz     Ryd( 3p)     0.00185
    56    C    4  dxy    Ryd( 3d)     0.00044
    57    C    4  dxz    Ryd( 3d)     0.00124
    58    C    4  dyz    Ryd( 3d)     0.00065
    59    C    4  dx2y2  Ryd( 3d)     0.00162
    60    C    4  dz2    Ryd( 3d)     0.00121

    61    N    5  S      Cor( 1S)     1.99933
    62    N    5  S      Val( 2S)     1.17455
    63    N    5  S      Ryd( 3S)     0.00066
    64    N    5  S      Ryd( 4S)     0.00001
    65    N    5  px     Val( 2p)     1.34235
    66    N    5  px     Ryd( 3p)     0.00260
    67    N    5  py     Val( 2p)     1.31264
    68    N    5  py     Ryd( 3p)     0.00253
    69    N    5  pz     Val( 2p)     1.57173
    70    N    5  pz     Ryd( 3p)     0.00471
    71    N    5  dxy    Ryd( 3d)     0.00076
    72    N    5  dxz    Ryd( 3d)     0.00080
    73    N    5  dyz    Ryd( 3d)     0.00063
    74    N    5  dx2y2  Ryd( 3d)     0.00063
    75    N    5  dz2    Ryd( 3d)     0.00079

    76    C    6  S      Cor( 1S)     1.99930
    77    C    6  S      Val( 2S)     0.88096
    78    C    6  S      Ryd( 3S)     0.00301
    79    C    6  S      Ryd( 4S)     0.00010
    80    C    6  px     Val( 2p)     0.86150
    81    C    6  px     Ryd( 3p)     0.00974
    82    C    6  py     Val( 2p)     1.07906
    83    C    6  py     Ryd( 3p)     0.00426
    84    C    6  pz     Val( 2p)     1.15748
    85    C    6  pz     Ryd( 3p)     0.01316
    86    C    6  dxy    Ryd( 3d)     0.00145
    87    C    6  dxz    Ryd( 3d)     0.00126
    88    C    6  dyz    Ryd( 3d)     0.00105
    89    C    6  dx2y2  Ryd( 3d)     0.00148
    90    C    6  dz2    Ryd( 3d)     0.00117

    91    N    7  S      Cor( 1S)     1.99886
    92    N    7  S      Val( 2S)     1.30040
    93    N    7  S      Ryd( 3S)     0.00005
    94    N    7  S      Ryd( 4S)     0.00000
    95    N    7  px     Val( 2p)     1.20348
    96    N    7  px     Ryd( 3p)     0.00272
    97    N    7  py     Val( 2p)     1.19019
    98    N    7  py     Ryd( 3p)     0.00291
    99    N    7  pz     Val( 2p)     1.44556
   100    N    7  pz     Ryd( 3p)     0.00289
   101    N    7  dxy    Ryd( 3d)     0.00056
   102    N    7  dxz    Ryd( 3d)     0.00071
   103    N    7  dyz    Ryd( 3d)     0.00136
   104    N    7  dx2y2  Ryd( 3d)     0.00088
   105    N    7  dz2    Ryd( 3d)     0.00099

   106    C    8  S      Cor( 1S)     1.99909
   107    C    8  S      Val( 2S)     0.96006
   108    C    8  S      Ryd( 3S)     0.00129
   109    C    8  S      Ryd( 4S)     0.00006
   110    C    8  px     Val( 2p)     1.14825
   111    C    8  px     Ryd( 3p)     0.00493
   112    C    8  py     Val( 2p)     0.94874
   113    C    8  py     Ryd( 3p)     0.00476
   114    C    8  pz     Val( 2p)     1.04317
   115    C    8  pz     Ryd( 3p)     0.00430
   116    C    8  dxy    Ryd( 3d)     0.00145
   117    C    8  dxz    Ryd( 3d)     0.00067
   118    C    8  dyz    Ryd( 3d)     0.00135
   119    C    8  dx2y2  Ryd( 3d)     0.00105
   120    C    8  dz2    Ryd( 3d)     0.00111

   121    C    9  S      Cor( 1S)     1.99913
   122    C    9  S      Val( 2S)     0.92851
   123    C    9  S      Ryd( 3S)     0.00115
   124    C    9  S      Ryd( 4S)     0.00004
   125    C    9  px     Val( 2p)     0.99175
   126    C    9  px     Ryd( 3p)     0.00595
   127    C    9  py     Val( 2p)     1.00809
   128    C    9  py     Ryd( 3p)     0.00422
   129    C    9  pz     Val( 2p)     1.24787
   130    C    9  pz     Ryd( 3p)     0.00963
   131    C    9  dxy    Ryd( 3d)     0.00109
   132    C    9  dxz    Ryd( 3d)     0.00064
   133    C    9  dyz    Ryd( 3d)     0.00105
   134    C    9  dx2y2  Ryd( 3d)     0.00087
   135    C    9  dz2    Ryd( 3d)     0.00060

   136    H   10  S      Val( 1S)     0.76770
   137    H   10  S      Ryd( 2S)     0.00105

   138    H   11  S      Val( 1S)     0.77365
   139    H   11  S      Ryd( 2S)     0.00106

   140    H   12  S      Val( 1S)     0.77321
   141    H   12  S      Ryd( 2S)     0.00106

   142    H   13  S      Val( 1S)     0.77271
   143    H   13  S      Ryd( 2S)     0.00235

   144    H   14  S      Val( 1S)     0.77266
   145    H   14  S      Ryd( 2S)     0.00208

   146    H   15  S      Val( 1S)     0.76486
   147    H   15  S      Ryd( 2S)     0.00188

   148    H   16  S      Val( 1S)     0.76884
   149    H   16  S      Ryd( 2S)     0.00176

   150    H   17  S      Val( 1S)     0.77470
   151    H   17  S      Ryd( 2S)     0.00627

   152    H   18  S      Val( 1S)     0.76953
   153    H   18  S      Ryd( 2S)     0.00448

   154    H   19  S      Val( 1S)     0.77868
   155    H   19  S      Ryd( 2S)     0.00103

   156    H   20  S      Val( 1S)     0.75965
   157    H   20  S      Ryd( 2S)     0.00037

   158    H   21  S      Val( 1S)     0.76137
   159    H   21  S      Ryd( 2S)     0.00068

 WARNING:  1 low occupancy (<1.9990e) core orbital  found on  N    7


 Summary of Natural Population Analysis:                  
                                                          
                                       Natural Population 
                Natural  -----------------------------------------------
    Atom  No    Charge         Core      Valence    Rydberg      Total
 -----------------------------------------------------------------------
      C    1   -0.67158      1.99947     4.66457    0.00755     6.67158
      C    2   -0.45824      1.99935     4.44900    0.00989     6.45824
      C    3   -0.46804      1.99932     4.45750    0.01122     6.46804
      C    4   -0.23837      1.99932     4.22235    0.01670     6.23837
      N    5   -0.41473      1.99933     5.40126    0.01413     7.41473
      C    6   -0.01498      1.99930     3.97900    0.03668     6.01498
      N    7   -0.15157      1.99886     5.13962    0.01309     7.15157
      C    8   -0.12027      1.99909     4.10022    0.02096     6.12027
      C    9   -0.20058      1.99913     4.17622    0.02523     6.20058
      H   10    0.23125      0.00000     0.76770    0.00105     0.76875
      H   11    0.22530      0.00000     0.77365    0.00106     0.77470
      H   12    0.22573      0.00000     0.77321    0.00106     0.77427
      H   13    0.22494      0.00000     0.77271    0.00235     0.77506
      H   14    0.22526      0.00000     0.77266    0.00208     0.77474
      H   15    0.23326      0.00000     0.76486    0.00188     0.76674
      H   16    0.22940      0.00000     0.76884    0.00176     0.77060
      H   17    0.21903      0.00000     0.77470    0.00627     0.78097
      H   18    0.22600      0.00000     0.76953    0.00448     0.77400
      H   19    0.22028      0.00000     0.77868    0.00103     0.77972
      H   20    0.23998      0.00000     0.75965    0.00037     0.76002
      H   21    0.23795      0.00000     0.76137    0.00068     0.76205
 =======================================================================
   * Total *   -0.00000     17.99317    49.82732    0.17951    68.00000

                                 Natural Population      
 --------------------------------------------------------
   Core                      17.99317 ( 99.9621% of  18)
   Valence                   49.82732 ( 99.6546% of  50)
   Natural Minimal Basis     67.82049 ( 99.7360% of  68)
   Natural Rydberg Basis      0.17951 (  0.2640% of  68)
 --------------------------------------------------------

    Atom  No          Natural Electron Configuration
 ----------------------------------------------------------------------------
      C    1      [core]2S( 1.10)2p( 3.56)
      C    2      [core]2S( 1.04)2p( 3.41)3p( 0.01)
      C    3      [core]2S( 1.04)2p( 3.42)3p( 0.01)
      C    4      [core]2S( 1.01)2p( 3.22)3p( 0.01)3d( 0.01)
      N    5      [core]2S( 1.17)2p( 4.23)3p( 0.01)
      C    6      [core]2S( 0.88)2p( 3.10)3p( 0.03)3d( 0.01)
      N    7      [core]2S( 1.30)2p( 3.84)3p( 0.01)
      C    8      [core]2S( 0.96)2p( 3.14)3p( 0.01)3d( 0.01)
      C    9      [core]2S( 0.93)2p( 3.25)3p( 0.02)
      H   10            1S( 0.77)
      H   11            1S( 0.77)
      H   12            1S( 0.77)
      H   13            1S( 0.77)
      H   14            1S( 0.77)
      H   15            1S( 0.76)
      H   16            1S( 0.77)
      H   17            1S( 0.77)2S( 0.01)
      H   18            1S( 0.77)
      H   19            1S( 0.78)
      H   20            1S( 0.76)
      H   21            1S( 0.76)


 NBO analysis skipped by request.
 Leave Link  607 at Tue Oct  5 00:13:26 2021, MaxMem=  805306368 cpu:       9.5
 (Enter /sw/target/amd/app/gaussian/Gaussian09RevA.02_gcc-4.9.2/g09/l9999.exe)
 1\1\GINC-HERMITE\SP\RTD-B3LYP-FC\6-31G(d)\C7H12N2\JSCHLEINITZ\05-Oct-2
 021\0\\#p TD(NStates=10, Root=1) b3lyp/6-31G* volume pop=NPA density=c
 urrent Geom=AllCheck Guess=Read\\CCCCn1cncc1_conf_0\\0,1\C,0,0.9911921
 146,-0.0307979612,-0.2283542789\C,0,2.5177493418,-0.0734073096,-0.1059
 570963\C,0,3.0152131863,0.3215665099,1.2900827297\C,0,4.5450663161,0.2
 816765509,1.4010683807\N,0,5.0383841393,0.637401002,2.7263676001\C,0,5
 .4553121335,-0.2246341025,3.7038967868\N,0,5.7872502036,0.3944900409,4
 .816794626\C,0,5.5712140479,1.7288510785,4.5555111606\C,0,5.1078122172
 ,1.9042220431,3.2750219581\H,0,0.6653524876,-0.3178336002,-1.234168763
 5\H,0,0.6053485461,0.9757669048,-0.0267913683\H,0,0.5174112972,-0.7160
 657208,0.4846827297\H,0,2.9640445611,0.5955863676,-0.8555673869\H,0,2.
 8760388825,-1.0841338064,-0.3479959161\H,0,2.5878568329,-0.3504373236,
 2.0460920566\H,0,2.6630089971,1.3316204483,1.5386277016\H,0,4.99889454
 77,0.9601527216,0.668775414\H,0,4.9153764284,-0.7244915504,1.175744848
 6\H,0,5.500384197,-1.2934462031,3.5356861874\H,0,5.7685900289,2.487370
 6661,5.3014821832\H,0,4.834265352,2.7836315608,2.7103318973\\Version=A
 M64L-G09RevA.02\State=1-A\HF=-383.4716044\RMSD=7.586e-09\Dipole=-0.209
 6633,0.0055897,-0.4225278\Quadrupole=-2.6346844,2.667814,-0.0331296,-0
 .0544381,0.2912115,0.827845\PG=C01 [X(C7H12N2)]\\@


 NATURE WILL TELL YOU A DIRECT LIE IF SHE CAN.

                                -- CHARLES DARWIN
 Job cpu time:  0 days  0 hours 36 minutes  5.6 seconds.
 File lengths (MBytes):  RWF=     90 Int=      0 D2E=      0 Chk=     12 Scr=      1
 Normal termination of Gaussian 09 at Tue Oct  5 00:19:59 2021.
