 Entering Gaussian System, Link 0=g09
 Input=C7H5NO_bd5a_conf_0.com
 Output=C7H5NO_bd5a_conf_0.log
 Initial command:
 /sw/target/amd/app/gaussian/Gaussian09RevA.02_gcc-4.9.2/g09/l1.exe /home/jschleinitz/gaussian/Gau-1500663.inp -scrdir=/home/jschleinitz/gaussian/
 Entering Link 1 = /sw/target/amd/app/gaussian/Gaussian09RevA.02_gcc-4.9.2/g09/l1.exe PID=   1500666.
  
 Copyright (c) 1988,1990,1992,1993,1995,1998,2003,2009, Gaussian, Inc.
                  All Rights Reserved.
  
 This is part of the Gaussian(R) 09 program.  It is based on
 the Gaussian(R) 03 system (copyright 2003, Gaussian, Inc.),
 the Gaussian(R) 98 system (copyright 1998, Gaussian, Inc.),
 the Gaussian(R) 94 system (copyright 1995, Gaussian, Inc.),
 the Gaussian 92(TM) system (copyright 1992, Gaussian, Inc.),
 the Gaussian 90(TM) system (copyright 1990, Gaussian, Inc.),
 the Gaussian 88(TM) system (copyright 1988, Gaussian, Inc.),
 the Gaussian 86(TM) system (copyright 1986, Carnegie Mellon
 University), and the Gaussian 82(TM) system (copyright 1983,
 Carnegie Mellon University). Gaussian is a federally registered
 trademark of Gaussian, Inc.
  
 This software contains proprietary and confidential information,
 including trade secrets, belonging to Gaussian, Inc.
  
 This software is provided under written license and may be
 used, copied, transmitted, or stored only in accord with that
 written license.
  
 The following legend is applicable only to US Government
 contracts under FAR:
  
                    RESTRICTED RIGHTS LEGEND
  
 Use, reproduction and disclosure by the US Government is
 subject to restrictions as set forth in subparagraphs (a)
 and (c) of the Commercial Computer Software - Restricted
 Rights clause in FAR 52.227-19.
  
 Gaussian, Inc.
 340 Quinnipiac St., Bldg. 40, Wallingford CT 06492
  
  
 ---------------------------------------------------------------
 Warning -- This program may not be used in any manner that
 competes with the business of Gaussian, Inc. or will provide
 assistance to any competitor of Gaussian, Inc.  The licensee
 of this program is prohibited from giving any competitor of
 Gaussian, Inc. access to this program.  By using this program,
 the user acknowledges that Gaussian, Inc. is engaged in the
 business of creating and licensing software in the field of
 computational chemistry and represents and warrants to the
 licensee that it is not a competitor of Gaussian, Inc. and that
 it will not use this program in any manner prohibited above.
 ---------------------------------------------------------------
  

 Cite this work as:
 Gaussian 09, Revision A.02,
 M. J. Frisch, G. W. Trucks, H. B. Schlegel, G. E. Scuseria, 
 M. A. Robb, J. R. Cheeseman, G. Scalmani, V. Barone, B. Mennucci, 
 G. A. Petersson, H. Nakatsuji, M. Caricato, X. Li, H. P. Hratchian, 
 A. F. Izmaylov, J. Bloino, G. Zheng, J. L. Sonnenberg, M. Hada, 
 M. Ehara, K. Toyota, R. Fukuda, J. Hasegawa, M. Ishida, T. Nakajima, 
 Y. Honda, O. Kitao, H. Nakai, T. Vreven, J. A. Montgomery, Jr., 
 J. E. Peralta, F. Ogliaro, M. Bearpark, J. J. Heyd, E. Brothers, 
 K. N. Kudin, V. N. Staroverov, R. Kobayashi, J. Normand, 
 K. Raghavachari, A. Rendell, J. C. Burant, S. S. Iyengar, J. Tomasi, 
 M. Cossi, N. Rega, J. M. Millam, M. Klene, J. E. Knox, J. B. Cross, 
 V. Bakken, C. Adamo, J. Jaramillo, R. Gomperts, R. E. Stratmann, 
 O. Yazyev, A. J. Austin, R. Cammi, C. Pomelli, J. W. Ochterski, 
 R. L. Martin, K. Morokuma, V. G. Zakrzewski, G. A. Voth, 
 P. Salvador, J. J. Dannenberg, S. Dapprich, A. D. Daniels, 
 O. Farkas, J. B. Foresman, J. V. Ortiz, J. Cioslowski, 
 and D. J. Fox, Gaussian, Inc., Wallingford CT, 2009.
 
 ******************************************
 Gaussian 09:  AM64L-G09RevA.02 11-Jun-2009
                 4-Oct-2021 
 ******************************************
 %nproc=2
 Will use up to    2 processors via shared memory.
 %mem=4gb
 %chk=C7H5NO_bd5a_conf_0.chk
 -----------------------------------
 #p opt b3lyp/6-31G* scf=(xqc,tight)
 -----------------------------------
 1/14=-1,18=20,19=15,26=3,38=1/1,3;
 2/9=110,12=2,17=6,18=5,40=1/2;
 3/5=1,6=6,7=1,11=2,16=1,25=1,30=1,71=1,74=-5/1,2,3;
 4//1;
 5/5=2,8=3,13=1,32=2,38=5/2,8;
 6/7=2,8=2,9=2,10=2,28=1/1;
 7//1,2,3,16;
 1/14=-1,18=20,19=15/3(2);
 2/9=110/2;
 99//99;
 2/9=110/2;
 3/5=1,6=6,7=1,11=2,16=1,25=1,30=1,71=1,74=-5/1,2,3;
 4/5=5,16=3/1;
 5/5=2,8=3,13=1,32=2,38=5/2,8;
 7//1,2,3,16;
 1/14=-1,18=20,19=15/3(-5);
 2/9=110/2;
 6/7=2,8=2,9=2,10=2,19=2,28=1/1;
 99/9=1/99;
 Leave Link    1 at Mon Oct  4 10:40:06 2021, MaxMem=  536870912 cpu:       0.1
 (Enter /sw/target/amd/app/gaussian/Gaussian09RevA.02_gcc-4.9.2/g09/l101.exe)
 ----------------------
 c1ccc2c(c1)ocn2_conf_0
 ----------------------
 Symbolic Z-matrix:
 Charge =  0 Multiplicity = 1
 C                     2.16595  -0.72612  -0.0019 
 C                     2.20145   0.67478  -0.00392 
 C                     1.01902   1.43114  -0.00305 
 C                    -0.20264   0.74608   0.00012 
 C                    -0.19389  -0.64045   0.00198 
 C                     0.95242  -1.42547   0.001 
 O                    -1.49141  -1.06516   0.00506 
 C                    -2.20652   0.09575   0.00504 
 N                    -1.49675   1.20355   0.00199 
 H                     3.1012   -1.28347  -0.00255 
 H                     3.16144   1.18761  -0.00615 
 H                     1.04229   2.51504  -0.00453 
 H                     0.90477  -2.50685   0.00256 
 H                    -3.28284  -0.00365   0.00759 
 
 NAtoms=     14 NQM=     14 NQMF=      0 NMic=      0 NMicF=      0 NTot=     14.
                    Isotopes and Nuclear Properties:
 (Nuclear quadrupole moments (NQMom) in fm**2, nuclear magnetic moments (NMagM)
  in nuclear magnetons)

  Atom         1           2           3           4           5           6           7           8           9          10
 IAtWgt=          12          12          12          12          12          12          16          12          14           1
 AtmWgt=  12.0000000  12.0000000  12.0000000  12.0000000  12.0000000  12.0000000  15.9949146  12.0000000  14.0030740   1.0078250
 NucSpn=           0           0           0           0           0           0           0           0           2           1
 AtZEff=   0.0000000   0.0000000   0.0000000   0.0000000   0.0000000   0.0000000   0.0000000   0.0000000   0.0000000   0.0000000
 NQMom=    0.0000000   0.0000000   0.0000000   0.0000000   0.0000000   0.0000000   0.0000000   0.0000000   2.0440000   0.0000000
 NMagM=    0.0000000   0.0000000   0.0000000   0.0000000   0.0000000   0.0000000   0.0000000   0.0000000   0.4037610   2.7928460

  Atom        11          12          13          14
 IAtWgt=           1           1           1           1
 AtmWgt=   1.0078250   1.0078250   1.0078250   1.0078250
 NucSpn=           1           1           1           1
 AtZEff=   0.0000000   0.0000000   0.0000000   0.0000000
 NQMom=    0.0000000   0.0000000   0.0000000   0.0000000
 NMagM=    2.7928460   2.7928460   2.7928460   2.7928460
 Leave Link  101 at Mon Oct  4 10:40:08 2021, MaxMem=  536870912 cpu:       0.2
 (Enter /sw/target/amd/app/gaussian/Gaussian09RevA.02_gcc-4.9.2/g09/l103.exe)

 GradGradGradGradGradGradGradGradGradGradGradGradGradGradGradGradGradGrad
 Berny optimization.
 Initialization pass.
                           ----------------------------
                           !    Initial Parameters    !
                           ! (Angstroms and Degrees)  !
 --------------------------                            --------------------------
 ! Name  Definition              Value          Derivative Info.                !
 --------------------------------------------------------------------------------
 ! R1    R(1,2)                  1.4014         estimate D2E/DX2                !
 ! R2    R(1,6)                  1.4006         estimate D2E/DX2                !
 ! R3    R(1,10)                 1.0887         estimate D2E/DX2                !
 ! R4    R(2,3)                  1.4036         estimate D2E/DX2                !
 ! R5    R(2,11)                 1.0884         estimate D2E/DX2                !
 ! R6    R(3,4)                  1.4006         estimate D2E/DX2                !
 ! R7    R(3,12)                 1.0841         estimate D2E/DX2                !
 ! R8    R(4,5)                  1.3866         estimate D2E/DX2                !
 ! R9    R(4,9)                  1.3726         estimate D2E/DX2                !
 ! R10   R(5,6)                  1.3893         estimate D2E/DX2                !
 ! R11   R(5,7)                  1.3653         estimate D2E/DX2                !
 ! R12   R(6,13)                 1.0824         estimate D2E/DX2                !
 ! R13   R(7,8)                  1.3635         estimate D2E/DX2                !
 ! R14   R(8,9)                  1.3157         estimate D2E/DX2                !
 ! R15   R(8,14)                 1.0809         estimate D2E/DX2                !
 ! A1    A(2,1,6)              121.4062         estimate D2E/DX2                !
 ! A2    A(2,1,10)             119.3404         estimate D2E/DX2                !
 ! A3    A(6,1,10)             119.2533         estimate D2E/DX2                !
 ! A4    A(1,2,3)              121.154          estimate D2E/DX2                !
 ! A5    A(1,2,11)             119.5628         estimate D2E/DX2                !
 ! A6    A(3,2,11)             119.2832         estimate D2E/DX2                !
 ! A7    A(2,3,4)              118.1122         estimate D2E/DX2                !
 ! A8    A(2,3,12)             121.3753         estimate D2E/DX2                !
 ! A9    A(4,3,12)             120.5126         estimate D2E/DX2                !
 ! A10   A(3,4,5)              118.9208         estimate D2E/DX2                !
 ! A11   A(3,4,9)              131.2492         estimate D2E/DX2                !
 ! A12   A(5,4,9)              109.83           estimate D2E/DX2                !
 ! A13   A(4,5,6)              124.7656         estimate D2E/DX2                !
 ! A14   A(4,5,7)              107.7629         estimate D2E/DX2                !
 ! A15   A(6,5,7)              127.4715         estimate D2E/DX2                !
 ! A16   A(1,6,5)              115.6411         estimate D2E/DX2                !
 ! A17   A(1,6,13)             122.4777         estimate D2E/DX2                !
 ! A18   A(5,6,13)             121.8811         estimate D2E/DX2                !
 ! A19   A(5,7,8)              103.5086         estimate D2E/DX2                !
 ! A20   A(7,8,9)              115.7192         estimate D2E/DX2                !
 ! A21   A(7,8,14)             116.3566         estimate D2E/DX2                !
 ! A22   A(9,8,14)             127.9242         estimate D2E/DX2                !
 ! A23   A(4,9,8)              103.1792         estimate D2E/DX2                !
 ! D1    D(6,1,2,3)              0.0032         estimate D2E/DX2                !
 ! D2    D(6,1,2,11)          -179.9998         estimate D2E/DX2                !
 ! D3    D(10,1,2,3)          -179.9948         estimate D2E/DX2                !
 ! D4    D(10,1,2,11)            0.0021         estimate D2E/DX2                !
 ! D5    D(2,1,6,5)             -0.0127         estimate D2E/DX2                !
 ! D6    D(2,1,6,13)           179.9983         estimate D2E/DX2                !
 ! D7    D(10,1,6,5)           179.9854         estimate D2E/DX2                !
 ! D8    D(10,1,6,13)           -0.0036         estimate D2E/DX2                !
 ! D9    D(1,2,3,4)              0.0103         estimate D2E/DX2                !
 ! D10   D(1,2,3,12)           179.9955         estimate D2E/DX2                !
 ! D11   D(11,2,3,4)          -179.9867         estimate D2E/DX2                !
 ! D12   D(11,2,3,12)           -0.0015         estimate D2E/DX2                !
 ! D13   D(2,3,4,5)             -0.0135         estimate D2E/DX2                !
 ! D14   D(2,3,4,9)            179.9809         estimate D2E/DX2                !
 ! D15   D(12,3,4,5)          -179.9988         estimate D2E/DX2                !
 ! D16   D(12,3,4,9)            -0.0044         estimate D2E/DX2                !
 ! D17   D(3,4,5,6)              0.0037         estimate D2E/DX2                !
 ! D18   D(3,4,5,7)            179.9948         estimate D2E/DX2                !
 ! D19   D(9,4,5,6)           -179.9919         estimate D2E/DX2                !
 ! D20   D(9,4,5,7)             -0.0008         estimate D2E/DX2                !
 ! D21   D(3,4,9,8)           -179.986          estimate D2E/DX2                !
 ! D22   D(5,4,9,8)              0.0088         estimate D2E/DX2                !
 ! D23   D(4,5,6,1)              0.0094         estimate D2E/DX2                !
 ! D24   D(4,5,6,13)           179.9985         estimate D2E/DX2                !
 ! D25   D(7,5,6,1)           -179.9799         estimate D2E/DX2                !
 ! D26   D(7,5,6,13)             0.0092         estimate D2E/DX2                !
 ! D27   D(4,5,7,8)             -0.0073         estimate D2E/DX2                !
 ! D28   D(6,5,7,8)            179.9835         estimate D2E/DX2                !
 ! D29   D(5,7,8,9)              0.0141         estimate D2E/DX2                !
 ! D30   D(5,7,8,14)          -179.9819         estimate D2E/DX2                !
 ! D31   D(7,8,9,4)             -0.0144         estimate D2E/DX2                !
 ! D32   D(14,8,9,4)           179.9811         estimate D2E/DX2                !
 --------------------------------------------------------------------------------
 Trust Radius=3.00D-01 FncErr=1.00D-07 GrdErr=1.00D-06
 Number of steps in this run=  80 maximum allowed number of steps= 100.
 GradGradGradGradGradGradGradGradGradGradGradGradGradGradGradGradGradGrad

 Leave Link  103 at Mon Oct  4 10:40:08 2021, MaxMem=  536870912 cpu:       0.0
 (Enter /sw/target/amd/app/gaussian/Gaussian09RevA.02_gcc-4.9.2/g09/l202.exe)
                          Input orientation:                          
 ---------------------------------------------------------------------
 Center     Atomic      Atomic             Coordinates (Angstroms)
 Number     Number       Type             X           Y           Z
 ---------------------------------------------------------------------
      1          6           0        2.165949   -0.726119   -0.001895
      2          6           0        2.201446    0.674780   -0.003917
      3          6           0        1.019015    1.431140   -0.003051
      4          6           0       -0.202636    0.746080    0.000122
      5          6           0       -0.193888   -0.640455    0.001975
      6          6           0        0.952419   -1.425472    0.000996
      7          8           0       -1.491406   -1.065157    0.005056
      8          6           0       -2.206520    0.095749    0.005042
      9          7           0       -1.496747    1.203553    0.001990
     10          1           0        3.101204   -1.283466   -0.002553
     11          1           0        3.161443    1.187612   -0.006151
     12          1           0        1.042292    2.515036   -0.004535
     13          1           0        0.904770   -2.506848    0.002561
     14          1           0       -3.282838   -0.003649    0.007593
 ---------------------------------------------------------------------
                    Distance matrix (angstroms):
                    1          2          3          4          5
     1  C    0.000000
     2  C    1.401351   0.000000
     3  C    2.443200   1.403646   0.000000
     4  C    2.788829   2.405142   1.400624   0.000000
     5  C    2.361394   2.732673   2.400555   1.386563   0.000000
     6  C    1.400628   2.443594   2.857391   2.459631   1.389342
     7  O    3.673042   4.082232   3.540308   2.222956   1.365260
     8  C    4.449044   4.445843   3.491047   2.106776   2.143057
     9  N    4.139927   3.735809   2.526041   1.372592   2.257832
    10  H    1.088733   2.155063   3.421199   3.877425   3.357248
    11  H    2.157173   1.088391   2.156226   3.392936   3.821013
    12  H    3.430407   2.174897   1.084146   2.163116   3.388997
    13  H    2.182106   3.435719   3.939649   3.436261   2.165750
    14  H    5.496484   5.526099   4.534829   3.170141   3.153913
                    6          7          8          9         10
     6  C    0.000000
     7  O    2.470247   0.000000
     8  C    3.506140   1.363484   0.000000
     9  N    3.593074   2.268718   1.315681   0.000000
    10  H    2.153476   4.597802   5.483997   5.227470   0.000000
    11  H    3.421702   5.169535   5.477893   4.658224   2.471816
    12  H    3.941536   4.386057   4.050657   2.857753   4.320618
    13  H    1.082426   2.796451   4.056308   4.419769   2.514162
    14  H    4.467552   2.082315   1.080901   2.155803   6.511070
                   11         12         13         14
    11  H    0.000000
    12  H    2.500571   0.000000
    13  H    4.329167   5.023771   0.000000
    14  H    6.553476   5.005064   4.878739   0.000000
 Stoichiometry    C7H5NO
 Framework group  C1[X(C7H5NO)]
 Deg. of freedom    36
 Full point group                 C1      NOp   1
 Largest Abelian subgroup         C1      NOp   1
 Largest concise Abelian subgroup C1      NOp   1
                         Standard orientation:                         
 ---------------------------------------------------------------------
 Center     Atomic      Atomic             Coordinates (Angstroms)
 Number     Number       Type             X           Y           Z
 ---------------------------------------------------------------------
      1          6           0        2.095516   -0.711823    0.000151
      2          6           0        2.113369    0.689414    0.000112
      3          6           0        0.921506    1.430821   -0.000147
      4          6           0       -0.291423    0.730428   -0.000145
      5          6           0       -0.265216   -0.655888   -0.000175
      6          6           0        0.890887   -1.426406   -0.000134
      7          8           0       -1.557285   -1.096900   -0.000048
      8          6           0       -2.286963    0.054907    0.000220
      9          7           0       -1.591196    1.171565   -0.000017
     10          1           0        3.037717   -1.257347    0.000440
     11          1           0        3.066833    1.214297    0.000336
     12          1           0        0.931131    2.514925   -0.000104
     13          1           0        0.856860   -2.508297   -0.000136
     14          1           0       -3.361947   -0.058040    0.000668
 ---------------------------------------------------------------------
 Rotational constants (GHZ):      3.9910083      1.7045446      1.1944146
 Leave Link  202 at Mon Oct  4 10:40:08 2021, MaxMem=  536870912 cpu:       0.0
 (Enter /sw/target/amd/app/gaussian/Gaussian09RevA.02_gcc-4.9.2/g09/l301.exe)
 Standard basis: 6-31G(d) (6D, 7F)
 Ernie: Thresh=  0.10000D-02 Tol=  0.10000D-05 Strict=F.
 There are   145 symmetry adapted basis functions of A   symmetry.
 Integral buffers will be    131072 words long.
 Raffenetti 2 integral format.
 Two-electron integral symmetry is turned on.
   145 basis functions,   272 primitive gaussians,   145 cartesian basis functions
    31 alpha electrons       31 beta electrons
       nuclear repulsion energy       405.8391071462 Hartrees.
 IExCor=  402 DFT=T Ex+Corr=B3LYP ExCW=0 ScaHFX=  0.200000
 ScaDFX=  0.800000  0.720000  1.000000  0.810000 ScalE2=  1.000000  1.000000
 IRadAn=      0 IRanWt=     -1 IRanGd=            0 ICorTp=0
 NAtoms=   14 NActive=   14 NUniq=   14 SFac= 7.50D-01 NAtFMM=   80 NAOKFM=F Big=F
 Leave Link  301 at Mon Oct  4 10:40:08 2021, MaxMem=  536870912 cpu:       0.1
 (Enter /sw/target/amd/app/gaussian/Gaussian09RevA.02_gcc-4.9.2/g09/l302.exe)
 NPDir=0 NMtPBC=     1 NCelOv=     1 NCel=       1 NClECP=     1 NCelD=      1
         NCelK=      1 NCelE2=     1 NClLst=     1 CellRange=     0.0.
 One-electron integrals computed using PRISM.
 NBasis=   145 RedAO= T  NBF=   145
 NBsUse=   145 1.00D-06 NBFU=   145
 Precomputing XC quadrature grid using
 IXCGrd= 2 IRadAn=           0 IRanWt=          -1 IRanGd=           0 AccXCQ= 1.00D-10.
 NRdTot=     871 NPtTot=      110772 NUsed=      117064 NTot=      117096
 NSgBfM=   145   145   145   145   145 NAtAll=    14    14.
 Leave Link  302 at Mon Oct  4 10:40:09 2021, MaxMem=  536870912 cpu:       0.7
 (Enter /sw/target/amd/app/gaussian/Gaussian09RevA.02_gcc-4.9.2/g09/l303.exe)
 DipDrv:  MaxL=1.
 Leave Link  303 at Mon Oct  4 10:40:09 2021, MaxMem=  536870912 cpu:       0.1
 (Enter /sw/target/amd/app/gaussian/Gaussian09RevA.02_gcc-4.9.2/g09/l401.exe)
 Harris functional with IExCor=  402 diagonalized for initial guess.
 ExpMin= 1.61D-01 ExpMax= 5.48D+03 ExpMxC= 8.25D+02 IAcc=1 IRadAn=         1 AccDes= 0.00D+00
 HarFok:  IExCor=  402 AccDes= 0.00D+00 IRadAn=         1 IDoV= 1
 ScaDFX=  1.000000  1.000000  1.000000  1.000000
 FoFCou: FMM=F IPFlag=           0 FMFlag=      100000 FMFlg1=           0
         NFxFlg=           0 DoJE=T BraDBF=F KetDBF=T FulRan=T
         Omega=  0.000000  0.000000  1.000000  0.000000  0.000000 ICntrl=     500 IOpCl=  0
         NMat0=    1 NMatS0=    1 NMatT0=    0 NMatD0=    1 NMtDS0=    0 NMtDT0=    0
         I1Cent=           4 NGrid=           0.
 Petite list used in FoFCou.
 Harris En= -399.746074500013    
 Initial guess orbital symmetries:
       Occupied  (A) (A) (A) (A) (A) (A) (A) (A) (A) (A) (A) (A)
                 (A) (A) (A) (A) (A) (A) (A) (A) (A) (A) (A) (A)
                 (A) (A) (A) (A) (A) (A) (A)
       Virtual   (A) (A) (A) (A) (A) (A) (A) (A) (A) (A) (A) (A)
                 (A) (A) (A) (A) (A) (A) (A) (A) (A) (A) (A) (A)
                 (A) (A) (A) (A) (A) (A) (A) (A) (A) (A) (A) (A)
                 (A) (A) (A) (A) (A) (A) (A) (A) (A) (A) (A) (A)
                 (A) (A) (A) (A) (A) (A) (A) (A) (A) (A) (A) (A)
                 (A) (A) (A) (A) (A) (A) (A) (A) (A) (A) (A) (A)
                 (A) (A) (A) (A) (A) (A) (A) (A) (A) (A) (A) (A)
                 (A) (A) (A) (A) (A) (A) (A) (A) (A) (A) (A) (A)
                 (A) (A) (A) (A) (A) (A) (A) (A) (A) (A) (A) (A)
                 (A) (A) (A) (A) (A) (A)
 The electronic state of the initial guess is 1-A.
 Leave Link  401 at Mon Oct  4 10:40:19 2021, MaxMem=  536870912 cpu:       3.2
 (Enter /sw/target/amd/app/gaussian/Gaussian09RevA.02_gcc-4.9.2/g09/l502.exe)
 Closed shell SCF:
 Requested convergence on RMS density matrix=1.00D-08 within  64 cycles.
 Requested convergence on MAX density matrix=1.00D-06.
 Requested convergence on             energy=1.00D-06.
 No special actions if energy rises.
 Using DIIS extrapolation, IDIIS=  1040.
 Integral symmetry usage will be decided dynamically.
       116925 words used for storage of precomputed grid.
 Keep R1 ints in memory in canonical form, NReq=57769911.
 IEnd=      187497 IEndB=      187497 NGot=   536870912 MDV=   480682377
 LenX=   480682377 LenY=   480660911
 Symmetry not used in FoFDir.
 MinBra= 0 MaxBra= 2 Meth= 1.
 IRaf=       0 NMat=   1 IRICut=       1 DoRegI=T DoRafI=F ISym2E= 0 JSym2E=0.
 Integral accuracy reduced to 1.0D-05 until final iterations.

 Cycle   1  Pass 0  IDiag  1:
 E= -399.533495839627    
 DIIS: error= 4.01D-02 at cycle   1 NSaved=   1.
 NSaved= 1 IEnMin= 1 EnMin= -399.533495839627     IErMin= 1 ErrMin= 4.01D-02
 ErrMax= 4.01D-02 EMaxC= 1.00D-01 BMatC= 1.77D-01 BMatP= 1.77D-01
 IDIUse=3 WtCom= 5.99D-01 WtEn= 4.01D-01
 Coeff-Com:  0.100D+01
 Coeff-En:   0.100D+01
 Coeff:      0.100D+01
 Gap=     0.220 Goal=   None    Shift=    0.000
 GapD=    0.220 DampG=1.000 DampE=0.500 DampFc=0.5000 IDamp=-1.
 Damping current iteration by 5.00D-01
 RMSDP=7.65D-03 MaxDP=1.66D-01              OVMax= 2.51D-01

 Cycle   2  Pass 0  IDiag  1:
 E= -399.589777645107     Delta-E=       -0.056281805479 Rises=F Damp=T
 DIIS: error= 1.13D-02 at cycle   2 NSaved=   2.
 NSaved= 2 IEnMin= 2 EnMin= -399.589777645107     IErMin= 2 ErrMin= 1.13D-02
 ErrMax= 1.13D-02 EMaxC= 1.00D-01 BMatC= 2.87D-02 BMatP= 1.77D-01
 IDIUse=3 WtCom= 8.87D-01 WtEn= 1.13D-01
 Coeff-Com:  0.189D+00 0.811D+00
 Coeff-En:   0.313D+00 0.687D+00
 Coeff:      0.203D+00 0.797D+00
 Gap=     0.215 Goal=   None    Shift=    0.000
 RMSDP=2.49D-03 MaxDP=6.99D-02 DE=-5.63D-02 OVMax= 2.97D-01

 Cycle   3  Pass 0  IDiag  1:
 E= -399.693418657525     Delta-E=       -0.103641012419 Rises=F Damp=F
 DIIS: error= 1.31D-02 at cycle   3 NSaved=   3.
 NSaved= 3 IEnMin= 3 EnMin= -399.693418657525     IErMin= 2 ErrMin= 1.13D-02
 ErrMax= 1.31D-02 EMaxC= 1.00D-01 BMatC= 2.95D-02 BMatP= 2.87D-02
 IDIUse=3 WtCom= 8.69D-01 WtEn= 1.31D-01
 Coeff-Com:  0.295D-01 0.497D+00 0.474D+00
 Coeff-En:   0.000D+00 0.000D+00 0.100D+01
 Coeff:      0.257D-01 0.432D+00 0.543D+00
 Gap=     0.205 Goal=   None    Shift=    0.000
 RMSDP=1.63D-03 MaxDP=4.30D-02 DE=-1.04D-01 OVMax= 8.47D-02

 Cycle   4  Pass 0  IDiag  1:
 E= -399.715900292101     Delta-E=       -0.022481634576 Rises=F Damp=F
 DIIS: error= 6.90D-03 at cycle   4 NSaved=   4.
 NSaved= 4 IEnMin= 4 EnMin= -399.715900292101     IErMin= 4 ErrMin= 6.90D-03
 ErrMax= 6.90D-03 EMaxC= 1.00D-01 BMatC= 6.39D-03 BMatP= 2.87D-02
 IDIUse=3 WtCom= 9.31D-01 WtEn= 6.90D-02
 Coeff-Com:  0.554D-02 0.118D+00 0.332D+00 0.544D+00
 Coeff-En:   0.000D+00 0.000D+00 0.199D+00 0.801D+00
 Coeff:      0.516D-02 0.110D+00 0.323D+00 0.562D+00
 Gap=     0.206 Goal=   None    Shift=    0.000
 RMSDP=6.30D-04 MaxDP=1.71D-02 DE=-2.25D-02 OVMax= 2.50D-02

 Cycle   5  Pass 0  IDiag  1:
 E= -399.720897336393     Delta-E=       -0.004997044292 Rises=F Damp=F
 DIIS: error= 2.34D-03 at cycle   5 NSaved=   5.
 NSaved= 5 IEnMin= 5 EnMin= -399.720897336393     IErMin= 5 ErrMin= 2.34D-03
 ErrMax= 2.34D-03 EMaxC= 1.00D-01 BMatC= 5.80D-04 BMatP= 6.39D-03
 IDIUse=3 WtCom= 9.77D-01 WtEn= 2.34D-02
 Coeff-Com:  0.183D-02 0.163D-01 0.147D+00 0.354D+00 0.480D+00
 Coeff-En:   0.000D+00 0.000D+00 0.000D+00 0.449D-01 0.955D+00
 Coeff:      0.179D-02 0.159D-01 0.144D+00 0.347D+00 0.492D+00
 Gap=     0.207 Goal=   None    Shift=    0.000
 RMSDP=2.06D-04 MaxDP=4.23D-03 DE=-5.00D-03 OVMax= 1.09D-02

 Cycle   6  Pass 0  IDiag  1:
 E= -399.721465653146     Delta-E=       -0.000568316753 Rises=F Damp=F
 DIIS: error= 3.67D-04 at cycle   6 NSaved=   6.
 NSaved= 6 IEnMin= 6 EnMin= -399.721465653146     IErMin= 6 ErrMin= 3.67D-04
 ErrMax= 3.67D-04 EMaxC= 1.00D-01 BMatC= 2.08D-05 BMatP= 5.80D-04
 IDIUse=3 WtCom= 9.96D-01 WtEn= 3.67D-03
 Coeff-Com:  0.734D-03-0.213D-02 0.391D-01 0.110D+00 0.231D+00 0.622D+00
 Coeff-En:   0.000D+00 0.000D+00 0.000D+00 0.000D+00 0.000D+00 0.100D+01
 Coeff:      0.731D-03-0.213D-02 0.389D-01 0.109D+00 0.230D+00 0.623D+00
 Gap=     0.207 Goal=   None    Shift=    0.000
 RMSDP=4.36D-05 MaxDP=1.07D-03 DE=-5.68D-04 OVMax= 2.53D-03

 Cycle   7  Pass 0  IDiag  1:
 E= -399.721484248658     Delta-E=       -0.000018595512 Rises=F Damp=F
 DIIS: error= 1.88D-04 at cycle   7 NSaved=   7.
 NSaved= 7 IEnMin= 7 EnMin= -399.721484248658     IErMin= 7 ErrMin= 1.88D-04
 ErrMax= 1.88D-04 EMaxC= 1.00D-01 BMatC= 3.83D-06 BMatP= 2.08D-05
 IDIUse=3 WtCom= 9.98D-01 WtEn= 1.88D-03
 Coeff-Com:  0.440D-03-0.268D-02 0.141D-01 0.435D-01 0.109D+00 0.387D+00
 Coeff-Com:  0.448D+00
 Coeff-En:   0.000D+00 0.000D+00 0.000D+00 0.000D+00 0.000D+00 0.114D+00
 Coeff-En:   0.886D+00
 Coeff:      0.439D-03-0.268D-02 0.141D-01 0.434D-01 0.109D+00 0.387D+00
 Coeff:      0.449D+00
 Gap=     0.207 Goal=   None    Shift=    0.000
 RMSDP=1.39D-05 MaxDP=3.23D-04 DE=-1.86D-05 OVMax= 7.13D-04

 Cycle   8  Pass 0  IDiag  1:
 E= -399.721488100804     Delta-E=       -0.000003852145 Rises=F Damp=F
 DIIS: error= 2.30D-05 at cycle   8 NSaved=   8.
 NSaved= 8 IEnMin= 8 EnMin= -399.721488100804     IErMin= 8 ErrMin= 2.30D-05
 ErrMax= 2.30D-05 EMaxC= 1.00D-01 BMatC= 7.90D-08 BMatP= 3.83D-06
 IDIUse=1 WtCom= 1.00D+00 WtEn= 0.00D+00
 Coeff-Com:  0.206D-03-0.972D-03 0.231D-02 0.734D-02 0.215D-01 0.895D-01
 Coeff-Com:  0.162D+00 0.718D+00
 Coeff:      0.206D-03-0.972D-03 0.231D-02 0.734D-02 0.215D-01 0.895D-01
 Coeff:      0.162D+00 0.718D+00
 Gap=     0.207 Goal=   None    Shift=    0.000
 RMSDP=2.74D-06 MaxDP=6.83D-05 DE=-3.85D-06 OVMax= 1.76D-04

 Initial convergence to 1.0D-05 achieved.  Increase integral accuracy.
 Cycle   9  Pass 1  IDiag  1:
 E= -399.721484406602     Delta-E=        0.000003694202 Rises=F Damp=F
 DIIS: error= 3.99D-05 at cycle   1 NSaved=   1.
 NSaved= 1 IEnMin= 1 EnMin= -399.721484406602     IErMin= 1 ErrMin= 3.99D-05
 ErrMax= 3.99D-05 EMaxC= 1.00D-01 BMatC= 8.42D-08 BMatP= 8.42D-08
 IDIUse=1 WtCom= 1.00D+00 WtEn= 0.00D+00
 Coeff-Com:  0.100D+01
 Coeff:      0.100D+01
 Gap=     0.207 Goal=   None    Shift=    0.000
 RMSDP=2.74D-06 MaxDP=6.83D-05 DE= 3.69D-06 OVMax= 1.70D-04

 Cycle  10  Pass 1  IDiag  1:
 E= -399.721484446904     Delta-E=       -0.000000040303 Rises=F Damp=F
 DIIS: error= 2.16D-05 at cycle   2 NSaved=   2.
 NSaved= 2 IEnMin= 2 EnMin= -399.721484446904     IErMin= 2 ErrMin= 2.16D-05
 ErrMax= 2.16D-05 EMaxC= 1.00D-01 BMatC= 6.38D-08 BMatP= 8.42D-08
 IDIUse=1 WtCom= 1.00D+00 WtEn= 0.00D+00
 Coeff-Com:  0.455D+00 0.545D+00
 Coeff:      0.455D+00 0.545D+00
 Gap=     0.207 Goal=   None    Shift=    0.000
 RMSDP=2.34D-06 MaxDP=6.54D-05 DE=-4.03D-08 OVMax= 1.56D-04

 Cycle  11  Pass 1  IDiag  1:
 E= -399.721484494452     Delta-E=       -0.000000047548 Rises=F Damp=F
 DIIS: error= 1.03D-05 at cycle   3 NSaved=   3.
 NSaved= 3 IEnMin= 3 EnMin= -399.721484494452     IErMin= 3 ErrMin= 1.03D-05
 ErrMax= 1.03D-05 EMaxC= 1.00D-01 BMatC= 1.25D-08 BMatP= 6.38D-08
 IDIUse=1 WtCom= 1.00D+00 WtEn= 0.00D+00
 Coeff-Com:  0.409D-02 0.303D+00 0.693D+00
 Coeff:      0.409D-02 0.303D+00 0.693D+00
 Gap=     0.207 Goal=   None    Shift=    0.000
 RMSDP=8.83D-07 MaxDP=2.03D-05 DE=-4.75D-08 OVMax= 5.54D-05

 Cycle  12  Pass 1  IDiag  1:
 E= -399.721484504977     Delta-E=       -0.000000010525 Rises=F Damp=F
 DIIS: error= 3.25D-06 at cycle   4 NSaved=   4.
 NSaved= 4 IEnMin= 4 EnMin= -399.721484504977     IErMin= 4 ErrMin= 3.25D-06
 ErrMax= 3.25D-06 EMaxC= 1.00D-01 BMatC= 1.51D-09 BMatP= 1.25D-08
 IDIUse=1 WtCom= 1.00D+00 WtEn= 0.00D+00
 Coeff-Com: -0.154D-01 0.167D+00 0.431D+00 0.417D+00
 Coeff:     -0.154D-01 0.167D+00 0.431D+00 0.417D+00
 Gap=     0.207 Goal=   None    Shift=    0.000
 RMSDP=2.58D-07 MaxDP=7.18D-06 DE=-1.05D-08 OVMax= 1.44D-05

 Cycle  13  Pass 1  IDiag  1:
 E= -399.721484506413     Delta-E=       -0.000000001436 Rises=F Damp=F
 DIIS: error= 2.54D-07 at cycle   5 NSaved=   5.
 NSaved= 5 IEnMin= 5 EnMin= -399.721484506413     IErMin= 5 ErrMin= 2.54D-07
 ErrMax= 2.54D-07 EMaxC= 1.00D-01 BMatC= 1.33D-11 BMatP= 1.51D-09
 IDIUse=1 WtCom= 1.00D+00 WtEn= 0.00D+00
 Coeff-Com: -0.569D-02 0.518D-01 0.138D+00 0.162D+00 0.654D+00
 Coeff:     -0.569D-02 0.518D-01 0.138D+00 0.162D+00 0.654D+00
 Gap=     0.207 Goal=   None    Shift=    0.000
 RMSDP=3.91D-08 MaxDP=1.02D-06 DE=-1.44D-09 OVMax= 2.17D-06

 Cycle  14  Pass 1  IDiag  1:
 E= -399.721484506423     Delta-E=       -0.000000000010 Rises=F Damp=F
 DIIS: error= 1.67D-07 at cycle   6 NSaved=   6.
 NSaved= 6 IEnMin= 6 EnMin= -399.721484506423     IErMin= 6 ErrMin= 1.67D-07
 ErrMax= 1.67D-07 EMaxC= 1.00D-01 BMatC= 4.75D-12 BMatP= 1.33D-11
 IDIUse=1 WtCom= 1.00D+00 WtEn= 0.00D+00
 Coeff-Com: -0.189D-02 0.152D-01 0.417D-01 0.573D-01 0.407D+00 0.480D+00
 Coeff:     -0.189D-02 0.152D-01 0.417D-01 0.573D-01 0.407D+00 0.480D+00
 Gap=     0.207 Goal=   None    Shift=    0.000
 RMSDP=1.52D-08 MaxDP=5.57D-07 DE=-1.01D-11 OVMax= 8.94D-07

 Cycle  15  Pass 1  IDiag  1:
 E= -399.721484506427     Delta-E=       -0.000000000004 Rises=F Damp=F
 DIIS: error= 3.58D-08 at cycle   7 NSaved=   7.
 NSaved= 7 IEnMin= 7 EnMin= -399.721484506427     IErMin= 7 ErrMin= 3.58D-08
 ErrMax= 3.58D-08 EMaxC= 1.00D-01 BMatC= 2.06D-13 BMatP= 4.75D-12
 IDIUse=1 WtCom= 1.00D+00 WtEn= 0.00D+00
 Coeff-Com: -0.450D-03 0.285D-02 0.808D-02 0.130D-01 0.132D+00 0.226D+00
 Coeff-Com:  0.618D+00
 Coeff:     -0.450D-03 0.285D-02 0.808D-02 0.130D-01 0.132D+00 0.226D+00
 Coeff:      0.618D+00
 Gap=     0.207 Goal=   None    Shift=    0.000
 RMSDP=4.88D-09 MaxDP=1.34D-07 DE=-3.52D-12 OVMax= 2.62D-07

 SCF Done:  E(RB3LYP) =  -399.721484506     A.U. after   15 cycles
             Convg  =    0.4881D-08             -V/T =  2.0092
 KE= 3.960583115700D+02 PE=-1.741089576564D+03 EE= 5.394706733412D+02
 Leave Link  502 at Mon Oct  4 10:43:23 2021, MaxMem=  536870912 cpu:      56.8
 (Enter /sw/target/amd/app/gaussian/Gaussian09RevA.02_gcc-4.9.2/g09/l508.exe)
 QCSCF skips out because SCF is already converged.
 Leave Link  508 at Mon Oct  4 10:43:24 2021, MaxMem=  536870912 cpu:       0.0
 (Enter /sw/target/amd/app/gaussian/Gaussian09RevA.02_gcc-4.9.2/g09/l601.exe)
 Copying SCF densities to generalized density rwf, IOpCl= 0 IROHF=0.

 **********************************************************************

            Population analysis using the SCF density.

 **********************************************************************

 Orbital symmetries:
       Occupied  (A) (A) (A) (A) (A) (A) (A) (A) (A) (A) (A) (A)
                 (A) (A) (A) (A) (A) (A) (A) (A) (A) (A) (A) (A)
                 (A) (A) (A) (A) (A) (A) (A)
       Virtual   (A) (A) (A) (A) (A) (A) (A) (A) (A) (A) (A) (A)
                 (A) (A) (A) (A) (A) (A) (A) (A) (A) (A) (A) (A)
                 (A) (A) (A) (A) (A) (A) (A) (A) (A) (A) (A) (A)
                 (A) (A) (A) (A) (A) (A) (A) (A) (A) (A) (A) (A)
                 (A) (A) (A) (A) (A) (A) (A) (A) (A) (A) (A) (A)
                 (A) (A) (A) (A) (A) (A) (A) (A) (A) (A) (A) (A)
                 (A) (A) (A) (A) (A) (A) (A) (A) (A) (A) (A) (A)
                 (A) (A) (A) (A) (A) (A) (A) (A) (A) (A) (A) (A)
                 (A) (A) (A) (A) (A) (A) (A) (A) (A) (A) (A) (A)
                 (A) (A) (A) (A) (A) (A)
 The electronic state is 1-A.
 Alpha  occ. eigenvalues --  -19.23252 -14.34000 -10.28858 -10.24918 -10.21893
 Alpha  occ. eigenvalues --  -10.20419 -10.20024 -10.19856 -10.19662  -1.13955
 Alpha  occ. eigenvalues --   -0.93221  -0.85548  -0.75818  -0.74866  -0.65240
 Alpha  occ. eigenvalues --   -0.61755  -0.60567  -0.52538  -0.51656  -0.49180
 Alpha  occ. eigenvalues --   -0.48077  -0.44808  -0.42911  -0.41454  -0.37580
 Alpha  occ. eigenvalues --   -0.36078  -0.36074  -0.33254  -0.29445  -0.24806
 Alpha  occ. eigenvalues --   -0.23878
 Alpha virt. eigenvalues --   -0.03158   0.00595   0.03605   0.09170   0.12419
 Alpha virt. eigenvalues --    0.13828   0.16470   0.17061   0.17124   0.18385
 Alpha virt. eigenvalues --    0.21512   0.26571   0.27692   0.31584   0.32584
 Alpha virt. eigenvalues --    0.33849   0.40189   0.47581   0.50448   0.51256
 Alpha virt. eigenvalues --    0.51879   0.53274   0.53572   0.57891   0.59030
 Alpha virt. eigenvalues --    0.59803   0.60424   0.60910   0.61177   0.62194
 Alpha virt. eigenvalues --    0.66460   0.67123   0.67736   0.68426   0.76162
 Alpha virt. eigenvalues --    0.77925   0.80422   0.81270   0.83496   0.84459
 Alpha virt. eigenvalues --    0.85099   0.89483   0.90107   0.91788   0.93754
 Alpha virt. eigenvalues --    0.97925   0.98141   0.98690   1.00837   1.11540
 Alpha virt. eigenvalues --    1.12457   1.14259   1.17593   1.21776   1.29169
 Alpha virt. eigenvalues --    1.33301   1.34045   1.35019   1.39811   1.42016
 Alpha virt. eigenvalues --    1.45992   1.47085   1.47486   1.48927   1.51482
 Alpha virt. eigenvalues --    1.55091   1.65888   1.75067   1.79872   1.81013
 Alpha virt. eigenvalues --    1.85332   1.87216   1.90364   1.92075   1.94441
 Alpha virt. eigenvalues --    1.98771   2.02396   2.07520   2.08044   2.10102
 Alpha virt. eigenvalues --    2.16584   2.19276   2.22630   2.24845   2.25205
 Alpha virt. eigenvalues --    2.25767   2.27598   2.42950   2.44993   2.46039
 Alpha virt. eigenvalues --    2.49779   2.59333   2.60181   2.62288   2.64098
 Alpha virt. eigenvalues --    2.67926   2.69840   2.74585   2.77665   2.83360
 Alpha virt. eigenvalues --    2.88109   3.03372   3.07278   3.19331   3.45180
 Alpha virt. eigenvalues --    3.99598   4.07658   4.10457   4.16804   4.21208
 Alpha virt. eigenvalues --    4.27156   4.38002   4.49346   4.78774
          Condensed to atoms (all electrons):
              1          2          3          4          5          6
     1  C    4.874490   0.528071  -0.027300  -0.039081   0.001146   0.520075
     2  C    0.528071   4.886866   0.520388  -0.002484  -0.049089  -0.029367
     3  C   -0.027300   0.520388   4.998136   0.500863  -0.038527  -0.043393
     4  C   -0.039081  -0.002484   0.500863   4.674856   0.462177  -0.038895
     5  C    0.001146  -0.049089  -0.038527   0.462177   4.773515   0.468318
     6  C    0.520075  -0.029367  -0.043393  -0.038895   0.468318   5.026711
     7  O    0.002805  -0.000086   0.007819  -0.048829   0.248342  -0.055709
     8  C    0.000090  -0.000014   0.006185  -0.090503  -0.089747   0.003644
     9  N   -0.000398   0.004836  -0.068277   0.354665  -0.075726   0.013931
    10  H    0.361403  -0.039581   0.004496   0.000610   0.003602  -0.040818
    11  H   -0.040869   0.361917  -0.038764   0.003115   0.000583   0.004626
    12  H    0.004753  -0.045440   0.349639  -0.036108   0.006921   0.000050
    13  H   -0.040262   0.004216   0.000233   0.004880  -0.034394   0.350551
    14  H    0.000005   0.000005  -0.000194   0.004966   0.004129  -0.000159
              7          8          9         10         11         12
     1  C    0.002805   0.000090  -0.000398   0.361403  -0.040869   0.004753
     2  C   -0.000086  -0.000014   0.004836  -0.039581   0.361917  -0.045440
     3  C    0.007819   0.006185  -0.068277   0.004496  -0.038764   0.349639
     4  C   -0.048829  -0.090503   0.354665   0.000610   0.003115  -0.036108
     5  C    0.248342  -0.089747  -0.075726   0.003602   0.000583   0.006921
     6  C   -0.055709   0.003644   0.013931  -0.040818   0.004626   0.000050
     7  O    8.116467   0.312862  -0.086566  -0.000048   0.000001  -0.000049
     8  C    0.312862   4.715419   0.515638   0.000001   0.000004  -0.000147
     9  N   -0.086566   0.515638   6.858225   0.000002  -0.000082  -0.002063
    10  H   -0.000048   0.000001   0.000002   0.584626  -0.005425  -0.000150
    11  H    0.000001   0.000004  -0.000082  -0.005425   0.584863  -0.005219
    12  H   -0.000049  -0.000147  -0.002063  -0.000150  -0.005219   0.581784
    13  H   -0.001766  -0.000141  -0.000121  -0.005124  -0.000147   0.000016
    14  H   -0.041268   0.379373  -0.040474  -0.000000  -0.000000  -0.000002
             13         14
     1  C   -0.040262   0.000005
     2  C    0.004216   0.000005
     3  C    0.000233  -0.000194
     4  C    0.004880   0.004966
     5  C   -0.034394   0.004129
     6  C    0.350551  -0.000159
     7  O   -0.001766  -0.041268
     8  C   -0.000141   0.379373
     9  N   -0.000121  -0.040474
    10  H   -0.005124  -0.000000
    11  H   -0.000147  -0.000000
    12  H    0.000016  -0.000002
    13  H    0.572822  -0.000001
    14  H   -0.000001   0.512928
 Mulliken atomic charges:
              1
     1  C   -0.144929
     2  C   -0.140238
     3  C   -0.171303
     4  C    0.249769
     5  C    0.318749
     6  C   -0.179565
     7  O   -0.453976
     8  C    0.247337
     9  N   -0.473591
    10  H    0.136405
    11  H    0.135396
    12  H    0.146015
    13  H    0.149239
    14  H    0.180691
 Sum of Mulliken atomic charges =  -0.00000
 Mulliken charges with hydrogens summed into heavy atoms:
              1
     1  C   -0.008524
     2  C   -0.004842
     3  C   -0.025288
     4  C    0.249769
     5  C    0.318749
     6  C   -0.030326
     7  O   -0.453976
     8  C    0.428028
     9  N   -0.473591
 Sum of Mulliken charges with hydrogens summed into heavy atoms =  -0.00000
 Electronic spatial extent (au):  <R**2>=            947.8070
 Charge=             -0.0000 electrons
 Dipole moment (field-independent basis, Debye):
    X=              0.5733    Y=             -1.2126    Z=              0.0007  Tot=              1.3412
 Quadrupole moment (field-independent basis, Debye-Ang):
   XX=            -42.7002   YY=            -50.2830   ZZ=            -52.7664
   XY=              2.3951   XZ=             -0.0007   YZ=             -0.0002
 Traceless Quadrupole moment (field-independent basis, Debye-Ang):
   XX=              5.8830   YY=             -1.6998   ZZ=             -4.1832
   XY=              2.3951   XZ=             -0.0007   YZ=             -0.0002
 Octapole moment (field-independent basis, Debye-Ang**2):
  XXX=            -18.1504  YYY=             -8.5533  ZZZ=              0.0004  XYY=             12.2978
  XXY=             -6.3649  XXZ=              0.0113  XZZ=             -6.4438  YZZ=             -1.6234
  YYZ=             -0.0002  XYZ=              0.0001
 Hexadecapole moment (field-independent basis, Debye-Ang**3):
 XXXX=           -689.4088 YYYY=           -361.5422 ZZZZ=            -51.2662 XXXY=             17.1551
 XXXZ=             -0.0098 YYYX=             14.7648 YYYZ=              0.0004 ZZZX=              0.0000
 ZZZY=              0.0001 XXYY=           -209.0471 XXZZ=           -155.1907 YYZZ=            -76.9663
 XXYZ=             -0.0015 YYXZ=              0.0021 ZZXY=              2.8464
 N-N= 4.058391071462D+02 E-N=-1.741089578009D+03  KE= 3.960583115700D+02
 No NMR shielding tensors so no spin-rotation constants.
 Leave Link  601 at Mon Oct  4 10:43:59 2021, MaxMem=  536870912 cpu:       0.5
 (Enter /sw/target/amd/app/gaussian/Gaussian09RevA.02_gcc-4.9.2/g09/l701.exe)
 Compute integral first derivatives.
 ... and contract with generalized density number  0.
 Leave Link  701 at Mon Oct  4 10:44:03 2021, MaxMem=  536870912 cpu:       0.6
 (Enter /sw/target/amd/app/gaussian/Gaussian09RevA.02_gcc-4.9.2/g09/l702.exe)
 L702 exits ... SP integral derivatives will be done elsewhere.
 Leave Link  702 at Mon Oct  4 10:44:03 2021, MaxMem=  536870912 cpu:       0.1
 (Enter /sw/target/amd/app/gaussian/Gaussian09RevA.02_gcc-4.9.2/g09/l703.exe)
 Compute integral first derivatives, UseDBF=F ICtDFT=           0.
 Integral derivatives from FoFDir, PRISM(SPDF).
 Calling FoFJK, ICntrl=      2127 FMM=F ISym2X=0 I1Cent= 0 IOpClX= 0 NMat=1 NMatS=1 NMatT=0.
 FoFCou: FMM=F IPFlag=           0 FMFlag=      100000 FMFlg1=         800
         NFxFlg=           0 DoJE=F BraDBF=F KetDBF=F FulRan=T
         Omega=  0.000000  0.000000  1.000000  0.000000  0.000000 ICntrl=    2127 IOpCl=  0
         NMat0=    1 NMatS0=    1 NMatT0=    0 NMatD0=    1 NMtDS0=    0 NMtDT0=    0
         I1Cent=           0 NGrid=           0.
 Symmetry not used in FoFCou.
 Leave Link  703 at Mon Oct  4 10:45:13 2021, MaxMem=  536870912 cpu:      24.5
 (Enter /sw/target/amd/app/gaussian/Gaussian09RevA.02_gcc-4.9.2/g09/l716.exe)
 Dipole        = 2.25542791D-01-4.77054265D-01 2.84477513D-04
 ***** Axes restored to original set *****
 -------------------------------------------------------------------
 Center     Atomic                   Forces (Hartrees/Bohr)
 Number     Number              X              Y              Z
 -------------------------------------------------------------------
      1        6          -0.001708263   -0.007608678    0.000006246
      2        6          -0.008326227    0.009427439   -0.000001006
      3        6           0.007543367   -0.001277564    0.000003676
      4        6           0.022127802    0.007664357   -0.000067829
      5        6           0.008813894   -0.016370267    0.000002518
      6        6           0.003283537    0.004499032   -0.000000674
      7        8          -0.008227144   -0.001644634    0.000035898
      8        6           0.010826489    0.021940306   -0.000073304
      9        7          -0.031741026   -0.016031805    0.000109217
     10        1          -0.001639555    0.000485857   -0.000003319
     11        1          -0.001444369   -0.000857206    0.000000935
     12        1          -0.000024428    0.000904591   -0.000003684
     13        1           0.000117458   -0.001460497    0.000003004
     14        1           0.000398465    0.000329068   -0.000011679
 -------------------------------------------------------------------
 Cartesian Forces:  Max     0.031741026 RMS     0.008653538
 Leave Link  716 at Mon Oct  4 10:45:14 2021, MaxMem=  536870912 cpu:       0.1
 (Enter /sw/target/amd/app/gaussian/Gaussian09RevA.02_gcc-4.9.2/g09/l103.exe)

 GradGradGradGradGradGradGradGradGradGradGradGradGradGradGradGradGradGrad
 Berny optimization.
 Internal  Forces:  Max     0.021506397 RMS     0.004428497
 Search for a local minimum.
 Step number   1 out of a maximum of   80
 All quantities printed in internal units (Hartrees-Bohrs-Radians)
 RMS Force = .44285D-02 SwitMx=.10000D-02 MixMth= 1
 Mixed Optimization -- RFO/linear search
 Second derivative matrix not updated -- first step.
     Eigenvalues ---    0.02053   0.02061   0.02065   0.02076   0.02106
     Eigenvalues ---    0.02133   0.02157   0.02205   0.02209   0.02361
     Eigenvalues ---    0.02544   0.16000   0.16000   0.16000   0.16000
     Eigenvalues ---    0.16000   0.22000   0.22592   0.23491   0.24531
     Eigenvalues ---    0.25000   0.34960   0.34999   0.35498   0.35703
     Eigenvalues ---    0.35886   0.39485   0.41747   0.44458   0.45282
     Eigenvalues ---    0.45517   0.46781   0.47163   0.50555   0.51347
     Eigenvalues ---    0.604651000.000001000.000001000.000001000.00000
     Eigenvalues --- 1000.000001000.000001000.000001000.000001000.00000
     Eigenvalues --- 1000.000001000.000001000.000001000.000001000.00000
     Eigenvalues --- 1000.000001000.000001000.000001000.000001000.00000
     Eigenvalues --- 1000.000001000.000001000.000001000.000001000.00000
     Eigenvalues --- 1000.000001000.000001000.000001000.000001000.00000
     Eigenvalues --- 1000.000001000.000001000.000001000.000001000.00000
 RFO step:  Lambda=-2.85363952D-03 EMin= 2.05320976D-02
 Linear search not attempted -- first point.
 Iteration  1 RMS(Cart)=  0.00994539 RMS(Int)=  0.00005977
 Iteration  2 RMS(Cart)=  0.00005148 RMS(Int)=  0.00002890
 Iteration  3 RMS(Cart)=  0.00000000 RMS(Int)=  0.00002890
 Variable       Old X    -DE/DX   Delta X   Delta X   Delta X     New X
                                 (Linear)    (Quad)   (Total)
    R1        2.64817   0.00707   0.00000   0.01397   0.01398   2.66215
    R2        2.64680  -0.00362   0.00000  -0.00856  -0.00854   2.63826
    R3        2.05741  -0.00166   0.00000  -0.00470  -0.00470   2.05270
    R4        2.65251  -0.00834   0.00000  -0.01933  -0.01933   2.63317
    R5        2.05676  -0.00168   0.00000  -0.00476  -0.00476   2.05201
    R6        2.64680  -0.00071   0.00000  -0.00093  -0.00094   2.64586
    R7        2.04874   0.00090   0.00000   0.00253   0.00253   2.05127
    R8        2.62022   0.01027   0.00000   0.02755   0.02762   2.64784
    R9        2.59382   0.01867   0.00000   0.03783   0.03784   2.63166
   R10        2.62548  -0.00233   0.00000  -0.00397  -0.00396   2.62151
   R11        2.57997   0.00805   0.00000   0.01727   0.01730   2.59727
   R12        2.04549   0.00145   0.00000   0.00404   0.00404   2.04953
   R13        2.57661   0.00468   0.00000   0.00540   0.00534   2.58195
   R14        2.48628  -0.02151   0.00000  -0.03727  -0.03734   2.44894
   R15        2.04261  -0.00043   0.00000  -0.00118  -0.00118   2.04143
    A1        2.11894   0.00151   0.00000   0.00481   0.00484   2.12378
    A2        2.08288  -0.00032   0.00000   0.00027   0.00025   2.08313
    A3        2.08136  -0.00119   0.00000  -0.00508  -0.00509   2.07627
    A4        2.11454   0.00293   0.00000   0.01057   0.01059   2.12512
    A5        2.08676  -0.00154   0.00000  -0.00577  -0.00578   2.08099
    A6        2.08188  -0.00138   0.00000  -0.00480  -0.00481   2.07707
    A7        2.06145  -0.00344   0.00000  -0.01358  -0.01359   2.04786
    A8        2.11840   0.00176   0.00000   0.00706   0.00706   2.12546
    A9        2.10334   0.00167   0.00000   0.00652   0.00652   2.10986
   A10        2.07556   0.00243   0.00000   0.00996   0.00992   2.08548
   A11        2.29073   0.00315   0.00000   0.00375   0.00371   2.29444
   A12        1.91690  -0.00558   0.00000  -0.01371  -0.01363   1.90327
   A13        2.17757  -0.00147   0.00000  -0.00602  -0.00606   2.17151
   A14        1.88082  -0.00556   0.00000  -0.01198  -0.01189   1.86893
   A15        2.22480   0.00703   0.00000   0.01800   0.01794   2.24274
   A16        2.01832  -0.00195   0.00000  -0.00574  -0.00570   2.01261
   A17        2.13764   0.00079   0.00000   0.00173   0.00172   2.13936
   A18        2.12723   0.00116   0.00000   0.00401   0.00399   2.13122
   A19        1.80657   0.00258   0.00000   0.00827   0.00825   1.81482
   A20        2.01968   0.00434   0.00000   0.00699   0.00690   2.02658
   A21        2.03081  -0.00187   0.00000  -0.00166  -0.00162   2.02919
   A22        2.23270  -0.00247   0.00000  -0.00533  -0.00528   2.22742
   A23        1.80082   0.00422   0.00000   0.01043   0.01036   1.81118
    D1        0.00006  -0.00000   0.00000  -0.00008  -0.00008  -0.00002
    D2       -3.14159  -0.00000   0.00000  -0.00003  -0.00003   3.14156
    D3       -3.14150  -0.00000   0.00000  -0.00006  -0.00006  -3.14156
    D4        0.00004  -0.00000   0.00000  -0.00002  -0.00002   0.00002
    D5       -0.00022   0.00001   0.00000   0.00031   0.00031   0.00009
    D6        3.14156   0.00000   0.00000   0.00004   0.00004  -3.14159
    D7        3.14134   0.00001   0.00000   0.00029   0.00029  -3.14155
    D8       -0.00006   0.00000   0.00000   0.00002   0.00002  -0.00004
    D9        0.00018  -0.00001   0.00000  -0.00024  -0.00024  -0.00006
   D10        3.14151   0.00000   0.00000   0.00008   0.00008   3.14159
   D11       -3.14136  -0.00001   0.00000  -0.00028  -0.00028   3.14155
   D12       -0.00003   0.00000   0.00000   0.00003   0.00003   0.00001
   D13       -0.00024   0.00001   0.00000   0.00030   0.00030   0.00006
   D14        3.14126   0.00001   0.00000   0.00025   0.00025   3.14151
   D15       -3.14157   0.00000   0.00000  -0.00001  -0.00001  -3.14158
   D16       -0.00008  -0.00000   0.00000  -0.00006  -0.00006  -0.00013
   D17        0.00006  -0.00000   0.00000  -0.00006  -0.00006   0.00001
   D18        3.14150   0.00000   0.00000   0.00001   0.00001   3.14151
   D19       -3.14145  -0.00000   0.00000  -0.00002  -0.00002  -3.14147
   D20       -0.00001   0.00000   0.00000   0.00005   0.00005   0.00003
   D21       -3.14135  -0.00001   0.00000  -0.00029  -0.00030   3.14154
   D22        0.00015  -0.00001   0.00000  -0.00034  -0.00034  -0.00018
   D23        0.00016  -0.00001   0.00000  -0.00025  -0.00025  -0.00008
   D24        3.14157   0.00000   0.00000   0.00002   0.00002   3.14159
   D25       -3.14124  -0.00001   0.00000  -0.00032  -0.00033  -3.14157
   D26        0.00016  -0.00000   0.00000  -0.00006  -0.00006   0.00011
   D27       -0.00013   0.00001   0.00000   0.00026   0.00025   0.00012
   D28        3.14130   0.00001   0.00000   0.00032   0.00032  -3.14156
   D29        0.00025  -0.00001   0.00000  -0.00051  -0.00051  -0.00027
   D30       -3.14128  -0.00001   0.00000  -0.00032  -0.00032   3.14159
   D31       -0.00025   0.00001   0.00000   0.00053   0.00053   0.00028
   D32        3.14126   0.00001   0.00000   0.00032   0.00032   3.14158
         Item               Value     Threshold  Converged?
 Maximum Force            0.021506     0.000450     NO 
 RMS     Force            0.004428     0.000300     NO 
 Maximum Displacement     0.028845     0.001800     NO 
 RMS     Displacement     0.009930     0.001200     NO 
 Predicted change in Energy=-1.434114D-03
 GradGradGradGradGradGradGradGradGradGradGradGradGradGradGradGradGradGrad

 Leave Link  103 at Mon Oct  4 10:45:22 2021, MaxMem=  536870912 cpu:       0.8
 (Enter /sw/target/amd/app/gaussian/Gaussian09RevA.02_gcc-4.9.2/g09/l202.exe)
                          Input orientation:                          
 ---------------------------------------------------------------------
 Center     Atomic      Atomic             Coordinates (Angstroms)
 Number     Number       Type             X           Y           Z
 ---------------------------------------------------------------------
      1          6           0        2.162986   -0.728555   -0.002000
      2          6           0        2.193256    0.679865   -0.003984
      3          6           0        1.024535    1.438611   -0.002840
      4          6           0       -0.191968    0.745452    0.000310
      5          6           0       -0.187434   -0.655719    0.002228
      6          6           0        0.959476   -1.436132    0.001239
      7          8           0       -1.499903   -1.063683    0.005264
      8          6           0       -2.208684    0.104407    0.004830
      9          7           0       -1.509784    1.195711    0.002218
     10          1           0        3.098097   -1.281271   -0.002963
     11          1           0        3.152020    1.189660   -0.006463
     12          1           0        1.047493    2.523850   -0.004365
     13          1           0        0.919288   -2.519951    0.002804
     14          1           0       -3.284873    0.010540    0.006956
 ---------------------------------------------------------------------
                    Distance matrix (angstroms):
                    1          2          3          4          5
     1  C    0.000000
     2  C    1.408747   0.000000
     3  C    2.447995   1.393415   0.000000
     4  C    2.778220   2.386129   1.400128   0.000000
     5  C    2.351552   2.729745   2.419734   1.401179   0.000000
     6  C    1.396107   2.449426   2.875482   2.466806   1.387245
     7  O    3.678195   4.084051   3.554480   2.232418   1.374417
     8  C    4.450323   4.439404   3.497694   2.116153   2.159456
     9  N    4.146331   3.738803   2.545938   1.392616   2.275171
    10  H    1.086245   2.159813   3.420148   3.864212   3.344555
    11  H    2.158183   1.085875   2.142004   3.373369   3.815422
    12  H    3.438382   2.170957   1.085483   2.167714   3.410974
    13  H    2.180804   3.444106   3.959965   3.449312   2.167994
    14  H    5.497773   5.518878   4.539876   3.179025   3.168288
                    6          7          8          9         10
     6  C    0.000000
     7  O    2.487424   0.000000
     8  C    3.522856   1.366311   0.000000
     9  N    3.608857   2.259418   1.295921   0.000000
    10  H    2.144225   4.603153   5.484714   5.231447   0.000000
    11  H    3.420832   5.168953   5.469465   4.661816   2.471521
    12  H    3.960964   4.399967   4.056658   2.881607   4.322490
    13  H    1.084565   2.823687   4.083071   4.439205   2.506306
    14  H    4.484126   2.083284   1.080276   2.134383   6.512386
                   11         12         13         14
    11  H    0.000000
    12  H    2.491807   0.000000
    13  H    4.329710   5.045435   0.000000
    14  H    6.544012   5.008617   4.906972   0.000000
 Stoichiometry    C7H5NO
 Framework group  C1[X(C7H5NO)]
 Deg. of freedom    36
 Full point group                 C1      NOp   1
 Largest Abelian subgroup         C1      NOp   1
 Largest concise Abelian subgroup C1      NOp   1
                         Standard orientation:                         
 ---------------------------------------------------------------------
 Center     Atomic      Atomic             Coordinates (Angstroms)
 Number     Number       Type             X           Y           Z
 ---------------------------------------------------------------------
      1          6           0       -2.094407   -0.710306    0.000021
      2          6           0       -2.105082    0.698401    0.000017
      3          6           0       -0.925917    1.440813   -0.000016
      4          6           0        0.280828    0.730795    0.000025
      5          6           0        0.256803   -0.670178    0.000020
      6          6           0       -0.900854   -1.434560   -0.000033
      7          8           0        1.563472   -1.096365   -0.000041
      8          6           0        2.288435    0.061753    0.000097
      9          7           0        1.604783    1.162676   -0.000075
     10          1           0       -3.037117   -1.249958    0.000020
     11          1           0       -3.056663    1.221486    0.000032
     12          1           0       -0.933776    2.526267   -0.000021
     13          1           0       -0.875747   -2.518834   -0.000037
     14          1           0        3.363215   -0.047079    0.000081
 ---------------------------------------------------------------------
 Rotational constants (GHZ):      3.9662287      1.7005964      1.1902527
 Leave Link  202 at Mon Oct  4 10:45:22 2021, MaxMem=  536870912 cpu:       0.0
 (Enter /sw/target/amd/app/gaussian/Gaussian09RevA.02_gcc-4.9.2/g09/l301.exe)
 Standard basis: 6-31G(d) (6D, 7F)
 Ernie: Thresh=  0.10000D-02 Tol=  0.10000D-05 Strict=F.
 There are   145 symmetry adapted basis functions of A   symmetry.
 Integral buffers will be    131072 words long.
 Raffenetti 2 integral format.
 Two-electron integral symmetry is turned on.
   145 basis functions,   272 primitive gaussians,   145 cartesian basis functions
    31 alpha electrons       31 beta electrons
       nuclear repulsion energy       405.1709786185 Hartrees.
 IExCor=  402 DFT=T Ex+Corr=B3LYP ExCW=0 ScaHFX=  0.200000
 ScaDFX=  0.800000  0.720000  1.000000  0.810000 ScalE2=  1.000000  1.000000
 IRadAn=      0 IRanWt=     -1 IRanGd=            0 ICorTp=0
 NAtoms=   14 NActive=   14 NUniq=   14 SFac= 7.50D-01 NAtFMM=   80 NAOKFM=F Big=F
 Leave Link  301 at Mon Oct  4 10:45:23 2021, MaxMem=  536870912 cpu:       0.1
 (Enter /sw/target/amd/app/gaussian/Gaussian09RevA.02_gcc-4.9.2/g09/l302.exe)
 NPDir=0 NMtPBC=     1 NCelOv=     1 NCel=       1 NClECP=     1 NCelD=      1
         NCelK=      1 NCelE2=     1 NClLst=     1 CellRange=     0.0.
 One-electron integrals computed using PRISM.
 NBasis=   145 RedAO= T  NBF=   145
 NBsUse=   145 1.00D-06 NBFU=   145
 Precomputing XC quadrature grid using
 IXCGrd= 2 IRadAn=           0 IRanWt=          -1 IRanGd=           0 AccXCQ= 1.00D-10.
 NRdTot=     871 NPtTot=      110772 NUsed=      117064 NTot=      117096
 NSgBfM=   145   145   145   145   145 NAtAll=    14    14.
 Leave Link  302 at Mon Oct  4 10:45:26 2021, MaxMem=  536870912 cpu:       0.7
 (Enter /sw/target/amd/app/gaussian/Gaussian09RevA.02_gcc-4.9.2/g09/l303.exe)
 DipDrv:  MaxL=1.
 Leave Link  303 at Mon Oct  4 10:45:27 2021, MaxMem=  536870912 cpu:       0.1
 (Enter /sw/target/amd/app/gaussian/Gaussian09RevA.02_gcc-4.9.2/g09/l401.exe)
 Initial guess read from the read-write file.
 B after Tr=     0.000000    0.000000    0.000000
         Rot=    1.000000    0.000000    0.000000    0.000000 Ang=   0.00 deg.
 Guess basis will be translated and rotated to current coordinates.
 Initial guess orbital symmetries:
       Occupied  (A) (A) (A) (A) (A) (A) (A) (A) (A) (A) (A) (A)
                 (A) (A) (A) (A) (A) (A) (A) (A) (A) (A) (A) (A)
                 (A) (A) (A) (A) (A) (A) (A)
       Virtual   (A) (A) (A) (A) (A) (A) (A) (A) (A) (A) (A) (A)
                 (A) (A) (A) (A) (A) (A) (A) (A) (A) (A) (A) (A)
                 (A) (A) (A) (A) (A) (A) (A) (A) (A) (A) (A) (A)
                 (A) (A) (A) (A) (A) (A) (A) (A) (A) (A) (A) (A)
                 (A) (A) (A) (A) (A) (A) (A) (A) (A) (A) (A) (A)
                 (A) (A) (A) (A) (A) (A) (A) (A) (A) (A) (A) (A)
                 (A) (A) (A) (A) (A) (A) (A) (A) (A) (A) (A) (A)
                 (A) (A) (A) (A) (A) (A) (A) (A) (A) (A) (A) (A)
                 (A) (A) (A) (A) (A) (A) (A) (A) (A) (A) (A) (A)
                 (A) (A) (A) (A) (A) (A)
 The electronic state of the initial guess is 1-A.
 Generating alternative initial guess.
 Harris functional with IExCor=  402 diagonalized for initial guess.
 ExpMin= 1.61D-01 ExpMax= 5.48D+03 ExpMxC= 8.25D+02 IAcc=1 IRadAn=         1 AccDes= 0.00D+00
 HarFok:  IExCor=  402 AccDes= 0.00D+00 IRadAn=         1 IDoV= 1
 ScaDFX=  1.000000  1.000000  1.000000  1.000000
 FoFCou: FMM=F IPFlag=           0 FMFlag=      100000 FMFlg1=           0
         NFxFlg=           0 DoJE=T BraDBF=F KetDBF=T FulRan=T
         Omega=  0.000000  0.000000  1.000000  0.000000  0.000000 ICntrl=     500 IOpCl=  0
         NMat0=    1 NMatS0=    1 NMatT0=    0 NMatD0=    1 NMtDS0=    0 NMtDT0=    0
         I1Cent=           4 NGrid=           0.
 Petite list used in FoFCou.
 Harris En= -399.747552003028    
 Leave Link  401 at Mon Oct  4 10:45:34 2021, MaxMem=  536870912 cpu:       3.3
 (Enter /sw/target/amd/app/gaussian/Gaussian09RevA.02_gcc-4.9.2/g09/l502.exe)
 Closed shell SCF:
 Requested convergence on RMS density matrix=1.00D-08 within  64 cycles.
 Requested convergence on MAX density matrix=1.00D-06.
 Requested convergence on             energy=1.00D-06.
 No special actions if energy rises.
 Using DIIS extrapolation, IDIIS=  1040.
 Integral symmetry usage will be decided dynamically.
       116925 words used for storage of precomputed grid.
 Keep R1 ints in memory in canonical form, NReq=57769911.
 IEnd=      187497 IEndB=      187497 NGot=   536870912 MDV=   480682377
 LenX=   480682377 LenY=   480660911
 Symmetry not used in FoFDir.
 MinBra= 0 MaxBra= 2 Meth= 1.
 IRaf=       0 NMat=   1 IRICut=       1 DoRegI=T DoRafI=F ISym2E= 0 JSym2E=0.
 Integral accuracy reduced to 1.0D-05 until final iterations.

 Cycle   1  Pass 0  IDiag  1:
 E= -391.654173900735    
 DIIS: error= 9.85D-02 at cycle   1 NSaved=   1.
 NSaved= 1 IEnMin= 1 EnMin= -391.654173900735     IErMin= 1 ErrMin= 9.85D-02
 ErrMax= 9.85D-02 EMaxC= 1.00D-01 BMatC= 2.10D+00 BMatP= 2.10D+00
 IDIUse=3 WtCom= 1.54D-02 WtEn= 9.85D-01
 Coeff-Com:  0.100D+01
 Coeff-En:   0.100D+01
 Coeff:      0.100D+01
 Recover alternate guess density for next cycle.
 RMSDP=2.99D-02 MaxDP=5.97D-01              OVMax= 0.00D+00

 Cycle   2  Pass 0  IDiag  1:
 E= -399.537553057789     Delta-E=       -7.883379157054 Rises=F Damp=F
 DIIS: error= 4.01D-02 at cycle   2 NSaved=   2.
 NSaved= 2 IEnMin= 2 EnMin= -399.537553057789     IErMin= 2 ErrMin= 4.01D-02
 ErrMax= 4.01D-02 EMaxC= 1.00D-01 BMatC= 1.75D-01 BMatP= 2.10D+00
 IDIUse=3 WtCom= 5.99D-01 WtEn= 4.01D-01
 Coeff-Com:  0.506D-01 0.949D+00
 Coeff-En:   0.000D+00 0.100D+01
 Coeff:      0.303D-01 0.970D+00
 Gap=     0.226 Goal=   None    Shift=    0.000
 RMSDP=7.36D-03 MaxDP=1.61D-01 DE=-7.88D+00 OVMax= 2.40D-01

 Cycle   3  Pass 0  IDiag  1:
 E= -399.389104214014     Delta-E=        0.148448843775 Rises=F Damp=F
 DIIS: error= 4.43D-02 at cycle   3 NSaved=   3.
 NSaved= 3 IEnMin= 2 EnMin= -399.537553057789     IErMin= 2 ErrMin= 4.01D-02
 ErrMax= 4.43D-02 EMaxC= 1.00D-01 BMatC= 3.21D-01 BMatP= 1.75D-01
 IDIUse=2 WtCom= 0.00D+00 WtEn= 1.00D+00
 Coeff-En:   0.000D+00 0.635D+00 0.365D+00
 Coeff:      0.000D+00 0.635D+00 0.365D+00
 Gap=     0.217 Goal=   None    Shift=    0.000
 RMSDP=4.43D-03 MaxDP=1.05D-01 DE= 1.48D-01 OVMax= 2.36D-01

 Cycle   4  Pass 0  IDiag  1:
 E= -399.710188440993     Delta-E=       -0.321084226978 Rises=F Damp=F
 DIIS: error= 7.99D-03 at cycle   4 NSaved=   4.
 NSaved= 4 IEnMin= 4 EnMin= -399.710188440993     IErMin= 4 ErrMin= 7.99D-03
 ErrMax= 7.99D-03 EMaxC= 1.00D-01 BMatC= 1.33D-02 BMatP= 1.75D-01
 IDIUse=3 WtCom= 9.20D-01 WtEn= 7.99D-02
 Coeff-Com:  0.404D-02 0.258D+00 0.180D+00 0.558D+00
 Coeff-En:   0.000D+00 0.000D+00 0.000D+00 0.100D+01
 Coeff:      0.372D-02 0.237D+00 0.166D+00 0.593D+00
 Gap=     0.210 Goal=   None    Shift=    0.000
 RMSDP=1.16D-03 MaxDP=2.81D-02 DE=-3.21D-01 OVMax= 4.22D-02

 Cycle   5  Pass 0  IDiag  1:
 E= -399.720242884935     Delta-E=       -0.010054443942 Rises=F Damp=F
 DIIS: error= 4.58D-03 at cycle   5 NSaved=   5.
 NSaved= 5 IEnMin= 5 EnMin= -399.720242884935     IErMin= 5 ErrMin= 4.58D-03
 ErrMax= 4.58D-03 EMaxC= 1.00D-01 BMatC= 3.17D-03 BMatP= 1.33D-02
 IDIUse=3 WtCom= 9.54D-01 WtEn= 4.58D-02
 Coeff-Com: -0.749D-03 0.534D-01 0.230D-01 0.329D+00 0.595D+00
 Coeff-En:   0.000D+00 0.000D+00 0.000D+00 0.176D+00 0.824D+00
 Coeff:     -0.714D-03 0.510D-01 0.220D-01 0.322D+00 0.605D+00
 Gap=     0.211 Goal=   None    Shift=    0.000
 RMSDP=4.85D-04 MaxDP=1.14D-02 DE=-1.01D-02 OVMax= 2.15D-02

 Cycle   6  Pass 0  IDiag  1:
 E= -399.722610026737     Delta-E=       -0.002367141803 Rises=F Damp=F
 DIIS: error= 2.43D-03 at cycle   6 NSaved=   6.
 NSaved= 6 IEnMin= 6 EnMin= -399.722610026737     IErMin= 6 ErrMin= 2.43D-03
 ErrMax= 2.43D-03 EMaxC= 1.00D-01 BMatC= 4.65D-04 BMatP= 3.17D-03
 IDIUse=3 WtCom= 9.76D-01 WtEn= 2.43D-02
 Coeff-Com:  0.727D-04 0.111D-01-0.189D-02 0.151D+00 0.377D+00 0.463D+00
 Coeff-En:   0.000D+00 0.000D+00 0.000D+00 0.000D+00 0.111D+00 0.889D+00
 Coeff:      0.709D-04 0.109D-01-0.184D-02 0.147D+00 0.370D+00 0.473D+00
 Gap=     0.212 Goal=   None    Shift=    0.000
 RMSDP=1.88D-04 MaxDP=3.87D-03 DE=-2.37D-03 OVMax= 9.89D-03

 Cycle   7  Pass 0  IDiag  1:
 E= -399.723077903639     Delta-E=       -0.000467876901 Rises=F Damp=F
 DIIS: error= 3.92D-04 at cycle   7 NSaved=   7.
 NSaved= 7 IEnMin= 7 EnMin= -399.723077903639     IErMin= 7 ErrMin= 3.92D-04
 ErrMax= 3.92D-04 EMaxC= 1.00D-01 BMatC= 1.77D-05 BMatP= 4.65D-04
 IDIUse=3 WtCom= 9.96D-01 WtEn= 3.92D-03
 Coeff-Com:  0.360D-04 0.117D-02-0.320D-02 0.449D-01 0.127D+00 0.232D+00
 Coeff-Com:  0.599D+00
 Coeff-En:   0.000D+00 0.000D+00 0.000D+00 0.000D+00 0.000D+00 0.000D+00
 Coeff-En:   0.100D+01
 Coeff:      0.359D-04 0.117D-02-0.319D-02 0.447D-01 0.126D+00 0.231D+00
 Coeff:      0.600D+00
 Gap=     0.211 Goal=   None    Shift=    0.000
 RMSDP=3.98D-05 MaxDP=9.78D-04 DE=-4.68D-04 OVMax= 2.21D-03

 Cycle   8  Pass 0  IDiag  1:
 E= -399.723094335420     Delta-E=       -0.000016431781 Rises=F Damp=F
 DIIS: error= 1.59D-04 at cycle   8 NSaved=   8.
 NSaved= 8 IEnMin= 8 EnMin= -399.723094335420     IErMin= 8 ErrMin= 1.59D-04
 ErrMax= 1.59D-04 EMaxC= 1.00D-01 BMatC= 2.83D-06 BMatP= 1.77D-05
 IDIUse=3 WtCom= 9.98D-01 WtEn= 1.59D-03
 Coeff-Com: -0.602D-05 0.464D-04-0.205D-02 0.189D-01 0.562D-01 0.115D+00
 Coeff-Com:  0.376D+00 0.436D+00
 Coeff-En:   0.000D+00 0.000D+00 0.000D+00 0.000D+00 0.000D+00 0.000D+00
 Coeff-En:   0.859D-01 0.914D+00
 Coeff:     -0.601D-05 0.464D-04-0.204D-02 0.189D-01 0.561D-01 0.115D+00
 Coeff:      0.375D+00 0.437D+00
 Gap=     0.211 Goal=   None    Shift=    0.000
 RMSDP=1.15D-05 MaxDP=2.89D-04 DE=-1.64D-05 OVMax= 5.78D-04

 Cycle   9  Pass 0  IDiag  1:
 E= -399.723097201084     Delta-E=       -0.000002865665 Rises=F Damp=F
 DIIS: error= 1.72D-05 at cycle   9 NSaved=   9.
 NSaved= 9 IEnMin= 9 EnMin= -399.723097201084     IErMin= 9 ErrMin= 1.72D-05
 ErrMax= 1.72D-05 EMaxC= 1.00D-01 BMatC= 4.06D-08 BMatP= 2.83D-06
 IDIUse=1 WtCom= 1.00D+00 WtEn= 0.00D+00
 Coeff-Com:  0.130D-05-0.426D-04-0.599D-03 0.369D-02 0.107D-01 0.231D-01
 Coeff-Com:  0.832D-01 0.137D+00 0.743D+00
 Coeff:      0.130D-05-0.426D-04-0.599D-03 0.369D-02 0.107D-01 0.231D-01
 Coeff:      0.832D-01 0.137D+00 0.743D+00
 Gap=     0.211 Goal=   None    Shift=    0.000
 RMSDP=1.98D-06 MaxDP=4.95D-05 DE=-2.87D-06 OVMax= 1.06D-04

 Initial convergence to 1.0D-05 achieved.  Increase integral accuracy.
 Cycle  10  Pass 1  IDiag  1:
 E= -399.723099819971     Delta-E=       -0.000002618887 Rises=F Damp=F
 DIIS: error= 3.08D-05 at cycle   1 NSaved=   1.
 NSaved= 1 IEnMin= 1 EnMin= -399.723099819971     IErMin= 1 ErrMin= 3.08D-05
 ErrMax= 3.08D-05 EMaxC= 1.00D-01 BMatC= 6.93D-08 BMatP= 6.93D-08
 IDIUse=1 WtCom= 1.00D+00 WtEn= 0.00D+00
 Coeff-Com:  0.100D+01
 Coeff:      0.100D+01
 Gap=     0.211 Goal=   None    Shift=    0.000
 RMSDP=1.98D-06 MaxDP=4.95D-05 DE=-2.62D-06 OVMax= 1.37D-04

 Cycle  11  Pass 1  IDiag  1:
 E= -399.723099872772     Delta-E=       -0.000000052800 Rises=F Damp=F
 DIIS: error= 1.52D-05 at cycle   2 NSaved=   2.
 NSaved= 2 IEnMin= 2 EnMin= -399.723099872772     IErMin= 2 ErrMin= 1.52D-05
 ErrMax= 1.52D-05 EMaxC= 1.00D-01 BMatC= 3.39D-08 BMatP= 6.93D-08
 IDIUse=1 WtCom= 1.00D+00 WtEn= 0.00D+00
 Coeff-Com:  0.375D+00 0.625D+00
 Coeff:      0.375D+00 0.625D+00
 Gap=     0.211 Goal=   None    Shift=    0.000
 RMSDP=1.99D-06 MaxDP=6.92D-05 DE=-5.28D-08 OVMax= 1.39D-04

 Cycle  12  Pass 1  IDiag  1:
 E= -399.723099890573     Delta-E=       -0.000000017801 Rises=F Damp=F
 DIIS: error= 1.13D-05 at cycle   3 NSaved=   3.
 NSaved= 3 IEnMin= 3 EnMin= -399.723099890573     IErMin= 3 ErrMin= 1.13D-05
 ErrMax= 1.13D-05 EMaxC= 1.00D-01 BMatC= 1.52D-08 BMatP= 3.39D-08
 IDIUse=1 WtCom= 1.00D+00 WtEn= 0.00D+00
 Coeff-Com: -0.456D-02 0.399D+00 0.605D+00
 Coeff:     -0.456D-02 0.399D+00 0.605D+00
 Gap=     0.211 Goal=   None    Shift=    0.000
 RMSDP=9.34D-07 MaxDP=2.69D-05 DE=-1.78D-08 OVMax= 6.12D-05

 Cycle  13  Pass 1  IDiag  1:
 E= -399.723099904275     Delta-E=       -0.000000013702 Rises=F Damp=F
 DIIS: error= 2.29D-06 at cycle   4 NSaved=   4.
 NSaved= 4 IEnMin= 4 EnMin= -399.723099904275     IErMin= 4 ErrMin= 2.29D-06
 ErrMax= 2.29D-06 EMaxC= 1.00D-01 BMatC= 1.27D-09 BMatP= 1.52D-08
 IDIUse=1 WtCom= 1.00D+00 WtEn= 0.00D+00
 Coeff-Com: -0.158D-01 0.234D+00 0.387D+00 0.395D+00
 Coeff:     -0.158D-01 0.234D+00 0.387D+00 0.395D+00
 Gap=     0.211 Goal=   None    Shift=    0.000
 RMSDP=2.39D-07 MaxDP=5.44D-06 DE=-1.37D-08 OVMax= 1.30D-05

 Cycle  14  Pass 1  IDiag  1:
 E= -399.723099905399     Delta-E=       -0.000000001124 Rises=F Damp=F
 DIIS: error= 3.91D-07 at cycle   5 NSaved=   5.
 NSaved= 5 IEnMin= 5 EnMin= -399.723099905399     IErMin= 5 ErrMin= 3.91D-07
 ErrMax= 3.91D-07 EMaxC= 1.00D-01 BMatC= 2.44D-11 BMatP= 1.27D-09
 IDIUse=1 WtCom= 1.00D+00 WtEn= 0.00D+00
 Coeff-Com: -0.696D-02 0.909D-01 0.153D+00 0.193D+00 0.569D+00
 Coeff:     -0.696D-02 0.909D-01 0.153D+00 0.193D+00 0.569D+00
 Gap=     0.211 Goal=   None    Shift=    0.000
 RMSDP=4.91D-08 MaxDP=1.39D-06 DE=-1.12D-09 OVMax= 2.62D-06

 Cycle  15  Pass 1  IDiag  1:
 E= -399.723099905415     Delta-E=       -0.000000000016 Rises=F Damp=F
 DIIS: error= 2.22D-07 at cycle   6 NSaved=   6.
 NSaved= 6 IEnMin= 6 EnMin= -399.723099905415     IErMin= 6 ErrMin= 2.22D-07
 ErrMax= 2.22D-07 EMaxC= 1.00D-01 BMatC= 8.70D-12 BMatP= 2.44D-11
 IDIUse=1 WtCom= 1.00D+00 WtEn= 0.00D+00
 Coeff-Com: -0.217D-02 0.244D-01 0.426D-01 0.683D-01 0.394D+00 0.473D+00
 Coeff:     -0.217D-02 0.244D-01 0.426D-01 0.683D-01 0.394D+00 0.473D+00
 Gap=     0.211 Goal=   None    Shift=    0.000
 RMSDP=2.22D-08 MaxDP=5.16D-07 DE=-1.65D-11 OVMax= 1.17D-06

 Cycle  16  Pass 1  IDiag  1:
 E= -399.723099905426     Delta-E=       -0.000000000011 Rises=F Damp=F
 DIIS: error= 3.78D-08 at cycle   7 NSaved=   7.
 NSaved= 7 IEnMin= 7 EnMin= -399.723099905426     IErMin= 7 ErrMin= 3.78D-08
 ErrMax= 3.78D-08 EMaxC= 1.00D-01 BMatC= 1.88D-13 BMatP= 8.70D-12
 IDIUse=1 WtCom= 1.00D+00 WtEn= 0.00D+00
 Coeff-Com: -0.463D-03 0.413D-02 0.765D-02 0.152D-01 0.122D+00 0.200D+00
 Coeff-Com:  0.651D+00
 Coeff:     -0.463D-03 0.413D-02 0.765D-02 0.152D-01 0.122D+00 0.200D+00
 Coeff:      0.651D+00
 Gap=     0.211 Goal=   None    Shift=    0.000
 RMSDP=4.81D-09 MaxDP=1.17D-07 DE=-1.09D-11 OVMax= 2.61D-07

 SCF Done:  E(RB3LYP) =  -399.723099905     A.U. after   16 cycles
             Convg  =    0.4815D-08             -V/T =  2.0093
 KE= 3.960277089003D+02 PE=-1.739755765634D+03 EE= 5.388339782095D+02
 Leave Link  502 at Mon Oct  4 10:49:57 2021, MaxMem=  536870912 cpu:      77.6
 (Enter /sw/target/amd/app/gaussian/Gaussian09RevA.02_gcc-4.9.2/g09/l508.exe)
 QCSCF skips out because SCF is already converged.
 Leave Link  508 at Mon Oct  4 10:49:57 2021, MaxMem=  536870912 cpu:       0.0
 (Enter /sw/target/amd/app/gaussian/Gaussian09RevA.02_gcc-4.9.2/g09/l701.exe)
 Compute integral first derivatives.
 ... and contract with generalized density number  0.
 Leave Link  701 at Mon Oct  4 10:50:00 2021, MaxMem=  536870912 cpu:       0.6
 (Enter /sw/target/amd/app/gaussian/Gaussian09RevA.02_gcc-4.9.2/g09/l702.exe)
 L702 exits ... SP integral derivatives will be done elsewhere.
 Leave Link  702 at Mon Oct  4 10:50:00 2021, MaxMem=  536870912 cpu:       0.1
 (Enter /sw/target/amd/app/gaussian/Gaussian09RevA.02_gcc-4.9.2/g09/l703.exe)
 Compute integral first derivatives, UseDBF=F ICtDFT=           0.
 Integral derivatives from FoFDir, PRISM(SPDF).
 Calling FoFJK, ICntrl=      2127 FMM=F ISym2X=0 I1Cent= 0 IOpClX= 0 NMat=1 NMatS=1 NMatT=0.
 FoFCou: FMM=F IPFlag=           0 FMFlag=      100000 FMFlg1=         800
         NFxFlg=           0 DoJE=F BraDBF=F KetDBF=F FulRan=T
         Omega=  0.000000  0.000000  1.000000  0.000000  0.000000 ICntrl=    2127 IOpCl=  0
         NMat0=    1 NMatS0=    1 NMatT0=    0 NMatD0=    1 NMtDS0=    0 NMtDT0=    0
         I1Cent=           0 NGrid=           0.
 Symmetry not used in FoFCou.
 Leave Link  703 at Mon Oct  4 10:51:13 2021, MaxMem=  536870912 cpu:      26.9
 (Enter /sw/target/amd/app/gaussian/Gaussian09RevA.02_gcc-4.9.2/g09/l716.exe)
 Dipole        =-2.58787631D-01-4.55320285D-01 9.37496041D-05
 ***** Axes restored to original set *****
 -------------------------------------------------------------------
 Center     Atomic                   Forces (Hartrees/Bohr)
 Number     Number              X              Y              Z
 -------------------------------------------------------------------
      1        6           0.000413533   -0.000337071    0.000004253
      2        6          -0.000327024    0.000214867    0.000000273
      3        6          -0.001467717   -0.000342157   -0.000002163
      4        6           0.006691830   -0.000149334    0.000005260
      5        6          -0.001978916    0.000307869    0.000012820
      6        6          -0.000083358    0.001272836   -0.000009602
      7        8          -0.001971706   -0.004056841   -0.000015217
      8        6           0.005921774    0.007016644    0.000017752
      9        7          -0.007668447   -0.002884654   -0.000014405
     10        1           0.000177825    0.000320139   -0.000001363
     11        1           0.000573393   -0.000510138   -0.000000274
     12        1          -0.000152848   -0.000189841    0.000001791
     13        1           0.000198747   -0.000003417    0.000000928
     14        1          -0.000327085   -0.000658901   -0.000000052
 -------------------------------------------------------------------
 Cartesian Forces:  Max     0.007668447 RMS     0.002321159
 Leave Link  716 at Mon Oct  4 10:51:14 2021, MaxMem=  536870912 cpu:       0.1
 (Enter /sw/target/amd/app/gaussian/Gaussian09RevA.02_gcc-4.9.2/g09/l103.exe)

 GradGradGradGradGradGradGradGradGradGradGradGradGradGradGradGradGradGrad
 Berny optimization.
 Using GEDIIS/GDIIS optimizer.
 Internal  Forces:  Max     0.005230941 RMS     0.001011398
 Search for a local minimum.
 Step number   2 out of a maximum of   80
 All quantities printed in internal units (Hartrees-Bohrs-Radians)
 RMS Force = .10114D-02 SwitMx=.10000D-02 MixMth= 1
 Mixed Optimization -- RFO/linear search
 Update second derivatives using D2CorX and points    1    2
 DE= -1.62D-03 DEPred=-1.43D-03 R= 1.13D+00
 SS=  1.41D+00  RLast= 7.90D-02 DXNew= 5.0454D-01 2.3706D-01
 Trust test= 1.13D+00 RLast= 7.90D-02 DXMaxT set to 3.00D-01
 Use linear search instead of GDIIS.
     Eigenvalues ---    0.02053   0.02061   0.02065   0.02076   0.02106
     Eigenvalues ---    0.02133   0.02157   0.02204   0.02209   0.02362
     Eigenvalues ---    0.02543   0.15937   0.16000   0.16000   0.16000
     Eigenvalues ---    0.16034   0.21887   0.22577   0.23193   0.24220
     Eigenvalues ---    0.25162   0.34962   0.35042   0.35505   0.35716
     Eigenvalues ---    0.35864   0.39117   0.41566   0.43358   0.45376
     Eigenvalues ---    0.46431   0.46774   0.47779   0.48368   0.50680
     Eigenvalues ---    0.575321000.000001000.000001000.000001000.00000
     Eigenvalues --- 1000.000001000.000001000.000001000.000001000.00000
     Eigenvalues --- 1000.000001000.000001000.000001000.000001000.00000
     Eigenvalues --- 1000.000001000.000001000.000001000.000001000.00000
     Eigenvalues --- 1000.000001000.000001000.000001000.000001000.00000
     Eigenvalues --- 1000.000001000.000001000.000001000.000001000.00000
     Eigenvalues --- 1000.000001000.000001000.000001000.000001000.00000
 RFO step:  Lambda=-1.86050813D-04 EMin= 2.05320568D-02
 Quartic linear search produced a step of  0.15159.
 Iteration  1 RMS(Cart)=  0.00294898 RMS(Int)=  0.00001336
 Iteration  2 RMS(Cart)=  0.00001617 RMS(Int)=  0.00000460
 Iteration  3 RMS(Cart)=  0.00000000 RMS(Int)=  0.00000460
 Variable       Old X    -DE/DX   Delta X   Delta X   Delta X     New X
                                 (Linear)    (Quad)   (Total)
    R1        2.66215  -0.00046   0.00212  -0.00249  -0.00037   2.66177
    R2        2.63826   0.00020  -0.00130   0.00124  -0.00005   2.63821
    R3        2.05270  -0.00001  -0.00071   0.00038  -0.00033   2.05237
    R4        2.63317   0.00018  -0.00293   0.00207  -0.00086   2.63231
    R5        2.05201   0.00027  -0.00072   0.00129   0.00057   2.05258
    R6        2.64586  -0.00131  -0.00014  -0.00321  -0.00336   2.64250
    R7        2.05127  -0.00019   0.00038  -0.00085  -0.00046   2.05080
    R8        2.64784   0.00016   0.00419  -0.00101   0.00318   2.65102
    R9        2.63166   0.00357   0.00574   0.00498   0.01071   2.64237
   R10        2.62151   0.00007  -0.00060   0.00061   0.00001   2.62152
   R11        2.59727   0.00086   0.00262   0.00080   0.00343   2.60070
   R12        2.04953  -0.00000   0.00061  -0.00037   0.00025   2.04978
   R13        2.58195   0.00162   0.00081   0.00247   0.00328   2.58523
   R14        2.44894  -0.00523  -0.00566  -0.00696  -0.01263   2.43631
   R15        2.04143   0.00038  -0.00018   0.00133   0.00115   2.04258
    A1        2.12378  -0.00011   0.00073  -0.00090  -0.00016   2.12362
    A2        2.08313  -0.00032   0.00004  -0.00249  -0.00246   2.08068
    A3        2.07627   0.00043  -0.00077   0.00339   0.00262   2.07889
    A4        2.12512  -0.00023   0.00161  -0.00218  -0.00058   2.12455
    A5        2.08099  -0.00062  -0.00088  -0.00417  -0.00505   2.07594
    A6        2.07707   0.00085  -0.00073   0.00635   0.00562   2.08270
    A7        2.04786  -0.00006  -0.00206   0.00105  -0.00101   2.04685
    A8        2.12546   0.00018   0.00107   0.00055   0.00162   2.12708
    A9        2.10986  -0.00012   0.00099  -0.00160  -0.00061   2.10925
   A10        2.08548   0.00114   0.00150   0.00397   0.00547   2.09095
   A11        2.29444   0.00022   0.00056  -0.00043   0.00013   2.29457
   A12        1.90327  -0.00136  -0.00207  -0.00354  -0.00561   1.89766
   A13        2.17151  -0.00142  -0.00092  -0.00651  -0.00743   2.16408
   A14        1.86893   0.00101  -0.00180   0.00769   0.00590   1.87483
   A15        2.24274   0.00041   0.00272  -0.00117   0.00154   2.24428
   A16        2.01261   0.00068  -0.00086   0.00457   0.00371   2.01633
   A17        2.13936  -0.00054   0.00026  -0.00365  -0.00339   2.13596
   A18        2.13122  -0.00014   0.00060  -0.00092  -0.00032   2.13090
   A19        1.81482  -0.00216   0.00125  -0.01125  -0.00998   1.80484
   A20        2.02658   0.00278   0.00105   0.01119   0.01223   2.03881
   A21        2.02919  -0.00203  -0.00025  -0.01037  -0.01061   2.01858
   A22        2.22742  -0.00075  -0.00080  -0.00082  -0.00162   2.22580
   A23        1.81118  -0.00027   0.00157  -0.00408  -0.00254   1.80864
    D1       -0.00002   0.00000  -0.00001   0.00004   0.00003   0.00001
    D2        3.14156   0.00000  -0.00000   0.00007   0.00007  -3.14155
    D3       -3.14156  -0.00000  -0.00001  -0.00004  -0.00005   3.14157
    D4        0.00002  -0.00000  -0.00000  -0.00001  -0.00002   0.00000
    D5        0.00009  -0.00000   0.00005  -0.00018  -0.00013  -0.00004
    D6       -3.14159  -0.00000   0.00001  -0.00004  -0.00003   3.14157
    D7       -3.14155  -0.00000   0.00004  -0.00009  -0.00005   3.14158
    D8       -0.00004   0.00000   0.00000   0.00005   0.00005   0.00001
    D9       -0.00006   0.00000  -0.00004   0.00013   0.00009   0.00004
   D10        3.14159   0.00000   0.00001   0.00003   0.00004  -3.14156
   D11        3.14155   0.00000  -0.00004   0.00010   0.00006  -3.14159
   D12        0.00001   0.00000   0.00000  -0.00001  -0.00000   0.00001
[...]
 Alpha  occ. eigenvalues --   -0.36022  -0.35955  -0.33288  -0.29429  -0.24871
 Alpha  occ. eigenvalues --   -0.24135
 Alpha virt. eigenvalues --   -0.02809   0.00491   0.03693   0.09018   0.12514
 Alpha virt. eigenvalues --    0.13576   0.16349   0.16790   0.17075   0.18309
 Alpha virt. eigenvalues --    0.20889   0.26316   0.27943   0.31704   0.32486
 Alpha virt. eigenvalues --    0.33609   0.39685   0.47618   0.50444   0.51057
 Alpha virt. eigenvalues --    0.52249   0.53507   0.53719   0.57653   0.58871
 Alpha virt. eigenvalues --    0.59315   0.60188   0.60855   0.61249   0.62199
 Alpha virt. eigenvalues --    0.66412   0.67605   0.67704   0.68499   0.76115
 Alpha virt. eigenvalues --    0.78178   0.80522   0.81383   0.83540   0.84336
 Alpha virt. eigenvalues --    0.85055   0.89558   0.90118   0.91608   0.93859
 Alpha virt. eigenvalues --    0.97831   0.98095   0.98721   1.00879   1.11451
 Alpha virt. eigenvalues --    1.12299   1.14671   1.17072   1.21929   1.29443
 Alpha virt. eigenvalues --    1.33496   1.33729   1.34836   1.39142   1.42443
 Alpha virt. eigenvalues --    1.46072   1.47273   1.47388   1.48779   1.51446
 Alpha virt. eigenvalues --    1.55692   1.65592   1.74923   1.79019   1.80450
 Alpha virt. eigenvalues --    1.84741   1.86677   1.89781   1.91417   1.94515
 Alpha virt. eigenvalues --    1.98203   2.02079   2.07077   2.07894   2.10656
 Alpha virt. eigenvalues --    2.17532   2.18648   2.22654   2.24854   2.25383
 Alpha virt. eigenvalues --    2.25770   2.28409   2.43538   2.44705   2.44756
 Alpha virt. eigenvalues --    2.48633   2.59058   2.59410   2.62942   2.64633
 Alpha virt. eigenvalues --    2.67485   2.69786   2.74490   2.77088   2.83135
 Alpha virt. eigenvalues --    2.88323   3.02479   3.07350   3.18180   3.44717
 Alpha virt. eigenvalues --    4.00225   4.07585   4.10841   4.15938   4.20667
 Alpha virt. eigenvalues --    4.26511   4.37847   4.48392   4.78321
          Condensed to atoms (all electrons):
              1          2          3          4          5          6
     1  C    5.002218   0.476179  -0.046609  -0.027026  -0.000604   0.455410
     2  C    0.476179   5.010925   0.428263  -0.000113  -0.035491  -0.034810
     3  C   -0.046609   0.428263   5.142048   0.458804  -0.050457  -0.025682
     4  C   -0.027026  -0.000113   0.458804   4.764301   0.389909  -0.051068
     5  C   -0.000604  -0.035491  -0.050457   0.389909   4.870437   0.413572
     6  C    0.455410  -0.034810  -0.025682  -0.051068   0.413572   5.141438
     7  O    0.003134  -0.000210   0.007398  -0.045218   0.244796  -0.055720
     8  C   -0.000188  -0.000171   0.008289  -0.099075  -0.070464   0.005841
     9  N   -0.000193   0.004820  -0.065976   0.389866  -0.075394   0.012150
    10  H    0.364579  -0.039543   0.004515   0.000488   0.003808  -0.039328
    11  H   -0.038750   0.362653  -0.039199   0.003083   0.000594   0.004443
    12  H    0.004617  -0.046455   0.353621  -0.032379   0.006557  -0.000049
    13  H   -0.040338   0.004419   0.000128   0.004835  -0.034524   0.353734
    14  H    0.000006   0.000005  -0.000195   0.005148   0.004483  -0.000136
              7          8          9         10         11         12
     1  C    0.003134  -0.000188  -0.000193   0.364579  -0.038750   0.004617
     2  C   -0.000210  -0.000171   0.004820  -0.039543   0.362653  -0.046455
     3  C    0.007398   0.008289  -0.065976   0.004515  -0.039199   0.353621
     4  C   -0.045218  -0.099075   0.389866   0.000488   0.003083  -0.032379
     5  C    0.244796  -0.070464  -0.075394   0.003808   0.000594   0.006557
     6  C   -0.055720   0.005841   0.012150  -0.039328   0.004443  -0.000049
     7  O    8.168979   0.261725  -0.080703  -0.000046   0.000001  -0.000037
     8  C    0.261725   4.809420   0.481772   0.000001   0.000004  -0.000064
     9  N   -0.080703   0.481772   6.841912   0.000001  -0.000079  -0.001848
    10  H   -0.000046   0.000001   0.000001   0.575104  -0.005499  -0.000138
    11  H    0.000001   0.000004  -0.000079  -0.005499   0.567732  -0.005194
    12  H   -0.000037  -0.000064  -0.001848  -0.000138  -0.005194   0.568581
    13  H   -0.001779  -0.000122  -0.000111  -0.005287  -0.000138   0.000015
    14  H   -0.043202   0.382491  -0.042459  -0.000000  -0.000000  -0.000003
             13         14
     1  C   -0.040338   0.000006
     2  C    0.004419   0.000005
     3  C    0.000128  -0.000195
     4  C    0.004835   0.005148
     5  C   -0.034524   0.004483
     6  C    0.353734  -0.000136
     7  O   -0.001779  -0.043202
     8  C   -0.000122   0.382491
     9  N   -0.000111  -0.042459
    10  H   -0.005287  -0.000000
    11  H   -0.000138  -0.000000
    12  H    0.000015  -0.000003
    13  H    0.565296  -0.000002
    14  H   -0.000002   0.523443
 Mulliken atomic charges:
              1
     1  C   -0.152435
     2  C   -0.130472
     3  C   -0.174948
     4  C    0.238447
     5  C    0.332778
     6  C   -0.179794
     7  O   -0.459120
     8  C    0.220541
     9  N   -0.463759
    10  H    0.141345
    11  H    0.150348
    12  H    0.152774
    13  H    0.153874
    14  H    0.170421
 Sum of Mulliken atomic charges =  -0.00000
 Mulliken charges with hydrogens summed into heavy atoms:
              1
     1  C   -0.011090
     2  C    0.019876
     3  C   -0.022174
     4  C    0.238447
     5  C    0.332778
     6  C   -0.025920
     7  O   -0.459120
     8  C    0.390962
     9  N   -0.463759
 Sum of Mulliken charges with hydrogens summed into heavy atoms =  -0.00000
 Electronic spatial extent (au):  <R**2>=            952.4143
 Charge=             -0.0000 electrons
 Dipole moment (field-independent basis, Debye):
    X=              1.5367    Y=             -1.0836    Z=              0.0003  Tot=              1.8803
 Quadrupole moment (field-independent basis, Debye-Ang):
   XX=            -43.7820   YY=            -50.7450   ZZ=            -52.7834
   XY=              2.8436   XZ=             -0.0010   YZ=              0.0002
 Traceless Quadrupole moment (field-independent basis, Debye-Ang):
   XX=              5.3215   YY=             -1.6415   ZZ=             -3.6799
   XY=              2.8436   XZ=             -0.0010   YZ=              0.0002
 Octapole moment (field-independent basis, Debye-Ang**2):
  XXX=            -11.3890  YYY=             -8.3258  ZZZ=             -0.0015  XYY=             12.7658
  XXY=             -4.8538  XXZ=              0.0019  XZZ=             -5.6891  YZZ=             -1.5344
  YYZ=             -0.0002  XYZ=             -0.0004
 Hexadecapole moment (field-independent basis, Debye-Ang**3):
 XXXX=           -702.5094 YYYY=           -364.5500 ZZZZ=            -51.4018 XXXY=             19.6984
 XXXZ=             -0.0047 YYYX=             15.1590 YYYZ=              0.0015 ZZZX=              0.0018
 ZZZY=              0.0003 XXYY=           -209.3766 XXZZ=           -156.6324 YYZZ=            -78.0899
 XXYZ=              0.0009 YYXZ=             -0.0016 ZZXY=              3.3486
 N-N= 4.050264213280D+02 E-N=-1.739421860375D+03  KE= 3.962895009397D+02
 No NMR shielding tensors so no spin-rotation constants.
 Leave Link  601 at Mon Oct  4 13:39:34 2021, MaxMem=  536870912 cpu:       0.4
 (Enter /sw/target/amd/app/gaussian/Gaussian09RevA.02_gcc-4.9.2/g09/l604.exe)
 Evaluate density.
 Using the total density.
 Monte-Carlo method of calculating molar volume:
 based on  0.001 e/bohr**3 density envelope.
 Number of points per bohr**3 =   20 CutOff= 1.00D-04
 Using the CI density.
 There are       344 points.  Will hold       344 in memory.
 LenV=   536798486 MDV=   536870912.
 Box volume = 5126.710 fraction occupied=0.206
 Integrated density= 5.3931974247427490D+01 error=-8.0680257525725096D+00
 Molar volume = 1058.129 bohr**3/mol ( 94.426 cm**3/mol)
 Recommended a0 for SCRF calculation =  4.18 angstrom (  7.90 bohr)
 Leave Link  604 at Mon Oct  4 13:39:51 2021, MaxMem=  536870912 cpu:       0.2
 (Enter /sw/target/amd/app/gaussian/Gaussian09RevA.02_gcc-4.9.2/g09/l607.exe)
 ******************************Gaussian NBO Version 3.1******************************
             N A T U R A L   A T O M I C   O R B I T A L   A N D
          N A T U R A L   B O N D   O R B I T A L   A N A L Y S I S
 ******************************Gaussian NBO Version 3.1******************************
       /RESON  / : Allow strongly delocalized NBO set

 Analyzing the CI density

 Job title: c1ccc2c(c1)ocn2_conf_0                                          

 Storage needed:     63822 in NPA ( 536869820 available)


 NATURAL POPULATIONS:  Natural atomic orbital occupancies 
                                                          
   NAO  Atom  No  lang   Type(AO)    Occupancy
 --------------------------------------------
     1    C    1  S      Cor( 1S)     1.99918
     2    C    1  S      Val( 2S)     0.97069
     3    C    1  S      Ryd( 3S)     0.00054
     4    C    1  S      Ryd( 4S)     0.00004
     5    C    1  px     Val( 2p)     1.15295
     6    C    1  px     Ryd( 3p)     0.00482
     7    C    1  py     Val( 2p)     1.08396
     8    C    1  py     Ryd( 3p)     0.00488
     9    C    1  pz     Val( 2p)     1.02433
    10    C    1  pz     Ryd( 3p)     0.00338
    11    C    1  dxy    Ryd( 3d)     0.00079
    12    C    1  dxz    Ryd( 3d)     0.00048
    13    C    1  dyz    Ryd( 3d)     0.00057
    14    C    1  dx2y2  Ryd( 3d)     0.00071
    15    C    1  dz2    Ryd( 3d)     0.00045

    16    C    2  S      Cor( 1S)     1.99916
    17    C    2  S      Val( 2S)     0.97828
    18    C    2  S      Ryd( 3S)     0.00050
    19    C    2  S      Ryd( 4S)     0.00004
    20    C    2  px     Val( 2p)     1.15757
    21    C    2  px     Ryd( 3p)     0.00453
    22    C    2  py     Val( 2p)     1.08294
    23    C    2  py     Ryd( 3p)     0.00472
    24    C    2  pz     Val( 2p)     0.92851
    25    C    2  pz     Ryd( 3p)     0.00321
    26    C    2  dxy    Ryd( 3d)     0.00085
    27    C    2  dxz    Ryd( 3d)     0.00048
    28    C    2  dyz    Ryd( 3d)     0.00070
    29    C    2  dx2y2  Ryd( 3d)     0.00074
    30    C    2  dz2    Ryd( 3d)     0.00045

    31    C    3  S      Cor( 1S)     1.99905
    32    C    3  S      Val( 2S)     0.96534
    33    C    3  S      Ryd( 3S)     0.00094
    34    C    3  S      Ryd( 4S)     0.00005
    35    C    3  px     Val( 2p)     1.04125
    36    C    3  px     Ryd( 3p)     0.00506
    37    C    3  py     Val( 2p)     1.20287
    38    C    3  py     Ryd( 3p)     0.00432
    39    C    3  pz     Val( 2p)     1.03263
    40    C    3  pz     Ryd( 3p)     0.00469
    41    C    3  dxy    Ryd( 3d)     0.00070
    42    C    3  dxz    Ryd( 3d)     0.00055
    43    C    3  dyz    Ryd( 3d)     0.00045
    44    C    3  dx2y2  Ryd( 3d)     0.00078
    45    C    3  dz2    Ryd( 3d)     0.00042

    46    C    4  S      Cor( 1S)     1.99895
    47    C    4  S      Val( 2S)     0.86401
    48    C    4  S      Ryd( 3S)     0.00242
    49    C    4  S      Ryd( 4S)     0.00010
    50    C    4  px     Val( 2p)     0.97240
    51    C    4  px     Ryd( 3p)     0.00475
    52    C    4  py     Val( 2p)     1.04008
    53    C    4  py     Ryd( 3p)     0.00934
    54    C    4  pz     Val( 2p)     1.00111
    55    C    4  pz     Ryd( 3p)     0.00186
    56    C    4  dxy    Ryd( 3d)     0.00104
    57    C    4  dxz    Ryd( 3d)     0.00137
    58    C    4  dyz    Ryd( 3d)     0.00066
    59    C    4  dx2y2  Ryd( 3d)     0.00117
    60    C    4  dz2    Ryd( 3d)     0.00035

    61    C    5  S      Cor( 1S)     1.99872
    62    C    5  S      Val( 2S)     0.85253
    63    C    5  S      Ryd( 3S)     0.00252
    64    C    5  S      Ryd( 4S)     0.00014
    65    C    5  px     Val( 2p)     0.80682
    66    C    5  px     Ryd( 3p)     0.00429
    67    C    5  py     Val( 2p)     1.02702
    68    C    5  py     Ryd( 3p)     0.00796
    69    C    5  pz     Val( 2p)     0.96909
    70    C    5  pz     Ryd( 3p)     0.00200
    71    C    5  dxy    Ryd( 3d)     0.00164
    72    C    5  dxz    Ryd( 3d)     0.00196
    73    C    5  dyz    Ryd( 3d)     0.00078
    74    C    5  dx2y2  Ryd( 3d)     0.00165
    75    C    5  dz2    Ryd( 3d)     0.00056

    76    C    6  S      Cor( 1S)     1.99902
    77    C    6  S      Val( 2S)     0.96718
    78    C    6  S      Ryd( 3S)     0.00101
    79    C    6  S      Ryd( 4S)     0.00004
    80    C    6  px     Val( 2p)     1.04900
    81    C    6  px     Ryd( 3p)     0.00548
    82    C    6  py     Val( 2p)     1.20663
    83    C    6  py     Ryd( 3p)     0.00386
    84    C    6  pz     Val( 2p)     1.05146
    85    C    6  pz     Ryd( 3p)     0.00478
    86    C    6  dxy    Ryd( 3d)     0.00069
    87    C    6  dxz    Ryd( 3d)     0.00066
    88    C    6  dyz    Ryd( 3d)     0.00047
    89    C    6  dx2y2  Ryd( 3d)     0.00075
    90    C    6  dz2    Ryd( 3d)     0.00045

    91    O    7  S      Cor( 1S)     1.99976
    92    O    7  S      Val( 2S)     1.61595
    93    O    7  S      Ryd( 3S)     0.00044
    94    O    7  S      Ryd( 4S)     0.00005
    95    O    7  px     Val( 2p)     1.42225
    96    O    7  px     Ryd( 3p)     0.00128
    97    O    7  py     Val( 2p)     1.70235
    98    O    7  py     Ryd( 3p)     0.00177
    99    O    7  pz     Val( 2p)     1.71814
   100    O    7  pz     Ryd( 3p)     0.00154
   101    O    7  dxy    Ryd( 3d)     0.00147
   102    O    7  dxz    Ryd( 3d)     0.00073
   103    O    7  dyz    Ryd( 3d)     0.00229
   104    O    7  dx2y2  Ryd( 3d)     0.00160
   105    O    7  dz2    Ryd( 3d)     0.00079

   106    C    8  S      Cor( 1S)     1.99937
   107    C    8  S      Val( 2S)     0.90620
   108    C    8  S      Ryd( 3S)     0.00213
   109    C    8  S      Ryd( 4S)     0.00019
   110    C    8  px     Val( 2p)     1.04128
   111    C    8  px     Ryd( 3p)     0.00358
   112    C    8  py     Val( 2p)     0.70940
   113    C    8  py     Ryd( 3p)     0.01670
   114    C    8  pz     Val( 2p)     1.00190
   115    C    8  pz     Ryd( 3p)     0.00464
   116    C    8  dxy    Ryd( 3d)     0.00206
   117    C    8  dxz    Ryd( 3d)     0.00089
   118    C    8  dyz    Ryd( 3d)     0.00168
   119    C    8  dx2y2  Ryd( 3d)     0.00249
   120    C    8  dz2    Ryd( 3d)     0.00061

   121    N    9  S      Cor( 1S)     1.99946
   122    N    9  S      Val( 2S)     1.41411
   123    N    9  S      Ryd( 3S)     0.00047
   124    N    9  S      Ryd( 4S)     0.00004
   125    N    9  px     Val( 2p)     1.21973
   126    N    9  px     Ryd( 3p)     0.00343
   127    N    9  py     Val( 2p)     1.60791
   128    N    9  py     Ryd( 3p)     0.00406
   129    N    9  pz     Val( 2p)     1.22631
   130    N    9  pz     Ryd( 3p)     0.00102
   131    N    9  dxy    Ryd( 3d)     0.00329
   132    N    9  dxz    Ryd( 3d)     0.00060
   133    N    9  dyz    Ryd( 3d)     0.00406
   134    N    9  dx2y2  Ryd( 3d)     0.00346
   135    N    9  dz2    Ryd( 3d)     0.00253

   136    H   10  S      Val( 1S)     0.76054
   137    H   10  S      Ryd( 2S)     0.00074

   138    H   11  S      Val( 1S)     0.76207
   139    H   11  S      Ryd( 2S)     0.00078

   140    H   12  S      Val( 1S)     0.75160
   141    H   12  S      Ryd( 2S)     0.00109

   142    H   13  S      Val( 1S)     0.74975
   143    H   13  S      Ryd( 2S)     0.00102

   144    H   14  S      Val( 1S)     0.77952
   145    H   14  S      Ryd( 2S)     0.00057

 WARNING:  1 low occupancy (<1.9990e) core orbital  found on  C    4
           1 low occupancy (<1.9990e) core orbital  found on  C    5


 Summary of Natural Population Analysis:                  
                                                          
                                       Natural Population 
                Natural  -----------------------------------------------
    Atom  No    Charge         Core      Valence    Rydberg      Total
 -----------------------------------------------------------------------
      C    1   -0.24777      1.99918     4.23193    0.01666     6.24777
      C    2   -0.16269      1.99916     4.14730    0.01622     6.16269
      C    3   -0.25909      1.99905     4.24208    0.01796     6.25909
      C    4    0.10040      1.99895     3.87760    0.02305     5.89960
      C    5    0.32232      1.99872     3.65546    0.02349     5.67768
      C    6   -0.29146      1.99902     4.27426    0.01818     6.29146
      O    7   -0.47041      1.99976     6.45869    0.01197     8.47041
      C    8    0.30687      1.99937     3.65878    0.03498     5.69313
      N    9   -0.49051      1.99946     5.46807    0.02297     7.49051
      H   10    0.23872      0.00000     0.76054    0.00074     0.76128
      H   11    0.23715      0.00000     0.76207    0.00078     0.76285
      H   12    0.24732      0.00000     0.75160    0.00109     0.75268
      H   13    0.24923      0.00000     0.74975    0.00102     0.75077
      H   14    0.21991      0.00000     0.77952    0.00057     0.78009
 =======================================================================
   * Total *   -0.00000     17.99267    43.81766    0.18967    62.00000

                                 Natural Population      
 --------------------------------------------------------
   Core                      17.99267 ( 99.9593% of  18)
   Valence                   43.81766 ( 99.5856% of  44)
   Natural Minimal Basis     61.81033 ( 99.6941% of  62)
   Natural Rydberg Basis      0.18967 (  0.3059% of  62)
 --------------------------------------------------------

    Atom  No          Natural Electron Configuration
 ----------------------------------------------------------------------------
      C    1      [core]2S( 0.97)2p( 3.26)3p( 0.01)
      C    2      [core]2S( 0.98)2p( 3.17)3p( 0.01)
      C    3      [core]2S( 0.97)2p( 3.28)3p( 0.01)
      C    4      [core]2S( 0.86)2p( 3.01)3p( 0.02)
      C    5      [core]2S( 0.85)2p( 2.80)3p( 0.01)3d( 0.01)
      C    6      [core]2S( 0.97)2p( 3.31)3p( 0.01)
      O    7      [core]2S( 1.62)2p( 4.84)3d( 0.01)
      C    8      [core]2S( 0.91)2p( 2.75)3p( 0.02)3d( 0.01)
      N    9      [core]2S( 1.41)2p( 4.05)3p( 0.01)3d( 0.01)
      H   10            1S( 0.76)
      H   11            1S( 0.76)
      H   12            1S( 0.75)
      H   13            1S( 0.75)
      H   14            1S( 0.78)


 NBO analysis skipped by request.
 Leave Link  607 at Mon Oct  4 13:40:25 2021, MaxMem=  536870912 cpu:       5.9
 (Enter /sw/target/amd/app/gaussian/Gaussian09RevA.02_gcc-4.9.2/g09/l9999.exe)
 1\1\GINC-HERMITE\SP\RTD-B3LYP-FC\6-31G(d)\C7H5N1O1\JSCHLEINITZ\04-Oct-
 2021\0\\#p TD(NStates=10, Root=1) b3lyp/6-31G* volume pop=NPA density=
 current Geom=AllCheck Guess=Read\\c1ccc2c(c1)ocn2_conf_0\\0,1\C,0,2.16
 30419736,-0.7273413649,-0.0019375273\C,0,2.1944883768,0.6802692348,-0.
 0039205143\C,0,1.0244059278,1.4380573652,-0.0028562645\C,0,-0.18803540
 02,0.7438029116,0.0002915177\C,0,-0.1909465923,-0.6574672019,0.0022081
 457\C,0,0.9585162373,-1.4339485622,0.0011867923\O,0,-1.5045332955,-1.0
 674693827,0.0050661033\C,0,-2.2066604892,0.1090893437,0.0051179462\N,0
 ,-1.5137248454,1.1962706524,0.0019109178\H,0,3.0990023939,-1.278471965
 9,-0.0028967994\H,0,3.1564955618,1.1847201709,-0.0063792042\H,0,1.0436
 99616,2.5230847591,-0.0044281278\H,0,0.9221050047,-2.5180639806,0.0027
 050265\H,0,-3.2833493656,0.0102533261,0.0071653482\\Version=AM64L-G09R
 evA.02\State=1-A\HF=-399.7232321\RMSD=4.443e-09\Dipole=0.5988038,-0.43
 43593,-0.000374\Quadrupole=4.0120317,-1.2761316,-2.7359001,2.0440574,-
 0.0158637,-0.0055456\PG=C01 [X(C7H5N1O1)]\\@


 THEORY:  SUPPOSITION WHICH HAS SCIENTIFIC BASIS,
          BUT NOT EXPERIMENTALLY PROVEN.
 FACT:    A THEORY WHICH HAS BEEN PROVEN BY ENOUGH 
          MONEY TO PAY FOR THE EXPERIMENTS.

                          --  THE WIZARD OF ID
 Job cpu time:  0 days  0 hours 28 minutes 43.0 seconds.
 File lengths (MBytes):  RWF=     73 Int=      0 D2E=      0 Chk=     10 Scr=      1
 Normal termination of Gaussian 09 at Mon Oct  4 13:41:22 2021.
