 Entering Gaussian System, Link 0=g09
 Input=C7H7NO3_8511_conf_0.com
 Output=C7H7NO3_8511_conf_0.log
 Initial command:
 /sw/target/amd/app/gaussian/Gaussian09RevA.02_gcc-4.9.2/g09/l1.exe /home/jschleinitz/gaussian/Gau-467006.inp -scrdir=/home/jschleinitz/gaussian/
 Entering Link 1 = /sw/target/amd/app/gaussian/Gaussian09RevA.02_gcc-4.9.2/g09/l1.exe PID=    467008.
  
 Copyright (c) 1988,1990,1992,1993,1995,1998,2003,2009, Gaussian, Inc.
                  All Rights Reserved.
  
 This is part of the Gaussian(R) 09 program.  It is based on
 the Gaussian(R) 03 system (copyright 2003, Gaussian, Inc.),
 the Gaussian(R) 98 system (copyright 1998, Gaussian, Inc.),
 the Gaussian(R) 94 system (copyright 1995, Gaussian, Inc.),
 the Gaussian 92(TM) system (copyright 1992, Gaussian, Inc.),
 the Gaussian 90(TM) system (copyright 1990, Gaussian, Inc.),
 the Gaussian 88(TM) system (copyright 1988, Gaussian, Inc.),
 the Gaussian 86(TM) system (copyright 1986, Carnegie Mellon
 University), and the Gaussian 82(TM) system (copyright 1983,
 Carnegie Mellon University). Gaussian is a federally registered
 trademark of Gaussian, Inc.
  
 This software contains proprietary and confidential information,
 including trade secrets, belonging to Gaussian, Inc.
  
 This software is provided under written license and may be
 used, copied, transmitted, or stored only in accord with that
 written license.
  
 The following legend is applicable only to US Government
 contracts under FAR:
  
                    RESTRICTED RIGHTS LEGEND
  
 Use, reproduction and disclosure by the US Government is
 subject to restrictions as set forth in subparagraphs (a)
 and (c) of the Commercial Computer Software - Restricted
 Rights clause in FAR 52.227-19.
  
 Gaussian, Inc.
 340 Quinnipiac St., Bldg. 40, Wallingford CT 06492
  
  
 ---------------------------------------------------------------
 Warning -- This program may not be used in any manner that
 competes with the business of Gaussian, Inc. or will provide
 assistance to any competitor of Gaussian, Inc.  The licensee
 of this program is prohibited from giving any competitor of
 Gaussian, Inc. access to this program.  By using this program,
 the user acknowledges that Gaussian, Inc. is engaged in the
 business of creating and licensing software in the field of
 computational chemistry and represents and warrants to the
 licensee that it is not a competitor of Gaussian, Inc. and that
 it will not use this program in any manner prohibited above.
 ---------------------------------------------------------------
  

 Cite this work as:
 Gaussian 09, Revision A.02,
 M. J. Frisch, G. W. Trucks, H. B. Schlegel, G. E. Scuseria, 
 M. A. Robb, J. R. Cheeseman, G. Scalmani, V. Barone, B. Mennucci, 
 G. A. Petersson, H. Nakatsuji, M. Caricato, X. Li, H. P. Hratchian, 
 A. F. Izmaylov, J. Bloino, G. Zheng, J. L. Sonnenberg, M. Hada, 
 M. Ehara, K. Toyota, R. Fukuda, J. Hasegawa, M. Ishida, T. Nakajima, 
 Y. Honda, O. Kitao, H. Nakai, T. Vreven, J. A. Montgomery, Jr., 
 J. E. Peralta, F. Ogliaro, M. Bearpark, J. J. Heyd, E. Brothers, 
 K. N. Kudin, V. N. Staroverov, R. Kobayashi, J. Normand, 
 K. Raghavachari, A. Rendell, J. C. Burant, S. S. Iyengar, J. Tomasi, 
 M. Cossi, N. Rega, J. M. Millam, M. Klene, J. E. Knox, J. B. Cross, 
 V. Bakken, C. Adamo, J. Jaramillo, R. Gomperts, R. E. Stratmann, 
 O. Yazyev, A. J. Austin, R. Cammi, C. Pomelli, J. W. Ochterski, 
 R. L. Martin, K. Morokuma, V. G. Zakrzewski, G. A. Voth, 
 P. Salvador, J. J. Dannenberg, S. Dapprich, A. D. Daniels, 
 O. Farkas, J. B. Foresman, J. V. Ortiz, J. Cioslowski, 
 and D. J. Fox, Gaussian, Inc., Wallingford CT, 2009.
 
 ******************************************
 Gaussian 09:  AM64L-G09RevA.02 11-Jun-2009
                29-Sep-2021 
 ******************************************
 %nproc=3
 Will use up to    3 processors via shared memory.
 %mem=6gb
 %chk=C7H7NO3_8511_conf_0.chk
 -----------------------------------
 #p opt b3lyp/6-31G* scf=(xqc,tight)
 -----------------------------------
 1/14=-1,18=20,19=15,26=3,38=1/1,3;
 2/9=110,12=2,17=6,18=5,40=1/2;
 3/5=1,6=6,7=1,11=2,16=1,25=1,30=1,71=1,74=-5/1,2,3;
 4//1;
 5/5=2,8=3,13=1,32=2,38=5/2,8;
 6/7=2,8=2,9=2,10=2,28=1/1;
 7//1,2,3,16;
 1/14=-1,18=20,19=15/3(2);
 2/9=110/2;
 99//99;
 2/9=110/2;
 3/5=1,6=6,7=1,11=2,16=1,25=1,30=1,71=1,74=-5/1,2,3;
 4/5=5,16=3/1;
 5/5=2,8=3,13=1,32=2,38=5/2,8;
 7//1,2,3,16;
 1/14=-1,18=20,19=15/3(-5);
 2/9=110/2;
 6/7=2,8=2,9=2,10=2,19=2,28=1/1;
 99/9=1/99;
 Leave Link    1 at Wed Sep 29 00:08:49 2021, MaxMem=  805306368 cpu:       0.1
 (Enter /sw/target/amd/app/gaussian/Gaussian09RevA.02_gcc-4.9.2/g09/l101.exe)
 -------------------------------
 COc1ccc(cc1)[N+](=O)[O-]_conf_0
 -------------------------------
 Symbolic Z-matrix:
 Charge =  0 Multiplicity = 1
 C                     1.31778   0.07868  -0.59548 
 O                     2.4724   -0.27215   0.15758 
 C                     3.1466   -1.39759  -0.22679 
 C                     2.80499  -2.23511  -1.29137 
 C                     3.58368  -3.36237  -1.5797 
 C                     4.70877  -3.64874  -0.79581 
 C                     5.05878  -2.81556   0.27189 
 C                     4.27314  -1.69369   0.54874 
 N                     5.52517  -4.83101  -1.09708 
 O                     5.17932  -5.54194  -2.05168 
 O                     6.51191  -5.04927  -0.37979 
 H                     0.8994    0.99146  -0.16059 
 H                     0.55264  -0.70203  -0.53132 
 H                     1.57725   0.29417  -1.63724 
 H                     1.93926  -2.04017  -1.91675 
 H                     3.29942  -4.00133  -2.41357 
 H                     5.92841  -3.02016   0.8925 
 H                     4.53984  -1.04124   1.37802 
 
 NAtoms=     18 NQM=     18 NQMF=      0 NMic=      0 NMicF=      0 NTot=     18.
                    Isotopes and Nuclear Properties:
 (Nuclear quadrupole moments (NQMom) in fm**2, nuclear magnetic moments (NMagM)
  in nuclear magnetons)

  Atom         1           2           3           4           5           6           7           8           9          10
 IAtWgt=          12          16          12          12          12          12          12          12          14          16
 AtmWgt=  12.0000000  15.9949146  12.0000000  12.0000000  12.0000000  12.0000000  12.0000000  12.0000000  14.0030740  15.9949146
 NucSpn=           0           0           0           0           0           0           0           0           2           0
 AtZEff=   0.0000000   0.0000000   0.0000000   0.0000000   0.0000000   0.0000000   0.0000000   0.0000000   0.0000000   0.0000000
 NQMom=    0.0000000   0.0000000   0.0000000   0.0000000   0.0000000   0.0000000   0.0000000   0.0000000   2.0440000   0.0000000
 NMagM=    0.0000000   0.0000000   0.0000000   0.0000000   0.0000000   0.0000000   0.0000000   0.0000000   0.4037610   0.0000000

  Atom        11          12          13          14          15          16          17          18
 IAtWgt=          16           1           1           1           1           1           1           1
 AtmWgt=  15.9949146   1.0078250   1.0078250   1.0078250   1.0078250   1.0078250   1.0078250   1.0078250
 NucSpn=           0           1           1           1           1           1           1           1
 AtZEff=   0.0000000   0.0000000   0.0000000   0.0000000   0.0000000   0.0000000   0.0000000   0.0000000
 NQMom=    0.0000000   0.0000000   0.0000000   0.0000000   0.0000000   0.0000000   0.0000000   0.0000000
 NMagM=    0.0000000   2.7928460   2.7928460   2.7928460   2.7928460   2.7928460   2.7928460   2.7928460
 Leave Link  101 at Wed Sep 29 00:08:50 2021, MaxMem=  805306368 cpu:       0.2
 (Enter /sw/target/amd/app/gaussian/Gaussian09RevA.02_gcc-4.9.2/g09/l103.exe)

 GradGradGradGradGradGradGradGradGradGradGradGradGradGradGradGradGradGrad
 Berny optimization.
 Initialization pass.
                           ----------------------------
                           !    Initial Parameters    !
                           ! (Angstroms and Degrees)  !
 --------------------------                            --------------------------
 ! Name  Definition              Value          Derivative Info.                !
 --------------------------------------------------------------------------------
 ! R1    R(1,2)                  1.4224         estimate D2E/DX2                !
 ! R2    R(1,12)                 1.0942         estimate D2E/DX2                !
 ! R3    R(1,13)                 1.095          estimate D2E/DX2                !
 ! R4    R(1,14)                 1.095          estimate D2E/DX2                !
 ! R5    R(2,3)                  1.3671         estimate D2E/DX2                !
 ! R6    R(3,4)                  1.3969         estimate D2E/DX2                !
 ! R7    R(3,8)                  1.3994         estimate D2E/DX2                !
 ! R8    R(4,5)                  1.4001         estimate D2E/DX2                !
 ! R9    R(4,15)                 1.0856         estimate D2E/DX2                !
 ! R10   R(5,6)                  1.4008         estimate D2E/DX2                !
 ! R11   R(5,16)                 1.0883         estimate D2E/DX2                !
 ! R12   R(6,7)                  1.3988         estimate D2E/DX2                !
 ! R13   R(6,9)                  1.468          estimate D2E/DX2                !
 ! R14   R(7,8)                  1.3973         estimate D2E/DX2                !
 ! R15   R(7,17)                 1.0878         estimate D2E/DX2                !
 ! R16   R(8,18)                 1.0884         estimate D2E/DX2                !
 ! R17   R(9,10)                 1.2395         estimate D2E/DX2                !
 ! R18   R(9,11)                 1.2393         estimate D2E/DX2                !
 ! A1    A(2,1,12)             107.8            estimate D2E/DX2                !
 ! A2    A(2,1,13)             111.1204         estimate D2E/DX2                !
 ! A3    A(2,1,14)             111.0916         estimate D2E/DX2                !
 ! A4    A(12,1,13)            107.7154         estimate D2E/DX2                !
 ! A5    A(12,1,14)            107.731          estimate D2E/DX2                !
 ! A6    A(13,1,14)            111.2001         estimate D2E/DX2                !
 ! A7    A(1,2,3)              117.0334         estimate D2E/DX2                !
 ! A8    A(2,3,4)              125.9612         estimate D2E/DX2                !
 ! A9    A(2,3,8)              114.5442         estimate D2E/DX2                !
 ! A10   A(4,3,8)              119.4946         estimate D2E/DX2                !
 ! A11   A(3,4,5)              120.242          estimate D2E/DX2                !
 ! A12   A(3,4,15)             121.7585         estimate D2E/DX2                !
 ! A13   A(5,4,15)             117.9995         estimate D2E/DX2                !
 ! A14   A(4,5,6)              119.739          estimate D2E/DX2                !
 ! A15   A(4,5,16)             119.028          estimate D2E/DX2                !
 ! A16   A(6,5,16)             121.233          estimate D2E/DX2                !
 ! A17   A(5,6,7)              120.4197         estimate D2E/DX2                !
 ! A18   A(5,6,9)              119.7655         estimate D2E/DX2                !
 ! A19   A(7,6,9)              119.8148         estimate D2E/DX2                !
 ! A20   A(6,7,8)              119.2597         estimate D2E/DX2                !
 ! A21   A(6,7,17)             121.5655         estimate D2E/DX2                !
 ! A22   A(8,7,17)             119.1748         estimate D2E/DX2                !
 ! A23   A(3,8,7)              120.8451         estimate D2E/DX2                !
 ! A24   A(3,8,18)             119.5183         estimate D2E/DX2                !
 ! A25   A(7,8,18)             119.6366         estimate D2E/DX2                !
 ! A26   A(6,9,10)             117.6988         estimate D2E/DX2                !
 ! A27   A(6,9,11)             117.7654         estimate D2E/DX2                !
 ! A28   A(10,9,11)            124.5358         estimate D2E/DX2                !
 ! D1    D(12,1,2,3)           179.8497         estimate D2E/DX2                !
 ! D2    D(13,1,2,3)            62.0344         estimate D2E/DX2                !
 ! D3    D(14,1,2,3)           -62.3325         estimate D2E/DX2                !
 ! D4    D(1,2,3,4)             -0.0269         estimate D2E/DX2                !
 ! D5    D(1,2,3,8)            179.9847         estimate D2E/DX2                !
 ! D6    D(2,3,4,5)           -179.9649         estimate D2E/DX2                !
 ! D7    D(2,3,4,15)             0.0206         estimate D2E/DX2                !
 ! D8    D(8,3,4,5)              0.0229         estimate D2E/DX2                !
 ! D9    D(8,3,4,15)          -179.9915         estimate D2E/DX2                !
 ! D10   D(2,3,8,7)            179.9592         estimate D2E/DX2                !
 ! D11   D(2,3,8,18)            -0.0326         estimate D2E/DX2                !
 ! D12   D(4,3,8,7)             -0.03           estimate D2E/DX2                !
 ! D13   D(4,3,8,18)           179.9782         estimate D2E/DX2                !
 ! D14   D(3,4,5,6)              0.0056         estimate D2E/DX2                !
 ! D15   D(3,4,5,16)           179.9943         estimate D2E/DX2                !
 ! D16   D(15,4,5,6)          -179.9805         estimate D2E/DX2                !
 ! D17   D(15,4,5,16)            0.0083         estimate D2E/DX2                !
 ! D18   D(4,5,6,7)             -0.0276         estimate D2E/DX2                !
 ! D19   D(4,5,6,9)            179.9613         estimate D2E/DX2                !
 ! D20   D(16,5,6,7)           179.9839         estimate D2E/DX2                !
 ! D21   D(16,5,6,9)            -0.0272         estimate D2E/DX2                !
 ! D22   D(5,6,7,8)              0.0207         estimate D2E/DX2                !
 ! D23   D(5,6,7,17)          -179.9907         estimate D2E/DX2                !
 ! D24   D(9,6,7,8)           -179.9682         estimate D2E/DX2                !
 ! D25   D(9,6,7,17)             0.0204         estimate D2E/DX2                !
 ! D26   D(5,6,9,10)             0.0088         estimate D2E/DX2                !
 ! D27   D(5,6,9,11)          -179.9865         estimate D2E/DX2                !
 ! D28   D(7,6,9,10)           179.9979         estimate D2E/DX2                !
 ! D29   D(7,6,9,11)             0.0025         estimate D2E/DX2                !
 ! D30   D(6,7,8,3)              0.0082         estimate D2E/DX2                !
 ! D31   D(6,7,8,18)          -180.0            estimate D2E/DX2                !
 ! D32   D(17,7,8,3)          -179.9807         estimate D2E/DX2                !
 ! D33   D(17,7,8,18)            0.0111         estimate D2E/DX2                !
 --------------------------------------------------------------------------------
 Trust Radius=3.00D-01 FncErr=1.00D-07 GrdErr=1.00D-06
 Number of steps in this run=  89 maximum allowed number of steps= 108.
 GradGradGradGradGradGradGradGradGradGradGradGradGradGradGradGradGradGrad

 Leave Link  103 at Wed Sep 29 00:08:50 2021, MaxMem=  805306368 cpu:       0.0
 (Enter /sw/target/amd/app/gaussian/Gaussian09RevA.02_gcc-4.9.2/g09/l202.exe)
                          Input orientation:                          
 ---------------------------------------------------------------------
 Center     Atomic      Atomic             Coordinates (Angstroms)
 Number     Number       Type             X           Y           Z
 ---------------------------------------------------------------------
      1          6           0        1.317777    0.078678   -0.595477
      2          8           0        2.472400   -0.272150    0.157576
      3          6           0        3.146597   -1.397588   -0.226792
      4          6           0        2.804994   -2.235115   -1.291368
      5          6           0        3.583677   -3.362372   -1.579698
      6          6           0        4.708775   -3.648738   -0.795805
      7          6           0        5.058779   -2.815557    0.271893
      8          6           0        4.273140   -1.693693    0.548742
      9          7           0        5.525166   -4.831010   -1.097079
     10          8           0        5.179323   -5.541941   -2.051678
     11          8           0        6.511911   -5.049265   -0.379790
     12          1           0        0.899398    0.991465   -0.160588
     13          1           0        0.552638   -0.702026   -0.531325
     14          1           0        1.577251    0.294175   -1.637238
     15          1           0        1.939261   -2.040174   -1.916746
     16          1           0        3.299423   -4.001332   -2.413571
     17          1           0        5.928408   -3.020164    0.892496
     18          1           0        4.539842   -1.041243    1.378022
 ---------------------------------------------------------------------
                    Distance matrix (angstroms):
                    1          2          3          4          5
     1  C    0.000000
     2  O    1.422436   0.000000
     3  C    2.379049   1.367074   0.000000
     4  C    2.837202   2.462374   1.396949   0.000000
     5  C    4.236014   3.715175   2.425235   1.400068   0.000000
     6  C    5.043077   4.160727   2.798545   2.422457   1.400835
     7  C    4.808745   3.629235   2.432235   2.803614   2.429675
     8  C    3.631075   2.327328   1.399368   2.415491   2.791076
     9  N    6.485273   5.628209   4.266541   3.765071   2.481773
    10  O    6.973050   6.322890   4.963653   4.141330   2.742148
    11  O    7.302147   6.279111   4.968249   4.742537   3.586077
    12  H    1.094235   2.042618   3.280527   3.914176   5.308024
    13  H    1.095012   2.084433   2.702807   2.828627   4.166979
    14  H    1.095004   2.084076   2.704489   2.832716   4.171257
    15  H    2.573233   2.777221   2.174056   1.085630   2.136799
    16  H    4.886601   4.604515   3.403651   2.150191   1.088308
    17  H    5.751070   4.476124   3.409404   3.891180   3.424415
    18  H    3.940891   2.520974   2.154888   3.400099   3.879433
                    6          7          8          9         10
     6  C    0.000000
     7  C    1.398811   0.000000
     8  C    2.412424   1.397303   0.000000
     9  N    1.468001   2.480655   3.757533   0.000000
    10  O    2.320097   3.584227   4.732058   1.239472   0.000000
    11  O    2.320743   2.743307   4.139340   1.239276   2.194022
    12  H    6.037080   5.655167   4.369823   7.495062   8.036130
    13  H    5.101620   5.041575   3.999010   6.488036   6.866037
    14  H    5.104998   5.043437   3.999743   6.491942   6.870730
    15  H    3.393257   3.888799   3.412576   4.617286   4.772691
    16  H    2.174342   3.422443   3.879256   2.715778   2.457330
    17  H    2.175540   1.087781   2.148862   2.720326   3.948246
    18  H    3.398984   2.154300   1.088359   4.632421   5.694565
                   11         12         13         14         15
    11  O    0.000000
    12  H    8.248562   0.000000
    13  H    7.377966   1.767937   0.000000
    14  H    7.381354   1.768105   1.807012   0.000000
    15  H    5.685595   3.654619   2.373342   2.378731   0.000000
    16  H    3.943921   5.980307   4.687547   4.692541   2.437830
    17  H    2.465043   6.518673   6.024943   6.026356   4.976497
    18  H    4.800334   4.444328   4.433787   4.433066   4.314671
                   16         17         18
    16  H    0.000000
    17  H    4.336396   0.000000
    18  H    4.967589   2.465762   0.000000
 Stoichiometry    C7H7NO3
 Framework group  C1[X(C7H7NO3)]
 Deg. of freedom    48
 Full point group                 C1      NOp   1
 Largest Abelian subgroup         C1      NOp   1
 Largest concise Abelian subgroup C1      NOp   1
                         Standard orientation:                         
 ---------------------------------------------------------------------
 Center     Atomic      Atomic             Coordinates (Angstroms)
 Number     Number       Type             X           Y           Z
 ---------------------------------------------------------------------
      1          6           0        3.862985   -0.575239   -0.000609
      2          8           0        2.980733    0.540537   -0.000611
      3          6           0        1.640162    0.272657    0.000249
      4          6           0        1.057289   -0.996880    0.000599
      5          6           0       -0.336142   -1.133041    0.000756
      6          6           0       -1.146025    0.009950    0.000442
      7          6           0       -0.571277    1.285229    0.000555
      8          6           0        0.820709    1.406998    0.000543
      9          7           0       -2.607133   -0.132142   -0.000253
     10          8           0       -3.074339   -1.280188   -0.000371
     11          8           0       -3.287884    0.903417   -0.000771
     12          1           0        4.887694   -0.191429   -0.004078
     13          1           0        3.731477   -1.182234   -0.902448
     14          1           0        3.735773   -1.178173    0.904554
     15          1           0        1.657761   -1.901328    0.000525
     16          1           0       -0.769180   -2.131487    0.000935
     17          1           0       -1.182296    2.185187    0.000467
     18          1           0        1.274414    2.396280    0.000631
 ---------------------------------------------------------------------
 Rotational constants (GHZ):      3.5320771      0.5778992      0.4982528
 Leave Link  202 at Wed Sep 29 00:08:50 2021, MaxMem=  805306368 cpu:       0.0
 (Enter /sw/target/amd/app/gaussian/Gaussian09RevA.02_gcc-4.9.2/g09/l301.exe)
 Standard basis: 6-31G(d) (6D, 7F)
 Ernie: Thresh=  0.10000D-02 Tol=  0.10000D-05 Strict=F.
 There are   179 symmetry adapted basis functions of A   symmetry.
 Integral buffers will be    131072 words long.
 Raffenetti 2 integral format.
 Two-electron integral symmetry is turned on.
   179 basis functions,   336 primitive gaussians,   179 cartesian basis functions
    40 alpha electrons       40 beta electrons
       nuclear repulsion energy       580.0732646382 Hartrees.
 IExCor=  402 DFT=T Ex+Corr=B3LYP ExCW=0 ScaHFX=  0.200000
 ScaDFX=  0.800000  0.720000  1.000000  0.810000 ScalE2=  1.000000  1.000000
 IRadAn=      0 IRanWt=     -1 IRanGd=            0 ICorTp=0
 NAtoms=   18 NActive=   18 NUniq=   18 SFac= 7.50D-01 NAtFMM=   80 NAOKFM=F Big=F
 Leave Link  301 at Wed Sep 29 00:08:50 2021, MaxMem=  805306368 cpu:       0.1
 (Enter /sw/target/amd/app/gaussian/Gaussian09RevA.02_gcc-4.9.2/g09/l302.exe)
 NPDir=0 NMtPBC=     1 NCelOv=     1 NCel=       1 NClECP=     1 NCelD=      1
         NCelK=      1 NCelE2=     1 NClLst=     1 CellRange=     0.0.
 One-electron integrals computed using PRISM.
 NBasis=   179 RedAO= T  NBF=   179
 NBsUse=   179 1.00D-06 NBFU=   179
 Precomputing XC quadrature grid using
 IXCGrd= 2 IRadAn=           0 IRanWt=          -1 IRanGd=           0 AccXCQ= 1.00D-10.
 NRdTot=    1126 NPtTot=      143054 NUsed=      151183 NTot=      151215
 NSgBfM=   178   178   178   178   178 NAtAll=    18    18.
 Leave Link  302 at Wed Sep 29 00:08:52 2021, MaxMem=  805306368 cpu:       1.0
 (Enter /sw/target/amd/app/gaussian/Gaussian09RevA.02_gcc-4.9.2/g09/l303.exe)
 DipDrv:  MaxL=1.
 Leave Link  303 at Wed Sep 29 00:08:52 2021, MaxMem=  805306368 cpu:       0.1
 (Enter /sw/target/amd/app/gaussian/Gaussian09RevA.02_gcc-4.9.2/g09/l401.exe)
 Harris functional with IExCor=  402 diagonalized for initial guess.
 ExpMin= 1.61D-01 ExpMax= 5.48D+03 ExpMxC= 8.25D+02 IAcc=1 IRadAn=         1 AccDes= 0.00D+00
 HarFok:  IExCor=  402 AccDes= 0.00D+00 IRadAn=         1 IDoV= 1
 ScaDFX=  1.000000  1.000000  1.000000  1.000000
 FoFCou: FMM=F IPFlag=           0 FMFlag=      100000 FMFlg1=           0
         NFxFlg=           0 DoJE=T BraDBF=F KetDBF=T FulRan=T
         Omega=  0.000000  0.000000  1.000000  0.000000  0.000000 ICntrl=     500 IOpCl=  0
         NMat0=    1 NMatS0=    1 NMatT0=    0 NMatD0=    1 NMtDS0=    0 NMtDT0=    0
         I1Cent=           4 NGrid=           0.
 Petite list used in FoFCou.
 Harris En= -551.348331150994    
 Initial guess orbital symmetries:
       Occupied  (A) (A) (A) (A) (A) (A) (A) (A) (A) (A) (A) (A)
                 (A) (A) (A) (A) (A) (A) (A) (A) (A) (A) (A) (A)
                 (A) (A) (A) (A) (A) (A) (A) (A) (A) (A) (A) (A)
                 (A) (A) (A) (A)
       Virtual   (A) (A) (A) (A) (A) (A) (A) (A) (A) (A) (A) (A)
                 (A) (A) (A) (A) (A) (A) (A) (A) (A) (A) (A) (A)
                 (A) (A) (A) (A) (A) (A) (A) (A) (A) (A) (A) (A)
                 (A) (A) (A) (A) (A) (A) (A) (A) (A) (A) (A) (A)
                 (A) (A) (A) (A) (A) (A) (A) (A) (A) (A) (A) (A)
                 (A) (A) (A) (A) (A) (A) (A) (A) (A) (A) (A) (A)
                 (A) (A) (A) (A) (A) (A) (A) (A) (A) (A) (A) (A)
                 (A) (A) (A) (A) (A) (A) (A) (A) (A) (A) (A) (A)
                 (A) (A) (A) (A) (A) (A) (A) (A) (A) (A) (A) (A)
                 (A) (A) (A) (A) (A) (A) (A) (A) (A) (A) (A) (A)
                 (A) (A) (A) (A) (A) (A) (A) (A) (A) (A) (A) (A)
                 (A) (A) (A) (A) (A) (A) (A)
 The electronic state of the initial guess is 1-A.
 Leave Link  401 at Wed Sep 29 00:08:59 2021, MaxMem=  805306368 cpu:       4.9
 (Enter /sw/target/amd/app/gaussian/Gaussian09RevA.02_gcc-4.9.2/g09/l502.exe)
 Closed shell SCF:
 Requested convergence on RMS density matrix=1.00D-08 within  64 cycles.
 Requested convergence on MAX density matrix=1.00D-06.
 Requested convergence on             energy=1.00D-06.
 No special actions if energy rises.
 Using DIIS extrapolation, IDIIS=  1040.
 Integral symmetry usage will be decided dynamically.
       151008 words used for storage of precomputed grid.
 Keep R1 ints in memory in canonical form, NReq=132945119.
 IEnd=      255090 IEndB=      255090 NGot=   805306368 MDV=   675313590
 LenX=   675313590 LenY=   675281108
 Symmetry not used in FoFDir.
 MinBra= 0 MaxBra= 2 Meth= 1.
 IRaf=       0 NMat=   1 IRICut=       1 DoRegI=T DoRafI=F ISym2E= 0 JSym2E=0.
 Integral accuracy reduced to 1.0D-05 until final iterations.

 Cycle   1  Pass 0  IDiag  1:
 E= -550.978126987915    
 DIIS: error= 5.27D-02 at cycle   1 NSaved=   1.
 NSaved= 1 IEnMin= 1 EnMin= -550.978126987915     IErMin= 1 ErrMin= 5.27D-02
 ErrMax= 5.27D-02 EMaxC= 1.00D-01 BMatC= 3.52D-01 BMatP= 3.52D-01
 IDIUse=3 WtCom= 4.73D-01 WtEn= 5.27D-01
 Coeff-Com:  0.100D+01
 Coeff-En:   0.100D+01
 Coeff:      0.100D+01
 Gap=     0.111 Goal=   None    Shift=    0.000
 GapD=    0.111 DampG=1.000 DampE=0.500 DampFc=0.5000 IDamp=-1.
 Damping current iteration by 5.00D-01
 RMSDP=6.49D-03 MaxDP=2.52D-01              OVMax= 3.54D-01

 Cycle   2  Pass 0  IDiag  1:
 E= -551.059463023123     Delta-E=       -0.081336035208 Rises=F Damp=T
 DIIS: error= 1.90D-02 at cycle   2 NSaved=   2.
 NSaved= 2 IEnMin= 2 EnMin= -551.059463023123     IErMin= 2 ErrMin= 1.90D-02
 ErrMax= 1.90D-02 EMaxC= 1.00D-01 BMatC= 5.87D-02 BMatP= 3.52D-01
 IDIUse=3 WtCom= 8.10D-01 WtEn= 1.90D-01
 Coeff-Com:  0.243D+00 0.757D+00
 Coeff-En:   0.350D+00 0.650D+00
 Coeff:      0.263D+00 0.737D+00
 Gap=     0.177 Goal=   None    Shift=    0.000
 RMSDP=1.70D-03 MaxDP=7.54D-02 DE=-8.13D-02 OVMax= 2.48D-01

 Cycle   3  Pass 0  IDiag  1:
 E= -551.258209236364     Delta-E=       -0.198746213241 Rises=F Damp=F
 DIIS: error= 1.00D-02 at cycle   3 NSaved=   3.
 NSaved= 3 IEnMin= 3 EnMin= -551.258209236364     IErMin= 3 ErrMin= 1.00D-02
 ErrMax= 1.00D-02 EMaxC= 1.00D-01 BMatC= 1.71D-02 BMatP= 5.87D-02
 IDIUse=3 WtCom= 9.00D-01 WtEn= 1.00D-01
 Coeff-Com:  0.820D-01 0.352D+00 0.566D+00
 Coeff-En:   0.000D+00 0.000D+00 0.100D+01
 Coeff:      0.738D-01 0.317D+00 0.609D+00
 Gap=     0.170 Goal=   None    Shift=    0.000
 RMSDP=1.04D-03 MaxDP=2.91D-02 DE=-1.99D-01 OVMax= 4.79D-02

 Cycle   4  Pass 0  IDiag  1:
 E= -551.269878811872     Delta-E=       -0.011669575507 Rises=F Damp=F
 DIIS: error= 4.61D-03 at cycle   4 NSaved=   4.
 NSaved= 4 IEnMin= 4 EnMin= -551.269878811872     IErMin= 4 ErrMin= 4.61D-03
 ErrMax= 4.61D-03 EMaxC= 1.00D-01 BMatC= 4.75D-03 BMatP= 1.71D-02
 IDIUse=3 WtCom= 9.54D-01 WtEn= 4.61D-02
 Coeff-Com:  0.262D-01 0.768D-01 0.349D+00 0.548D+00
 Coeff-En:   0.000D+00 0.000D+00 0.228D+00 0.772D+00
 Coeff:      0.250D-01 0.733D-01 0.343D+00 0.559D+00
 Gap=     0.169 Goal=   None    Shift=    0.000
 RMSDP=4.79D-04 MaxDP=1.26D-02 DE=-1.17D-02 OVMax= 2.87D-02

 Cycle   5  Pass 0  IDiag  1:
 E= -551.273736995980     Delta-E=       -0.003858184108 Rises=F Damp=F
 DIIS: error= 2.10D-03 at cycle   5 NSaved=   5.
 NSaved= 5 IEnMin= 5 EnMin= -551.273736995980     IErMin= 5 ErrMin= 2.10D-03
 ErrMax= 2.10D-03 EMaxC= 1.00D-01 BMatC= 6.06D-04 BMatP= 4.75D-03
 IDIUse=3 WtCom= 9.79D-01 WtEn= 2.10D-02
 Coeff-Com:  0.770D-02 0.760D-02 0.152D+00 0.348D+00 0.485D+00
 Coeff-En:   0.000D+00 0.000D+00 0.000D+00 0.900D-01 0.910D+00
 Coeff:      0.754D-02 0.744D-02 0.148D+00 0.343D+00 0.494D+00
 Gap=     0.167 Goal=   None    Shift=    0.000
 RMSDP=1.73D-04 MaxDP=4.35D-03 DE=-3.86D-03 OVMax= 1.08D-02

 Cycle   6  Pass 0  IDiag  1:
 E= -551.274276221944     Delta-E=       -0.000539225964 Rises=F Damp=F
 DIIS: error= 1.10D-03 at cycle   6 NSaved=   6.
 NSaved= 6 IEnMin= 6 EnMin= -551.274276221944     IErMin= 6 ErrMin= 1.10D-03
 ErrMax= 1.10D-03 EMaxC= 1.00D-01 BMatC= 8.35D-05 BMatP= 6.06D-04
 IDIUse=3 WtCom= 9.89D-01 WtEn= 1.10D-02
 Coeff-Com:  0.319D-02-0.667D-03 0.698D-01 0.179D+00 0.329D+00 0.420D+00
 Coeff-En:   0.000D+00 0.000D+00 0.000D+00 0.000D+00 0.890D-01 0.911D+00
 Coeff:      0.315D-02-0.659D-03 0.691D-01 0.177D+00 0.326D+00 0.426D+00
 Gap=     0.169 Goal=   None    Shift=    0.000
 RMSDP=6.04D-05 MaxDP=2.97D-03 DE=-5.39D-04 OVMax= 5.39D-03

 Cycle   7  Pass 0  IDiag  1:
 E= -551.274337413337     Delta-E=       -0.000061191393 Rises=F Damp=F
 DIIS: error= 6.45D-04 at cycle   7 NSaved=   7.
 NSaved= 7 IEnMin= 7 EnMin= -551.274337413337     IErMin= 7 ErrMin= 6.45D-04
 ErrMax= 6.45D-04 EMaxC= 1.00D-01 BMatC= 1.88D-05 BMatP= 8.35D-05
 IDIUse=3 WtCom= 9.94D-01 WtEn= 6.45D-03
 Coeff-Com:  0.127D-02-0.191D-02 0.292D-01 0.815D-01 0.176D+00 0.329D+00
 Coeff-Com:  0.385D+00
 Coeff-En:   0.000D+00 0.000D+00 0.000D+00 0.000D+00 0.000D+00 0.176D+00
 Coeff-En:   0.824D+00
 Coeff:      0.126D-02-0.190D-02 0.290D-01 0.810D-01 0.175D+00 0.328D+00
 Coeff:      0.388D+00
 Gap=     0.169 Goal=   None    Shift=    0.000
 RMSDP=2.44D-05 MaxDP=1.10D-03 DE=-6.12D-05 OVMax= 2.37D-03

 Cycle   8  Pass 0  IDiag  1:
 E= -551.274351380204     Delta-E=       -0.000013966867 Rises=F Damp=F
 DIIS: error= 1.31D-04 at cycle   8 NSaved=   8.
 NSaved= 8 IEnMin= 8 EnMin= -551.274351380204     IErMin= 8 ErrMin= 1.31D-04
 ErrMax= 1.31D-04 EMaxC= 1.00D-01 BMatC= 1.60D-06 BMatP= 1.88D-05
 IDIUse=3 WtCom= 9.99D-01 WtEn= 1.31D-03
 Coeff-Com:  0.354D-03-0.146D-02 0.896D-02 0.285D-01 0.697D-01 0.161D+00
 Coeff-Com:  0.268D+00 0.465D+00
 Coeff-En:   0.000D+00 0.000D+00 0.000D+00 0.000D+00 0.000D+00 0.000D+00
 Coeff-En:   0.890D-01 0.911D+00
 Coeff:      0.354D-03-0.145D-02 0.894D-02 0.285D-01 0.696D-01 0.160D+00
 Coeff:      0.268D+00 0.466D+00
 Gap=     0.169 Goal=   None    Shift=    0.000
 RMSDP=7.81D-06 MaxDP=2.89D-04 DE=-1.40D-05 OVMax= 4.81D-04

 Initial convergence to 1.0D-05 achieved.  Increase integral accuracy.
 Cycle   9  Pass 1  IDiag  1:
 E= -551.274327562360     Delta-E=        0.000023817844 Rises=F Damp=F
 DIIS: error= 2.92D-05 at cycle   1 NSaved=   1.
 NSaved= 1 IEnMin= 1 EnMin= -551.274327562360     IErMin= 1 ErrMin= 2.92D-05
 ErrMax= 2.92D-05 EMaxC= 1.00D-01 BMatC= 8.99D-08 BMatP= 8.99D-08
 IDIUse=1 WtCom= 1.00D+00 WtEn= 0.00D+00
 Coeff-Com:  0.100D+01
 Coeff:      0.100D+01
 Gap=     0.169 Goal=   None    Shift=    0.000
 RMSDP=7.81D-06 MaxDP=2.89D-04 DE= 2.38D-05 OVMax= 1.11D-04

 Cycle  10  Pass 1  IDiag  1:
 E= -551.274327624957     Delta-E=       -0.000000062597 Rises=F Damp=F
 DIIS: error= 1.69D-05 at cycle   2 NSaved=   2.
 NSaved= 2 IEnMin= 2 EnMin= -551.274327624957     IErMin= 2 ErrMin= 1.69D-05
 ErrMax= 1.69D-05 EMaxC= 1.00D-01 BMatC= 5.14D-08 BMatP= 8.99D-08
 IDIUse=1 WtCom= 1.00D+00 WtEn= 0.00D+00
 Coeff-Com:  0.402D+00 0.598D+00
 Coeff:      0.402D+00 0.598D+00
 Gap=     0.169 Goal=   None    Shift=    0.000
 RMSDP=1.96D-06 MaxDP=5.83D-05 DE=-6.26D-08 OVMax= 1.10D-04

 Cycle  11  Pass 1  IDiag  1:
 E= -551.274327643950     Delta-E=       -0.000000018993 Rises=F Damp=F
 DIIS: error= 1.75D-05 at cycle   3 NSaved=   3.
 NSaved= 3 IEnMin= 3 EnMin= -551.274327643950     IErMin= 2 ErrMin= 1.69D-05
 ErrMax= 1.75D-05 EMaxC= 1.00D-01 BMatC= 2.93D-08 BMatP= 5.14D-08
 IDIUse=1 WtCom= 1.00D+00 WtEn= 0.00D+00
 Coeff-Com:  0.394D-01 0.421D+00 0.539D+00
 Coeff:      0.394D-01 0.421D+00 0.539D+00
 Gap=     0.169 Goal=   None    Shift=    0.000
 RMSDP=1.09D-06 MaxDP=4.53D-05 DE=-1.90D-08 OVMax= 9.83D-05

 Cycle  12  Pass 1  IDiag  1:
 E= -551.274327659934     Delta-E=       -0.000000015983 Rises=F Damp=F
 DIIS: error= 1.43D-05 at cycle   4 NSaved=   4.
 NSaved= 4 IEnMin= 4 EnMin= -551.274327659934     IErMin= 4 ErrMin= 1.43D-05
 ErrMax= 1.43D-05 EMaxC= 1.00D-01 BMatC= 9.60D-09 BMatP= 2.93D-08
 IDIUse=1 WtCom= 1.00D+00 WtEn= 0.00D+00
 Coeff-Com: -0.120D-01 0.264D+00 0.419D+00 0.329D+00
 Coeff:     -0.120D-01 0.264D+00 0.419D+00 0.329D+00
 Gap=     0.169 Goal=   None    Shift=    0.000
 RMSDP=4.94D-07 MaxDP=2.49D-05 DE=-1.60D-08 OVMax= 4.99D-05

 Cycle  13  Pass 1  IDiag  1:
 E= -551.274327667493     Delta-E=       -0.000000007560 Rises=F Damp=F
 DIIS: error= 1.99D-06 at cycle   5 NSaved=   5.
 NSaved= 5 IEnMin= 5 EnMin= -551.274327667493     IErMin= 5 ErrMin= 1.99D-06
 ErrMax= 1.99D-06 EMaxC= 1.00D-01 BMatC= 3.25D-10 BMatP= 9.60D-09
 IDIUse=1 WtCom= 1.00D+00 WtEn= 0.00D+00
 Coeff-Com: -0.991D-02 0.134D+00 0.224D+00 0.214D+00 0.437D+00
 Coeff:     -0.991D-02 0.134D+00 0.224D+00 0.214D+00 0.437D+00
 Gap=     0.169 Goal=   None    Shift=    0.000
 RMSDP=1.14D-07 MaxDP=3.68D-06 DE=-7.56D-09 OVMax= 6.54D-06

 Cycle  14  Pass 1  IDiag  1:
 E= -551.274327667752     Delta-E=       -0.000000000259 Rises=F Damp=F
 DIIS: error= 3.21D-07 at cycle   6 NSaved=   6.
 NSaved= 6 IEnMin= 6 EnMin= -551.274327667752     IErMin= 6 ErrMin= 3.21D-07
 ErrMax= 3.21D-07 EMaxC= 1.00D-01 BMatC= 2.04D-11 BMatP= 3.25D-10
 IDIUse=1 WtCom= 1.00D+00 WtEn= 0.00D+00
 Coeff-Com: -0.440D-02 0.433D-01 0.748D-01 0.825D-01 0.244D+00 0.560D+00
 Coeff:     -0.440D-02 0.433D-01 0.748D-01 0.825D-01 0.244D+00 0.560D+00
 Gap=     0.169 Goal=   None    Shift=    0.000
 RMSDP=3.07D-08 MaxDP=8.14D-07 DE=-2.59D-10 OVMax= 1.71D-06

 Cycle  15  Pass 1  IDiag  1:
 E= -551.274327667773     Delta-E=       -0.000000000020 Rises=F Damp=F
 DIIS: error= 1.19D-07 at cycle   7 NSaved=   7.
 NSaved= 7 IEnMin= 7 EnMin= -551.274327667773     IErMin= 7 ErrMin= 1.19D-07
 ErrMax= 1.19D-07 EMaxC= 1.00D-01 BMatC= 2.33D-12 BMatP= 2.04D-11
 IDIUse=1 WtCom= 1.00D+00 WtEn= 0.00D+00
 Coeff-Com: -0.156D-02 0.128D-01 0.229D-01 0.282D-01 0.999D-01 0.324D+00
 Coeff-Com:  0.514D+00
 Coeff:     -0.156D-02 0.128D-01 0.229D-01 0.282D-01 0.999D-01 0.324D+00
 Coeff:      0.514D+00
 Gap=     0.169 Goal=   None    Shift=    0.000
 RMSDP=1.06D-08 MaxDP=2.76D-07 DE=-2.05D-11 OVMax= 7.40D-07

 Cycle  16  Pass 1  IDiag  1:
 E= -551.274327667768     Delta-E=        0.000000000005 Rises=F Damp=F
 DIIS: error= 4.31D-08 at cycle   8 NSaved=   8.
 NSaved= 8 IEnMin= 7 EnMin= -551.274327667773     IErMin= 8 ErrMin= 4.31D-08
 ErrMax= 4.31D-08 EMaxC= 1.00D-01 BMatC= 3.58D-13 BMatP= 2.33D-12
 IDIUse=1 WtCom= 1.00D+00 WtEn= 0.00D+00
 Coeff-Com: -0.138D-03-0.251D-03 0.917D-04 0.150D-02 0.158D-01 0.913D-01
 Coeff-Com:  0.318D+00 0.573D+00
 Coeff:     -0.138D-03-0.251D-03 0.917D-04 0.150D-02 0.158D-01 0.913D-01
 Coeff:      0.318D+00 0.573D+00
 Gap=     0.169 Goal=   None    Shift=    0.000
 RMSDP=3.64D-09 MaxDP=9.04D-08 DE= 4.55D-12 OVMax= 1.86D-07

 SCF Done:  E(RB3LYP) =  -551.274327668     A.U. after   16 cycles
             Convg  =    0.3637D-08             -V/T =  2.0093
 KE= 5.461937647250D+02 PE=-2.446296218565D+03 EE= 7.687548615337D+02
 Leave Link  502 at Wed Sep 29 00:11:14 2021, MaxMem=  805306368 cpu:      87.8
 (Enter /sw/target/amd/app/gaussian/Gaussian09RevA.02_gcc-4.9.2/g09/l508.exe)
 QCSCF skips out because SCF is already converged.
 Leave Link  508 at Wed Sep 29 00:11:14 2021, MaxMem=  805306368 cpu:       0.0
 (Enter /sw/target/amd/app/gaussian/Gaussian09RevA.02_gcc-4.9.2/g09/l601.exe)
 Copying SCF densities to generalized density rwf, IOpCl= 0 IROHF=0.

 **********************************************************************

            Population analysis using the SCF density.

 **********************************************************************

 Orbital symmetries:
       Occupied  (A) (A) (A) (A) (A) (A) (A) (A) (A) (A) (A) (A)
                 (A) (A) (A) (A) (A) (A) (A) (A) (A) (A) (A) (A)
                 (A) (A) (A) (A) (A) (A) (A) (A) (A) (A) (A) (A)
                 (A) (A) (A) (A)
       Virtual   (A) (A) (A) (A) (A) (A) (A) (A) (A) (A) (A) (A)
                 (A) (A) (A) (A) (A) (A) (A) (A) (A) (A) (A) (A)
                 (A) (A) (A) (A) (A) (A) (A) (A) (A) (A) (A) (A)
                 (A) (A) (A) (A) (A) (A) (A) (A) (A) (A) (A) (A)
                 (A) (A) (A) (A) (A) (A) (A) (A) (A) (A) (A) (A)
                 (A) (A) (A) (A) (A) (A) (A) (A) (A) (A) (A) (A)
                 (A) (A) (A) (A) (A) (A) (A) (A) (A) (A) (A) (A)
                 (A) (A) (A) (A) (A) (A) (A) (A) (A) (A) (A) (A)
                 (A) (A) (A) (A) (A) (A) (A) (A) (A) (A) (A) (A)
                 (A) (A) (A) (A) (A) (A) (A) (A) (A) (A) (A) (A)
                 (A) (A) (A) (A) (A) (A) (A) (A) (A) (A) (A) (A)
                 (A) (A) (A) (A) (A) (A) (A)
 The electronic state is 1-A.
 Alpha  occ. eigenvalues --  -19.20496 -19.17375 -19.17343 -14.56505 -10.27875
 Alpha  occ. eigenvalues --  -10.25941 -10.24918 -10.22540 -10.22210 -10.21708
 Alpha  occ. eigenvalues --  -10.21172  -1.20954  -1.08838  -1.03817  -0.88630
 Alpha  occ. eigenvalues --   -0.80643  -0.77612  -0.73815  -0.67982  -0.63694
 Alpha  occ. eigenvalues --   -0.59488  -0.56146  -0.53732  -0.52065  -0.51578
 Alpha  occ. eigenvalues --   -0.49147  -0.48909  -0.47338  -0.45027  -0.43596
 Alpha  occ. eigenvalues --   -0.42513  -0.40197  -0.38570  -0.35291  -0.34506
 Alpha  occ. eigenvalues --   -0.30164  -0.30041  -0.28330  -0.27712  -0.25083
 Alpha virt. eigenvalues --   -0.08221  -0.02771   0.01249   0.07195   0.08994
 Alpha virt. eigenvalues --    0.11015   0.13255   0.13770   0.14649   0.15263
 Alpha virt. eigenvalues --    0.15714   0.18721   0.19075   0.22502   0.26737
 Alpha virt. eigenvalues --    0.27071   0.27843   0.31760   0.35319   0.37742
 Alpha virt. eigenvalues --    0.46362   0.48849   0.49370   0.50958   0.51665
 Alpha virt. eigenvalues --    0.53260   0.53367   0.54902   0.56941   0.57400
 Alpha virt. eigenvalues --    0.58254   0.58501   0.59922   0.63791   0.64255
 Alpha virt. eigenvalues --    0.66068   0.70576   0.72618   0.73179   0.77329
 Alpha virt. eigenvalues --    0.78055   0.79744   0.81652   0.82151   0.82490
 Alpha virt. eigenvalues --    0.84306   0.84318   0.87261   0.90497   0.91350
 Alpha virt. eigenvalues --    0.92461   0.95351   0.96155   0.97689   0.98274
 Alpha virt. eigenvalues --    1.00028   1.00471   1.03244   1.06155   1.07900
 Alpha virt. eigenvalues --    1.13804   1.15681   1.18691   1.21696   1.23032
 Alpha virt. eigenvalues --    1.25082   1.27984   1.34654   1.34995   1.35908
 Alpha virt. eigenvalues --    1.38666   1.41918   1.42563   1.43339   1.46949
 Alpha virt. eigenvalues --    1.47992   1.49993   1.51446   1.64268   1.68827
 Alpha virt. eigenvalues --    1.71704   1.72702   1.75062   1.77995   1.80731
 Alpha virt. eigenvalues --    1.81372   1.82318   1.86950   1.88682   1.92817
 Alpha virt. eigenvalues --    1.94670   1.95108   1.97434   1.97675   2.04140
 Alpha virt. eigenvalues --    2.05217   2.07499   2.08112   2.10991   2.12126
 Alpha virt. eigenvalues --    2.13402   2.14680   2.20188   2.22518   2.23103
 Alpha virt. eigenvalues --    2.27449   2.32579   2.32755   2.39243   2.46360
 Alpha virt. eigenvalues --    2.49013   2.52534   2.52711   2.59249   2.60007
 Alpha virt. eigenvalues --    2.66321   2.70222   2.71242   2.73891   2.76889
 Alpha virt. eigenvalues --    2.81745   2.89168   2.91298   2.95420   3.05460
 Alpha virt. eigenvalues --    3.07086   3.19910   3.41085   3.71820   3.90357
 Alpha virt. eigenvalues --    3.95707   4.02735   4.07918   4.08844   4.20464
 Alpha virt. eigenvalues --    4.28736   4.33783   4.45135   4.74980
          Condensed to atoms (all electrons):
              1          2          3          4          5          6
     1  C    4.905251   0.241184  -0.042359  -0.005916   0.000245  -0.000007
     2  O    0.241184   8.184052   0.290891  -0.061486   0.003606   0.000073
     3  C   -0.042359   0.290891   4.505050   0.453806  -0.003094  -0.038324
     4  C   -0.005916  -0.061486   0.453806   5.137450   0.454442  -0.019561
     5  C    0.000245   0.003606  -0.003094   0.454442   5.043548   0.491524
     6  C   -0.000007   0.000073  -0.038324  -0.019561   0.491524   4.894558
     7  C   -0.000134   0.003165  -0.017991  -0.036189  -0.088634   0.485010
     8  C    0.004475  -0.055873   0.530208  -0.064142  -0.034884  -0.020250
     9  N   -0.000000   0.000000   0.000033   0.003969  -0.040038   0.177620
    10  O    0.000000  -0.000000  -0.000012   0.001213   0.004223  -0.098978
    11  O    0.000000  -0.000000  -0.000017  -0.000017   0.006720  -0.098571
    12  H    0.384712  -0.030213   0.003214   0.000126   0.000000  -0.000000
    13  H    0.366163  -0.034544  -0.005514   0.004708  -0.000094  -0.000004
    14  H    0.366294  -0.034613  -0.005449   0.004671  -0.000094  -0.000004
    15  H    0.006010  -0.007048  -0.044804   0.357126  -0.035332   0.003294
    16  H   -0.000005  -0.000036   0.003006  -0.036001   0.347446  -0.025853
    17  H    0.000002  -0.000047   0.003886  -0.000072   0.005816  -0.028433
    18  H   -0.000159  -0.000348  -0.034656   0.007234   0.000093   0.003616
              7          8          9         10         11         12
     1  C   -0.000134   0.004475  -0.000000   0.000000   0.000000   0.384712
     2  O    0.003165  -0.055873   0.000000  -0.000000  -0.000000  -0.030213
     3  C   -0.017991   0.530208   0.000033  -0.000012  -0.000017   0.003214
     4  C   -0.036189  -0.064142   0.003969   0.001213  -0.000017   0.000126
     5  C   -0.088634  -0.034884  -0.040038   0.004223   0.006720   0.000000
     6  C    0.485010  -0.020250   0.177620  -0.098978  -0.098571  -0.000000
     7  C    5.030533   0.487633  -0.041058   0.006749   0.004517   0.000003
     8  C    0.487633   5.015943   0.003688  -0.000018   0.001190  -0.000098
     9  N   -0.041058   0.003688   5.965330   0.293756   0.293945  -0.000000
    10  O    0.006749  -0.000018   0.293756   8.277517  -0.100506   0.000000
    11  O    0.004517   0.001190   0.293945  -0.100506   8.275520   0.000000
    12  H    0.000003  -0.000098  -0.000000   0.000000   0.000000   0.528488
    13  H    0.000004   0.000025   0.000000   0.000000   0.000000  -0.032463
    14  H    0.000004   0.000024   0.000000   0.000000   0.000000  -0.032492
    15  H    0.000606   0.004411  -0.000071  -0.000001   0.000001  -0.000127
    16  H    0.005588   0.000154  -0.010579   0.015886   0.000127  -0.000000
    17  H    0.350082  -0.037370  -0.010539   0.000119   0.015167  -0.000000
    18  H   -0.038914   0.350406  -0.000059   0.000001   0.000002  -0.000026
             13         14         15         16         17         18
     1  C    0.366163   0.366294   0.006010  -0.000005   0.000002  -0.000159
     2  O   -0.034544  -0.034613  -0.007048  -0.000036  -0.000047  -0.000348
     3  C   -0.005514  -0.005449  -0.044804   0.003006   0.003886  -0.034656
     4  C    0.004708   0.004671   0.357126  -0.036001  -0.000072   0.007234
     5  C   -0.000094  -0.000094  -0.035332   0.347446   0.005816   0.000093
     6  C   -0.000004  -0.000004   0.003294  -0.025853  -0.028433   0.003616
     7  C    0.000004   0.000004   0.000606   0.005588   0.350082  -0.038914
     8  C    0.000025   0.000024   0.004411   0.000154  -0.037370   0.350406
     9  N    0.000000   0.000000  -0.000071  -0.010579  -0.010539  -0.000059
    10  O    0.000000   0.000000  -0.000001   0.015886   0.000119   0.000001
    11  O    0.000000   0.000000   0.000001   0.000127   0.015167   0.000002
    12  H   -0.032463  -0.032492  -0.000127  -0.000000  -0.000000  -0.000026
    13  H    0.582623  -0.043954   0.001747   0.000001  -0.000000   0.000027
    14  H   -0.043954   0.582546   0.001728   0.000001  -0.000000   0.000027
    15  H    0.001747   0.001728   0.567803  -0.005169   0.000012  -0.000147
    16  H    0.000001   0.000001  -0.005169   0.522162  -0.000127   0.000011
    17  H   -0.000000  -0.000000   0.000012  -0.000127   0.524093  -0.005649
    18  H    0.000027   0.000027  -0.000147   0.000011  -0.005649   0.560915
 Mulliken atomic charges:
              1
     1  C   -0.225757
     2  O   -0.498765
     3  C    0.402126
     4  C   -0.201364
     5  C   -0.155494
     6  C    0.274289
     7  C   -0.150976
     8  C   -0.185523
     9  N    0.364002
    10  O   -0.399949
    11  O   -0.398078
    12  H    0.178875
    13  H    0.161273
    14  H    0.161309
    15  H    0.149961
    16  H    0.183387
    17  H    0.183057
    18  H    0.157626
 Sum of Mulliken atomic charges =  -0.00000
 Mulliken charges with hydrogens summed into heavy atoms:
              1
     1  C    0.275701
     2  O   -0.498765
     3  C    0.402126
     4  C   -0.051403
     5  C    0.027893
     6  C    0.274289
     7  C    0.032080
     8  C   -0.027898
     9  N    0.364002
    10  O   -0.399949
    11  O   -0.398078
 Sum of Mulliken charges with hydrogens summed into heavy atoms =  -0.00000
 Electronic spatial extent (au):  <R**2>=           2102.3663
 Charge=             -0.0000 electrons
 Dipole moment (field-independent basis, Debye):
    X=              5.8709    Y=             -0.7742    Z=              0.0014  Tot=              5.9217
 Quadrupole moment (field-independent basis, Debye-Ang):
   XX=            -68.9387   YY=            -59.0777   ZZ=            -63.0596
   XY=             -5.8370   XZ=             -0.0070   YZ=              0.0019
 Traceless Quadrupole moment (field-independent basis, Debye-Ang):
   XX=             -5.2467   YY=              4.6143   ZZ=              0.6324
   XY=             -5.8370   XZ=             -0.0070   YZ=              0.0019
 Octapole moment (field-independent basis, Debye-Ang**2):
  XXX=             93.6161  YYY=              4.4062  ZZZ=             -0.0099  XYY=              6.4414
  XXY=            -13.9254  XXZ=             -0.0016  XZZ=             -6.8934  YZZ=             -1.0989
  YYZ=              0.0012  XYZ=              0.0026
 Hexadecapole moment (field-independent basis, Debye-Ang**3):
 XXXX=          -2088.9127 YYYY=           -389.7749 ZZZZ=            -64.9742 XXXY=            -54.1296
 XXXZ=             -0.1726 YYYX=              0.6762 YYYZ=              0.0054 ZZZX=              0.0258
 ZZZY=             -0.0047 XXYY=           -444.3123 XXZZ=           -350.4312 YYZZ=            -85.5896
 XXYZ=              0.0076 YYXZ=             -0.0115 ZZXY=              0.9525
 N-N= 5.800732646382D+02 E-N=-2.446296219397D+03  KE= 5.461937647250D+02
 No NMR shielding tensors so no spin-rotation constants.
 Leave Link  601 at Wed Sep 29 00:11:15 2021, MaxMem=  805306368 cpu:       0.8
 (Enter /sw/target/amd/app/gaussian/Gaussian09RevA.02_gcc-4.9.2/g09/l701.exe)
 Compute integral first derivatives.
 ... and contract with generalized density number  0.
 Leave Link  701 at Wed Sep 29 00:11:17 2021, MaxMem=  805306368 cpu:       0.8
 (Enter /sw/target/amd/app/gaussian/Gaussian09RevA.02_gcc-4.9.2/g09/l702.exe)
 L702 exits ... SP integral derivatives will be done elsewhere.
 Leave Link  702 at Wed Sep 29 00:11:17 2021, MaxMem=  805306368 cpu:       0.0
 (Enter /sw/target/amd/app/gaussian/Gaussian09RevA.02_gcc-4.9.2/g09/l703.exe)
 Compute integral first derivatives, UseDBF=F ICtDFT=           0.
 Integral derivatives from FoFDir, PRISM(SPDF).
 Calling FoFJK, ICntrl=      2127 FMM=F ISym2X=0 I1Cent= 0 IOpClX= 0 NMat=1 NMatS=1 NMatT=0.
 FoFCou: FMM=F IPFlag=           0 FMFlag=      100000 FMFlg1=         800
         NFxFlg=           0 DoJE=F BraDBF=F KetDBF=F FulRan=T
         Omega=  0.000000  0.000000  1.000000  0.000000  0.000000 ICntrl=    2127 IOpCl=  0
         NMat0=    1 NMatS0=    1 NMatT0=    0 NMatD0=    1 NMtDS0=    0 NMtDT0=    0
         I1Cent=           0 NGrid=           0.
 Symmetry not used in FoFCou.
 Leave Link  703 at Wed Sep 29 00:12:03 2021, MaxMem=  805306368 cpu:      32.5
 (Enter /sw/target/amd/app/gaussian/Gaussian09RevA.02_gcc-4.9.2/g09/l716.exe)
 Dipole        = 2.30979625D+00-3.04599870D-01 5.59026953D-04
 ***** Axes restored to original set *****
 -------------------------------------------------------------------
 Center     Atomic                   Forces (Hartrees/Bohr)
 Number     Number              X              Y              Z
 -------------------------------------------------------------------
      1        6          -0.003467742    0.005052415    0.001315631
      2        8          -0.000071935   -0.006265676   -0.005630927
      3        6          -0.000414440    0.009231316    0.007884326
      4        6          -0.001103146   -0.006943780   -0.007226445
      5        6          -0.000919731    0.002693280    0.001581844
      6        6          -0.003404918    0.000021240   -0.003133746
      7        6          -0.003503603    0.009009314    0.004830793
      8        6           0.012329974   -0.009451876    0.002935345
      9        7           0.001905511   -0.003212903   -0.001124421
     10        8           0.002935245    0.005613249    0.007722587
     11        8          -0.008240245    0.001944918   -0.005884620
     12        1           0.004130245   -0.001149835    0.002759771
     13        1           0.000013425   -0.001870425   -0.002800767
     14        1          -0.000806752   -0.002634666   -0.001980587
     15        1           0.000896777    0.000846133    0.001564160
     16        1           0.003881487    0.000070086    0.003658103
     17        1          -0.002018751   -0.002559953   -0.004155730
     18        1          -0.002141400   -0.000392837   -0.002315316
 -------------------------------------------------------------------
 Cartesian Forces:  Max     0.012329974 RMS     0.004510905
 Leave Link  716 at Wed Sep 29 00:12:04 2021, MaxMem=  805306368 cpu:       0.1
 (Enter /sw/target/amd/app/gaussian/Gaussian09RevA.02_gcc-4.9.2/g09/l103.exe)

 GradGradGradGradGradGradGradGradGradGradGradGradGradGradGradGradGradGrad
 Berny optimization.
 Internal  Forces:  Max     0.010313330 RMS     0.003310429
 Search for a local minimum.
 Step number   1 out of a maximum of   89
 All quantities printed in internal units (Hartrees-Bohrs-Radians)
 RMS Force = .33104D-02 SwitMx=.10000D-02 MixMth= 1
 Mixed Optimization -- RFO/linear search
 Second derivative matrix not updated -- first step.
     Eigenvalues ---    0.00792   0.00792   0.01395   0.01697   0.02082
     Eigenvalues ---    0.02088   0.02105   0.02106   0.02112   0.02114
     Eigenvalues ---    0.02115   0.02120   0.02127   0.09993   0.10540
     Eigenvalues ---    0.16000   0.16000   0.16000   0.16000   0.16000
     Eigenvalues ---    0.16000   0.16000   0.22000   0.22981   0.24000
     Eigenvalues ---    0.25000   0.25000   0.25000   0.25000   0.25000
     Eigenvalues ---    0.34240   0.34241   0.34328   0.35003   0.35009
     Eigenvalues ---    0.35070   0.35323   0.35981   0.41571   0.41983
     Eigenvalues ---    0.42096   0.45575   0.45703   0.45921   0.46041
     Eigenvalues ---    0.51543   0.87251   0.873281000.000001000.00000
     Eigenvalues --- 1000.000001000.000001000.000001000.000001000.00000
     Eigenvalues --- 1000.000001000.000001000.000001000.000001000.00000
     Eigenvalues --- 1000.000001000.000001000.000001000.000001000.00000
     Eigenvalues --- 1000.000001000.000001000.000001000.000001000.00000
     Eigenvalues --- 1000.000001000.000001000.000001000.000001000.00000
     Eigenvalues --- 1000.000001000.000001000.000001000.00000
 RFO step:  Lambda=-2.55262749D-03 EMin= 7.92258633D-03
 Linear search not attempted -- first point.
 Iteration  1 RMS(Cart)=  0.01968840 RMS(Int)=  0.00026688
 Iteration  2 RMS(Cart)=  0.00030503 RMS(Int)=  0.00001815
 Iteration  3 RMS(Cart)=  0.00000002 RMS(Int)=  0.00001815
 Variable       Old X    -DE/DX   Delta X   Delta X   Delta X     New X
                                 (Linear)    (Quad)   (Total)
    R1        2.68801   0.00032   0.00000   0.00075   0.00075   2.68877
    R2        2.06780  -0.00144   0.00000  -0.00416  -0.00416   2.06364
    R3        2.06927   0.00116   0.00000   0.00336   0.00336   2.07263
    R4        2.06926   0.00117   0.00000   0.00340   0.00340   2.07266
    R5        2.58339  -0.00733   0.00000  -0.01415  -0.01415   2.56925
    R6        2.63985   0.00424   0.00000   0.01008   0.01005   2.64990
    R7        2.64442   0.00507   0.00000   0.01195   0.01193   2.65635
    R8        2.64574  -0.00666   0.00000  -0.01450  -0.01450   2.63124
    R9        2.05154  -0.00146   0.00000  -0.00411  -0.00411   2.04743
   R10        2.64719  -0.00762   0.00000  -0.01759  -0.01757   2.62963
   R11        2.05660  -0.00386   0.00000  -0.01094  -0.01094   2.04567
   R12        2.64337  -0.00168   0.00000  -0.00459  -0.00457   2.63880
   R13        2.77412  -0.00554   0.00000  -0.01528  -0.01528   2.75884
   R14        2.64052  -0.01020   0.00000  -0.02204  -0.02203   2.61849
   R15        2.05561  -0.00350   0.00000  -0.00992  -0.00992   2.04569
   R16        2.05670  -0.00253   0.00000  -0.00716  -0.00716   2.04954
   R17        2.34226  -0.00998   0.00000  -0.01141  -0.01141   2.33086
   R18        2.34189  -0.01031   0.00000  -0.01178  -0.01178   2.33012
    A1        1.88146  -0.00667   0.00000  -0.03890  -0.03884   1.84262
    A2        1.93942   0.00130   0.00000   0.00686   0.00690   1.94632
    A3        1.93891   0.00137   0.00000   0.00732   0.00736   1.94628
    A4        1.87999   0.00347   0.00000   0.02345   0.02351   1.90350
    A5        1.88026   0.00344   0.00000   0.02334   0.02340   1.90366
    A6        1.94081  -0.00290   0.00000  -0.02159  -0.02157   1.91924
    A7        2.04262   0.00498   0.00000   0.01972   0.01972   2.06234
    A8        2.19844  -0.00537   0.00000  -0.02319  -0.02317   2.17526
    A9        1.99917   0.00457   0.00000   0.01613   0.01615   2.01533
   A10        2.08557   0.00080   0.00000   0.00706   0.00702   2.09259
   A11        2.09862  -0.00260   0.00000  -0.00915  -0.00918   2.08944
   A12        2.12509  -0.00009   0.00000  -0.00396  -0.00395   2.12114
   A13        2.05948   0.00269   0.00000   0.01311   0.01313   2.07261
   A14        2.08984  -0.00014   0.00000  -0.00201  -0.00200   2.08784
   A15        2.07743   0.00385   0.00000   0.02429   0.02428   2.10171
   A16        2.11591  -0.00372   0.00000  -0.02228  -0.02228   2.09363
   A17        2.10172   0.00461   0.00000   0.01527   0.01531   2.11703
   A18        2.09030  -0.00268   0.00000  -0.00912  -0.00914   2.08116
   A19        2.09116  -0.00193   0.00000  -0.00615  -0.00617   2.08499
   A20        2.08147  -0.00031   0.00000  -0.00290  -0.00287   2.07861
   A21        2.12172  -0.00391   0.00000  -0.02357  -0.02359   2.09813
   A22        2.07999   0.00422   0.00000   0.02647   0.02645   2.10644
   A23        2.10914  -0.00237   0.00000  -0.00827  -0.00829   2.10086
   A24        2.08599  -0.00080   0.00000  -0.00806  -0.00805   2.07794
   A25        2.08805   0.00317   0.00000   0.01633   0.01634   2.10439
   A26        2.05423   0.00041   0.00000   0.00163   0.00163   2.05586
   A27        2.05539  -0.00038   0.00000  -0.00152  -0.00152   2.05387
   A28        2.17356  -0.00003   0.00000  -0.00011  -0.00011   2.17345
    D1        3.13897   0.00002   0.00000   0.00121   0.00121   3.14018
    D2        1.08270  -0.00088   0.00000  -0.00754  -0.00752   1.07519
    D3       -1.08791   0.00093   0.00000   0.01010   0.01006  -1.07784
    D4       -0.00047   0.00002   0.00000   0.00097   0.00097   0.00050
    D5        3.14133   0.00001   0.00000   0.00060   0.00060  -3.14126
    D6       -3.14098  -0.00001   0.00000  -0.00052  -0.00052  -3.14150
    D7        0.00036  -0.00000   0.00000  -0.00013  -0.00013   0.00023
    D8        0.00040  -0.00000   0.00000  -0.00012  -0.00012   0.00028
    D9       -3.14144   0.00001   0.00000   0.00027   0.00027  -3.14118
   D10        3.14088   0.00001   0.00000   0.00060   0.00061   3.14149
   D11       -0.00057   0.00001   0.00000   0.00046   0.00046  -0.00010
   D12       -0.00052   0.00001   0.00000   0.00026   0.00025  -0.00027
   D13        3.14121   0.00000   0.00000   0.00011   0.00011   3.14132
   D14        0.00010  -0.00001   0.00000  -0.00023  -0.00023  -0.00013
   D15        3.14149   0.00000   0.00000   0.00015   0.00015  -3.14154
   D16       -3.14125  -0.00001   0.00000  -0.00060  -0.00060   3.14133
   D17        0.00014  -0.00001   0.00000  -0.00023  -0.00022  -0.00008
   D18       -0.00048   0.00001   0.00000   0.00045   0.00045  -0.00003
   D19        3.14092   0.00001   0.00000   0.00065   0.00064   3.14156
   D20        3.14131   0.00000   0.00000   0.00006   0.00007   3.14138
   D21       -0.00047   0.00001   0.00000   0.00026   0.00026  -0.00021
   D22        0.00036  -0.00001   0.00000  -0.00032  -0.00032   0.00004
   D23       -3.14143  -0.00000   0.00000  -0.00005  -0.00005  -3.14148
   D24       -3.14104  -0.00001   0.00000  -0.00052  -0.00052  -3.14155
   D25        0.00036  -0.00000   0.00000  -0.00025  -0.00025   0.00011
   D26        0.00015  -0.00000   0.00000   0.00012   0.00012   0.00028
   D27       -3.14136  -0.00000   0.00000  -0.00032  -0.00032   3.14151
   D28        3.14156   0.00000   0.00000   0.00032   0.00031  -3.14132
   D29        0.00004  -0.00000   0.00000  -0.00013  -0.00013  -0.00009
   D30        0.00014  -0.00000   0.00000  -0.00003  -0.00003   0.00011
   D31       -3.14159   0.00000   0.00000   0.00011   0.00011  -3.14148
   D32       -3.14126  -0.00001   0.00000  -0.00029  -0.00029  -3.14155
   D33        0.00019  -0.00000   0.00000  -0.00015  -0.00015   0.00004
         Item               Value     Threshold  Converged?
 Maximum Force            0.010313     0.000450     NO 
 RMS     Force            0.003310     0.000300     NO 
 Maximum Displacement     0.061237     0.001800     NO 
 RMS     Displacement     0.019723     0.001200     NO 
 Predicted change in Energy=-1.289535D-03
 GradGradGradGradGradGradGradGradGradGradGradGradGradGradGradGradGradGrad

 Leave Link  103 at Wed Sep 29 00:12:08 2021, MaxMem=  805306368 cpu:       2.3
 (Enter /sw/target/amd/app/gaussian/Gaussian09RevA.02_gcc-4.9.2/g09/l202.exe)
                          Input orientation:                          
 ---------------------------------------------------------------------
 Center     Atomic      Atomic             Coordinates (Angstroms)
 Number     Number       Type             X           Y           Z
 ---------------------------------------------------------------------
      1          6           0        1.314776    0.069722   -0.606479
      2          8           0        2.470463   -0.284058    0.144311
      3          6           0        3.155746   -1.400240   -0.220381
      4          6           0        2.806101   -2.235901   -1.290789
      5          6           0        3.582996   -3.356106   -1.574217
      6          6           0        4.699384   -3.634845   -0.791681
      7          6           0        5.059844   -2.811737    0.277186
      8          6           0        4.286957   -1.696872    0.559560
      9          7           0        5.508008   -4.811584   -1.096259
     10          8           0        5.161828   -5.516866   -2.047101
     11          8           0        6.490681   -5.031124   -0.384532
     12          1           0        0.931803    0.981365   -0.143044
     13          1           0        0.545500   -0.710153   -0.552145
     14          1           0        1.563879    0.277677   -1.654180
     15          1           0        1.940187   -2.032160   -1.909298
     16          1           0        3.323555   -4.008931   -2.397843
     17          1           0        5.932025   -3.045087    0.874449
     18          1           0        4.545027   -1.041153    1.384013
 ---------------------------------------------------------------------
                    Distance matrix (angstroms):
                    1          2          3          4          5
     1  C    0.000000
     2  O    1.422835   0.000000
     3  C    2.387264   1.359586   0.000000
     4  C    2.829881   2.445783   1.402267   0.000000
     5  C    4.221095   3.691686   2.416781   1.392393   0.000000
     6  C    5.021323   4.131820   2.775366   2.406381   1.391538
     7  C    4.807203   3.621009   2.421876   2.805261   2.430043
     8  C    3.648885   2.338402   1.405680   2.430489   2.793138
     9  N    6.453699   5.591439   4.235277   3.737953   2.460189
    10  O    6.934347   6.279172   4.930302   4.109280   2.717574
    11  O    7.270343   6.243113   4.932754   4.712823   3.560290
    12  H    1.092032   2.012795   3.259440   3.896295   5.281169
    13  H    1.096788   2.090954   2.720234   2.825565   4.155969
    14  H    1.096802   2.090936   2.721254   2.827233   4.157837
    15  H    2.550761   2.748520   2.174706   1.083453   2.136337
    16  H    4.886675   4.589661   3.402172   2.153361   1.082520
    17  H    5.763174   4.487627   3.407624   3.887729   3.407438
    18  H    3.953559   2.532561   2.152469   3.406736   3.877581
                    6          7          8          9         10
     6  C    0.000000
     7  C    1.396393   0.000000
     8  C    2.398267   1.385645   0.000000
     9  N    1.459917   2.467103   3.732845   0.000000
    10  O    2.309099   3.567974   4.706637   1.233435   0.000000
    11  O    2.307404   2.722287   4.106695   1.233045   2.183102
    12  H    5.993729   5.621827   4.350134   7.443691   7.984081
    13  H    5.085858   5.048142   4.025916   6.460982   6.830070
    14  H    5.087546   5.049398   4.026741   6.462818   6.832009
    15  H    3.380951   3.888535   3.422718   4.595169   4.747750
    16  H    2.147697   3.406429   3.875563   2.666498   2.403359
    17  H    2.154810   1.082532   2.150137   2.680298   3.903633
    18  H    3.388909   2.150597   1.084569   4.614676   5.673181
                   11         12         13         14         15
    11  O    0.000000
    12  H    8.192037   0.000000
    13  H    7.351467   1.782647   0.000000
    14  H    7.353146   1.782759   1.796493   0.000000
    15  H    5.659125   3.635633   2.352598   2.354154   0.000000
    16  H    3.889600   5.975588   4.691069   4.693027   2.461708
    17  H    2.416914   6.499987   6.041667   6.042800   4.970919
    18  H    4.778409   4.413374   4.455837   4.456139   4.314299
                   16         17         18
    16  H    0.000000
    17  H    4.294300   0.000000
    18  H    4.960054   2.489813   0.000000
 Stoichiometry    C7H7NO3
 Framework group  C1[X(C7H7NO3)]
 Deg. of freedom    48
 Full point group                 C1      NOp   1
 Largest Abelian subgroup         C1      NOp   1
 Largest concise Abelian subgroup C1      NOp   1
                         Standard orientation:                         
 ---------------------------------------------------------------------
 Center     Atomic      Atomic             Coordinates (Angstroms)
 Number     Number       Type             X           Y           Z
 ---------------------------------------------------------------------
      1          6           0        3.851034   -0.581927   -0.000358
      2          8           0        2.963916    0.530494    0.000121
      3          6           0        1.626699    0.284884    0.000112
      4          6           0        1.051300   -0.993893    0.000244
      5          6           0       -0.334705   -1.127109    0.000104
      6          6           0       -1.135138    0.011174   -0.000011
      7          6           0       -0.576353    1.290890    0.000049
      8          6           0        0.802896    1.423868    0.000178
      9          7           0       -2.587393   -0.138205   -0.000196
     10          8           0       -3.047834   -1.282477    0.000059
     11          8           0       -3.268872    0.889406   -0.000199
     12          1           0        4.856279   -0.155293   -0.001744
     13          1           0        3.722395   -1.198628   -0.898175
     14          1           0        3.724337   -1.197804    0.898317
     15          1           0        1.660943   -1.889552    0.000580
     16          1           0       -0.790985   -2.108770    0.000254
     17          1           0       -1.215664    2.164479    0.000059
     18          1           0        1.262378    2.406297    0.000330
 ---------------------------------------------------------------------
 Rotational constants (GHZ):      3.5295155      0.5848294      0.5033247
 Leave Link  202 at Wed Sep 29 00:12:08 2021, MaxMem=  805306368 cpu:       0.0
 (Enter /sw/target/amd/app/gaussian/Gaussian09RevA.02_gcc-4.9.2/g09/l301.exe)
 Standard basis: 6-31G(d) (6D, 7F)
 Ernie: Thresh=  0.10000D-02 Tol=  0.10000D-05 Strict=F.
 There are   179 symmetry adapted basis functions of A   symmetry.
 Integral buffers will be    131072 words long.
 Raffenetti 2 integral format.
 Two-electron integral symmetry is turned on.
   179 basis functions,   336 primitive gaussians,   179 cartesian basis functions
    40 alpha electrons       40 beta electrons
       nuclear repulsion energy       582.3488777787 Hartrees.
 IExCor=  402 DFT=T Ex+Corr=B3LYP ExCW=0 ScaHFX=  0.200000
 ScaDFX=  0.800000  0.720000  1.000000  0.810000 ScalE2=  1.000000  1.000000
 IRadAn=      0 IRanWt=     -1 IRanGd=            0 ICorTp=0
 NAtoms=   18 NActive=   18 NUniq=   18 SFac= 7.50D-01 NAtFMM=   80 NAOKFM=F Big=F
 Leave Link  301 at Wed Sep 29 00:12:08 2021, MaxMem=  805306368 cpu:       0.1
 (Enter /sw/target/amd/app/gaussian/Gaussian09RevA.02_gcc-4.9.2/g09/l302.exe)
 NPDir=0 NMtPBC=     1 NCelOv=     1 NCel=       1 NClECP=     1 NCelD=      1
         NCelK=      1 NCelE2=     1 NClLst=     1 CellRange=     0.0.
 One-electron integrals computed using PRISM.
 NBasis=   179 RedAO= T  NBF=   179
 NBsUse=   179 1.00D-06 NBFU=   179
 Precomputing XC quadrature grid using
 IXCGrd= 2 IRadAn=           0 IRanWt=          -1 IRanGd=           0 AccXCQ= 1.00D-10.
 NRdTot=    1126 NPtTot=      143054 NUsed=      151183 NTot=      151215
 NSgBfM=   178   178   178   178   178 NAtAll=    18    18.
 Leave Link  302 at Wed Sep 29 00:12:10 2021, MaxMem=  805306368 cpu:       1.0
 (Enter /sw/target/amd/app/gaussian/Gaussian09RevA.02_gcc-4.9.2/g09/l303.exe)
 DipDrv:  MaxL=1.
 Leave Link  303 at Wed Sep 29 00:12:11 2021, MaxMem=  805306368 cpu:       0.1
 (Enter /sw/target/amd/app/gaussian/Gaussian09RevA.02_gcc-4.9.2/g09/l401.exe)
 Initial guess read from the read-write file.
 B after Tr=     0.000000    0.000000    0.000000
         Rot=    1.000000    0.000000    0.000000    0.000000 Ang=   0.00 deg.
 Guess basis will be translated and rotated to current coordinates.
 Initial guess orbital symmetries:
       Occupied  (A) (A) (A) (A) (A) (A) (A) (A) (A) (A) (A) (A)
                 (A) (A) (A) (A) (A) (A) (A) (A) (A) (A) (A) (A)
                 (A) (A) (A) (A) (A) (A) (A) (A) (A) (A) (A) (A)
                 (A) (A) (A) (A)
       Virtual   (A) (A) (A) (A) (A) (A) (A) (A) (A) (A) (A) (A)
                 (A) (A) (A) (A) (A) (A) (A) (A) (A) (A) (A) (A)
                 (A) (A) (A) (A) (A) (A) (A) (A) (A) (A) (A) (A)
                 (A) (A) (A) (A) (A) (A) (A) (A) (A) (A) (A) (A)
                 (A) (A) (A) (A) (A) (A) (A) (A) (A) (A) (A) (A)
                 (A) (A) (A) (A) (A) (A) (A) (A) (A) (A) (A) (A)
                 (A) (A) (A) (A) (A) (A) (A) (A) (A) (A) (A) (A)
                 (A) (A) (A) (A) (A) (A) (A) (A) (A) (A) (A) (A)
                 (A) (A) (A) (A) (A) (A) (A) (A) (A) (A) (A) (A)
                 (A) (A) (A) (A) (A) (A) (A) (A) (A) (A) (A) (A)
                 (A) (A) (A) (A) (A) (A) (A) (A) (A) (A) (A) (A)
                 (A) (A) (A) (A) (A) (A) (A)
 The electronic state of the initial guess is 1-A.
 Generating alternative initial guess.
 Harris functional with IExCor=  402 diagonalized for initial guess.
 ExpMin= 1.61D-01 ExpMax= 5.48D+03 ExpMxC= 8.25D+02 IAcc=1 IRadAn=         1 AccDes= 0.00D+00
 HarFok:  IExCor=  402 AccDes= 0.00D+00 IRadAn=         1 IDoV= 1
 ScaDFX=  1.000000  1.000000  1.000000  1.000000
 FoFCou: FMM=F IPFlag=           0 FMFlag=      100000 FMFlg1=           0
         NFxFlg=           0 DoJE=T BraDBF=F KetDBF=T FulRan=T
         Omega=  0.000000  0.000000  1.000000  0.000000  0.000000 ICntrl=     500 IOpCl=  0
         NMat0=    1 NMatS0=    1 NMatT0=    0 NMatD0=    1 NMtDS0=    0 NMtDT0=    0
         I1Cent=           4 NGrid=           0.
 Petite list used in FoFCou.
 Harris En= -551.351140814536    
 Leave Link  401 at Wed Sep 29 00:12:19 2021, MaxMem=  805306368 cpu:       4.8
 (Enter /sw/target/amd/app/gaussian/Gaussian09RevA.02_gcc-4.9.2/g09/l502.exe)
 Closed shell SCF:
 Requested convergence on RMS density matrix=1.00D-08 within  64 cycles.
 Requested convergence on MAX density matrix=1.00D-06.
 Requested convergence on             energy=1.00D-06.
 No special actions if energy rises.
 Using DIIS extrapolation, IDIIS=  1040.
 Integral symmetry usage will be decided dynamically.
       151008 words used for storage of precomputed grid.
 Keep R1 ints in memory in canonical form, NReq=132945119.
 IEnd=      255090 IEndB=      255090 NGot=   805306368 MDV=   675313590
 LenX=   675313590 LenY=   675281108
 Symmetry not used in FoFDir.
 MinBra= 0 MaxBra= 2 Meth= 1.
 IRaf=       0 NMat=   1 IRICut=       1 DoRegI=T DoRafI=F ISym2E= 0 JSym2E=0.
 Integral accuracy reduced to 1.0D-05 until final iterations.

 Cycle   1  Pass 0  IDiag  1:
 E= -551.275131150060    
 DIIS: error= 1.16D-03 at cycle   1 NSaved=   1.
 NSaved= 1 IEnMin= 1 EnMin= -551.275131150060     IErMin= 1 ErrMin= 1.16D-03
 ErrMax= 1.16D-03 EMaxC= 1.00D-01 BMatC= 4.00D-04 BMatP= 4.00D-04
 IDIUse=3 WtCom= 9.88D-01 WtEn= 1.16D-02
 Coeff-Com:  0.100D+01
 Coeff-En:   0.100D+01
 Coeff:      0.100D+01
 Gap=     0.169 Goal=   None    Shift=    0.000
 GapD=    0.169 DampG=1.000 DampE=1.000 DampFc=1.0000 IDamp=-1.
 RMSDP=2.77D-04 MaxDP=4.47D-03              OVMax= 7.17D-03

 Cycle   2  Pass 0  IDiag  1:
 E= -551.275719294600     Delta-E=       -0.000588144540 Rises=F Damp=F
 DIIS: error= 5.67D-04 at cycle   2 NSaved=   2.
 NSaved= 2 IEnMin= 2 EnMin= -551.275719294600     IErMin= 2 ErrMin= 5.67D-04
 ErrMax= 5.67D-04 EMaxC= 1.00D-01 BMatC= 5.69D-05 BMatP= 4.00D-04
 IDIUse=3 WtCom= 9.94D-01 WtEn= 5.67D-03
 Coeff-Com:  0.152D+00 0.848D+00
 Coeff-En:   0.000D+00 0.100D+01
 Coeff:      0.151D+00 0.849D+00
 Gap=     0.170 Goal=   None    Shift=    0.000
 RMSDP=9.61D-05 MaxDP=2.78D-03 DE=-5.88D-04 OVMax= 6.03D-03

 Cycle   3  Pass 0  IDiag  1:
 E= -551.275682889682     Delta-E=        0.000036404918 Rises=F Damp=F
 DIIS: error= 8.53D-04 at cycle   3 NSaved=   3.
 NSaved= 3 IEnMin= 2 EnMin= -551.275719294600     IErMin= 2 ErrMin= 5.67D-04
 ErrMax= 8.53D-04 EMaxC= 1.00D-01 BMatC= 8.79D-05 BMatP= 5.69D-05
 IDIUse=3 WtCom= 2.55D-01 WtEn= 7.45D-01
 Coeff-Com: -0.153D-01 0.562D+00 0.453D+00
 Coeff-En:   0.000D+00 0.600D+00 0.400D+00
 Coeff:     -0.390D-02 0.590D+00 0.413D+00
 Gap=     0.169 Goal=   None    Shift=    0.000
 RMSDP=5.73D-05 MaxDP=1.80D-03 DE= 3.64D-05 OVMax= 4.22D-03

 Cycle   4  Pass 0  IDiag  1:
 E= -551.275776015131     Delta-E=       -0.000093125449 Rises=F Damp=F
 DIIS: error= 1.02D-04 at cycle   4 NSaved=   4.
 NSaved= 4 IEnMin= 4 EnMin= -551.275776015131     IErMin= 4 ErrMin= 1.02D-04
 ErrMax= 1.02D-04 EMaxC= 1.00D-01 BMatC= 3.39D-06 BMatP= 5.69D-05
 IDIUse=3 WtCom= 9.99D-01 WtEn= 1.02D-03
 Coeff-Com: -0.185D-01 0.283D+00 0.233D+00 0.502D+00
 Coeff-En:   0.000D+00 0.000D+00 0.000D+00 0.100D+01
 Coeff:     -0.185D-01 0.283D+00 0.233D+00 0.503D+00
 Gap=     0.169 Goal=   None    Shift=    0.000
 RMSDP=1.13D-05 MaxDP=3.72D-04 DE=-9.31D-05 OVMax= 4.59D-04

 Cycle   5  Pass 0  IDiag  1:
 E= -551.275778633987     Delta-E=       -0.000002618856 Rises=F Damp=F
 DIIS: error= 6.76D-05 at cycle   5 NSaved=   5.
 NSaved= 5 IEnMin= 5 EnMin= -551.275778633987     IErMin= 5 ErrMin= 6.76D-05
 ErrMax= 6.76D-05 EMaxC= 1.00D-01 BMatC= 4.51D-07 BMatP= 3.39D-06
 IDIUse=1 WtCom= 1.00D+00 WtEn= 0.00D+00
 Coeff-Com: -0.101D-01 0.116D+00 0.101D+00 0.293D+00 0.500D+00
 Coeff:     -0.101D-01 0.116D+00 0.101D+00 0.293D+00 0.500D+00
 Gap=     0.169 Goal=   None    Shift=    0.000
 RMSDP=4.50D-06 MaxDP=2.01D-04 DE=-2.62D-06 OVMax= 3.85D-04

 Initial convergence to 1.0D-05 achieved.  Increase integral accuracy.
 Cycle   6  Pass 1  IDiag  1:
 E= -551.275752483435     Delta-E=        0.000026150552 Rises=F Damp=F
 DIIS: error= 5.98D-05 at cycle   1 NSaved=   1.
 NSaved= 1 IEnMin= 1 EnMin= -551.275752483435     IErMin= 1 ErrMin= 5.98D-05
 ErrMax= 5.98D-05 EMaxC= 1.00D-01 BMatC= 2.46D-07 BMatP= 2.46D-07
 IDIUse=1 WtCom= 1.00D+00 WtEn= 0.00D+00
 Coeff-Com:  0.100D+01
 Coeff:      0.100D+01
 Gap=     0.169 Goal=   None    Shift=    0.000
 RMSDP=4.50D-06 MaxDP=2.01D-04 DE= 2.62D-05 OVMax= 7.46D-04

 Cycle   7  Pass 1  IDiag  1:
 E= -551.275751473948     Delta-E=        0.000001009487 Rises=F Damp=F
 DIIS: error= 1.90D-04 at cycle   2 NSaved=   2.
 NSaved= 2 IEnMin= 1 EnMin= -551.275752483435     IErMin= 1 ErrMin= 5.98D-05
 ErrMax= 1.90D-04 EMaxC= 1.00D-01 BMatC= 1.53D-06 BMatP= 2.46D-07
 IDIUse=3 WtCom= 4.20D-01 WtEn= 5.80D-01
 Coeff-Com:  0.731D+00 0.269D+00
 Coeff-En:   0.808D+00 0.192D+00
 Coeff:      0.775D+00 0.225D+00
 Gap=     0.169 Goal=   None    Shift=    0.000
 RMSDP=5.08D-06 MaxDP=2.51D-04 DE= 1.01D-06 OVMax= 5.40D-04

 Cycle   8  Pass 1  IDiag  1:
 E= -551.275752698537     Delta-E=       -0.000001224588 Rises=F Damp=F
 DIIS: error= 1.36D-05 at cycle   3 NSaved=   3.
 NSaved= 3 IEnMin= 3 EnMin= -551.275752698537     IErMin= 3 ErrMin= 1.36D-05
 ErrMax= 1.36D-05 EMaxC= 1.00D-01 BMatC= 1.44D-08 BMatP= 2.46D-07
 IDIUse=1 WtCom= 1.00D+00 WtEn= 0.00D+00
 Coeff-Com:  0.934D-01-0.442D-01 0.951D+00
 Coeff:      0.934D-01-0.442D-01 0.951D+00
 Gap=     0.169 Goal=   None    Shift=    0.000
 RMSDP=9.31D-07 MaxDP=2.69D-05 DE=-1.22D-06 OVMax= 4.75D-05

 Cycle   9  Pass 1  IDiag  1:
 E= -551.275752703908     Delta-E=       -0.000000005371 Rises=F Damp=F
 DIIS: error= 5.90D-06 at cycle   4 NSaved=   4.
 NSaved= 4 IEnMin= 4 EnMin= -551.275752703908     IErMin= 4 ErrMin= 5.90D-06
 ErrMax= 5.90D-06 EMaxC= 1.00D-01 BMatC= 8.09D-09 BMatP= 1.44D-08
 IDIUse=1 WtCom= 1.00D+00 WtEn= 0.00D+00
 Coeff-Com: -0.939D-02-0.544D-01 0.620D+00 0.444D+00
 Coeff:     -0.939D-02-0.544D-01 0.620D+00 0.444D+00
 Gap=     0.169 Goal=   None    Shift=    0.000
 RMSDP=4.59D-07 MaxDP=1.40D-05 DE=-5.37D-09 OVMax= 2.61D-05

 Cycle  10  Pass 1  IDiag  1:
 E= -551.275752710731     Delta-E=       -0.000000006823 Rises=F Damp=F
 DIIS: error= 1.21D-06 at cycle   5 NSaved=   5.
 NSaved= 5 IEnMin= 5 EnMin= -551.275752710731     IErMin= 5 ErrMin= 1.21D-06
 ErrMax= 1.21D-06 EMaxC= 1.00D-01 BMatC= 2.35D-10 BMatP= 8.09D-09
 IDIUse=1 WtCom= 1.00D+00 WtEn= 0.00D+00
 Coeff-Com: -0.109D-01-0.278D-01 0.284D+00 0.235D+00 0.519D+00
 Coeff:     -0.109D-01-0.278D-01 0.284D+00 0.235D+00 0.519D+00
 Gap=     0.169 Goal=   None    Shift=    0.000
 RMSDP=8.95D-08 MaxDP=2.28D-06 DE=-6.82D-09 OVMax= 3.02D-06

 Cycle  11  Pass 1  IDiag  1:
 E= -551.275752710918     Delta-E=       -0.000000000187 Rises=F Damp=F
 DIIS: error= 1.45D-07 at cycle   6 NSaved=   6.
 NSaved= 6 IEnMin= 6 EnMin= -551.275752710918     IErMin= 6 ErrMin= 1.45D-07
 ErrMax= 1.45D-07 EMaxC= 1.00D-01 BMatC= 4.99D-12 BMatP= 2.35D-10
 IDIUse=1 WtCom= 1.00D+00 WtEn= 0.00D+00
 Coeff-Com: -0.326D-02-0.784D-02 0.767D-01 0.654D-01 0.194D+00 0.676D+00
 Coeff:     -0.326D-02-0.784D-02 0.767D-01 0.654D-01 0.194D+00 0.676D+00
 Gap=     0.169 Goal=   None    Shift=    0.000
 RMSDP=1.92D-08 MaxDP=5.69D-07 DE=-1.87D-10 OVMax= 1.20D-06

 Cycle  12  Pass 1  IDiag  1:
 E= -551.275752710912     Delta-E=        0.000000000006 Rises=F Damp=F
 DIIS: error= 1.32D-07 at cycle   7 NSaved=   7.
 NSaved= 7 IEnMin= 6 EnMin= -551.275752710918     IErMin= 7 ErrMin= 1.32D-07
 ErrMax= 1.32D-07 EMaxC= 1.00D-01 BMatC= 3.02D-12 BMatP= 4.99D-12
 IDIUse=1 WtCom= 1.00D+00 WtEn= 0.00D+00
 Coeff-Com: -0.357D-03-0.549D-03 0.325D-02 0.422D-02 0.413D-01 0.467D+00
 Coeff-Com:  0.485D+00
 Coeff:     -0.357D-03-0.549D-03 0.325D-02 0.422D-02 0.413D-01 0.467D+00
 Coeff:      0.485D+00
 Gap=     0.169 Goal=   None    Shift=    0.000
 RMSDP=1.06D-08 MaxDP=3.43D-07 DE= 6.14D-12 OVMax= 6.50D-07

 Cycle  13  Pass 1  IDiag  1:
 E= -551.275752710927     Delta-E=       -0.000000000015 Rises=F Damp=F
 DIIS: error= 2.95D-08 at cycle   8 NSaved=   8.
 NSaved= 8 IEnMin= 8 EnMin= -551.275752710927     IErMin= 8 ErrMin= 2.95D-08
 ErrMax= 2.95D-08 EMaxC= 1.00D-01 BMatC= 1.34D-13 BMatP= 3.02D-12
 IDIUse=1 WtCom= 1.00D+00 WtEn= 0.00D+00
 Coeff-Com: -0.559D-04 0.145D-03-0.213D-02-0.955D-03 0.119D-01 0.213D+00
 Coeff-Com:  0.262D+00 0.516D+00
 Coeff:     -0.559D-04 0.145D-03-0.213D-02-0.955D-03 0.119D-01 0.213D+00
 Coeff:      0.262D+00 0.516D+00
 Gap=     0.169 Goal=   None    Shift=    0.000
 RMSDP=2.65D-09 MaxDP=8.86D-08 DE=-1.52D-11 OVMax= 1.58D-07

 SCF Done:  E(RB3LYP) =  -551.275752711     A.U. after   13 cycles
             Convg  =    0.2655D-08             -V/T =  2.0090
 KE= 5.463418876520D+02 PE=-2.450965680944D+03 EE= 7.709991628025D+02
 Leave Link  502 at Wed Sep 29 00:14:46 2021, MaxMem=  805306368 cpu:      85.7
 (Enter /sw/target/amd/app/gaussian/Gaussian09RevA.02_gcc-4.9.2/g09/l508.exe)
 QCSCF skips out because SCF is already converged.
 Leave Link  508 at Wed Sep 29 00:14:47 2021, MaxMem=  805306368 cpu:       0.0
 (Enter /sw/target/amd/app/gaussian/Gaussian09RevA.02_gcc-4.9.2/g09/l701.exe)
 Compute integral first derivatives.
 ... and contract with generalized density number  0.
 Leave Link  701 at Wed Sep 29 00:14:48 2021, MaxMem=  805306368 cpu:       0.8
 (Enter /sw/target/amd/app/gaussian/Gaussian09RevA.02_gcc-4.9.2/g09/l702.exe)
 L702 exits ... SP integral derivatives will be done elsewhere.
 Leave Link  702 at Wed Sep 29 00:14:48 2021, MaxMem=  805306368 cpu:       0.1
 (Enter /sw/target/amd/app/gaussian/Gaussian09RevA.02_gcc-4.9.2/g09/l703.exe)
 Compute integral first derivatives, UseDBF=F ICtDFT=           0.
 Integral derivatives from FoFDir, PRISM(SPDF).
 Calling FoFJK, ICntrl=      2127 FMM=F ISym2X=0 I1Cent= 0 IOpClX= 0 NMat=1 NMatS=1 NMatT=0.
 FoFCou: FMM=F IPFlag=           0 FMFlag=      100000 FMFlg1=         800
         NFxFlg=           0 DoJE=F BraDBF=F KetDBF=F FulRan=T
         Omega=  0.000000  0.000000  1.000000  0.000000  0.000000 ICntrl=    2127 IOpCl=  0
         NMat0=    1 NMatS0=    1 NMatT0=    0 NMatD0=    1 NMtDS0=    0 NMtDT0=    0
         I1Cent=           0 NGrid=           0.
 Symmetry not used in FoFCou.
 Leave Link  703 at Wed Sep 29 00:15:38 2021, MaxMem=  805306368 cpu:      36.3
 (Enter /sw/target/amd/app/gaussian/Gaussian09RevA.02_gcc-4.9.2/g09/l716.exe)
 Dipole        = 2.31626264D+00-2.90715945D-01-1.50988452D-04
 ***** Axes restored to original set *****
 -------------------------------------------------------------------
 Center     Atomic                   Forces (Hartrees/Bohr)
 Number     Number              X              Y              Z
 -------------------------------------------------------------------
      1        6          -0.001201364    0.002944793    0.001533378
[...]
     5  C   -0.081767  -0.035349  -0.050471   0.000311   0.007699   0.000001
     6  C    0.472375  -0.012669   0.266849  -0.093340  -0.093320  -0.000000
     7  C    5.042762   0.529362  -0.049699   0.007453   0.000244   0.000004
     8  C    0.529362   4.959036   0.003388   0.000001   0.000526  -0.000096
     9  N   -0.049699   0.003388   6.212015   0.154835   0.153715  -0.000000
    10  O    0.007453   0.000001   0.154835   8.281108  -0.039843   0.000000
    11  O    0.000244   0.000526   0.153715  -0.039843   8.280122   0.000000
    12  H    0.000004  -0.000096  -0.000000   0.000000   0.000000   0.529004
    13  H    0.000000   0.000007   0.000000  -0.000000  -0.000000  -0.030993
    14  H    0.000000   0.000006   0.000000  -0.000000  -0.000000  -0.031004
    15  H    0.000668   0.004452  -0.000076   0.000004   0.000001  -0.000110
    16  H    0.006007   0.000313  -0.013554   0.011859   0.000073  -0.000000
    17  H    0.351431  -0.037437  -0.013274   0.000062   0.011485  -0.000000
    18  H   -0.040625   0.348394  -0.000063   0.000001   0.000004  -0.000029
             13         14         15         16         17         18
     1  C    0.362989   0.363002   0.006338  -0.000005   0.000003  -0.000219
     2  O   -0.035030  -0.035033  -0.007751  -0.000041  -0.000047   0.000076
     3  C   -0.004010  -0.004010  -0.043563   0.002778   0.003746  -0.034498
     4  C    0.004535   0.004528   0.356105  -0.035632   0.000036   0.007387
     5  C   -0.000177  -0.000177  -0.037351   0.348861   0.006313   0.000099
     6  C   -0.000002  -0.000002   0.003127  -0.028776  -0.031371   0.003611
     7  C    0.000000   0.000000   0.000668   0.006007   0.351431  -0.040625
     8  C    0.000007   0.000006   0.004452   0.000313  -0.037437   0.348394
     9  N    0.000000   0.000000  -0.000076  -0.013554  -0.013274  -0.000063
    10  O   -0.000000  -0.000000   0.000004   0.011859   0.000062   0.000001
    11  O   -0.000000  -0.000000   0.000001   0.000073   0.011485   0.000004
    12  H   -0.030993  -0.031004  -0.000110  -0.000000  -0.000000  -0.000029
    13  H    0.592627  -0.048394   0.001744   0.000002  -0.000000   0.000028
    14  H   -0.048394   0.592634   0.001745   0.000002  -0.000000   0.000028
    15  H    0.001744   0.001745   0.577894  -0.004951   0.000013  -0.000150
    16  H    0.000002   0.000002  -0.004951   0.548009  -0.000156   0.000013
    17  H   -0.000000  -0.000000   0.000013  -0.000156   0.548559  -0.005549
    18  H    0.000028   0.000028  -0.000150   0.000013  -0.005549   0.571564
 Mulliken atomic charges:
              1
     1  C   -0.218945
     2  O   -0.502911
     3  C    0.381121
     4  C   -0.200057
     5  C   -0.190773
     6  C    0.290796
     7  C   -0.181390
     8  C   -0.178928
     9  N    0.332365
    10  O   -0.322961
    11  O   -0.320675
    12  H    0.175833
    13  H    0.156674
    14  H    0.156673
    15  H    0.141864
    16  H    0.165197
    17  H    0.166187
    18  H    0.149929
 Sum of Mulliken atomic charges =   0.00000
 Mulliken charges with hydrogens summed into heavy atoms:
              1
     1  C    0.270235
     2  O   -0.502911
     3  C    0.381121
     4  C   -0.058194
     5  C   -0.025576
     6  C    0.290796
     7  C   -0.015203
     8  C   -0.028999
     9  N    0.332365
    10  O   -0.322961
    11  O   -0.320675
 Sum of Mulliken charges with hydrogens summed into heavy atoms =   0.00000
 Electronic spatial extent (au):  <R**2>=           2081.5518
 Charge=             -0.0000 electrons
 Dipole moment (field-independent basis, Debye):
    X=             -3.7716    Y=             -0.8705    Z=              0.0004  Tot=              3.8707
 Quadrupole moment (field-independent basis, Debye-Ang):
   XX=            -63.2929   YY=            -58.7368   ZZ=            -64.1050
   XY=              5.2835   XZ=             -0.0018   YZ=              0.0003
 Traceless Quadrupole moment (field-independent basis, Debye-Ang):
   XX=             -1.2480   YY=              3.3081   ZZ=             -2.0601
   XY=              5.2835   XZ=             -0.0018   YZ=              0.0003
 Octapole moment (field-independent basis, Debye-Ang**2):
  XXX=            -62.1833  YYY=              3.4454  ZZZ=              0.0008  XYY=             -2.4042
  XXY=            -13.8259  XXZ=              0.0060  XZZ=              5.6344  YZZ=             -0.9976
  YYZ=             -0.0003  XYZ=             -0.0007
 Hexadecapole moment (field-independent basis, Debye-Ang**3):
 XXXX=          -1986.8811 YYYY=           -393.1593 ZZZZ=            -66.2965 XXXY=             44.5812
 XXXZ=             -0.0274 YYYX=             -2.3918 YYYZ=              0.0021 ZZZX=              0.0022
 ZZZY=             -0.0007 XXYY=           -430.6010 XXZZ=           -353.7984 YYZZ=            -87.0075
 XXYZ=              0.0024 YYXZ=              0.0013 ZZXY=             -1.1138
 N-N= 5.822039388851D+02 E-N=-2.450778206867D+03  KE= 5.465460188625D+02
 No NMR shielding tensors so no spin-rotation constants.
 Leave Link  601 at Wed Sep 29 02:26:59 2021, MaxMem=  805306368 cpu:       0.8
 (Enter /sw/target/amd/app/gaussian/Gaussian09RevA.02_gcc-4.9.2/g09/l604.exe)
 Evaluate density.
 Using the total density.
 Monte-Carlo method of calculating molar volume:
 based on  0.001 e/bohr**3 density envelope.
 Number of points per bohr**3 =   20 CutOff= 1.00D-04
 Using the CI density.
 There are       359 points.  Will hold       359 in memory.
 LenV=   805208451 MDV=   805306368.
 Box volume = 5803.372 fraction occupied=0.226
 Integrated density= 7.4497930252252473D+01 error=-5.5020697477475267D+00
 Molar volume = 1309.396 bohr**3/mol (116.849 cm**3/mol)
 Recommended a0 for SCRF calculation =  4.45 angstrom (  8.41 bohr)
 Leave Link  604 at Wed Sep 29 02:26:59 2021, MaxMem=  805306368 cpu:       0.3
 (Enter /sw/target/amd/app/gaussian/Gaussian09RevA.02_gcc-4.9.2/g09/l607.exe)
 ******************************Gaussian NBO Version 3.1******************************
             N A T U R A L   A T O M I C   O R B I T A L   A N D
          N A T U R A L   B O N D   O R B I T A L   A N A L Y S I S
 ******************************Gaussian NBO Version 3.1******************************
       /RESON  / : Allow strongly delocalized NBO set

 Analyzing the CI density

 Job title: COc1ccc(cc1)[N+](=O)[O-]_conf_0                                 

 Storage needed:     97292 in NPA ( 805304568 available)


 NATURAL POPULATIONS:  Natural atomic orbital occupancies 
                                                          
   NAO  Atom  No  lang   Type(AO)    Occupancy
 --------------------------------------------
     1    C    1  S      Cor( 1S)     1.99943
     2    C    1  S      Val( 2S)     1.10205
     3    C    1  S      Ryd( 3S)     0.00139
     4    C    1  S      Ryd( 4S)     0.00002
     5    C    1  px     Val( 2p)     1.02946
     6    C    1  px     Ryd( 3p)     0.00233
     7    C    1  py     Val( 2p)     0.94753
     8    C    1  py     Ryd( 3p)     0.00322
     9    C    1  pz     Val( 2p)     1.22617
    10    C    1  pz     Ryd( 3p)     0.00027
    11    C    1  dxy    Ryd( 3d)     0.00174
    12    C    1  dxz    Ryd( 3d)     0.00057
    13    C    1  dyz    Ryd( 3d)     0.00185
    14    C    1  dx2y2  Ryd( 3d)     0.00129
    15    C    1  dz2    Ryd( 3d)     0.00108

    16    O    2  S      Cor( 1S)     1.99974
    17    O    2  S      Val( 2S)     1.58567
    18    O    2  S      Ryd( 3S)     0.00080
    19    O    2  S      Ryd( 4S)     0.00005
    20    O    2  px     Val( 2p)     1.40900
    21    O    2  px     Ryd( 3p)     0.00113
    22    O    2  py     Val( 2p)     1.67777
    23    O    2  py     Ryd( 3p)     0.00210
    24    O    2  pz     Val( 2p)     1.83002
    25    O    2  pz     Ryd( 3p)     0.00235
    26    O    2  dxy    Ryd( 3d)     0.00130
    27    O    2  dxz    Ryd( 3d)     0.00064
    28    O    2  dyz    Ryd( 3d)     0.00142
    29    O    2  dx2y2  Ryd( 3d)     0.00130
    30    O    2  dz2    Ryd( 3d)     0.00076

    31    C    3  S      Cor( 1S)     1.99883
    32    C    3  S      Val( 2S)     0.83044
    33    C    3  S      Ryd( 3S)     0.00143
    34    C    3  S      Ryd( 4S)     0.00012
    35    C    3  px     Val( 2p)     0.76746
    36    C    3  px     Ryd( 3p)     0.00706
    37    C    3  py     Val( 2p)     1.07669
    38    C    3  py     Ryd( 3p)     0.00629
    39    C    3  pz     Val( 2p)     0.98863
    40    C    3  pz     Ryd( 3p)     0.00086
    41    C    3  dxy    Ryd( 3d)     0.00149
    42    C    3  dxz    Ryd( 3d)     0.00215
    43    C    3  dyz    Ryd( 3d)     0.00066
    44    C    3  dx2y2  Ryd( 3d)     0.00163
    45    C    3  dz2    Ryd( 3d)     0.00048

    46    C    4  S      Cor( 1S)     1.99903
    47    C    4  S      Val( 2S)     0.95752
    48    C    4  S      Ryd( 3S)     0.00068
    49    C    4  S      Ryd( 4S)     0.00005
    50    C    4  px     Val( 2p)     1.11281
    51    C    4  px     Ryd( 3p)     0.00380
    52    C    4  py     Val( 2p)     1.15827
    53    C    4  py     Ryd( 3p)     0.00418
    54    C    4  pz     Val( 2p)     1.06567
    55    C    4  pz     Ryd( 3p)     0.00077
    56    C    4  dxy    Ryd( 3d)     0.00080
    57    C    4  dxz    Ryd( 3d)     0.00051
    58    C    4  dyz    Ryd( 3d)     0.00043
    59    C    4  dx2y2  Ryd( 3d)     0.00055
    60    C    4  dz2    Ryd( 3d)     0.00046

    61    C    5  S      Cor( 1S)     1.99903
    62    C    5  S      Val( 2S)     0.94981
    63    C    5  S      Ryd( 3S)     0.00077
    64    C    5  S      Ryd( 4S)     0.00004
    65    C    5  px     Val( 2p)     1.08775
    66    C    5  px     Ryd( 3p)     0.00454
    67    C    5  py     Val( 2p)     1.17917
    68    C    5  py     Ryd( 3p)     0.00492
    69    C    5  pz     Val( 2p)     1.00842
    70    C    5  pz     Ryd( 3p)     0.00150
    71    C    5  dxy    Ryd( 3d)     0.00084
    72    C    5  dxz    Ryd( 3d)     0.00059
    73    C    5  dyz    Ryd( 3d)     0.00037
    74    C    5  dx2y2  Ryd( 3d)     0.00052
    75    C    5  dz2    Ryd( 3d)     0.00045

    76    C    6  S      Cor( 1S)     1.99877
    77    C    6  S      Val( 2S)     0.87108
    78    C    6  S      Ryd( 3S)     0.00091
    79    C    6  S      Ryd( 4S)     0.00006
    80    C    6  px     Val( 2p)     0.86966
    81    C    6  px     Ryd( 3p)     0.00518
    82    C    6  py     Val( 2p)     1.10530
    83    C    6  py     Ryd( 3p)     0.00650
    84    C    6  pz     Val( 2p)     1.10104
    85    C    6  pz     Ryd( 3p)     0.00104
    86    C    6  dxy    Ryd( 3d)     0.00056
    87    C    6  dxz    Ryd( 3d)     0.00119
    88    C    6  dyz    Ryd( 3d)     0.00066
    89    C    6  dx2y2  Ryd( 3d)     0.00137
    90    C    6  dz2    Ryd( 3d)     0.00047

    91    C    7  S      Cor( 1S)     1.99902
    92    C    7  S      Val( 2S)     0.95282
    93    C    7  S      Ryd( 3S)     0.00064
    94    C    7  S      Ryd( 4S)     0.00004
    95    C    7  px     Val( 2p)     1.12130
    96    C    7  px     Ryd( 3p)     0.00455
    97    C    7  py     Val( 2p)     1.14916
    98    C    7  py     Ryd( 3p)     0.00459
    99    C    7  pz     Val( 2p)     1.00626
   100    C    7  pz     Ryd( 3p)     0.00130
   101    C    7  dxy    Ryd( 3d)     0.00084
   102    C    7  dxz    Ryd( 3d)     0.00058
   103    C    7  dyz    Ryd( 3d)     0.00040
   104    C    7  dx2y2  Ryd( 3d)     0.00053
   105    C    7  dz2    Ryd( 3d)     0.00045

   106    C    8  S      Cor( 1S)     1.99904
   107    C    8  S      Val( 2S)     0.96109
   108    C    8  S      Ryd( 3S)     0.00085
   109    C    8  S      Ryd( 4S)     0.00005
   110    C    8  px     Val( 2p)     1.08304
   111    C    8  px     Ryd( 3p)     0.00512
   112    C    8  py     Val( 2p)     1.17253
   113    C    8  py     Ryd( 3p)     0.00487
   114    C    8  pz     Val( 2p)     1.02722
   115    C    8  pz     Ryd( 3p)     0.00072
   116    C    8  dxy    Ryd( 3d)     0.00083
   117    C    8  dxz    Ryd( 3d)     0.00056
   118    C    8  dyz    Ryd( 3d)     0.00040
   119    C    8  dx2y2  Ryd( 3d)     0.00055
   120    C    8  dz2    Ryd( 3d)     0.00046

   121    N    9  S      Cor( 1S)     1.99955
   122    N    9  S      Val( 2S)     1.07685
   123    N    9  S      Ryd( 3S)     0.00566
   124    N    9  S      Ryd( 4S)     0.00049
   125    N    9  px     Val( 2p)     1.16934
   126    N    9  px     Ryd( 3p)     0.01015
   127    N    9  py     Val( 2p)     0.94945
   128    N    9  py     Ryd( 3p)     0.01245
   129    N    9  pz     Val( 2p)     1.38293
   130    N    9  pz     Ryd( 3p)     0.00210
   131    N    9  dxy    Ryd( 3d)     0.00260
   132    N    9  dxz    Ryd( 3d)     0.00248
   133    N    9  dyz    Ryd( 3d)     0.00494
   134    N    9  dx2y2  Ryd( 3d)     0.00458
   135    N    9  dz2    Ryd( 3d)     0.00057

   136    O   10  S      Cor( 1S)     1.99984
   137    O   10  S      Val( 2S)     1.75500
   138    O   10  S      Ryd( 3S)     0.00207
   139    O   10  S      Ryd( 4S)     0.00007
   140    O   10  px     Val( 2p)     1.49914
   141    O   10  px     Ryd( 3p)     0.00173
   142    O   10  py     Val( 2p)     1.22476
   143    O   10  py     Ryd( 3p)     0.00108
   144    O   10  pz     Val( 2p)     1.76058
   145    O   10  pz     Ryd( 3p)     0.00338
   146    O   10  dxy    Ryd( 3d)     0.00164
   147    O   10  dxz    Ryd( 3d)     0.00059
   148    O   10  dyz    Ryd( 3d)     0.00251
   149    O   10  dx2y2  Ryd( 3d)     0.00145
   150    O   10  dz2    Ryd( 3d)     0.00038

   151    O   11  S      Cor( 1S)     1.99984
   152    O   11  S      Val( 2S)     1.75495
   153    O   11  S      Ryd( 3S)     0.00207
   154    O   11  S      Ryd( 4S)     0.00007
   155    O   11  px     Val( 2p)     1.49891
   156    O   11  px     Ryd( 3p)     0.00143
   157    O   11  py     Val( 2p)     1.22352
   158    O   11  py     Ryd( 3p)     0.00139
   159    O   11  pz     Val( 2p)     1.76038
   160    O   11  pz     Ryd( 3p)     0.00337
   161    O   11  dxy    Ryd( 3d)     0.00151
   162    O   11  dxz    Ryd( 3d)     0.00110
   163    O   11  dyz    Ryd( 3d)     0.00201
   164    O   11  dx2y2  Ryd( 3d)     0.00158
   165    O   11  dz2    Ryd( 3d)     0.00038

   166    H   12  S      Val( 1S)     0.76778
   167    H   12  S      Ryd( 2S)     0.00050

   168    H   13  S      Val( 1S)     0.79337
   169    H   13  S      Ryd( 2S)     0.00181

   170    H   14  S      Val( 1S)     0.79337
   171    H   14  S      Ryd( 2S)     0.00181

   172    H   15  S      Val( 1S)     0.75519
   173    H   15  S      Ryd( 2S)     0.00081

   174    H   16  S      Val( 1S)     0.74130
   175    H   16  S      Ryd( 2S)     0.00092

   176    H   17  S      Val( 1S)     0.74005
   177    H   17  S      Ryd( 2S)     0.00090

   178    H   18  S      Val( 1S)     0.74569
   179    H   18  S      Ryd( 2S)     0.00114

 WARNING:  1 low occupancy (<1.9990e) core orbital  found on  C    3
           1 low occupancy (<1.9990e) core orbital  found on  C    6


 Summary of Natural Population Analysis:                  
                                                          
                                       Natural Population 
                Natural  -----------------------------------------------
    Atom  No    Charge         Core      Valence    Rydberg      Total
 -----------------------------------------------------------------------
      C    1   -0.31840      1.99943     4.30521    0.01376     6.31840
      O    2   -0.51405      1.99974     6.50246    0.01186     8.51405
      C    3    0.31578      1.99883     3.66321    0.02218     5.68422
      C    4   -0.30553      1.99903     4.29426    0.01224     6.30553
      C    5   -0.23871      1.99903     4.22515    0.01453     6.23871
      C    6    0.03622      1.99877     3.94708    0.01793     5.96378
      C    7   -0.24247      1.99902     4.22954    0.01391     6.24247
      C    8   -0.25734      1.99904     4.24389    0.01441     6.25734
      N    9    0.37587      1.99955     4.57857    0.04601     6.62413
      O   10   -0.25422      1.99984     6.23948    0.01491     8.25422
      O   11   -0.25252      1.99984     6.23777    0.01491     8.25252
      H   12    0.23172      0.00000     0.76778    0.00050     0.76828
      H   13    0.20482      0.00000     0.79337    0.00181     0.79518
      H   14    0.20482      0.00000     0.79337    0.00181     0.79518
      H   15    0.24400      0.00000     0.75519    0.00081     0.75600
      H   16    0.25778      0.00000     0.74130    0.00092     0.74222
      H   17    0.25905      0.00000     0.74005    0.00090     0.74095
      H   18    0.25317      0.00000     0.74569    0.00114     0.74683
 =======================================================================
   * Total *   -0.00000     21.99212    57.80336    0.20452    80.00000

                                 Natural Population      
 --------------------------------------------------------
   Core                      21.99212 ( 99.9642% of  22)
   Valence                   57.80336 ( 99.6610% of  58)
   Natural Minimal Basis     79.79548 ( 99.7444% of  80)
   Natural Rydberg Basis      0.20452 (  0.2556% of  80)
 --------------------------------------------------------

    Atom  No          Natural Electron Configuration
 ----------------------------------------------------------------------------
      C    1      [core]2S( 1.10)2p( 3.20)3p( 0.01)3d( 0.01)
      O    2      [core]2S( 1.59)2p( 4.92)3p( 0.01)3d( 0.01)
      C    3      [core]2S( 0.83)2p( 2.83)3p( 0.01)3d( 0.01)
      C    4      [core]2S( 0.96)2p( 3.34)3p( 0.01)
      C    5      [core]2S( 0.95)2p( 3.28)3p( 0.01)
      C    6      [core]2S( 0.87)2p( 3.08)3p( 0.01)
      C    7      [core]2S( 0.95)2p( 3.28)3p( 0.01)
      C    8      [core]2S( 0.96)2p( 3.28)3p( 0.01)
      N    9      [core]2S( 1.08)2p( 3.50)3S( 0.01)3p( 0.02)3d( 0.02)
      O   10      [core]2S( 1.76)2p( 4.48)3p( 0.01)3d( 0.01)
      O   11      [core]2S( 1.75)2p( 4.48)3p( 0.01)3d( 0.01)
      H   12            1S( 0.77)
      H   13            1S( 0.79)
      H   14            1S( 0.79)
      H   15            1S( 0.76)
      H   16            1S( 0.74)
      H   17            1S( 0.74)
      H   18            1S( 0.75)


 NBO analysis skipped by request.
 Leave Link  607 at Wed Sep 29 02:27:10 2021, MaxMem=  805306368 cpu:      10.7
 (Enter /sw/target/amd/app/gaussian/Gaussian09RevA.02_gcc-4.9.2/g09/l9999.exe)
 1\1\GINC-HERMITE\SP\RTD-B3LYP-FC\6-31G(d)\C7H7N1O3\JSCHLEINITZ\29-Sep-
 2021\0\\#p TD(NStates=10, Root=1) b3lyp/6-31G* volume pop=NPA density=
 current Geom=AllCheck Guess=Read\\COc1ccc(cc1)[N+](=O)[O-]_conf_0\\0,1
 \C,0,1.3125520578,0.0756975628,-0.6032571523\O,0,2.4704888618,-0.28910
 41234,0.1399654148\C,0,3.1547875722,-1.4008996251,-0.2217536233\C,0,2.
 8047758982,-2.2378662022,-1.2936627152\C,0,3.5820126695,-3.3575332981,
 -1.5765587608\C,0,4.6986744812,-3.6350036835,-0.7926658993\C,0,5.05894
 06797,-2.8099892494,0.2780120023\C,0,4.2870242903,-1.6964953411,0.5603
 125261\N,0,5.5106242746,-4.8124182894,-1.0951075325\O,0,5.1679247197,-
 5.5202259447,-2.0447495171\O,0,6.4928425262,-5.0310961223,-0.382920550
 8\H,0,0.9365181642,0.9866101831,-0.1357579652\H,0,0.54332087,-0.704774
 921,-0.5527272632\H,0,1.5592534992,0.2791196535,-1.6526238167\H,0,1.93
 71785164,-2.027189744,-1.9071428296\H,0,3.3325543346,-4.0181745566,-2.
 3978686387\H,0,5.9337982662,-3.0549160893,0.8675370071\H,0,4.535488371
 2,-1.0337923298,1.3825410747\\Version=AM64L-G09RevA.02\State=1-A\HF=-5
 51.2758602\RMSD=1.655e-09\Dipole=-1.0987456,1.0517946,-0.0745849\Quadr
 upole=2.5479001,-2.6554111,0.1075111,-0.5731345,3.2562591,-1.5326992\P
 G=C01 [X(C7H7N1O3)]\\@


 THE REASON MAN'S BEST FRIEND IS A DOG IS BECAUSE
 HE WAGS HIS TAIL INSTEAD OF HIS TONGUE.
 Job cpu time:  0 days  1 hours  7 minutes 31.5 seconds.
 File lengths (MBytes):  RWF=    101 Int=      0 D2E=      0 Chk=     15 Scr=      1
 Normal termination of Gaussian 09 at Wed Sep 29 02:27:13 2021.
