 Entering Gaussian System, Link 0=g09
 Input=C7H7BrMg_b549_conf_0.com
 Output=C7H7BrMg_b549_conf_0.log
 Initial command:
 /sw/target/amd/app/gaussian/Gaussian09RevA.02_gcc-4.9.2/g09/l1.exe /home/jschleinitz/gaussian/Gau-185388.inp -scrdir=/home/jschleinitz/gaussian/
 Entering Link 1 = /sw/target/amd/app/gaussian/Gaussian09RevA.02_gcc-4.9.2/g09/l1.exe PID=    185390.
  
 Copyright (c) 1988,1990,1992,1993,1995,1998,2003,2009, Gaussian, Inc.
                  All Rights Reserved.
  
 This is part of the Gaussian(R) 09 program.  It is based on
 the Gaussian(R) 03 system (copyright 2003, Gaussian, Inc.),
 the Gaussian(R) 98 system (copyright 1998, Gaussian, Inc.),
 the Gaussian(R) 94 system (copyright 1995, Gaussian, Inc.),
 the Gaussian 92(TM) system (copyright 1992, Gaussian, Inc.),
 the Gaussian 90(TM) system (copyright 1990, Gaussian, Inc.),
 the Gaussian 88(TM) system (copyright 1988, Gaussian, Inc.),
 the Gaussian 86(TM) system (copyright 1986, Carnegie Mellon
 University), and the Gaussian 82(TM) system (copyright 1983,
 Carnegie Mellon University). Gaussian is a federally registered
 trademark of Gaussian, Inc.
  
 This software contains proprietary and confidential information,
 including trade secrets, belonging to Gaussian, Inc.
  
 This software is provided under written license and may be
 used, copied, transmitted, or stored only in accord with that
 written license.
  
 The following legend is applicable only to US Government
 contracts under FAR:
  
                    RESTRICTED RIGHTS LEGEND
  
 Use, reproduction and disclosure by the US Government is
 subject to restrictions as set forth in subparagraphs (a)
 and (c) of the Commercial Computer Software - Restricted
 Rights clause in FAR 52.227-19.
  
 Gaussian, Inc.
 340 Quinnipiac St., Bldg. 40, Wallingford CT 06492
  
  
 ---------------------------------------------------------------
 Warning -- This program may not be used in any manner that
 competes with the business of Gaussian, Inc. or will provide
 assistance to any competitor of Gaussian, Inc.  The licensee
 of this program is prohibited from giving any competitor of
 Gaussian, Inc. access to this program.  By using this program,
 the user acknowledges that Gaussian, Inc. is engaged in the
 business of creating and licensing software in the field of
 computational chemistry and represents and warrants to the
 licensee that it is not a competitor of Gaussian, Inc. and that
 it will not use this program in any manner prohibited above.
 ---------------------------------------------------------------
  

 Cite this work as:
 Gaussian 09, Revision A.02,
 M. J. Frisch, G. W. Trucks, H. B. Schlegel, G. E. Scuseria, 
 M. A. Robb, J. R. Cheeseman, G. Scalmani, V. Barone, B. Mennucci, 
 G. A. Petersson, H. Nakatsuji, M. Caricato, X. Li, H. P. Hratchian, 
 A. F. Izmaylov, J. Bloino, G. Zheng, J. L. Sonnenberg, M. Hada, 
 M. Ehara, K. Toyota, R. Fukuda, J. Hasegawa, M. Ishida, T. Nakajima, 
 Y. Honda, O. Kitao, H. Nakai, T. Vreven, J. A. Montgomery, Jr., 
 J. E. Peralta, F. Ogliaro, M. Bearpark, J. J. Heyd, E. Brothers, 
 K. N. Kudin, V. N. Staroverov, R. Kobayashi, J. Normand, 
 K. Raghavachari, A. Rendell, J. C. Burant, S. S. Iyengar, J. Tomasi, 
 M. Cossi, N. Rega, J. M. Millam, M. Klene, J. E. Knox, J. B. Cross, 
 V. Bakken, C. Adamo, J. Jaramillo, R. Gomperts, R. E. Stratmann, 
 O. Yazyev, A. J. Austin, R. Cammi, C. Pomelli, J. W. Ochterski, 
 R. L. Martin, K. Morokuma, V. G. Zakrzewski, G. A. Voth, 
 P. Salvador, J. J. Dannenberg, S. Dapprich, A. D. Daniels, 
 O. Farkas, J. B. Foresman, J. V. Ortiz, J. Cioslowski, 
 and D. J. Fox, Gaussian, Inc., Wallingford CT, 2009.
 
 ******************************************
 Gaussian 09:  AM64L-G09RevA.02 11-Jun-2009
                 3-Oct-2021 
 ******************************************
 %nproc=2
 Will use up to    2 processors via shared memory.
 %mem=4gb
 %chk=C7H7BrMg_b549_conf_0.chk
 -----------------------------------
 #p opt b3lyp/6-31G* scf=(xqc,tight)
 -----------------------------------
 1/14=-1,18=20,19=15,26=3,38=1/1,3;
 2/9=110,12=2,17=6,18=5,40=1/2;
 3/5=1,6=6,7=1,11=2,16=1,25=1,30=1,71=1,74=-5/1,2,3;
 4//1;
 5/5=2,8=3,13=1,32=2,38=5/2,8;
 6/7=2,8=2,9=2,10=2,28=1/1;
 7//1,2,3,16;
 1/14=-1,18=20,19=15/3(2);
 2/9=110/2;
 99//99;
 2/9=110/2;
 3/5=1,6=6,7=1,11=2,16=1,25=1,30=1,71=1,74=-5/1,2,3;
 4/5=5,16=3/1;
 5/5=2,8=3,13=1,32=2,38=5/2,8;
 7//1,2,3,16;
 1/14=-1,18=20,19=15/3(-5);
 2/9=110/2;
 6/7=2,8=2,9=2,10=2,19=2,28=1/1;
 99/9=1/99;
 Leave Link    1 at Sun Oct  3 10:46:13 2021, MaxMem=  536870912 cpu:       0.1
 (Enter /sw/target/amd/app/gaussian/Gaussian09RevA.02_gcc-4.9.2/g09/l101.exe)
 ----------------------
 Br[Mg]c1ccccc1C_conf_0
 ----------------------
 Symbolic Z-matrix:
 Charge =  0 Multiplicity = 1
 Br                    1.06267  -0.03452   0.06986 
 Mg                    3.67267  -0.03452   0.06986 
 C                     5.84267  -0.03452   0.06986 
 C                     6.66782   1.08218   0.22074 
 C                     8.05926   0.92303   0.18113 
 C                     8.61922  -0.34792  -0.01043 
 C                     7.78691  -1.47155  -0.16356 
 C                     6.39927  -1.30056  -0.11967 
 C                     8.383    -2.83183  -0.37155 
 H                     6.23372   2.06201   0.36379 
 H                     8.70601   1.78259   0.29494 
 H                     9.69602  -0.46067  -0.04287 
 H                     5.73578  -2.14764  -0.23759 
 H                     9.02474  -3.09969   0.49358 
 H                     8.9954   -2.83652  -1.29727 
 H                     7.5939   -3.60906  -0.47347 
 
 NAtoms=     16 NQM=     16 NQMF=      0 NMic=      0 NMicF=      0 NTot=     16.
                    Isotopes and Nuclear Properties:
 (Nuclear quadrupole moments (NQMom) in fm**2, nuclear magnetic moments (NMagM)
  in nuclear magnetons)

  Atom         1           2           3           4           5           6           7           8           9          10
 IAtWgt=          79          24          12          12          12          12          12          12          12           1
 AtmWgt=  78.9183361  23.9850450  12.0000000  12.0000000  12.0000000  12.0000000  12.0000000  12.0000000  12.0000000   1.0078250
 NucSpn=           3           0           0           0           0           0           0           0           0           1
 AtZEff=   0.0000000   0.0000000   0.0000000   0.0000000   0.0000000   0.0000000   0.0000000   0.0000000   0.0000000   0.0000000
 NQMom=   31.3000000   0.0000000   0.0000000   0.0000000   0.0000000   0.0000000   0.0000000   0.0000000   0.0000000   0.0000000
 NMagM=    2.1063990   0.0000000   0.0000000   0.0000000   0.0000000   0.0000000   0.0000000   0.0000000   0.0000000   2.7928460

  Atom        11          12          13          14          15          16
 IAtWgt=           1           1           1           1           1           1
 AtmWgt=   1.0078250   1.0078250   1.0078250   1.0078250   1.0078250   1.0078250
 NucSpn=           1           1           1           1           1           1
 AtZEff=   0.0000000   0.0000000   0.0000000   0.0000000   0.0000000   0.0000000
 NQMom=    0.0000000   0.0000000   0.0000000   0.0000000   0.0000000   0.0000000
 NMagM=    2.7928460   2.7928460   2.7928460   2.7928460   2.7928460   2.7928460
 Leave Link  101 at Sun Oct  3 10:46:14 2021, MaxMem=  536870912 cpu:       0.2
 (Enter /sw/target/amd/app/gaussian/Gaussian09RevA.02_gcc-4.9.2/g09/l103.exe)

 GradGradGradGradGradGradGradGradGradGradGradGradGradGradGradGradGradGrad
 Berny optimization.
 Initialization pass.
                           ----------------------------
                           !    Initial Parameters    !
                           ! (Angstroms and Degrees)  !
 --------------------------                            --------------------------
 ! Name  Definition              Value          Derivative Info.                !
 --------------------------------------------------------------------------------
 ! R1    R(1,2)                  2.61           estimate D2E/DX2                !
 ! R2    R(2,3)                  2.17           estimate D2E/DX2                !
 ! R3    R(3,4)                  1.3967         estimate D2E/DX2                !
 ! R4    R(3,8)                  1.3959         estimate D2E/DX2                !
 ! R5    R(4,5)                  1.4011         estimate D2E/DX2                !
 ! R6    R(4,10)                 1.0812         estimate D2E/DX2                !
 ! R7    R(5,6)                  1.402          estimate D2E/DX2                !
 ! R8    R(5,11)                 1.0817         estimate D2E/DX2                !
 ! R9    R(6,7)                  1.4067         estimate D2E/DX2                !
 ! R10   R(6,12)                 1.0832         estimate D2E/DX2                !
 ! R11   R(7,8)                  1.3988         estimate D2E/DX2                !
 ! R12   R(7,9)                  1.4996         estimate D2E/DX2                !
 ! R13   R(8,13)                 1.0824         estimate D2E/DX2                !
 ! R14   R(9,14)                 1.11           estimate D2E/DX2                !
 ! R15   R(9,15)                 1.11           estimate D2E/DX2                !
 ! R16   R(9,16)                 1.1123         estimate D2E/DX2                !
 ! A1    A(2,3,4)              126.2143         estimate D2E/DX2                !
 ! A2    A(2,3,8)              113.4992         estimate D2E/DX2                !
 ! A3    A(4,3,8)              120.2815         estimate D2E/DX2                !
 ! A4    A(3,4,5)              119.5297         estimate D2E/DX2                !
 ! A5    A(3,4,10)             120.1109         estimate D2E/DX2                !
 ! A6    A(5,4,10)             120.3591         estimate D2E/DX2                !
 ! A7    A(4,5,6)              120.2315         estimate D2E/DX2                !
 ! A8    A(4,5,11)             120.0374         estimate D2E/DX2                !
 ! A9    A(6,5,11)             119.7308         estimate D2E/DX2                !
 ! A10   A(5,6,7)              120.1771         estimate D2E/DX2                !
 ! A11   A(5,6,12)             119.7035         estimate D2E/DX2                !
 ! A12   A(7,6,12)             120.1192         estimate D2E/DX2                !
 ! A13   A(6,7,8)              119.0714         estimate D2E/DX2                !
 ! A14   A(6,7,9)              120.2959         estimate D2E/DX2                !
 ! A15   A(8,7,9)              120.6328         estimate D2E/DX2                !
 ! A16   A(3,8,7)              120.7086         estimate D2E/DX2                !
 ! A17   A(3,8,13)             118.6945         estimate D2E/DX2                !
 ! A18   A(7,8,13)             120.596          estimate D2E/DX2                !
 ! A19   A(7,9,14)             109.914          estimate D2E/DX2                !
 ! A20   A(7,9,15)             109.8037         estimate D2E/DX2                !
 ! A21   A(7,9,16)             111.3799         estimate D2E/DX2                !
 ! A22   A(14,9,15)            109.2709         estimate D2E/DX2                !
 ! A23   A(14,9,16)            108.2385         estimate D2E/DX2                !
 ! A24   A(15,9,16)            108.1827         estimate D2E/DX2                !
 ! A25   L(1,2,3,8,-1)         180.0            estimate D2E/DX2                !
 ! A26   L(1,2,3,8,-2)         180.0            estimate D2E/DX2                !
 ! D1    D(2,3,4,5)           -179.1568         estimate D2E/DX2                !
 ! D2    D(2,3,4,10)             0.648          estimate D2E/DX2                !
 ! D3    D(8,3,4,5)             -0.0273         estimate D2E/DX2                !
 ! D4    D(8,3,4,10)           179.7774         estimate D2E/DX2                !
 ! D5    D(2,3,8,7)            179.1379         estimate D2E/DX2                !
 ! D6    D(2,3,8,13)            -0.5304         estimate D2E/DX2                !
 ! D7    D(4,3,8,7)             -0.0962         estimate D2E/DX2                !
 ! D8    D(4,3,8,13)          -179.7645         estimate D2E/DX2                !
 ! D9    D(3,4,5,6)              0.0872         estimate D2E/DX2                !
 ! D10   D(3,4,5,11)           179.868          estimate D2E/DX2                !
 ! D11   D(10,4,5,6)          -179.717          estimate D2E/DX2                !
 ! D12   D(10,4,5,11)            0.0637         estimate D2E/DX2                !
 ! D13   D(4,5,6,7)             -0.0248         estimate D2E/DX2                !
 ! D14   D(4,5,6,12)           179.801          estimate D2E/DX2                !
 ! D15   D(11,5,6,7)          -179.8063         estimate D2E/DX2                !
 ! D16   D(11,5,6,12)            0.0196         estimate D2E/DX2                !
 ! D17   D(5,6,7,8)             -0.0967         estimate D2E/DX2                !
 ! D18   D(5,6,7,9)            179.8685         estimate D2E/DX2                !
 ! D19   D(12,6,7,8)          -179.9218         estimate D2E/DX2                !
 ! D20   D(12,6,7,9)             0.0434         estimate D2E/DX2                !
 ! D21   D(6,7,8,3)              0.1573         estimate D2E/DX2                !
 ! D22   D(6,7,8,13)           179.8193         estimate D2E/DX2                !
 ! D23   D(9,7,8,3)           -179.8078         estimate D2E/DX2                !
 ! D24   D(9,7,8,13)            -0.1458         estimate D2E/DX2                !
 ! D25   D(6,7,9,14)            59.9918         estimate D2E/DX2                !
 ! D26   D(6,7,9,15)           -60.2428         estimate D2E/DX2                !
 ! D27   D(6,7,9,16)           179.9457         estimate D2E/DX2                !
 ! D28   D(8,7,9,14)          -120.0435         estimate D2E/DX2                !
 ! D29   D(8,7,9,15)           119.7219         estimate D2E/DX2                !
 ! D30   D(8,7,9,16)            -0.0896         estimate D2E/DX2                !
 --------------------------------------------------------------------------------
 Trust Radius=3.00D-01 FncErr=1.00D-07 GrdErr=1.00D-06
 Number of steps in this run=  82 maximum allowed number of steps= 100.
 GradGradGradGradGradGradGradGradGradGradGradGradGradGradGradGradGradGrad

 Leave Link  103 at Sun Oct  3 10:46:15 2021, MaxMem=  536870912 cpu:       0.0
 (Enter /sw/target/amd/app/gaussian/Gaussian09RevA.02_gcc-4.9.2/g09/l202.exe)
                          Input orientation:                          
 ---------------------------------------------------------------------
 Center     Atomic      Atomic             Coordinates (Angstroms)
 Number     Number       Type             X           Y           Z
 ---------------------------------------------------------------------
      1         35           0        1.062668   -0.034521    0.069865
      2         12           0        3.672668   -0.034521    0.069865
      3          6           0        5.842668   -0.034521    0.069865
      4          6           0        6.667824    1.082176    0.220735
      5          6           0        8.059256    0.923034    0.181131
      6          6           0        8.619224   -0.347920   -0.010429
      7          6           0        7.786914   -1.471550   -0.163561
      8          6           0        6.399270   -1.300562   -0.119666
      9          6           0        8.382998   -2.831834   -0.371547
     10          1           0        6.233722    2.062013    0.363790
     11          1           0        8.706013    1.782586    0.294941
     12          1           0        9.696016   -0.460666   -0.042865
     13          1           0        5.735782   -2.147640   -0.237588
     14          1           0        9.024744   -3.099692    0.493579
     15          1           0        8.995397   -2.836517   -1.297275
     16          1           0        7.593896   -3.609060   -0.473471
 ---------------------------------------------------------------------
                    Distance matrix (angstroms):
                    1          2          3          4          5
     1  Br   0.000000
     2  Mg   2.610000   0.000000
     3  C    4.780000   2.170000   0.000000
     4  C    5.717303   3.200115   1.396659   0.000000
     5  C    7.062687   4.491264   2.417138   1.401063   0.000000
     6  C    7.563479   4.957125   2.795341   2.430345   1.401993
     7  C    6.880046   4.364237   2.428916   2.814527   2.434546
     8  C    5.487997   3.012165   1.395918   2.421865   2.791131
     9  C    7.849015   5.496090   3.804350   4.314173   3.809107
    10  H    5.587634   3.322777   2.152852   1.081199   2.159447
    11  H    7.859597   5.356035   3.398718   2.156455   1.081701
    12  H    8.644594   6.039456   3.878479   3.408782   2.154944
    13  H    5.137878   2.969215   2.138041   3.392708   3.873357
    14  H    8.542216   6.182194   4.438515   4.808070   4.148749
    15  H    8.523405   6.168605   4.433954   4.803967   4.146838
    16  H    7.465219   5.333721   4.017380   4.831897   4.602711
                    6          7          8          9         10
     6  C    0.000000
     7  C    1.406675   0.000000
     8  C    2.418193   1.398828   0.000000
     9  C    2.521118   1.499648   2.518613   0.000000
    10  H    3.411516   3.895712   3.401183   5.395354   0.000000
    11  H    2.154028   3.412384   3.872824   4.673480   2.488985
    12  H    1.083164   2.163591   3.402919   2.730291   4.303110
    13  H    3.406587   2.160954   1.082434   2.737484   4.281446
    14  H    2.826786   2.148232   3.241304   1.109968   5.869400
    15  H    2.826764   2.146828   3.238178   1.109967   5.863581
    16  H    3.449745   2.168467   2.623257   1.112273   5.891702
                   11         12         13         14         15
    11  H    0.000000
    12  H    2.475156   0.000000
    13  H    4.955051   4.308974   0.000000
    14  H    4.896702   2.775399   3.501182   0.000000
    15  H    4.894385   2.776523   3.496080   1.810326   0.000000
    16  H    5.558517   3.810081   2.375706   1.800546   1.799911
                   16
    16  H    0.000000
 Stoichiometry    C7H7BrMg
 Framework group  C1[X(C7H7BrMg)]
 Deg. of freedom    42
 Full point group                 C1      NOp   1
 Largest Abelian subgroup         C1      NOp   1
 Largest concise Abelian subgroup C1      NOp   1
                         Standard orientation:                         
 ---------------------------------------------------------------------
 Center     Atomic      Atomic             Coordinates (Angstroms)
 Number     Number       Type             X           Y           Z
 ---------------------------------------------------------------------
      1         35           0        3.612875   -0.158546    0.003450
      2         12           0        1.026015    0.188085   -0.006484
      3          6           0       -1.124747    0.476281   -0.014744
      4          6           0       -1.792991    1.702659   -0.004620
      5          6           0       -3.193824    1.725697    0.006105
      6          6           0       -3.919546    0.526153    0.008513
      7          6           0       -3.245170   -0.708299   -0.000356
      8          6           0       -1.846443   -0.718599   -0.013616
      9          6           0       -4.018754   -1.993010    0.005164
     10          1           0       -1.231231    2.626460   -0.001888
     11          1           0       -3.719753    2.670882    0.016148
     12          1           0       -5.002292    0.553933    0.020095
     13          1           0       -1.302394   -1.654365   -0.017711
     14          1           0       -4.669908   -2.046093   -0.892171
     15          1           0       -4.647686   -2.049349    0.918016
     16          1           0       -3.340697   -2.874658   -0.004115
 ---------------------------------------------------------------------
 Rotational constants (GHZ):      2.8931559      0.2716884      0.2487713
 Leave Link  202 at Sun Oct  3 10:46:15 2021, MaxMem=  536870912 cpu:       0.0
 (Enter /sw/target/amd/app/gaussian/Gaussian09RevA.02_gcc-4.9.2/g09/l301.exe)
 Standard basis: 6-31G(d) (6D, 7F)
 Ernie: Thresh=  0.10000D-02 Tol=  0.10000D-05 Strict=F.
 There are   168 symmetry adapted basis functions of A   symmetry.
 Integral buffers will be    131072 words long.
 Raffenetti 2 integral format.
 Two-electron integral symmetry is turned on.
   168 basis functions,   359 primitive gaussians,   168 cartesian basis functions
    48 alpha electrons       48 beta electrons
       nuclear repulsion energy       568.9820137258 Hartrees.
 IExCor=  402 DFT=T Ex+Corr=B3LYP ExCW=0 ScaHFX=  0.200000
 ScaDFX=  0.800000  0.720000  1.000000  0.810000 ScalE2=  1.000000  1.000000
 IRadAn=      0 IRanWt=     -1 IRanGd=            0 ICorTp=0
 NAtoms=   16 NActive=   16 NUniq=   16 SFac= 7.50D-01 NAtFMM=   80 NAOKFM=F Big=F
 Leave Link  301 at Sun Oct  3 10:46:15 2021, MaxMem=  536870912 cpu:       0.1
 (Enter /sw/target/amd/app/gaussian/Gaussian09RevA.02_gcc-4.9.2/g09/l302.exe)
 NPDir=0 NMtPBC=     1 NCelOv=     1 NCel=       1 NClECP=     1 NCelD=      1
         NCelK=      1 NCelE2=     1 NClLst=     1 CellRange=     0.0.
 One-electron integrals computed using PRISM.
 NBasis=   168 RedAO= T  NBF=   168
 NBsUse=   168 1.00D-06 NBFU=   168
 Precomputing XC quadrature grid using
 IXCGrd= 2 IRadAn=           0 IRanWt=          -1 IRanGd=           0 AccXCQ= 1.00D-10.
 NRdTot=    1020 NPtTot=      133226 NUsed=      140587 NTot=      140619
 NSgBfM=   165   165   165   165   165 NAtAll=    16    16.
 Leave Link  302 at Sun Oct  3 10:46:20 2021, MaxMem=  536870912 cpu:       0.9
 (Enter /sw/target/amd/app/gaussian/Gaussian09RevA.02_gcc-4.9.2/g09/l303.exe)
 DipDrv:  MaxL=1.
 Leave Link  303 at Sun Oct  3 10:46:21 2021, MaxMem=  536870912 cpu:       0.1
 (Enter /sw/target/amd/app/gaussian/Gaussian09RevA.02_gcc-4.9.2/g09/l401.exe)
 Harris functional with IExCor=  402 diagonalized for initial guess.
 ExpMin= 4.21D-02 ExpMax= 5.74D+05 ExpMxC= 5.74D+03 IAcc=2 IRadAn=         0 AccDes= 0.00D+00
 HarFok:  IExCor=  402 AccDes= 0.00D+00 IRadAn=         0 IDoV= 1
 ScaDFX=  1.000000  1.000000  1.000000  1.000000
 FoFCou: FMM=F IPFlag=           0 FMFlag=      100000 FMFlg1=           0
         NFxFlg=           0 DoJE=T BraDBF=F KetDBF=T FulRan=T
         Omega=  0.000000  0.000000  1.000000  0.000000  0.000000 ICntrl=     500 IOpCl=  0
         NMat0=    1 NMatS0=    1 NMatT0=    0 NMatD0=    1 NMtDS0=    0 NMtDT0=    0
         I1Cent=           4 NGrid=           0.
 Petite list used in FoFCou.
 Harris En= -3043.06423325547    
 Initial guess orbital symmetries:
       Occupied  (A) (A) (A) (A) (A) (A) (A) (A) (A) (A) (A) (A)
                 (A) (A) (A) (A) (A) (A) (A) (A) (A) (A) (A) (A)
                 (A) (A) (A) (A) (A) (A) (A) (A) (A) (A) (A) (A)
                 (A) (A) (A) (A) (A) (A) (A) (A) (A) (A) (A) (A)
       Virtual   (A) (A) (A) (A) (A) (A) (A) (A) (A) (A) (A) (A)
                 (A) (A) (A) (A) (A) (A) (A) (A) (A) (A) (A) (A)
                 (A) (A) (A) (A) (A) (A) (A) (A) (A) (A) (A) (A)
                 (A) (A) (A) (A) (A) (A) (A) (A) (A) (A) (A) (A)
                 (A) (A) (A) (A) (A) (A) (A) (A) (A) (A) (A) (A)
                 (A) (A) (A) (A) (A) (A) (A) (A) (A) (A) (A) (A)
                 (A) (A) (A) (A) (A) (A) (A) (A) (A) (A) (A) (A)
                 (A) (A) (A) (A) (A) (A) (A) (A) (A) (A) (A) (A)
                 (A) (A) (A) (A) (A) (A) (A) (A) (A) (A) (A) (A)
                 (A) (A) (A) (A) (A) (A) (A) (A) (A) (A) (A) (A)
 The electronic state of the initial guess is 1-A.
 Leave Link  401 at Sun Oct  3 10:46:54 2021, MaxMem=  536870912 cpu:       8.6
 (Enter /sw/target/amd/app/gaussian/Gaussian09RevA.02_gcc-4.9.2/g09/l502.exe)
 Closed shell SCF:
 Requested convergence on RMS density matrix=1.00D-08 within  64 cycles.
 Requested convergence on MAX density matrix=1.00D-06.
 Requested convergence on             energy=1.00D-06.
 No special actions if energy rises.
 Using DIIS extrapolation, IDIIS=  1040.
 Integral symmetry usage will be decided dynamically.
       140430 words used for storage of precomputed grid.
 Keep R1 ints in memory in canonical form, NReq=103416555.
 IEnd=      232915 IEndB=      232915 NGot=   536870912 MDV=   435900280
 LenX=   435900280 LenY=   435871615
 Symmetry not used in FoFDir.
 MinBra= 0 MaxBra= 2 Meth= 1.
 IRaf=       0 NMat=   1 IRICut=       1 DoRegI=T DoRafI=F ISym2E= 0 JSym2E=0.

 Cycle   1  Pass 1  IDiag  1:
 E= -3042.50294018330    
 DIIS: error= 1.75D-01 at cycle   1 NSaved=   1.
 NSaved= 1 IEnMin= 1 EnMin= -3042.50294018330     IErMin= 1 ErrMin= 1.75D-01
 ErrMax= 1.75D-01 EMaxC= 1.00D-01 BMatC= 6.63D-01 BMatP= 6.63D-01
 IDIUse=3 WtCom= 0.00D+00 WtEn= 1.00D+00
 Coeff-Com:  0.100D+01
 Coeff-En:   0.100D+01
 Coeff:      0.100D+01
 Gap=     0.444 Goal=   None    Shift=    0.000
 GapD=    0.444 DampG=2.000 DampE=0.250 DampFc=0.5000 IDamp=-1.
 Damping current iteration by 5.00D-01
 RMSDP=9.73D-03 MaxDP=5.48D-01              OVMax= 6.03D-01

 Cycle   2  Pass 1  IDiag  1:
 E= -3042.54869340542     Delta-E=       -0.045753222118 Rises=F Damp=T
 DIIS: error= 8.32D-02 at cycle   2 NSaved=   2.
 NSaved= 2 IEnMin= 2 EnMin= -3042.54869340542     IErMin= 2 ErrMin= 8.32D-02
 ErrMax= 8.32D-02 EMaxC= 1.00D-01 BMatC= 1.27D-01 BMatP= 6.63D-01
 IDIUse=3 WtCom= 1.68D-01 WtEn= 8.32D-01
 Coeff-Com: -0.596D-01 0.106D+01
 Coeff-En:   0.426D+00 0.574D+00
 Coeff:      0.345D+00 0.655D+00
 Gap=     0.186 Goal=   None    Shift=    0.000
 RMSDP=3.10D-03 MaxDP=1.38D-01 DE=-4.58D-02 OVMax= 4.29D-01

 Cycle   3  Pass 1  IDiag  1:
 E= -3042.80236259599     Delta-E=       -0.253669190572 Rises=F Damp=F
 DIIS: error= 1.19D-02 at cycle   3 NSaved=   3.
 NSaved= 3 IEnMin= 3 EnMin= -3042.80236259599     IErMin= 3 ErrMin= 1.19D-02
 ErrMax= 1.19D-02 EMaxC= 1.00D-01 BMatC= 1.52D-02 BMatP= 1.27D-01
 IDIUse=3 WtCom= 8.81D-01 WtEn= 1.19D-01
 Coeff-Com:  0.239D-01 0.133D+00 0.843D+00
 Coeff-En:   0.000D+00 0.000D+00 0.100D+01
 Coeff:      0.211D-01 0.117D+00 0.862D+00
 Gap=     0.207 Goal=   None    Shift=    0.000
 RMSDP=1.72D-03 MaxDP=3.94D-02 DE=-2.54D-01 OVMax= 1.00D-01

 Cycle   4  Pass 1  IDiag  1:
 E= -3042.79099527229     Delta-E=        0.011367323696 Rises=F Damp=F
 DIIS: error= 1.53D-02 at cycle   4 NSaved=   4.
 NSaved= 4 IEnMin= 3 EnMin= -3042.80236259599     IErMin= 3 ErrMin= 1.19D-02
 ErrMax= 1.53D-02 EMaxC= 1.00D-01 BMatC= 2.43D-02 BMatP= 1.52D-02
 IDIUse=2 WtCom= 0.00D+00 WtEn= 1.00D+00
 Coeff-En:   0.000D+00 0.000D+00 0.607D+00 0.393D+00
 Coeff:      0.000D+00 0.000D+00 0.607D+00 0.393D+00
 Gap=     0.192 Goal=   None    Shift=    0.000
 RMSDP=9.75D-04 MaxDP=2.30D-02 DE= 1.14D-02 OVMax= 6.00D-02

 Cycle   5  Pass 1  IDiag  1:
 E= -3042.81827694887     Delta-E=       -0.027281676582 Rises=F Damp=F
 DIIS: error= 2.47D-03 at cycle   5 NSaved=   5.
 NSaved= 5 IEnMin= 5 EnMin= -3042.81827694887     IErMin= 5 ErrMin= 2.47D-03
 ErrMax= 2.47D-03 EMaxC= 1.00D-01 BMatC= 5.04D-04 BMatP= 1.52D-02
 IDIUse=3 WtCom= 9.75D-01 WtEn= 2.47D-02
 Coeff-Com:  0.417D-02 0.708D-02 0.268D+00 0.161D+00 0.560D+00
 Coeff-En:   0.000D+00 0.000D+00 0.000D+00 0.000D+00 0.100D+01
 Coeff:      0.407D-02 0.691D-02 0.262D+00 0.157D+00 0.571D+00
 Gap=     0.175 Goal=   None    Shift=    0.000
 RMSDP=1.54D-04 MaxDP=5.78D-03 DE=-2.73D-02 OVMax= 6.47D-03

 Cycle   6  Pass 1  IDiag  1:
 E= -3042.81871256805     Delta-E=       -0.000435619173 Rises=F Damp=F
 DIIS: error= 5.48D-04 at cycle   6 NSaved=   6.
 NSaved= 6 IEnMin= 6 EnMin= -3042.81871256805     IErMin= 6 ErrMin= 5.48D-04
 ErrMax= 5.48D-04 EMaxC= 1.00D-01 BMatC= 5.48D-05 BMatP= 5.04D-04
 IDIUse=3 WtCom= 9.95D-01 WtEn= 5.48D-03
 Coeff-Com:  0.592D-03-0.119D-03 0.588D-01 0.214D-01 0.293D+00 0.626D+00
 Coeff-En:   0.000D+00 0.000D+00 0.000D+00 0.000D+00 0.192D-02 0.998D+00
 Coeff:      0.589D-03-0.118D-03 0.585D-01 0.213D-01 0.292D+00 0.628D+00
 Gap=     0.176 Goal=   None    Shift=    0.000
 RMSDP=4.18D-05 MaxDP=1.24D-03 DE=-4.36D-04 OVMax= 2.60D-03

 Cycle   7  Pass 1  IDiag  1:
 E= -3042.81876589367     Delta-E=       -0.000053325619 Rises=F Damp=F
 DIIS: error= 9.31D-05 at cycle   7 NSaved=   7.
 NSaved= 7 IEnMin= 7 EnMin= -3042.81876589367     IErMin= 7 ErrMin= 9.31D-05
 ErrMax= 9.31D-05 EMaxC= 1.00D-01 BMatC= 2.03D-06 BMatP= 5.48D-05
 IDIUse=1 WtCom= 1.00D+00 WtEn= 0.00D+00
 Coeff-Com:  0.459D-03-0.766D-03 0.234D-01 0.623D-02 0.133D+00 0.313D+00
 Coeff-Com:  0.525D+00
 Coeff:      0.459D-03-0.766D-03 0.234D-01 0.623D-02 0.133D+00 0.313D+00
 Coeff:      0.525D+00
 Gap=     0.176 Goal=   None    Shift=    0.000
 RMSDP=1.06D-05 MaxDP=2.89D-04 DE=-5.33D-05 OVMax= 5.94D-04

 Cycle   8  Pass 1  IDiag  1:
 E= -3042.81876775264     Delta-E=       -0.000001858969 Rises=F Damp=F
 DIIS: error= 4.47D-05 at cycle   8 NSaved=   8.
 NSaved= 8 IEnMin= 8 EnMin= -3042.81876775264     IErMin= 8 ErrMin= 4.47D-05
 ErrMax= 4.47D-05 EMaxC= 1.00D-01 BMatC= 2.72D-07 BMatP= 2.03D-06
 IDIUse=1 WtCom= 1.00D+00 WtEn= 0.00D+00
 Coeff-Com:  0.285D-03-0.619D-03 0.378D-02-0.208D-03 0.256D-01 0.671D-01
 Coeff-Com:  0.275D+00 0.629D+00
 Coeff:      0.285D-03-0.619D-03 0.378D-02-0.208D-03 0.256D-01 0.671D-01
 Coeff:      0.275D+00 0.629D+00
 Gap=     0.176 Goal=   None    Shift=    0.000
 RMSDP=4.38D-06 MaxDP=1.25D-04 DE=-1.86D-06 OVMax= 2.92D-04

 Cycle   9  Pass 1  IDiag  1:
 E= -3042.81876802540     Delta-E=       -0.000000272768 Rises=F Damp=F
 DIIS: error= 1.86D-05 at cycle   9 NSaved=   9.
 NSaved= 9 IEnMin= 9 EnMin= -3042.81876802540     IErMin= 9 ErrMin= 1.86D-05
 ErrMax= 1.86D-05 EMaxC= 1.00D-01 BMatC= 4.41D-08 BMatP= 2.72D-07
 IDIUse=1 WtCom= 1.00D+00 WtEn= 0.00D+00
 Coeff-Com:  0.161D-03-0.343D-03 0.362D-03-0.628D-03 0.372D-02 0.124D-01
 Coeff-Com:  0.110D+00 0.368D+00 0.506D+00
 Coeff:      0.161D-03-0.343D-03 0.362D-03-0.628D-03 0.372D-02 0.124D-01
 Coeff:      0.110D+00 0.368D+00 0.506D+00
 Gap=     0.176 Goal=   None    Shift=    0.000
 RMSDP=1.72D-06 MaxDP=4.71D-05 DE=-2.73D-07 OVMax= 1.09D-04

 Cycle  10  Pass 1  IDiag  1:
 E= -3042.81876807185     Delta-E=       -0.000000046444 Rises=F Damp=F
 DIIS: error= 4.88D-06 at cycle  10 NSaved=  10.
 NSaved=10 IEnMin=10 EnMin= -3042.81876807185     IErMin=10 ErrMin= 4.88D-06
 ErrMax= 4.88D-06 EMaxC= 1.00D-01 BMatC= 4.46D-09 BMatP= 4.41D-08
 IDIUse=1 WtCom= 1.00D+00 WtEn= 0.00D+00
 Coeff-Com:  0.698D-04-0.136D-03-0.972D-04-0.259D-03-0.552D-03-0.273D-03
 Coeff-Com:  0.240D-01 0.118D+00 0.282D+00 0.578D+00
 Coeff:      0.698D-04-0.136D-03-0.972D-04-0.259D-03-0.552D-03-0.273D-03
 Coeff:      0.240D-01 0.118D+00 0.282D+00 0.578D+00
 Gap=     0.176 Goal=   None    Shift=    0.000
 RMSDP=4.52D-07 MaxDP=1.12D-05 DE=-4.64D-08 OVMax= 2.31D-05

 Cycle  11  Pass 1  IDiag  1:
 E= -3042.81876807648     Delta-E=       -0.000000004634 Rises=F Damp=F
 DIIS: error= 8.44D-07 at cycle  11 NSaved=  11.
 NSaved=11 IEnMin=11 EnMin= -3042.81876807648     IErMin=11 ErrMin= 8.44D-07
 ErrMax= 8.44D-07 EMaxC= 1.00D-01 BMatC= 1.36D-10 BMatP= 4.46D-09
 IDIUse=1 WtCom= 1.00D+00 WtEn= 0.00D+00
 Coeff-Com:  0.202D-04-0.377D-04 0.449D-04-0.928D-05-0.125D-03-0.279D-03
 Coeff-Com:  0.106D-02 0.126D-01 0.496D-01 0.154D+00 0.783D+00
 Coeff:      0.202D-04-0.377D-04 0.449D-04-0.928D-05-0.125D-03-0.279D-03
 Coeff:      0.106D-02 0.126D-01 0.496D-01 0.154D+00 0.783D+00
 Gap=     0.176 Goal=   None    Shift=    0.000
 RMSDP=8.54D-08 MaxDP=1.89D-06 DE=-4.63D-09 OVMax= 3.03D-06

 Cycle  12  Pass 1  IDiag  1:
 E= -3042.81876807670     Delta-E=       -0.000000000221 Rises=F Damp=F
 DIIS: error= 2.26D-07 at cycle  12 NSaved=  12.
 NSaved=12 IEnMin=12 EnMin= -3042.81876807670     IErMin=12 ErrMin= 2.26D-07
 ErrMax= 2.26D-07 EMaxC= 1.00D-01 BMatC= 1.25D-11 BMatP= 1.36D-10
 IDIUse=1 WtCom= 1.00D+00 WtEn= 0.00D+00
 Coeff-Com:  0.413D-05-0.765D-05 0.263D-04 0.122D-04 0.205D-04 0.269D-04
 Coeff-Com: -0.115D-02-0.429D-02-0.574D-02 0.307D-02 0.222D+00 0.786D+00
 Coeff:      0.413D-05-0.765D-05 0.263D-04 0.122D-04 0.205D-04 0.269D-04
 Coeff:     -0.115D-02-0.429D-02-0.574D-02 0.307D-02 0.222D+00 0.786D+00
 Gap=     0.176 Goal=   None    Shift=    0.000
 RMSDP=2.91D-08 MaxDP=1.73D-06 DE=-2.21D-10 OVMax= 2.11D-06

 Cycle  13  Pass 1  IDiag  1:
 E= -3042.81876807671     Delta-E=       -0.000000000012 Rises=F Damp=F
 DIIS: error= 4.75D-08 at cycle  13 NSaved=  13.
 NSaved=13 IEnMin=13 EnMin= -3042.81876807671     IErMin=13 ErrMin= 4.75D-08
 ErrMax= 4.75D-08 EMaxC= 1.00D-01 BMatC= 5.97D-13 BMatP= 1.25D-11
 IDIUse=1 WtCom= 1.00D+00 WtEn= 0.00D+00
 Coeff-Com:  0.139D-05-0.253D-05 0.120D-04 0.626D-05 0.224D-04 0.487D-04
 Coeff-Com: -0.433D-03-0.212D-02-0.426D-02-0.461D-02 0.555D-01 0.299D+00
 Coeff-Com:  0.656D+00
 Coeff:      0.139D-05-0.253D-05 0.120D-04 0.626D-05 0.224D-04 0.487D-04
 Coeff:     -0.433D-03-0.212D-02-0.426D-02-0.461D-02 0.555D-01 0.299D+00
 Coeff:      0.656D+00
 Gap=     0.176 Goal=   None    Shift=    0.000
 RMSDP=5.94D-09 MaxDP=2.55D-07 DE=-1.18D-11 OVMax= 3.23D-07

 SCF Done:  E(RB3LYP) =  -3042.81876808     A.U. after   13 cycles
             Convg  =    0.5940D-08             -V/T =  2.0065
 KE= 3.023285240861D+03 PE=-8.378528156434D+03 EE= 1.743442133771D+03
 Leave Link  502 at Sun Oct  3 10:52:41 2021, MaxMem=  536870912 cpu:      91.8
 (Enter /sw/target/amd/app/gaussian/Gaussian09RevA.02_gcc-4.9.2/g09/l508.exe)
 QCSCF skips out because SCF is already converged.
 Leave Link  508 at Sun Oct  3 10:52:41 2021, MaxMem=  536870912 cpu:       0.0
 (Enter /sw/target/amd/app/gaussian/Gaussian09RevA.02_gcc-4.9.2/g09/l601.exe)
 Copying SCF densities to generalized density rwf, IOpCl= 0 IROHF=0.

 **********************************************************************

            Population analysis using the SCF density.

 **********************************************************************

 Orbital symmetries:
       Occupied  (A) (A) (A) (A) (A) (A) (A) (A) (A) (A) (A) (A)
                 (A) (A) (A) (A) (A) (A) (A) (A) (A) (A) (A) (A)
                 (A) (A) (A) (A) (A) (A) (A) (A) (A) (A) (A) (A)
                 (A) (A) (A) (A) (A) (A) (A) (A) (A) (A) (A) (A)
       Virtual   (A) (A) (A) (A) (A) (A) (A) (A) (A) (A) (A) (A)
                 (A) (A) (A) (A) (A) (A) (A) (A) (A) (A) (A) (A)
                 (A) (A) (A) (A) (A) (A) (A) (A) (A) (A) (A) (A)
                 (A) (A) (A) (A) (A) (A) (A) (A) (A) (A) (A) (A)
                 (A) (A) (A) (A) (A) (A) (A) (A) (A) (A) (A) (A)
                 (A) (A) (A) (A) (A) (A) (A) (A) (A) (A) (A) (A)
                 (A) (A) (A) (A) (A) (A) (A) (A) (A) (A) (A) (A)
                 (A) (A) (A) (A) (A) (A) (A) (A) (A) (A) (A) (A)
                 (A) (A) (A) (A) (A) (A) (A) (A) (A) (A) (A) (A)
                 (A) (A) (A) (A) (A) (A) (A) (A) (A) (A) (A) (A)
 The electronic state is 1-A.
 Alpha  occ. eigenvalues -- -482.86529 -61.82719 -56.34512 -56.34356 -56.34352
 Alpha  occ. eigenvalues --  -46.87005 -10.19870 -10.19158 -10.19036 -10.19005
 Alpha  occ. eigenvalues --  -10.18981 -10.18902 -10.17974  -8.53606  -6.48428
 Alpha  occ. eigenvalues --   -6.47938  -6.47929  -3.15180  -2.60077  -2.59942
 Alpha  occ. eigenvalues --   -2.59935  -2.59543  -2.59543  -1.89855  -1.89796
 Alpha  occ. eigenvalues --   -1.89086  -0.85136  -0.76913  -0.73688  -0.70356
 Alpha  occ. eigenvalues --   -0.68274  -0.59780  -0.57250  -0.50751  -0.45691
 Alpha  occ. eigenvalues --   -0.44171  -0.42423  -0.40859  -0.39078  -0.37927
 Alpha  occ. eigenvalues --   -0.35228  -0.34100  -0.30804  -0.26141  -0.26124
 Alpha  occ. eigenvalues --   -0.25701  -0.25083  -0.24063
 Alpha virt. eigenvalues --   -0.06493  -0.03304  -0.02422   0.00014   0.01138
 Alpha virt. eigenvalues --    0.06561   0.10215   0.11315   0.11578   0.12945
 Alpha virt. eigenvalues --    0.13366   0.15143   0.16242   0.17189   0.17796
 Alpha virt. eigenvalues --    0.18897   0.19607   0.22953   0.24160   0.26113
 Alpha virt. eigenvalues --    0.26833   0.28451   0.29212   0.31758   0.32349
 Alpha virt. eigenvalues --    0.34901   0.39182   0.39667   0.45169   0.48004
 Alpha virt. eigenvalues --    0.51306   0.51387   0.51844   0.51874   0.53404
 Alpha virt. eigenvalues --    0.53864   0.54734   0.56138   0.57736   0.59251
 Alpha virt. eigenvalues --    0.61019   0.61762   0.62105   0.63526   0.63833
 Alpha virt. eigenvalues --    0.65287   0.66313   0.67570   0.70155   0.74621
 Alpha virt. eigenvalues --    0.75748   0.76829   0.79327   0.80448   0.83454
 Alpha virt. eigenvalues --    0.85562   0.85606   0.87107   0.88768   0.89932
 Alpha virt. eigenvalues --    0.91309   0.93516   0.96094   0.99455   1.00437
 Alpha virt. eigenvalues --    1.08775   1.13017   1.14372   1.16145   1.21503
 Alpha virt. eigenvalues --    1.26058   1.28642   1.35844   1.37400   1.44458
 Alpha virt. eigenvalues --    1.46129   1.48910   1.49549   1.52624   1.56141
 Alpha virt. eigenvalues --    1.68662   1.76939   1.81429   1.82569   1.87093
 Alpha virt. eigenvalues --    1.90058   1.91037   1.93411   1.97550   2.06560
 Alpha virt. eigenvalues --    2.08123   2.12236   2.13327   2.15913   2.17991
 Alpha virt. eigenvalues --    2.24399   2.30882   2.31709   2.32042   2.34036
 Alpha virt. eigenvalues --    2.41092   2.54883   2.61427   2.65418   2.69414
 Alpha virt. eigenvalues --    2.74423   2.75740   2.79727   2.87903   3.06405
 Alpha virt. eigenvalues --    3.37031   4.09802   4.11750   4.16314   4.23035
 Alpha virt. eigenvalues --    4.33926   4.39901   4.68700   8.74625  74.76361
          Condensed to atoms (all electrons):
              1          2          3          4          5          6
     1  Br  35.028006   0.340776  -0.001696  -0.000010  -0.000000  -0.000000
     2  Mg   0.340776  10.861006   0.360360  -0.027412   0.005900   0.001583
     3  C   -0.001696   0.360360   4.828119   0.548501  -0.022423  -0.045641
     4  C   -0.000010  -0.027412   0.548501   4.947732   0.526196  -0.040526
     5  C   -0.000000   0.005900  -0.022423   0.526196   4.890899   0.527292
     6  C   -0.000000   0.001583  -0.045641  -0.040526   0.527292   4.970607
     7  C    0.000000   0.006287  -0.025676  -0.037202  -0.013453   0.545864
     8  C    0.000043  -0.029375   0.483319  -0.048566  -0.049269  -0.036821
     9  C    0.000000  -0.001293   0.008230   0.000675   0.006419  -0.073811
    10  H    0.000001  -0.012540  -0.048388   0.360414  -0.050106   0.004086
    11  H    0.000000  -0.000810   0.004409  -0.039668   0.350158  -0.041521
    12  H   -0.000000   0.000156   0.000279   0.004561  -0.045346   0.359325
    13  H   -0.000015  -0.016974  -0.063654   0.006151   0.000227   0.005877
    14  H   -0.000000   0.000067  -0.000223   0.000026  -0.000022  -0.003103
    15  H   -0.000000   0.000067  -0.000222   0.000027  -0.000021  -0.003105
    16  H    0.000000  -0.000009   0.000180   0.000002  -0.000162   0.003914
              7          8          9         10         11         12
     1  Br   0.000000   0.000043   0.000000   0.000001   0.000000  -0.000000
     2  Mg   0.006287  -0.029375  -0.001293  -0.012540  -0.000810   0.000156
     3  C   -0.025676   0.483319   0.008230  -0.048388   0.004409   0.000279
     4  C   -0.037202  -0.048566   0.000675   0.360414  -0.039668   0.004561
     5  C   -0.013453  -0.049269   0.006419  -0.050106   0.350158  -0.045346
     6  C    0.545864  -0.036821  -0.073811   0.004086  -0.041521   0.359325
     7  C    4.622730   0.559898   0.336201   0.000742   0.003626  -0.049178
     8  C    0.559898   5.040041  -0.052284   0.005683   0.001046   0.005718
     9  C    0.336201  -0.052284   5.235237   0.000014  -0.000170  -0.008468
    10  H    0.000742   0.005683   0.000014   0.623943  -0.003993  -0.000200
    11  H    0.003626   0.001046  -0.000170  -0.003993   0.605009  -0.005657
    12  H   -0.049178   0.005718  -0.008468  -0.000200  -0.005657   0.609431
    13  H   -0.042071   0.351698  -0.009551  -0.000152   0.000026  -0.000191
    14  H   -0.028244   0.000616   0.361032  -0.000000  -0.000002   0.002196
    15  H   -0.028399   0.000562   0.361025  -0.000000  -0.000002   0.002184
    16  H   -0.031110  -0.003842   0.363317  -0.000000   0.000003   0.000007
             13         14         15         16
     1  Br  -0.000015  -0.000000  -0.000000   0.000000
     2  Mg  -0.016974   0.000067   0.000067  -0.000009
     3  C   -0.063654  -0.000223  -0.000222   0.000180
     4  C    0.006151   0.000026   0.000027   0.000002
     5  C    0.000227  -0.000022  -0.000021  -0.000162
     6  C    0.005877  -0.003103  -0.003105   0.003914
     7  C   -0.042071  -0.028244  -0.028399  -0.031110
     8  C    0.351698   0.000616   0.000562  -0.003842
     9  C   -0.009551   0.361032   0.361025   0.363317
    10  H   -0.000152  -0.000000  -0.000000  -0.000000
    11  H    0.000026  -0.000002  -0.000002   0.000003
    12  H   -0.000191   0.002196   0.002184   0.000007
    13  H    0.650709   0.000083   0.000084   0.007642
    14  H    0.000083   0.561981  -0.028764  -0.027151
    15  H    0.000084  -0.028764   0.562319  -0.027208
    16  H    0.007642  -0.027151  -0.027208   0.564085
 Mulliken atomic charges:
              1
     1  Br  -0.367105
     2  Mg   0.512213
     3  C   -0.025474
     4  C   -0.200899
     5  C   -0.126289
     6  C   -0.174020
     7  C    0.179985
     8  C   -0.228467
     9  C   -0.526574
    10  H    0.120497
    11  H    0.127545
    12  H    0.125185
    13  H    0.110110
    14  H    0.161507
    15  H    0.161453
    16  H    0.150333
 Sum of Mulliken atomic charges =  -0.00000
 Mulliken charges with hydrogens summed into heavy atoms:
              1
     1  Br  -0.367105
     2  Mg   0.512213
     3  C   -0.025474
     4  C   -0.080402
     5  C    0.001256
     6  C   -0.048835
     7  C    0.179985
     8  C   -0.118357
     9  C   -0.053280
 Sum of Mulliken charges with hydrogens summed into heavy atoms =  -0.00000
 Electronic spatial extent (au):  <R**2>=           3848.1059
 Charge=             -0.0000 electrons
 Dipole moment (field-independent basis, Debye):
    X=             -3.6420    Y=              0.0807    Z=              0.0139  Tot=              3.6429
 Quadrupole moment (field-independent basis, Debye-Ang):
   XX=            -83.3582   YY=            -65.0642   ZZ=            -71.3314
   XY=              2.2849   XZ=             -0.1206   YZ=              0.0391
 Traceless Quadrupole moment (field-independent basis, Debye-Ang):
   XX=            -10.1069   YY=              8.1870   ZZ=              1.9199
   XY=              2.2849   XZ=             -0.1206   YZ=              0.0391
 Octapole moment (field-independent basis, Debye-Ang**2):
  XXX=              8.8466  YYY=              1.0865  ZZZ=              0.1701  XYY=             30.6802
  XXY=              1.4301  XXZ=              0.2812  XZZ=             44.2380  YZZ=             -4.0320
  YYZ=              0.0897  XYZ=             -0.1037
 Hexadecapole moment (field-independent basis, Debye-Ang**3):
 XXXX=          -3910.3050 YYYY=           -560.6806 ZZZZ=            -91.8237 XXXY=            -18.7618
 XXXZ=             -1.0330 YYYX=            -31.2980 YYYZ=              0.2547 ZZZX=              0.1234
 ZZZY=             -0.0665 XXYY=           -727.0237 XXZZ=           -684.1273 YYZZ=           -117.7139
 XXYZ=              0.4266 YYXZ=             -0.1407 ZZXY=              4.3277
 N-N= 5.689820137258D+02 E-N=-8.378528157237D+03  KE= 3.023285240861D+03
 No NMR shielding tensors so no spin-rotation constants.
 Leave Link  601 at Sun Oct  3 10:52:43 2021, MaxMem=  536870912 cpu:       0.5
 (Enter /sw/target/amd/app/gaussian/Gaussian09RevA.02_gcc-4.9.2/g09/l701.exe)
 Compute integral first derivatives.
 ... and contract with generalized density number  0.
 Leave Link  701 at Sun Oct  3 10:52:45 2021, MaxMem=  536870912 cpu:       0.6
 (Enter /sw/target/amd/app/gaussian/Gaussian09RevA.02_gcc-4.9.2/g09/l702.exe)
 L702 exits ... SP integral derivatives will be done elsewhere.
 Leave Link  702 at Sun Oct  3 10:52:46 2021, MaxMem=  536870912 cpu:       0.1
 (Enter /sw/target/amd/app/gaussian/Gaussian09RevA.02_gcc-4.9.2/g09/l703.exe)
 Compute integral first derivatives, UseDBF=F ICtDFT=           0.
 Integral derivatives from FoFDir, PRISM(SPDF).
 Calling FoFJK, ICntrl=      2127 FMM=F ISym2X=0 I1Cent= 0 IOpClX= 0 NMat=1 NMatS=1 NMatT=0.
 FoFCou: FMM=F IPFlag=           0 FMFlag=      100000 FMFlg1=         800
         NFxFlg=           0 DoJE=F BraDBF=F KetDBF=F FulRan=T
         Omega=  0.000000  0.000000  1.000000  0.000000  0.000000 ICntrl=    2127 IOpCl=  0
         NMat0=    1 NMatS0=    1 NMatT0=    0 NMatD0=    1 NMtDS0=    0 NMtDT0=    0
         I1Cent=           0 NGrid=           0.
 Symmetry not used in FoFCou.
 Leave Link  703 at Sun Oct  3 10:54:43 2021, MaxMem=  536870912 cpu:      35.1
 (Enter /sw/target/amd/app/gaussian/Gaussian09RevA.02_gcc-4.9.2/g09/l716.exe)
 Dipole        =-1.43285878D+00 3.17307399D-02 5.45188015D-03
 ***** Axes restored to original set *****
 -------------------------------------------------------------------
 Center     Atomic                   Forces (Hartrees/Bohr)
 Number     Number              X              Y              Z
 -------------------------------------------------------------------
      1       35           0.035033488   -0.000391589   -0.000076119
      2       12          -0.018938434    0.003661276    0.000718454
      3        6          -0.034540175    0.003648463    0.000507886
      4        6           0.007497338   -0.005502981   -0.000948482
      5        6          -0.001800743   -0.005891866   -0.000947881
      6        6          -0.012712949    0.004816288    0.000782738
      7        6           0.001894169    0.000379633    0.000341438
      8        6           0.008403124    0.008021995    0.000764965
      9        6           0.002423522   -0.009994469   -0.001634468
     10        1           0.000819360    0.005027201    0.000827872
     11        1           0.002755981    0.003285613    0.000526849
     12        1           0.002887067   -0.001235722   -0.000150854
     13        1           0.002244736   -0.007859019   -0.001017122
     14        1          -0.002556400   -0.001100482   -0.009067229
     15        1          -0.002172219   -0.003751288    0.008442747
     16        1           0.008762136    0.006886947    0.000929208
 -------------------------------------------------------------------
 Cartesian Forces:  Max     0.035033488 RMS     0.008890904
 Leave Link  716 at Sun Oct  3 10:54:45 2021, MaxMem=  536870912 cpu:       0.1
 (Enter /sw/target/amd/app/gaussian/Gaussian09RevA.02_gcc-4.9.2/g09/l103.exe)

 GradGradGradGradGradGradGradGradGradGradGradGradGradGradGradGradGradGrad
 Berny optimization.
 Internal  Forces:  Max     0.035032561 RMS     0.006132767
 Search for a local minimum.
 Step number   1 out of a maximum of   82
 All quantities printed in internal units (Hartrees-Bohrs-Radians)
 RMS Force = .61328D-02 SwitMx=.10000D-02 MixMth= 1
 Mixed Optimization -- RFO/linear search
 Second derivative matrix not updated -- first step.
     Eigenvalues ---    0.00240   0.00240   0.00771   0.01535   0.02028
     Eigenvalues ---    0.02044   0.02069   0.02088   0.02103   0.02122
     Eigenvalues ---    0.02128   0.02138   0.05774   0.07299   0.07428
     Eigenvalues ---    0.10112   0.16000   0.16000   0.16000   0.16000
     Eigenvalues ---    0.16000   0.16000   0.16000   0.22000   0.23477
     Eigenvalues ---    0.23490   0.24997   0.25000   0.32361   0.32414
     Eigenvalues ---    0.32603   0.32604   0.35615   0.35702   0.35790
     Eigenvalues ---    0.35850   0.41524   0.41571   0.45007   0.45628
     Eigenvalues ---    0.45733   0.461581000.000001000.000001000.00000
     Eigenvalues --- 1000.000001000.000001000.000001000.000001000.00000
     Eigenvalues --- 1000.000001000.000001000.000001000.000001000.00000
     Eigenvalues --- 1000.000001000.000001000.000001000.000001000.00000
     Eigenvalues --- 1000.000001000.000001000.000001000.000001000.00000
     Eigenvalues --- 1000.000001000.000001000.000001000.000001000.00000
     Eigenvalues --- 1000.000001000.00000
 RFO step:  Lambda=-2.18022725D-02 EMin= 2.39615807D-03
 Linear search not attempted -- first point.
 Maximum step size (   0.300) exceeded in Quadratic search.
    -- Step size scaled by   0.621
 Iteration  1 RMS(Cart)=  0.03420360 RMS(Int)=  0.00906162
 Iteration  2 RMS(Cart)=  0.00877877 RMS(Int)=  0.00002241
 Iteration  3 RMS(Cart)=  0.00000797 RMS(Int)=  0.00002230
 Iteration  4 RMS(Cart)=  0.00000000 RMS(Int)=  0.00002230
 Variable       Old X    -DE/DX   Delta X   Delta X   Delta X     New X
                                 (Linear)    (Quad)   (Total)
    R1        4.93219  -0.03503   0.00000  -0.27350  -0.27350   4.65868
    R2        4.10071  -0.01609   0.00000  -0.08130  -0.08130   4.01941
    R3        2.63930   0.00483   0.00000   0.00678   0.00680   2.64610
    R4        2.63790   0.01279   0.00000   0.01726   0.01727   2.65518
    R5        2.64763  -0.00249   0.00000  -0.00356  -0.00355   2.64407
    R6        2.04317   0.00434   0.00000   0.00708   0.00708   2.05025
    R7        2.64938  -0.00558   0.00000  -0.00820  -0.00821   2.64118
    R8        2.04412   0.00431   0.00000   0.00705   0.00705   2.05117
    R9        2.65823  -0.00475   0.00000  -0.00692  -0.00693   2.65130
   R10        2.04688   0.00300   0.00000   0.00493   0.00493   2.05182
   R11        2.64340   0.00283   0.00000   0.00397   0.00397   2.64737
   R12        2.83392   0.00997   0.00000   0.01789   0.01789   2.85182
   R13        2.04550   0.00489   0.00000   0.00801   0.00801   2.05351
   R14        2.09754  -0.00828   0.00000  -0.01478  -0.01478   2.08276
   R15        2.09753  -0.00822   0.00000  -0.01468  -0.01468   2.08285
   R16        2.10189  -0.01112   0.00000  -0.01999  -0.01999   2.08191
    A1        2.20286  -0.00089   0.00000  -0.00306  -0.00307   2.19979
    A2        1.98093   0.01070   0.00000   0.02344   0.02343   2.00436
    A3        2.09931  -0.00981   0.00000  -0.02035  -0.02033   2.07898
    A4        2.08619   0.00292   0.00000   0.00740   0.00742   2.09360
    A5        2.09633   0.00139   0.00000   0.00604   0.00603   2.10236
    A6        2.10066  -0.00431   0.00000  -0.01343  -0.01344   2.08722
    A7        2.09844   0.00184   0.00000   0.00166   0.00166   2.10009
    A8        2.09505  -0.00070   0.00000  -0.00008  -0.00008   2.09497
    A9        2.08970  -0.00114   0.00000  -0.00158  -0.00158   2.08812
   A10        2.09749   0.00452   0.00000   0.00799   0.00797   2.10545
   A11        2.08922  -0.00131   0.00000  -0.00076  -0.00075   2.08847
   A12        2.09648  -0.00321   0.00000  -0.00723  -0.00721   2.08926
   A13        2.07819  -0.00431   0.00000  -0.01091  -0.01093   2.06726
   A14        2.09956   0.00049   0.00000   0.00165   0.00166   2.10122
   A15        2.10544   0.00382   0.00000   0.00926   0.00927   2.11471
   A16        2.10676   0.00485   0.00000   0.01421   0.01422   2.12098
   A17        2.07161   0.00436   0.00000   0.01607   0.01606   2.08767
   A18        2.10480  -0.00921   0.00000  -0.03027  -0.03027   2.07453
   A19        1.91836   0.00490   0.00000   0.01631   0.01624   1.93460
   A20        1.91644   0.00511   0.00000   0.01717   0.01710   1.93353
   A21        1.94395   0.00013   0.00000   0.00114   0.00111   1.94506
   A22        1.90714  -0.00565   0.00000  -0.02068  -0.02079   1.88635
   A23        1.88912  -0.00243   0.00000  -0.00777  -0.00780   1.88132
   A24        1.88814  -0.00242   0.00000  -0.00744  -0.00748   1.88067
   A25        3.14159  -0.00200   0.00000  -0.05137  -0.05137   3.09022
   A26        3.14159  -0.00004   0.00000  -0.00098  -0.00098   3.14061
    D1       -3.12688  -0.00019   0.00000  -0.00249  -0.00249  -3.12937
    D2        0.01131  -0.00009   0.00000  -0.00100  -0.00099   0.01032
    D3       -0.00048   0.00002   0.00000   0.00023   0.00022  -0.00025
    D4        3.13771   0.00012   0.00000   0.00172   0.00172   3.13943
    D5        3.12655   0.00016   0.00000   0.00281   0.00284   3.12938
    D6       -0.00926   0.00001   0.00000   0.00038   0.00037  -0.00889
    D7       -0.00168   0.00004   0.00000   0.00059   0.00059  -0.00109
    D8       -3.13748  -0.00010   0.00000  -0.00184  -0.00187  -3.13936
    D9        0.00152  -0.00004   0.00000  -0.00056  -0.00056   0.00096
   D10        3.13929   0.00008   0.00000   0.00108   0.00108   3.14037
   D11       -3.13665  -0.00016   0.00000  -0.00210  -0.00209  -3.13874
   D12        0.00111  -0.00004   0.00000  -0.00045  -0.00045   0.00066
   D13       -0.00043   0.00001   0.00000   0.00009   0.00009  -0.00035
   D14        3.13812   0.00010   0.00000   0.00134   0.00134   3.13946
   D15       -3.13821  -0.00011   0.00000  -0.00155  -0.00155  -3.13976
   D16        0.00034  -0.00002   0.00000  -0.00030  -0.00030   0.00004
   D17       -0.00169   0.00006   0.00000   0.00074   0.00073  -0.00096
   D18        3.13930   0.00007   0.00000   0.00092   0.00090   3.14020
   D19       -3.14023  -0.00003   0.00000  -0.00053  -0.00053  -3.14076
   D20        0.00076  -0.00002   0.00000  -0.00035  -0.00036   0.00040
   D21        0.00275  -0.00008   0.00000  -0.00107  -0.00106   0.00168
   D22        3.13844   0.00011   0.00000   0.00156   0.00154   3.13998
   D23       -3.13824  -0.00009   0.00000  -0.00124  -0.00123  -3.13947
   D24       -0.00254   0.00010   0.00000   0.00139   0.00137  -0.00118
   D25        1.04705  -0.00033   0.00000  -0.00217  -0.00214   1.04491
   D26       -1.05143   0.00037   0.00000   0.00233   0.00230  -1.04913
   D27        3.14065  -0.00005   0.00000  -0.00039  -0.00039   3.14025
   D28       -2.09516  -0.00032   0.00000  -0.00200  -0.00197  -2.09713
   D29        2.08954   0.00038   0.00000   0.00250   0.00247   2.09202
   D30       -0.00156  -0.00004   0.00000  -0.00022  -0.00022  -0.00178
         Item               Value     Threshold  Converged?
 Maximum Force            0.035033     0.000450     NO 
 RMS     Force            0.006133     0.000300     NO 
 Maximum Displacement     0.298508     0.001800     NO 
 RMS     Displacement     0.041313     0.001200     NO 
 Predicted change in Energy=-1.031592D-02
 GradGradGradGradGradGradGradGradGradGradGradGradGradGradGradGradGradGrad

 Leave Link  103 at Sun Oct  3 10:54:50 2021, MaxMem=  536870912 cpu:       1.1
 (Enter /sw/target/amd/app/gaussian/Gaussian09RevA.02_gcc-4.9.2/g09/l202.exe)
                          Input orientation:                          
 ---------------------------------------------------------------------
 Center     Atomic      Atomic             Coordinates (Angstroms)
 Number     Number       Type             X           Y           Z
 ---------------------------------------------------------------------
      1         35           0        1.220631   -0.079964    0.065671
      2         12           0        3.684250    0.009492    0.076941
      3          6           0        5.810995   -0.021233    0.069543
      4          6           0        6.651453    1.088521    0.220509
      5          6           0        8.040315    0.923592    0.180846
      6          6           0        8.595180   -0.344903   -0.010134
      7          6           0        7.771080   -1.469861   -0.164255
      8          6           0        6.382333   -1.290679   -0.120905
      9          6           0        8.376034   -2.836727   -0.371956
     10          1           0        6.233555    2.079018    0.366742
     11          1           0        8.692986    1.783121    0.296589
     12          1           0        9.674372   -0.460191   -0.041118
     13          1           0        5.737650   -2.157170   -0.241045
     14          1           0        9.018099   -3.114942    0.479560
     15          1           0        8.991967   -2.857067   -1.285770
     16          1           0        7.598157   -3.610201   -0.473847
 ---------------------------------------------------------------------
                    Distance matrix (angstroms):
                    1          2          3          4          5
     1  Br   0.000000
     2  Mg   2.465269   0.000000
     3  C    4.590742   2.126980   0.000000
     4  C    5.557262   3.160571   1.400255   0.000000
     5  C    6.894090   4.452154   2.423829   1.399183   0.000000
     6  C    7.379696   4.924470   2.804067   2.426102   1.397650
     7  C    6.700228   4.353026   2.448492   2.819028   2.433145
     8  C    5.305074   3.001540   1.405059   2.418591   2.782616
     9  C    7.680564   5.505934   3.834234   4.328136   3.815533
    10  H    5.466374   3.296342   2.162854   1.084946   2.152661
    11  H    7.704576   5.318029   3.407802   2.157803   1.085434
    12  H    8.462961   6.009666   3.889808   3.406610   2.152734
    13  H    4.981197   3.001998   2.159646   3.403318   3.869283
    14  H    8.377523   6.194686   4.474892   4.830861   4.165938
    15  H    8.362557   6.184335   4.471846   4.828514   4.165331
    16  H    7.309342   5.359497   4.045974   4.843177   4.602108
                    6          7          8          9         10
     6  C    0.000000
     7  C    1.403005   0.000000
     8  C    2.409036   1.400929   0.000000
     9  C    2.527475   1.509117   2.535377   0.000000
    10  H    3.405099   3.903905   3.408048   5.412988   0.000000
    11  H    2.152239   3.412357   3.868032   4.678719   2.478160
    12  H    1.085774   2.158035   3.396114   2.728197   4.295713
    13  H    3.391623   2.147819   1.086672   2.727637   4.308203
    14  H    2.844604   2.162370   3.261250   1.102148   5.894373
    15  H    2.845287   2.161644   3.258937   1.102199   5.891058
    16  H    3.445469   2.169517   2.642532   1.101697   5.910663
                   11         12         13         14         15
    11  H    0.000000
    12  H    2.471764   0.000000
    13  H    4.954690   4.291559   0.000000
    14  H    4.912250   2.783792   3.492555   0.000000
    15  H    4.911680   2.785650   3.488823   1.784256   0.000000
    16  H    5.556991   3.797431   2.372126   1.780590   1.780207
                   16
    16  H    0.000000
 Stoichiometry    C7H7BrMg
 Framework group  C1[X(C7H7BrMg)]
 Deg. of freedom    42
 Full point group                 C1      NOp   1
 Largest Abelian subgroup         C1      NOp   1
 Largest concise Abelian subgroup C1      NOp   1
                         Standard orientation:                         
 ---------------------------------------------------------------------
 Center     Atomic      Atomic             Coordinates (Angstroms)
 Number     Number       Type             X           Y           Z
 ---------------------------------------------------------------------
      1         35           0        3.501753   -0.175899    0.003029
      2         12           0        1.071458    0.237787   -0.005830
      3          6           0       -1.040913    0.486565   -0.012238
      4          6           0       -1.726667    1.707378   -0.003821
      5          6           0       -3.125735    1.722751    0.005383
      6          6           0       -3.844659    0.524180    0.007389
      7          6           0       -3.177165   -0.709844   -0.000189
      8          6           0       -1.776278   -0.710694   -0.010968
      9          6           0       -3.958885   -2.000709    0.003833
     10          1           0       -1.180597    2.644882   -0.002592
     11          1           0       -3.658597    2.668354    0.013066
     12          1           0       -4.930117    0.548722    0.016576
     13          1           0       -1.252339   -1.662704   -0.015347
     14          1           0       -4.611476   -2.066758   -0.881883
     15          1           0       -4.593489   -2.070831    0.902278
     16          1           0       -3.290428   -2.876399   -0.004490
 ---------------------------------------------------------------------
 Rotational constants (GHZ):      2.8667797      0.2860353      0.2605171
 Leave Link  202 at Sun Oct  3 10:54:50 2021, MaxMem=  536870912 cpu:       0.0
 (Enter /sw/target/amd/app/gaussian/Gaussian09RevA.02_gcc-4.9.2/g09/l301.exe)
 Standard basis: 6-31G(d) (6D, 7F)
 Ernie: Thresh=  0.10000D-02 Tol=  0.10000D-05 Strict=F.
 There are   168 symmetry adapted basis functions of A   symmetry.
 Integral buffers will be    131072 words long.
 Raffenetti 2 integral format.
 Two-electron integral symmetry is turned on.
   168 basis functions,   359 primitive gaussians,   168 cartesian basis functions
    48 alpha electrons       48 beta electrons
       nuclear repulsion energy       578.4458850841 Hartrees.
 IExCor=  402 DFT=T Ex+Corr=B3LYP ExCW=0 ScaHFX=  0.200000
 ScaDFX=  0.800000  0.720000  1.000000  0.810000 ScalE2=  1.000000  1.000000
 IRadAn=      0 IRanWt=     -1 IRanGd=            0 ICorTp=0
 NAtoms=   16 NActive=   16 NUniq=   16 SFac= 7.50D-01 NAtFMM=   80 NAOKFM=F Big=F
 Leave Link  301 at Sun Oct  3 10:54:50 2021, MaxMem=  536870912 cpu:       0.1
 (Enter /sw/target/amd/app/gaussian/Gaussian09RevA.02_gcc-4.9.2/g09/l302.exe)
 NPDir=0 NMtPBC=     1 NCelOv=     1 NCel=       1 NClECP=     1 NCelD=      1
         NCelK=      1 NCelE2=     1 NClLst=     1 CellRange=     0.0.
 One-electron integrals computed using PRISM.
 NBasis=   168 RedAO= T  NBF=   168
 NBsUse=   168 1.00D-06 NBFU=   168
 Precomputing XC quadrature grid using
 IXCGrd= 2 IRadAn=           0 IRanWt=          -1 IRanGd=           0 AccXCQ= 1.00D-10.
 NRdTot=    1020 NPtTot=      133226 NUsed=      140587 NTot=      140619
 NSgBfM=   165   165   165   165   165 NAtAll=    16    16.
 Leave Link  302 at Sun Oct  3 10:54:53 2021, MaxMem=  536870912 cpu:       0.9
 (Enter /sw/target/amd/app/gaussian/Gaussian09RevA.02_gcc-4.9.2/g09/l303.exe)
 DipDrv:  MaxL=1.
 Leave Link  303 at Sun Oct  3 10:54:54 2021, MaxMem=  536870912 cpu:       0.1
 (Enter /sw/target/amd/app/gaussian/Gaussian09RevA.02_gcc-4.9.2/g09/l401.exe)
 Initial guess read from the read-write file.
 B after Tr=     0.000000    0.000000    0.000000
         Rot=    1.000000    0.000000    0.000000    0.000000 Ang=   0.00 deg.
 Guess basis will be translated and rotated to current coordinates.
 Initial guess orbital symmetries:
       Occupied  (A) (A) (A) (A) (A) (A) (A) (A) (A) (A) (A) (A)
                 (A) (A) (A) (A) (A) (A) (A) (A) (A) (A) (A) (A)
                 (A) (A) (A) (A) (A) (A) (A) (A) (A) (A) (A) (A)
                 (A) (A) (A) (A) (A) (A) (A) (A) (A) (A) (A) (A)
       Virtual   (A) (A) (A) (A) (A) (A) (A) (A) (A) (A) (A) (A)
                 (A) (A) (A) (A) (A) (A) (A) (A) (A) (A) (A) (A)
                 (A) (A) (A) (A) (A) (A) (A) (A) (A) (A) (A) (A)
                 (A) (A) (A) (A) (A) (A) (A) (A) (A) (A) (A) (A)
                 (A) (A) (A) (A) (A) (A) (A) (A) (A) (A) (A) (A)
                 (A) (A) (A) (A) (A) (A) (A) (A) (A) (A) (A) (A)
                 (A) (A) (A) (A) (A) (A) (A) (A) (A) (A) (A) (A)
                 (A) (A) (A) (A) (A) (A) (A) (A) (A) (A) (A) (A)
                 (A) (A) (A) (A) (A) (A) (A) (A) (A) (A) (A) (A)
                 (A) (A) (A) (A) (A) (A) (A) (A) (A) (A) (A) (A)
 The electronic state of the initial guess is 1-A.
 Generating alternative initial guess.
 Harris functional with IExCor=  402 diagonalized for initial guess.
 ExpMin= 4.21D-02 ExpMax= 5.74D+05 ExpMxC= 5.74D+03 IAcc=2 IRadAn=         0 AccDes= 0.00D+00
 HarFok:  IExCor=  402 AccDes= 0.00D+00 IRadAn=         0 IDoV= 1
 ScaDFX=  1.000000  1.000000  1.000000  1.000000
 FoFCou: FMM=F IPFlag=           0 FMFlag=      100000 FMFlg1=           0
         NFxFlg=           0 DoJE=T BraDBF=F KetDBF=T FulRan=T
         Omega=  0.000000  0.000000  1.000000  0.000000  0.000000 ICntrl=     500 IOpCl=  0
         NMat0=    1 NMatS0=    1 NMatT0=    0 NMatD0=    1 NMtDS0=    0 NMtDT0=    0
         I1Cent=           4 NGrid=           0.
 Petite list used in FoFCou.
 Harris En= -3043.06789117450    
 Leave Link  401 at Sun Oct  3 10:55:22 2021, MaxMem=  536870912 cpu:       8.3
 (Enter /sw/target/amd/app/gaussian/Gaussian09RevA.02_gcc-4.9.2/g09/l502.exe)
 Closed shell SCF:
 Requested convergence on RMS density matrix=1.00D-08 within  64 cycles.
 Requested convergence on MAX density matrix=1.00D-06.
 Requested convergence on             energy=1.00D-06.
 No special actions if energy rises.
 Using DIIS extrapolation, IDIIS=  1040.
 Integral symmetry usage will be decided dynamically.
       140430 words used for storage of precomputed grid.
 Keep R1 ints in memory in canonical form, NReq=103416555.
 IEnd=      232915 IEndB=      232915 NGot=   536870912 MDV=   435900280
 LenX=   435900280 LenY=   435871615
 Symmetry not used in FoFDir.
 MinBra= 0 MaxBra= 2 Meth= 1.
 IRaf=       0 NMat=   1 IRICut=       1 DoRegI=T DoRafI=F ISym2E= 0 JSym2E=0.

 Cycle   1  Pass 1  IDiag  1:
 E= -3042.82833452754    
 DIIS: error= 1.11D-02 at cycle   1 NSaved=   1.
 NSaved= 1 IEnMin= 1 EnMin= -3042.82833452754     IErMin= 1 ErrMin= 1.11D-02
 ErrMax= 1.11D-02 EMaxC= 1.00D-01 BMatC= 1.41D-02 BMatP= 1.41D-02
 IDIUse=3 WtCom= 8.89D-01 WtEn= 1.11D-01
 Coeff-Com:  0.100D+01
 Coeff-En:   0.100D+01
 Coeff:      0.100D+01
 Recover alternate guess density for next cycle.
 RMSDP=4.52D-03 MaxDP=1.61D-01              OVMax= 0.00D+00

 Cycle   2  Pass 1  IDiag  1:
 E= -3042.52162086446     Delta-E=        0.306713663084 Rises=F Damp=F
 Switch densities from cycles 1 and 2 for lowest energy.
 DIIS: error= 1.60D-01 at cycle   2 NSaved=   2.
 NSaved= 2 IEnMin= 1 EnMin= -3042.82833452754     IErMin= 1 ErrMin= 1.11D-02
 ErrMax= 1.60D-01 EMaxC= 1.00D+00 BMatC= 6.62D-01 BMatP= 1.41D-02
 IDIUse=1 WtCom= 1.00D+00 WtEn= 0.00D+00
 Coeff-Com:  0.977D+00 0.231D-01
 Coeff:      0.977D+00 0.231D-01
 Gap=     0.276 Goal=   None    Shift=    0.000
 RMSDP=6.73D-04 MaxDP=2.70D-02 DE= 3.07D-01 OVMax= 1.95D-01

 Cycle   3  Pass 1  IDiag  1:
 E= -3042.82940853495     Delta-E=       -0.307787670488 Rises=F Damp=F
 DIIS: error= 1.08D-03 at cycle   3 NSaved=   3.
 NSaved= 3 IEnMin= 3 EnMin= -3042.82940853495     IErMin= 3 ErrMin= 1.08D-03
 ErrMax= 1.08D-03 EMaxC= 1.00D+00 BMatC= 2.49D-04 BMatP= 1.41D-02
 IDIUse=1 WtCom= 1.00D+00 WtEn= 0.00D+00
 Coeff-Com:  0.173D-01 0.103D-01 0.972D+00
 Coeff:      0.173D-01 0.103D-01 0.972D+00
 Gap=     0.188 Goal=   None    Shift=    0.000
 RMSDP=2.30D-04 MaxDP=8.86D-03 DE=-3.08D-01 OVMax= 1.25D-02

 Cycle   4  Pass 1  IDiag  1:
 E= -3042.82944760288     Delta-E=       -0.000039067926 Rises=F Damp=F
 DIIS: error= 1.21D-03 at cycle   4 NSaved=   4.
 NSaved= 4 IEnMin= 4 EnMin= -3042.82944760288     IErMin= 3 ErrMin= 1.08D-03
 ErrMax= 1.21D-03 EMaxC= 1.00D+00 BMatC= 2.15D-04 BMatP= 2.49D-04
 IDIUse=1 WtCom= 1.00D+00 WtEn= 0.00D+00
 Coeff-Com:  0.281D-03 0.133D-02 0.498D+00 0.501D+00
 Coeff:      0.281D-03 0.133D-02 0.498D+00 0.501D+00
 Gap=     0.186 Goal=   None    Shift=    0.000
 RMSDP=1.19D-04 MaxDP=3.76D-03 DE=-3.91D-05 OVMax= 6.20D-03

 Cycle   5  Pass 1  IDiag  1:
 E= -3042.82967587887     Delta-E=       -0.000228275996 Rises=F Damp=F
 DIIS: error= 5.43D-04 at cycle   5 NSaved=   5.
 NSaved= 5 IEnMin= 5 EnMin= -3042.82967587887     IErMin= 5 ErrMin= 5.43D-04
 ErrMax= 5.43D-04 EMaxC= 1.00D+00 BMatC= 2.01D-05 BMatP= 2.15D-04
 IDIUse=1 WtCom= 1.00D+00 WtEn= 0.00D+00
 Coeff-Com: -0.465D-03 0.246D-03 0.270D+00 0.321D+00 0.409D+00
 Coeff:     -0.465D-03 0.246D-03 0.270D+00 0.321D+00 0.409D+00
 Gap=     0.185 Goal=   None    Shift=    0.000
 RMSDP=3.35D-05 MaxDP=7.60D-04 DE=-2.28D-04 OVMax= 2.21D-03

 Cycle   6  Pass 1  IDiag  1:
 E= -3042.82969906771     Delta-E=       -0.000023188840 Rises=F Damp=F
 DIIS: error= 5.87D-05 at cycle   6 NSaved=   6.
 NSaved= 6 IEnMin= 6 EnMin= -3042.82969906771     IErMin= 6 ErrMin= 5.87D-05
 ErrMax= 5.87D-05 EMaxC= 1.00D+00 BMatC= 5.63D-07 BMatP= 2.01D-05
 IDIUse=1 WtCom= 1.00D+00 WtEn= 0.00D+00
 Coeff-Com: -0.228D-03 0.326D-06 0.102D+00 0.129D+00 0.213D+00 0.556D+00
 Coeff:     -0.228D-03 0.326D-06 0.102D+00 0.129D+00 0.213D+00 0.556D+00
 Gap=     0.185 Goal=   None    Shift=    0.000
 RMSDP=5.50D-06 MaxDP=1.72D-04 DE=-2.32D-05 OVMax= 3.40D-04

 Cycle   7  Pass 1  IDiag  1:
 E= -3042.82969962701     Delta-E=       -0.000000559296 Rises=F Damp=F
 DIIS: error= 1.59D-05 at cycle   7 NSaved=   7.
 NSaved= 7 IEnMin= 7 EnMin= -3042.82969962701     IErMin= 7 ErrMin= 1.59D-05
 ErrMax= 1.59D-05 EMaxC= 1.00D+00 BMatC= 4.93D-08 BMatP= 5.63D-07
 IDIUse=1 WtCom= 1.00D+00 WtEn= 0.00D+00
 Coeff-Com: -0.442D-04-0.244D-05 0.495D-02 0.109D-01 0.406D-01 0.256D+00
 Coeff-Com:  0.687D+00
 Coeff:     -0.442D-04-0.244D-05 0.495D-02 0.109D-01 0.406D-01 0.256D+00
 Coeff:      0.687D+00
 Gap=     0.185 Goal=   None    Shift=    0.000
 RMSDP=1.64D-06 MaxDP=5.43D-05 DE=-5.59D-07 OVMax= 1.06D-04

 Cycle   8  Pass 1  IDiag  1:
 E= -3042.82969967753     Delta-E=       -0.000000050523 Rises=F Damp=F
 DIIS: error= 3.71D-06 at cycle   8 NSaved=   8.
 NSaved= 8 IEnMin= 8 EnMin= -3042.82969967753     IErMin= 8 ErrMin= 3.71D-06
 ErrMax= 3.71D-06 EMaxC= 1.00D+00 BMatC= 4.38D-09 BMatP= 4.93D-08
 IDIUse=1 WtCom= 1.00D+00 WtEn= 0.00D+00
 Coeff-Com: -0.684D-05-0.793D-05-0.352D-02-0.202D-02 0.824D-02 0.945D-01
 Coeff-Com:  0.352D+00 0.551D+00
 Coeff:     -0.684D-05-0.793D-05-0.352D-02-0.202D-02 0.824D-02 0.945D-01
 Coeff:      0.352D+00 0.551D+00
 Gap=     0.185 Goal=   None    Shift=    0.000
 RMSDP=5.07D-07 MaxDP=1.68D-05 DE=-5.05D-08 OVMax= 3.72D-05

 Cycle   9  Pass 1  IDiag  1:
 E= -3042.82969968145     Delta-E=       -0.000000003921 Rises=F Damp=F
 DIIS: error= 2.03D-06 at cycle   9 NSaved=   9.
 NSaved= 9 IEnMin= 9 EnMin= -3042.82969968145     IErMin= 9 ErrMin= 2.03D-06
 ErrMax= 2.03D-06 EMaxC= 1.00D+00 BMatC= 5.42D-10 BMatP= 4.38D-09
 IDIUse=1 WtCom= 1.00D+00 WtEn= 0.00D+00
 Coeff-Com:  0.244D-05-0.355D-05-0.276D-02-0.281D-02-0.128D-02 0.164D-01
 Coeff-Com:  0.108D+00 0.300D+00 0.583D+00
 Coeff:      0.244D-05-0.355D-05-0.276D-02-0.281D-02-0.128D-02 0.164D-01
 Coeff:      0.108D+00 0.300D+00 0.583D+00
 Gap=     0.185 Goal=   None    Shift=    0.000
 RMSDP=2.03D-07 MaxDP=4.45D-06 DE=-3.92D-09 OVMax= 1.30D-05

 Cycle  10  Pass 1  IDiag  1:
 E= -3042.82969968199     Delta-E=       -0.000000000540 Rises=F Damp=F
 DIIS: error= 8.85D-07 at cycle  10 NSaved=  10.
 NSaved=10 IEnMin=10 EnMin= -3042.82969968199     IErMin=10 ErrMin= 8.85D-07
 ErrMax= 8.85D-07 EMaxC= 1.00D+00 BMatC= 7.81D-11 BMatP= 5.42D-10
 IDIUse=1 WtCom= 1.00D+00 WtEn= 0.00D+00
 Coeff-Com:  0.158D-05-0.118D-05-0.142D-02-0.155D-02-0.120D-02 0.443D-02
 Coeff-Com:  0.450D-01 0.139D+00 0.354D+00 0.462D+00
 Coeff:      0.158D-05-0.118D-05-0.142D-02-0.155D-02-0.120D-02 0.443D-02
 Coeff:      0.450D-01 0.139D+00 0.354D+00 0.462D+00
 Gap=     0.185 Goal=   None    Shift=    0.000
 RMSDP=6.67D-08 MaxDP=2.12D-06 DE=-5.40D-10 OVMax= 5.58D-06

 Cycle  11  Pass 1  IDiag  1:
 E= -3042.82969968210     Delta-E=       -0.000000000109 Rises=F Damp=F
 DIIS: error= 1.39D-07 at cycle  11 NSaved=  11.
 NSaved=11 IEnMin=11 EnMin= -3042.82969968210     IErMin=11 ErrMin= 1.39D-07
 ErrMax= 1.39D-07 EMaxC= 1.00D+00 BMatC= 4.33D-12 BMatP= 7.81D-11
 IDIUse=1 WtCom= 1.00D+00 WtEn= 0.00D+00
 Coeff-Com:  0.330D-06-0.288D-07-0.297D-03-0.375D-03-0.457D-03-0.749D-03
 Coeff-Com:  0.559D-02 0.197D-01 0.902D-01 0.226D+00 0.660D+00
 Coeff:      0.330D-06-0.288D-07-0.297D-03-0.375D-03-0.457D-03-0.749D-03
 Coeff:      0.559D-02 0.197D-01 0.902D-01 0.226D+00 0.660D+00
 Gap=     0.185 Goal=   None    Shift=    0.000
 RMSDP=1.43D-08 MaxDP=3.29D-07 DE=-1.09D-10 OVMax= 6.98D-07

 Cycle  12  Pass 1  IDiag  1:
 E= -3042.82969968214     Delta-E=       -0.000000000035 Rises=F Damp=F
 DIIS: error= 2.31D-08 at cycle  12 NSaved=  12.
 NSaved=12 IEnMin=12 EnMin= -3042.82969968214     IErMin=12 ErrMin= 2.31D-08
 ErrMax= 2.31D-08 EMaxC= 1.00D+00 BMatC= 1.18D-13 BMatP= 4.33D-12
 IDIUse=1 WtCom= 1.00D+00 WtEn= 0.00D+00
 Coeff-Com:  0.485D-07 0.194D-07-0.855D-06-0.166D-04-0.554D-04-0.533D-03
 Coeff-Com: -0.931D-03-0.311D-02 0.565D-02 0.447D-01 0.203D+00 0.751D+00
 Coeff:      0.485D-07 0.194D-07-0.855D-06-0.166D-04-0.554D-04-0.533D-03
 Coeff:     -0.931D-03-0.311D-02 0.565D-02 0.447D-01 0.203D+00 0.751D+00
 Gap=     0.185 Goal=   None    Shift=    0.000
 RMSDP=3.41D-09 MaxDP=7.48D-08 DE=-3.55D-11 OVMax= 1.64D-07

 SCF Done:  E(RB3LYP) =  -3042.82969968     A.U. after   12 cycles
             Convg  =    0.3408D-08             -V/T =  2.0064
 KE= 3.023359453773D+03 PE=-8.397500903355D+03 EE= 1.752865864816D+03
 Leave Link  502 at Sun Oct  3 11:02:27 2021, MaxMem=  536870912 cpu:      90.6
 (Enter /sw/target/amd/app/gaussian/Gaussian09RevA.02_gcc-4.9.2/g09/l508.exe)
 QCSCF skips out because SCF is already converged.
 Leave Link  508 at Sun Oct  3 11:02:29 2021, MaxMem=  536870912 cpu:       0.0
 (Enter /sw/target/amd/app/gaussian/Gaussian09RevA.02_gcc-4.9.2/g09/l701.exe)
 Compute integral first derivatives.
 ... and contract with generalized density number  0.
 Leave Link  701 at Sun Oct  3 11:02:32 2021, MaxMem=  536870912 cpu:       0.6
 (Enter /sw/target/amd/app/gaussian/Gaussian09RevA.02_gcc-4.9.2/g09/l702.exe)
 L702 exits ... SP integral derivatives will be done elsewhere.
 Leave Link  702 at Sun Oct  3 11:02:32 2021, MaxMem=  536870912 cpu:       0.1
 (Enter /sw/target/amd/app/gaussian/Gaussian09RevA.02_gcc-4.9.2/g09/l703.exe)
 Compute integral first derivatives, UseDBF=F ICtDFT=           0.
 Integral derivatives from FoFDir, PRISM(SPDF).
 Calling FoFJK, ICntrl=      2127 FMM=F ISym2X=0 I1Cent= 0 IOpClX= 0 NMat=1 NMatS=1 NMatT=0.
 FoFCou: FMM=F IPFlag=           0 FMFlag=      100000 FMFlg1=         800
         NFxFlg=           0 DoJE=F BraDBF=F KetDBF=F FulRan=T
         Omega=  0.000000  0.000000  1.000000  0.000000  0.000000 ICntrl=    2127 IOpCl=  0
         NMat0=    1 NMatS0=    1 NMatT0=    0 NMatD0=    1 NMtDS0=    0 NMtDT0=    0
         I1Cent=           0 NGrid=           0.
 Symmetry not used in FoFCou.
 Leave Link  703 at Sun Oct  3 11:04:39 2021, MaxMem=  536870912 cpu:      35.7
 (Enter /sw/target/amd/app/gaussian/Gaussian09RevA.02_gcc-4.9.2/g09/l716.exe)
 Dipole        =-1.14117754D+00 9.14957982D-02 3.25342476D-03
 ***** Axes restored to original set *****
 -------------------------------------------------------------------
 Center     Atomic                   Forces (Hartrees/Bohr)
 Number     Number              X              Y              Z
 -------------------------------------------------------------------
      1       35           0.021453591    0.000821081    0.000091492
      2       12          -0.011550003    0.000954309    0.000288204
      3        6          -0.022436752   -0.000412652   -0.000115593
      4        6           0.005097695   -0.004007335   -0.000666093
      5        6          -0.000350846   -0.001646625   -0.000286951
      6        6          -0.005379497    0.002678462    0.000403334
      7        6           0.000783389   -0.001681966   -0.000072194
      8        6           0.006344642    0.005926647    0.000613369
      9        6           0.000067528   -0.003399929   -0.000591516
     10        1           0.000571284    0.002517670    0.000419829
     11        1           0.001162466    0.001317739    0.000227709
     12        1           0.001510300   -0.000522004   -0.000053112
     13        1           0.000950092   -0.003841090   -0.000486089
     14        1          -0.000847933   -0.000255883   -0.003763283
     15        1          -0.000698858   -0.001361168    0.003578267
     16        1           0.003322902    0.002912746    0.000412628
 -------------------------------------------------------------------
 Cartesian Forces:  Max     0.022436752 RMS     0.005303192
 Leave Link  716 at Sun Oct  3 11:04:39 2021, MaxMem=  536870912 cpu:       0.1
 (Enter /sw/target/amd/app/gaussian/Gaussian09RevA.02_gcc-4.9.2/g09/l103.exe)

 GradGradGradGradGradGradGradGradGradGradGradGradGradGradGradGradGradGrad
 Berny optimization.
 Using GEDIIS/GDIIS optimizer.
 Internal  Forces:  Max     0.021468013 RMS     0.003445109
 Search for a local minimum.
 Step number   2 out of a maximum of   82
 All quantities printed in internal units (Hartrees-Bohrs-Radians)
 RMS Force = .34451D-02 SwitMx=.10000D-02 MixMth= 1
 Mixed Optimization -- RFO/linear search
 Update second derivatives using D2CorX and points    1    2
 DE= -1.09D-02 DEPred=-1.03D-02 R= 1.06D+00
 SS=  1.41D+00  RLast= 3.00D-01 DXNew= 5.0454D-01 9.0000D-01
 Trust test= 1.06D+00 RLast= 3.00D-01 DXMaxT set to 5.05D-01
 Use linear search instead of GDIIS.
     Eigenvalues ---    0.00240   0.00246   0.00771   0.01530   0.02028
     Eigenvalues ---    0.02044   0.02069   0.02088   0.02104   0.02123
     Eigenvalues ---    0.02127   0.02138   0.05051   0.07204   0.07264
     Eigenvalues ---    0.09782   0.15957   0.16000   0.16000   0.16000
     Eigenvalues ---    0.16000   0.16000   0.16216   0.21985   0.22830
     Eigenvalues ---    0.23660   0.24851   0.25039   0.32347   0.32528
     Eigenvalues ---    0.32603   0.33244   0.35602   0.35678   0.35813
     Eigenvalues ---    0.35843   0.41442   0.41644   0.45015   0.45622
     Eigenvalues ---    0.45729   0.463211000.000001000.000001000.00000
     Eigenvalues --- 1000.000001000.000001000.000001000.000001000.00000
     Eigenvalues --- 1000.000001000.000001000.000001000.000001000.00000
     Eigenvalues --- 1000.000001000.000001000.000001000.000001000.00000
     Eigenvalues --- 1000.000001000.000001000.000001000.000001000.00000
     Eigenvalues --- 1000.000001000.000001000.000001000.000001000.00000
     Eigenvalues --- 1000.000001000.00000
 RFO step:  Lambda=-2.96696568D-03 EMin= 2.39614954D-03
 Quartic linear search produced a step of  0.92931.
 Maximum step size (   0.505) exceeded in Quadratic search.
    -- Step size scaled by   0.739
 Iteration  1 RMS(Cart)=  0.10861690 RMS(Int)=  0.03782265
 Iteration  2 RMS(Cart)=  0.08979424 RMS(Int)=  0.01066034
 Iteration  3 RMS(Cart)=  0.01919166 RMS(Int)=  0.00038071
 Iteration  4 RMS(Cart)=  0.00039766 RMS(Int)=  0.00004242
 Iteration  5 RMS(Cart)=  0.00000043 RMS(Int)=  0.00004228
 Variable       Old X    -DE/DX   Delta X   Delta X   Delta X     New X
                                 (Linear)    (Quad)   (Total)
    R1        4.65868  -0.02147  -0.25417  -0.06628  -0.32045   4.33823
    R2        4.01941  -0.00987  -0.07555  -0.02913  -0.10468   3.91473
    R3        2.64610   0.00355   0.00631   0.00476   0.01113   2.65723
    R4        2.65518   0.00504   0.01605  -0.00083   0.01528   2.67045
    R5        2.64407  -0.00101  -0.00330   0.00011  -0.00318   2.64089
    R6        2.05025   0.00214   0.00658   0.00127   0.00785   2.05810
    R7        2.64118  -0.00300  -0.00763  -0.00206  -0.00974   2.63144
    R8        2.05117   0.00177   0.00656  -0.00016   0.00640   2.05757
    R9        2.65130  -0.00169  -0.00644   0.00092  -0.00558   2.64572
   R10        2.05182   0.00156   0.00458   0.00119   0.00578   2.05759
   R11        2.64737   0.00087   0.00369  -0.00099   0.00269   2.65007
   R12        2.85182   0.00269   0.01663  -0.00659   0.01004   2.86185
   R13        2.05351   0.00255   0.00744   0.00201   0.00946   2.06297
   R14        2.08276  -0.00334  -0.01373   0.00067  -0.01307   2.06969
   R15        2.08285  -0.00333  -0.01364   0.00058  -0.01306   2.06980
   R16        2.08191  -0.00443  -0.01857   0.00111  -0.01746   2.06444
    A1        2.19979  -0.00060  -0.00285  -0.00088  -0.00379   2.19600
    A2        2.00436   0.00736   0.02177   0.01586   0.03757   2.04193
    A3        2.07898  -0.00677  -0.01889  -0.01497  -0.03375   2.04523
    A4        2.09360   0.00306   0.00689   0.01122   0.01817   2.11178
    A5        2.10236   0.00002   0.00560  -0.00337   0.00220   2.10456
    A6        2.08722  -0.00307  -0.01249  -0.00785  -0.02038   2.06684
    A7        2.10009   0.00036   0.00154  -0.00251  -0.00102   2.09907
    A8        2.09497  -0.00006  -0.00007   0.00146   0.00141   2.09639
    A9        2.08812  -0.00030  -0.00146   0.00105  -0.00039   2.08773
   A10        2.10545   0.00137   0.00740  -0.00351   0.00378   2.10923
   A11        2.08847  -0.00033  -0.00070   0.00118   0.00054   2.08901
   A12        2.08926  -0.00105  -0.00670   0.00233  -0.00431   2.08495
   A13        2.06726  -0.00150  -0.01015   0.00181  -0.00841   2.05885
[...]
              1          2          3          4          5          6
     1  Br  35.102623   0.164835   0.000457   0.000036   0.000000  -0.000000
     2  Mg   0.164835  11.826481   0.183249  -0.056905   0.002156  -0.002139
     3  C    0.000457   0.183249   4.998837   0.449256  -0.031337  -0.034808
     4  C    0.000036  -0.056905   0.449256   5.041252   0.467200  -0.037291
     5  C    0.000000   0.002156  -0.031337   0.467200   4.925696   0.552827
     6  C   -0.000000  -0.002139  -0.034808  -0.037291   0.552827   4.992202
     7  C    0.000000   0.002274  -0.016477  -0.036030  -0.022220   0.467140
     8  C    0.000016  -0.034814   0.527700  -0.034126  -0.049412  -0.051656
     9  C   -0.000000   0.000467   0.005849   0.000666   0.005828  -0.074244
    10  H   -0.000154   0.014211  -0.051613   0.352803  -0.061184   0.003220
    11  H   -0.000000   0.001128   0.002938  -0.036617   0.352741  -0.038605
    12  H   -0.000000   0.000344   0.000066   0.004137  -0.036705   0.366229
    13  H   -0.000153   0.011985  -0.050469   0.008330  -0.000173   0.005009
    14  H    0.000000  -0.000034  -0.000194   0.000001  -0.000029  -0.000779
    15  H    0.000000  -0.000034  -0.000195   0.000002  -0.000030  -0.000775
    16  H   -0.000000   0.000308   0.000141   0.000027  -0.000156   0.003611
              7          8          9         10         11         12
     1  Br   0.000000   0.000016  -0.000000  -0.000154  -0.000000  -0.000000
     2  Mg   0.002274  -0.034814   0.000467   0.014211   0.001128   0.000344
     3  C   -0.016477   0.527700   0.005849  -0.051613   0.002938   0.000066
     4  C   -0.036030  -0.034126   0.000666   0.352803  -0.036617   0.004137
     5  C   -0.022220  -0.049412   0.005828  -0.061184   0.352741  -0.036705
     6  C    0.467140  -0.051656  -0.074244   0.003220  -0.038605   0.366229
     7  C    4.719683   0.504017   0.345638   0.000408   0.003577  -0.049126
     8  C    0.504017   5.042798  -0.044639   0.007152   0.001126   0.004577
     9  C    0.345638  -0.044639   5.228334   0.000021  -0.000097  -0.006308
    10  H    0.000408   0.007152   0.000021   0.545984  -0.000148  -0.000143
    11  H    0.003577   0.001126  -0.000097  -0.000148   0.549337  -0.004616
    12  H   -0.049126   0.004577  -0.006308  -0.000143  -0.004616   0.545794
    13  H   -0.067464   0.355993  -0.005244   0.000027   0.000030  -0.000146
    14  H   -0.022088   0.000698   0.358447  -0.000000  -0.000003   0.001703
    15  H   -0.022045   0.000678   0.358416  -0.000000  -0.000003   0.001685
    16  H   -0.030911  -0.001855   0.372981   0.000000   0.000002   0.000028
             13         14         15         16
     1  Br  -0.000153   0.000000   0.000000  -0.000000
     2  Mg   0.011985  -0.000034  -0.000034   0.000308
     3  C   -0.050469  -0.000194  -0.000195   0.000141
     4  C    0.008330   0.000001   0.000002   0.000027
     5  C   -0.000173  -0.000029  -0.000030  -0.000156
     6  C    0.005009  -0.000779  -0.000775   0.003611
     7  C   -0.067464  -0.022088  -0.022045  -0.030911
     8  C    0.355993   0.000698   0.000678  -0.001855
     9  C   -0.005244   0.358447   0.358416   0.372981
    10  H    0.000027  -0.000000  -0.000000   0.000000
    11  H    0.000030  -0.000003  -0.000003   0.000002
    12  H   -0.000146   0.001703   0.001685   0.000028
    13  H    0.577003   0.000025   0.000026   0.007115
    14  H    0.000025   0.507605  -0.023474  -0.024323
    15  H    0.000026  -0.023474   0.507448  -0.024291
    16  H    0.007115  -0.024323  -0.024291   0.498365
 Mulliken atomic charges:
              1
     1  Br  -0.267659
     2  Mg  -0.113514
     3  C    0.016600
     4  C   -0.122741
     5  C   -0.105202
     6  C   -0.149941
     7  C    0.223625
     8  C   -0.228253
     9  C   -0.546116
    10  H    0.189415
    11  H    0.169206
    12  H    0.172480
    13  H    0.158107
    14  H    0.202444
    15  H    0.202594
    16  H    0.198958
 Sum of Mulliken atomic charges =  -0.00000
 Mulliken charges with hydrogens summed into heavy atoms:
              1
     1  Br  -0.267659
     2  Mg  -0.113514
     3  C    0.016600
     4  C    0.066674
     5  C    0.064004
     6  C    0.022538
     7  C    0.223625
     8  C   -0.070147
     9  C    0.057879
 Sum of Mulliken charges with hydrogens summed into heavy atoms =  -0.00000
 Electronic spatial extent (au):  <R**2>=           3585.7366
 Charge=             -0.0000 electrons
 Dipole moment (field-independent basis, Debye):
    X=            -14.8511    Y=              0.5632    Z=              0.0007  Tot=             14.8618
 Quadrupole moment (field-independent basis, Debye-Ang):
   XX=            -66.8161   YY=            -63.4662   ZZ=            -74.8437
   XY=              2.4882   XZ=              0.0017   YZ=             -0.0018
 Traceless Quadrupole moment (field-independent basis, Debye-Ang):
   XX=              1.5592   YY=              4.9091   ZZ=             -6.4683
   XY=              2.4882   XZ=              0.0017   YZ=             -0.0018
 Octapole moment (field-independent basis, Debye-Ang**2):
  XXX=           -114.9527  YYY=              0.3274  ZZZ=             -0.0035  XYY=             -2.8090
  XXY=            -12.3440  XXZ=             -0.0075  XZZ=             26.0804  YZZ=             -4.1266
  YYZ=             -0.0009  XYZ=              0.0106
 Hexadecapole moment (field-independent basis, Debye-Ang**3):
 XXXX=          -3333.9564 YYYY=           -516.0492 ZZZZ=           -123.0270 XXXY=             49.7238
 XXXZ=              0.0327 YYYX=            -23.0855 YYYZ=              0.0011 ZZZX=             -0.0440
 ZZZY=             -0.0077 XXYY=           -625.2743 XXZZ=           -635.9489 YYZZ=           -119.7354
 XXYZ=             -0.0536 YYXZ=             -0.0146 ZZXY=              3.4667
 N-N= 5.871732897802D+02 E-N=-8.415055263444D+03  KE= 3.023706444485D+03
 No NMR shielding tensors so no spin-rotation constants.
 Leave Link  601 at Sun Oct  3 15:26:24 2021, MaxMem=  536870912 cpu:       0.5
 (Enter /sw/target/amd/app/gaussian/Gaussian09RevA.02_gcc-4.9.2/g09/l604.exe)
 Evaluate density.
 Using the total density.
 Monte-Carlo method of calculating molar volume:
 based on  0.001 e/bohr**3 density envelope.
 Number of points per bohr**3 =   20 CutOff= 1.00D-04
 Using the CI density.
 There are       520 points.  Will hold       520 in memory.
 LenV=   536753080 MDV=   536870912.
 Box volume =17591.107 fraction occupied=0.083
 Integrated density= 4.2183649771021436D+01 error=-5.3816350228978564D+01
 Molar volume = 1454.649 bohr**3/mol (129.811 cm**3/mol)
 Recommended a0 for SCRF calculation =  4.59 angstrom (  8.68 bohr)
 Leave Link  604 at Sun Oct  3 15:26:30 2021, MaxMem=  536870912 cpu:       0.3
 (Enter /sw/target/amd/app/gaussian/Gaussian09RevA.02_gcc-4.9.2/g09/l607.exe)
 ******************************Gaussian NBO Version 3.1******************************
             N A T U R A L   A T O M I C   O R B I T A L   A N D
          N A T U R A L   B O N D   O R B I T A L   A N A L Y S I S
 ******************************Gaussian NBO Version 3.1******************************
       /RESON  / : Allow strongly delocalized NBO set

 Analyzing the CI density

 Job title: Br[Mg]c1ccccc1C_conf_0                                          

 Storage needed:     85624 in NPA ( 536869472 available)


 NATURAL POPULATIONS:  Natural atomic orbital occupancies 
                                                          
   NAO  Atom  No  lang   Type(AO)    Occupancy
 --------------------------------------------
     1   Br    1  S      Cor( 1S)     2.00000
     2   Br    1  S      Cor( 2S)     1.99996
     3   Br    1  S      Cor( 3S)     1.99989
     4   Br    1  S      Val( 4S)     1.94180
     5   Br    1  S      Ryd( 5S)     0.00265
     6   Br    1  S      Ryd( 6S)     0.00002
     7   Br    1  S      Ryd( 8S)     0.00000
     8   Br    1  S      Ryd( 7S)     0.00000
     9   Br    1  px     Cor( 2p)     1.99997
    10   Br    1  px     Cor( 3p)     1.99997
    11   Br    1  px     Val( 4p)     1.85313
    12   Br    1  px     Ryd( 5p)     0.00056
    13   Br    1  py     Cor( 3p)     2.00000
    14   Br    1  py     Cor( 2p)     2.00000
    15   Br    1  py     Val( 4p)     1.92796
    16   Br    1  py     Ryd( 5p)     0.00000
    17   Br    1  pz     Cor( 3p)     2.00000
    18   Br    1  pz     Cor( 2p)     2.00000
    19   Br    1  pz     Val( 4p)     1.92791
    20   Br    1  pz     Ryd( 5p)     0.00000
    21   Br    1  dxy    Cor( 3d)     1.99999
    22   Br    1  dxy    Ryd( 4d)     0.00119
    23   Br    1  dxz    Cor( 3d)     1.99999
    24   Br    1  dxz    Ryd( 4d)     0.00107
    25   Br    1  dyz    Cor( 3d)     2.00000
    26   Br    1  dyz    Ryd( 4d)     0.00001
    27   Br    1  dx2y2  Cor( 3d)     1.99998
    28   Br    1  dx2y2  Ryd( 4d)     0.00361
    29   Br    1  dz2    Cor( 3d)     1.99999
    30   Br    1  dz2    Ryd( 4d)     0.00126

    31   Mg    2  S      Cor( 1S)     2.00000
    32   Mg    2  S      Cor( 2S)     1.99938
    33   Mg    2  S      Val( 3S)     1.12476
    34   Mg    2  S      Ryd( 4S)     0.01990
    35   Mg    2  S      Ryd( 5S)     0.00033
    36   Mg    2  px     Cor( 2p)     1.99940
    37   Mg    2  px     Val( 3p)     0.11131
    38   Mg    2  px     Ryd( 4p)     0.00242
    39   Mg    2  py     Cor( 2p)     1.99976
    40   Mg    2  py     Val( 3p)     0.07015
    41   Mg    2  py     Ryd( 4p)     0.00014
    42   Mg    2  pz     Cor( 2p)     1.99974
    43   Mg    2  pz     Val( 3p)     0.05714
    44   Mg    2  pz     Ryd( 4p)     0.00016
    45   Mg    2  dxy    Ryd( 3d)     0.00178
    46   Mg    2  dxz    Ryd( 3d)     0.00138
    47   Mg    2  dyz    Ryd( 3d)     0.00000
    48   Mg    2  dx2y2  Ryd( 3d)     0.00248
    49   Mg    2  dz2    Ryd( 3d)     0.00058

    50    C    3  S      Cor( 1S)     1.99931
    51    C    3  S      Val( 2S)     1.18558
    52    C    3  S      Ryd( 3S)     0.00707
    53    C    3  S      Ryd( 4S)     0.00002
    54    C    3  px     Val( 2p)     1.54833
    55    C    3  px     Ryd( 3p)     0.01539
    56    C    3  py     Val( 2p)     0.98917
    57    C    3  py     Ryd( 3p)     0.00850
    58    C    3  pz     Val( 2p)     0.70737
    59    C    3  pz     Ryd( 3p)     0.00085
    60    C    3  dxy    Ryd( 3d)     0.00099
    61    C    3  dxz    Ryd( 3d)     0.00068
    62    C    3  dyz    Ryd( 3d)     0.00026
    63    C    3  dx2y2  Ryd( 3d)     0.00029
    64    C    3  dz2    Ryd( 3d)     0.00041

    65    C    4  S      Cor( 1S)     1.99913
    66    C    4  S      Val( 2S)     1.00297
    67    C    4  S      Ryd( 3S)     0.00102
    68    C    4  S      Ryd( 4S)     0.00004
    69    C    4  px     Val( 2p)     1.09146
    70    C    4  px     Ryd( 3p)     0.00339
    71    C    4  py     Val( 2p)     1.18406
    72    C    4  py     Ryd( 3p)     0.00615
    73    C    4  pz     Val( 2p)     0.73651
    74    C    4  pz     Ryd( 3p)     0.00020
    75    C    4  dxy    Ryd( 3d)     0.00117
    76    C    4  dxz    Ryd( 3d)     0.00052
    77    C    4  dyz    Ryd( 3d)     0.00038
    78    C    4  dx2y2  Ryd( 3d)     0.00095
    79    C    4  dz2    Ryd( 3d)     0.00041

    80    C    5  S      Cor( 1S)     1.99914
    81    C    5  S      Val( 2S)     0.98546
    82    C    5  S      Ryd( 3S)     0.00075
    83    C    5  S      Ryd( 4S)     0.00003
    84    C    5  px     Val( 2p)     1.09271
    85    C    5  px     Ryd( 3p)     0.00522
    86    C    5  py     Val( 2p)     1.18395
    87    C    5  py     Ryd( 3p)     0.00551
    88    C    5  pz     Val( 2p)     0.96885
    89    C    5  pz     Ryd( 3p)     0.00050
    90    C    5  dxy    Ryd( 3d)     0.00081
    91    C    5  dxz    Ryd( 3d)     0.00037
    92    C    5  dyz    Ryd( 3d)     0.00042
    93    C    5  dx2y2  Ryd( 3d)     0.00077
    94    C    5  dz2    Ryd( 3d)     0.00041

    95    C    6  S      Cor( 1S)     1.99903
    96    C    6  S      Val( 2S)     0.97537
    97    C    6  S      Ryd( 3S)     0.00074
    98    C    6  S      Ryd( 4S)     0.00006
    99    C    6  px     Val( 2p)     1.20561
   100    C    6  px     Ryd( 3p)     0.00530
   101    C    6  py     Val( 2p)     1.05960
   102    C    6  py     Ryd( 3p)     0.00366
   103    C    6  pz     Val( 2p)     0.92346
   104    C    6  pz     Ryd( 3p)     0.00061
   105    C    6  dxy    Ryd( 3d)     0.00066
   106    C    6  dxz    Ryd( 3d)     0.00038
   107    C    6  dyz    Ryd( 3d)     0.00044
   108    C    6  dx2y2  Ryd( 3d)     0.00096
   109    C    6  dz2    Ryd( 3d)     0.00042

   110    C    7  S      Cor( 1S)     1.99902
   111    C    7  S      Val( 2S)     0.92102
   112    C    7  S      Ryd( 3S)     0.00052
   113    C    7  S      Ryd( 4S)     0.00005
   114    C    7  px     Val( 2p)     1.09402
   115    C    7  px     Ryd( 3p)     0.00434
   116    C    7  py     Val( 2p)     1.06351
   117    C    7  py     Ryd( 3p)     0.00414
   118    C    7  pz     Val( 2p)     0.75834
   119    C    7  pz     Ryd( 3p)     0.00105
   120    C    7  dxy    Ryd( 3d)     0.00086
   121    C    7  dxz    Ryd( 3d)     0.00075
   122    C    7  dyz    Ryd( 3d)     0.00060
   123    C    7  dx2y2  Ryd( 3d)     0.00089
   124    C    7  dz2    Ryd( 3d)     0.00032

   125    C    8  S      Cor( 1S)     1.99909
   126    C    8  S      Val( 2S)     0.97465
   127    C    8  S      Ryd( 3S)     0.00110
   128    C    8  S      Ryd( 4S)     0.00004
   129    C    8  px     Val( 2p)     1.07068
   130    C    8  px     Ryd( 3p)     0.00358
   131    C    8  py     Val( 2p)     1.22057
   132    C    8  py     Ryd( 3p)     0.00662
   133    C    8  pz     Val( 2p)     0.97424
   134    C    8  pz     Ryd( 3p)     0.00029
   135    C    8  dxy    Ryd( 3d)     0.00070
   136    C    8  dxz    Ryd( 3d)     0.00026
   137    C    8  dyz    Ryd( 3d)     0.00032
   138    C    8  dx2y2  Ryd( 3d)     0.00123
   139    C    8  dz2    Ryd( 3d)     0.00041

   140    C    9  S      Cor( 1S)     1.99938
   141    C    9  S      Val( 2S)     1.11049
   142    C    9  S      Ryd( 3S)     0.00028
   143    C    9  S      Ryd( 4S)     0.00001
   144    C    9  px     Val( 2p)     1.20597
   145    C    9  px     Ryd( 3p)     0.00237
   146    C    9  py     Val( 2p)     1.14892
   147    C    9  py     Ryd( 3p)     0.00191
   148    C    9  pz     Val( 2p)     1.24669
   149    C    9  pz     Ryd( 3p)     0.00030
   150    C    9  dxy    Ryd( 3d)     0.00086
   151    C    9  dxz    Ryd( 3d)     0.00103
   152    C    9  dyz    Ryd( 3d)     0.00012
   153    C    9  dx2y2  Ryd( 3d)     0.00043
   154    C    9  dz2    Ryd( 3d)     0.00065

   155    H   10  S      Val( 1S)     0.75952
   156    H   10  S      Ryd( 2S)     0.00275

   157    H   11  S      Val( 1S)     0.74673
   158    H   11  S      Ryd( 2S)     0.00112

   159    H   12  S      Val( 1S)     0.74961
   160    H   12  S      Ryd( 2S)     0.00081

   161    H   13  S      Val( 1S)     0.75767
   162    H   13  S      Ryd( 2S)     0.00251

   163    H   14  S      Val( 1S)     0.72601
   164    H   14  S      Ryd( 2S)     0.00061

   165    H   15  S      Val( 1S)     0.72588
   166    H   15  S      Ryd( 2S)     0.00061

   167    H   16  S      Val( 1S)     0.73751
   168    H   16  S      Ryd( 2S)     0.00061


 Summary of Natural Population Analysis:                  
                                                          
                                       Natural Population 
                Natural  -----------------------------------------------
    Atom  No    Charge         Core      Valence    Rydberg      Total
 -----------------------------------------------------------------------
     Br    1   -0.66090     27.99974     7.65079    0.01037    35.66090
     Mg    2    0.60917      9.99829     1.36337    0.02917    11.39083
      C    3   -0.46421      1.99931     4.43045    0.03446     6.46421
      C    4   -0.02836      1.99913     4.01499    0.01424     6.02836
      C    5   -0.24490      1.99914     4.23097    0.01478     6.24490
      C    6   -0.17630      1.99903     4.16404    0.01323     6.17630
      C    7    0.15057      1.99902     3.83688    0.01353     5.84943
      C    8   -0.25378      1.99909     4.24014    0.01455     6.25378
      C    9   -0.71943      1.99938     4.71208    0.00796     6.71943
      H   10    0.23773      0.00000     0.75952    0.00275     0.76227
      H   11    0.25215      0.00000     0.74673    0.00112     0.74785
      H   12    0.24958      0.00000     0.74961    0.00081     0.75042
      H   13    0.23982      0.00000     0.75767    0.00251     0.76018
      H   14    0.27338      0.00000     0.72601    0.00061     0.72662
      H   15    0.27351      0.00000     0.72588    0.00061     0.72649
      H   16    0.26188      0.00000     0.73751    0.00061     0.73812
 =======================================================================
   * Total *   -0.00010     51.99213    43.84666    0.16131    96.00010

                                 Natural Population      
 --------------------------------------------------------
   Core                      51.99213 ( 99.9849% of  52)
   Valence                   43.84666 ( 99.6515% of  44)
   Natural Minimal Basis     95.83879 ( 99.8321% of  96)
   Natural Rydberg Basis      0.16131 (  0.1680% of  96)
 --------------------------------------------------------

    Atom  No          Natural Electron Configuration
 ----------------------------------------------------------------------------
     Br    1      [core]4S( 1.94)4p( 5.71)4d( 0.01)
     Mg    2      [core]3S( 1.12)3p( 0.24)4S( 0.02)3d( 0.01)
      C    3      [core]2S( 1.19)2p( 3.24)3S( 0.01)3p( 0.02)
      C    4      [core]2S( 1.00)2p( 3.01)3p( 0.01)
      C    5      [core]2S( 0.99)2p( 3.25)3p( 0.01)
      C    6      [core]2S( 0.98)2p( 3.19)3p( 0.01)
      C    7      [core]2S( 0.92)2p( 2.92)3p( 0.01)
      C    8      [core]2S( 0.97)2p( 3.27)3p( 0.01)
      C    9      [core]2S( 1.11)2p( 3.60)
      H   10            1S( 0.76)
      H   11            1S( 0.75)
      H   12            1S( 0.75)
      H   13            1S( 0.76)
      H   14            1S( 0.73)
      H   15            1S( 0.73)
      H   16            1S( 0.74)


 NBO analysis skipped by request.
 Leave Link  607 at Sun Oct  3 15:27:16 2021, MaxMem=  536870912 cpu:       6.8
 (Enter /sw/target/amd/app/gaussian/Gaussian09RevA.02_gcc-4.9.2/g09/l9999.exe)
 1\1\GINC-HERMITE\SP\RTD-B3LYP-FC\6-31G(d)\C7H7Br1Mg1\JSCHLEINITZ\03-Oc
 t-2021\0\\#p TD(NStates=10, Root=1) b3lyp/6-31G* volume pop=NPA densit
 y=current Geom=AllCheck Guess=Read\\Br[Mg]c1ccccc1C_conf_0\\0,1\Br,0,1
 .3513956313,0.2287287247,0.1280634569\Mg,0,3.6787339118,0.0528251934,0
 .0848714773\C,0,5.7446523647,-0.1054274883,0.0464128234\C,0,6.57546114
 09,1.0212306181,0.2050441631\C,0,7.9682337381,0.9080825853,0.179034752
 \C,0,8.5651823689,-0.3369729703,-0.0066533434\C,0,7.7814386557,-1.4876
 713663,-0.1692127034\C,0,6.3878214096,-1.3474880585,-0.1392050868\C,0,
 8.4301579129,-2.8383367262,-0.3709368652\H,0,6.1450819573,2.011624882,
 0.3523955117\H,0,8.5890634854,1.7925735431,0.3038319551\H,0,9.65038234
 29,-0.419491032,-0.0260532873\H,0,5.7948911566,-2.2543464256,-0.267484
 8273\H,0,9.0754916563,-3.1040874258,0.4757989728\H,0,9.0598316812,-2.8
 509201595,-1.2695079642\H,0,7.6812394131,-3.6295179494,-0.4790289897\\
 Version=AM64L-G09RevA.02\State=1-A\HF=-3042.8340914\RMSD=4.348e-09\Dip
 ole=5.7765687,-0.8887342,-0.1719945\Quadrupole=0.553691,4.063407,-4.61
 7098,-1.2259102,-0.2163717,1.3041653\PG=C01 [X(C7H7Br1Mg1)]\\@


 Boundary, n.  In political geography, an imaginary
 line between two nations, separating the imaginary
 rights of one from the imaginary rights of another.
                               -- Ambrose Bierce
 Job cpu time:  0 days  0 hours 32 minutes 21.5 seconds.
 File lengths (MBytes):  RWF=     69 Int=      0 D2E=      0 Chk=     12 Scr=      1
 Normal termination of Gaussian 09 at Sun Oct  3 15:27:27 2021.
