 Entering Gaussian System, Link 0=g09
 Input=C7H7ClMg_50b3_conf_0.com
 Output=C7H7ClMg_50b3_conf_0.log
 Initial command:
 /sw/target/amd/app/gaussian/Gaussian09RevA.02_gcc-4.9.2/g09/l1.exe /home/jschleinitz/gaussian/Gau-3543089.inp -scrdir=/home/jschleinitz/gaussian/
 Entering Link 1 = /sw/target/amd/app/gaussian/Gaussian09RevA.02_gcc-4.9.2/g09/l1.exe PID=   3543091.
  
 Copyright (c) 1988,1990,1992,1993,1995,1998,2003,2009, Gaussian, Inc.
                  All Rights Reserved.
  
 This is part of the Gaussian(R) 09 program.  It is based on
 the Gaussian(R) 03 system (copyright 2003, Gaussian, Inc.),
 the Gaussian(R) 98 system (copyright 1998, Gaussian, Inc.),
 the Gaussian(R) 94 system (copyright 1995, Gaussian, Inc.),
 the Gaussian 92(TM) system (copyright 1992, Gaussian, Inc.),
 the Gaussian 90(TM) system (copyright 1990, Gaussian, Inc.),
 the Gaussian 88(TM) system (copyright 1988, Gaussian, Inc.),
 the Gaussian 86(TM) system (copyright 1986, Carnegie Mellon
 University), and the Gaussian 82(TM) system (copyright 1983,
 Carnegie Mellon University). Gaussian is a federally registered
 trademark of Gaussian, Inc.
  
 This software contains proprietary and confidential information,
 including trade secrets, belonging to Gaussian, Inc.
  
 This software is provided under written license and may be
 used, copied, transmitted, or stored only in accord with that
 written license.
  
 The following legend is applicable only to US Government
 contracts under FAR:
  
                    RESTRICTED RIGHTS LEGEND
  
 Use, reproduction and disclosure by the US Government is
 subject to restrictions as set forth in subparagraphs (a)
 and (c) of the Commercial Computer Software - Restricted
 Rights clause in FAR 52.227-19.
  
 Gaussian, Inc.
 340 Quinnipiac St., Bldg. 40, Wallingford CT 06492
  
  
 ---------------------------------------------------------------
 Warning -- This program may not be used in any manner that
 competes with the business of Gaussian, Inc. or will provide
 assistance to any competitor of Gaussian, Inc.  The licensee
 of this program is prohibited from giving any competitor of
 Gaussian, Inc. access to this program.  By using this program,
 the user acknowledges that Gaussian, Inc. is engaged in the
 business of creating and licensing software in the field of
 computational chemistry and represents and warrants to the
 licensee that it is not a competitor of Gaussian, Inc. and that
 it will not use this program in any manner prohibited above.
 ---------------------------------------------------------------
  

 Cite this work as:
 Gaussian 09, Revision A.02,
 M. J. Frisch, G. W. Trucks, H. B. Schlegel, G. E. Scuseria, 
 M. A. Robb, J. R. Cheeseman, G. Scalmani, V. Barone, B. Mennucci, 
 G. A. Petersson, H. Nakatsuji, M. Caricato, X. Li, H. P. Hratchian, 
 A. F. Izmaylov, J. Bloino, G. Zheng, J. L. Sonnenberg, M. Hada, 
 M. Ehara, K. Toyota, R. Fukuda, J. Hasegawa, M. Ishida, T. Nakajima, 
 Y. Honda, O. Kitao, H. Nakai, T. Vreven, J. A. Montgomery, Jr., 
 J. E. Peralta, F. Ogliaro, M. Bearpark, J. J. Heyd, E. Brothers, 
 K. N. Kudin, V. N. Staroverov, R. Kobayashi, J. Normand, 
 K. Raghavachari, A. Rendell, J. C. Burant, S. S. Iyengar, J. Tomasi, 
 M. Cossi, N. Rega, J. M. Millam, M. Klene, J. E. Knox, J. B. Cross, 
 V. Bakken, C. Adamo, J. Jaramillo, R. Gomperts, R. E. Stratmann, 
 O. Yazyev, A. J. Austin, R. Cammi, C. Pomelli, J. W. Ochterski, 
 R. L. Martin, K. Morokuma, V. G. Zakrzewski, G. A. Voth, 
 P. Salvador, J. J. Dannenberg, S. Dapprich, A. D. Daniels, 
 O. Farkas, J. B. Foresman, J. V. Ortiz, J. Cioslowski, 
 and D. J. Fox, Gaussian, Inc., Wallingford CT, 2009.
 
 ******************************************
 Gaussian 09:  AM64L-G09RevA.02 11-Jun-2009
                 3-Oct-2021 
 ******************************************
 %nproc=2
 Will use up to    2 processors via shared memory.
 %mem=4gb
 %chk=C7H7ClMg_50b3_conf_0.chk
 -----------------------------------
 #p opt b3lyp/6-31G* scf=(xqc,tight)
 -----------------------------------
 1/14=-1,18=20,19=15,26=3,38=1/1,3;
 2/9=110,12=2,17=6,18=5,40=1/2;
 3/5=1,6=6,7=1,11=2,16=1,25=1,30=1,71=1,74=-5/1,2,3;
 4//1;
 5/5=2,8=3,13=1,32=2,38=5/2,8;
 6/7=2,8=2,9=2,10=2,28=1/1;
 7//1,2,3,16;
 1/14=-1,18=20,19=15/3(2);
 2/9=110/2;
 99//99;
 2/9=110/2;
 3/5=1,6=6,7=1,11=2,16=1,25=1,30=1,71=1,74=-5/1,2,3;
 4/5=5,16=3/1;
 5/5=2,8=3,13=1,32=2,38=5/2,8;
 7//1,2,3,16;
 1/14=-1,18=20,19=15/3(-5);
 2/9=110/2;
 6/7=2,8=2,9=2,10=2,19=2,28=1/1;
 99/9=1/99;
 Leave Link    1 at Sun Oct  3 06:55:53 2021, MaxMem=  536870912 cpu:       0.1
 (Enter /sw/target/amd/app/gaussian/Gaussian09RevA.02_gcc-4.9.2/g09/l101.exe)
 ------------------------
 Cl[Mg]c1ccc(cc1)C_conf_0
 ------------------------
 Symbolic Z-matrix:
 Charge =  0 Multiplicity = 1
 Cl                    0.93358   0.02622  -0.07001 
 Mg                    3.36358   0.02622  -0.07001 
 C                     5.53358   0.02622  -0.07001 
 C                     6.22174   1.24119  -0.09234 
 C                     7.62007   1.25524  -0.1197 
 C                     8.33769   0.04724  -0.1262 
 C                     7.6386   -1.17035  -0.10013 
 C                     6.24004  -1.17864  -0.07272 
 C                     9.83723   0.0449   -0.16567 
 H                     5.66882   2.17096  -0.09473 
 H                     8.13891   2.20559  -0.14075 
 H                     8.1768   -2.11034  -0.10588 
 H                     5.70177  -2.11689  -0.0601 
 H                     10.24585   1.07766  -0.18644 
 H                     10.18417  -0.48753  -1.07604 
 H                     10.23421  -0.47321   0.73254 
 
 NAtoms=     16 NQM=     16 NQMF=      0 NMic=      0 NMicF=      0 NTot=     16.
                    Isotopes and Nuclear Properties:
 (Nuclear quadrupole moments (NQMom) in fm**2, nuclear magnetic moments (NMagM)
  in nuclear magnetons)

  Atom         1           2           3           4           5           6           7           8           9          10
 IAtWgt=          35          24          12          12          12          12          12          12          12           1
 AtmWgt=  34.9688527  23.9850450  12.0000000  12.0000000  12.0000000  12.0000000  12.0000000  12.0000000  12.0000000   1.0078250
 NucSpn=           3           0           0           0           0           0           0           0           0           1
 AtZEff=   0.0000000   0.0000000   0.0000000   0.0000000   0.0000000   0.0000000   0.0000000   0.0000000   0.0000000   0.0000000
 NQMom=   -8.1650000   0.0000000   0.0000000   0.0000000   0.0000000   0.0000000   0.0000000   0.0000000   0.0000000   0.0000000
 NMagM=    0.8218740   0.0000000   0.0000000   0.0000000   0.0000000   0.0000000   0.0000000   0.0000000   0.0000000   2.7928460

  Atom        11          12          13          14          15          16
 IAtWgt=           1           1           1           1           1           1
 AtmWgt=   1.0078250   1.0078250   1.0078250   1.0078250   1.0078250   1.0078250
 NucSpn=           1           1           1           1           1           1
 AtZEff=   0.0000000   0.0000000   0.0000000   0.0000000   0.0000000   0.0000000
 NQMom=    0.0000000   0.0000000   0.0000000   0.0000000   0.0000000   0.0000000
 NMagM=    2.7928460   2.7928460   2.7928460   2.7928460   2.7928460   2.7928460
 Leave Link  101 at Sun Oct  3 06:55:54 2021, MaxMem=  536870912 cpu:       0.2
 (Enter /sw/target/amd/app/gaussian/Gaussian09RevA.02_gcc-4.9.2/g09/l103.exe)

 GradGradGradGradGradGradGradGradGradGradGradGradGradGradGradGradGradGrad
 Berny optimization.
 Initialization pass.
                           ----------------------------
                           !    Initial Parameters    !
                           ! (Angstroms and Degrees)  !
 --------------------------                            --------------------------
 ! Name  Definition              Value          Derivative Info.                !
 --------------------------------------------------------------------------------
 ! R1    R(1,2)                  2.43           estimate D2E/DX2                !
 ! R2    R(2,3)                  2.17           estimate D2E/DX2                !
 ! R3    R(3,4)                  1.3965         estimate D2E/DX2                !
 ! R4    R(3,8)                  1.3967         estimate D2E/DX2                !
 ! R5    R(4,5)                  1.3987         estimate D2E/DX2                !
 ! R6    R(4,10)                 1.0818         estimate D2E/DX2                !
 ! R7    R(5,6)                  1.4051         estimate D2E/DX2                !
 ! R8    R(5,11)                 1.083          estimate D2E/DX2                !
 ! R9    R(6,7)                  1.4042         estimate D2E/DX2                !
 ! R10   R(6,9)                  1.5001         estimate D2E/DX2                !
 ! R11   R(7,8)                  1.3989         estimate D2E/DX2                !
 ! R12   R(7,12)                 1.0832         estimate D2E/DX2                !
 ! R13   R(8,13)                 1.0818         estimate D2E/DX2                !
 ! R14   R(9,14)                 1.1109         estimate D2E/DX2                !
 ! R15   R(9,15)                 1.1102         estimate D2E/DX2                !
 ! R16   R(9,16)                 1.1103         estimate D2E/DX2                !
 ! A1    A(2,3,4)              119.5231         estimate D2E/DX2                !
 ! A2    A(2,3,8)              120.385          estimate D2E/DX2                !
 ! A3    A(4,3,8)              120.0813         estimate D2E/DX2                !
 ! A4    A(3,4,5)              120.1131         estimate D2E/DX2                !
 ! A5    A(3,4,10)             119.7313         estimate D2E/DX2                !
 ! A6    A(5,4,10)             120.1544         estimate D2E/DX2                !
 ! A7    A(4,5,6)              120.1361         estimate D2E/DX2                !
 ! A8    A(4,5,11)             119.2204         estimate D2E/DX2                !
 ! A9    A(6,5,11)             120.6428         estimate D2E/DX2                !
 ! A10   A(5,6,7)              119.413          estimate D2E/DX2                !
 ! A11   A(5,6,9)              120.7978         estimate D2E/DX2                !
 ! A12   A(7,6,9)              119.7887         estimate D2E/DX2                !
 ! A13   A(6,7,8)              120.2148         estimate D2E/DX2                !
 ! A14   A(6,7,12)             120.3308         estimate D2E/DX2                !
 ! A15   A(8,7,12)             119.4538         estimate D2E/DX2                !
 ! A16   A(3,8,7)              120.0412         estimate D2E/DX2                !
 ! A17   A(3,8,13)             119.768          estimate D2E/DX2                !
 ! A18   A(7,8,13)             120.1895         estimate D2E/DX2                !
 ! A19   A(6,9,14)             111.5158         estimate D2E/DX2                !
 ! A20   A(6,9,15)             109.5547         estimate D2E/DX2                !
 ! A21   A(6,9,16)             109.6854         estimate D2E/DX2                !
 ! A22   A(14,9,15)            108.395          estimate D2E/DX2                !
 ! A23   A(14,9,16)            108.5077         estimate D2E/DX2                !
 ! A24   A(15,9,16)            109.1374         estimate D2E/DX2                !
 ! A25   L(1,2,3,4,-1)         180.0            estimate D2E/DX2                !
 ! A26   L(1,2,3,4,-2)         180.0            estimate D2E/DX2                !
 ! D1    D(2,3,4,5)           -178.7165         estimate D2E/DX2                !
 ! D2    D(2,3,4,10)             0.8971         estimate D2E/DX2                !
 ! D3    D(8,3,4,5)              0.1047         estimate D2E/DX2                !
 ! D4    D(8,3,4,10)           179.7183         estimate D2E/DX2                !
 ! D5    D(2,3,8,7)            178.702          estimate D2E/DX2                !
 ! D6    D(2,3,8,13)            -0.8993         estimate D2E/DX2                !
 ! D7    D(4,3,8,7)             -0.109          estimate D2E/DX2                !
 ! D8    D(4,3,8,13)          -179.7103         estimate D2E/DX2                !
 ! D9    D(3,4,5,6)              0.0648         estimate D2E/DX2                !
 ! D10   D(3,4,5,11)           179.7601         estimate D2E/DX2                !
 ! D11   D(10,4,5,6)          -179.5471         estimate D2E/DX2                !
 ! D12   D(10,4,5,11)            0.1482         estimate D2E/DX2                !
 ! D13   D(4,5,6,7)             -0.2279         estimate D2E/DX2                !
 ! D14   D(4,5,6,9)            179.545          estimate D2E/DX2                !
 ! D15   D(11,5,6,7)          -179.9188         estimate D2E/DX2                !
 ! D16   D(11,5,6,9)            -0.1459         estimate D2E/DX2                !
 ! D17   D(5,6,7,8)              0.2237         estimate D2E/DX2                !
 ! D18   D(5,6,7,12)           179.9292         estimate D2E/DX2                !
 ! D19   D(9,6,7,8)           -179.5516         estimate D2E/DX2                !
 ! D20   D(9,6,7,12)             0.154          estimate D2E/DX2                !
 ! D21   D(5,6,9,14)             0.0328         estimate D2E/DX2                !
 ! D22   D(5,6,9,15)          -119.9666         estimate D2E/DX2                !
 ! D23   D(5,6,9,16)           120.2599         estimate D2E/DX2                !
 ! D24   D(7,6,9,14)           179.8049         estimate D2E/DX2                !
 ! D25   D(7,6,9,15)            59.8054         estimate D2E/DX2                !
 ! D26   D(7,6,9,16)           -59.968          estimate D2E/DX2                !
 ! D27   D(6,7,8,3)             -0.0562         estimate D2E/DX2                !
 ! D28   D(6,7,8,13)           179.5433         estimate D2E/DX2                !
 ! D29   D(12,7,8,3)          -179.7643         estimate D2E/DX2                !
 ! D30   D(12,7,8,13)           -0.1648         estimate D2E/DX2                !
 --------------------------------------------------------------------------------
 Trust Radius=3.00D-01 FncErr=1.00D-07 GrdErr=1.00D-06
 Number of steps in this run=  82 maximum allowed number of steps= 100.
 GradGradGradGradGradGradGradGradGradGradGradGradGradGradGradGradGradGrad

 Leave Link  103 at Sun Oct  3 06:55:54 2021, MaxMem=  536870912 cpu:       0.0
 (Enter /sw/target/amd/app/gaussian/Gaussian09RevA.02_gcc-4.9.2/g09/l202.exe)
                          Input orientation:                          
 ---------------------------------------------------------------------
 Center     Atomic      Atomic             Coordinates (Angstroms)
 Number     Number       Type             X           Y           Z
 ---------------------------------------------------------------------
      1         17           0        0.933577    0.026217   -0.070005
      2         12           0        3.363577    0.026217   -0.070005
      3          6           0        5.533577    0.026217   -0.070005
      4          6           0        6.221742    1.241192   -0.092341
      5          6           0        7.620073    1.255243   -0.119704
      6          6           0        8.337693    0.047236   -0.126200
      7          6           0        7.638601   -1.170346   -0.100135
      8          6           0        6.240043   -1.178644   -0.072722
      9          6           0        9.837230    0.044897   -0.165669
     10          1           0        5.668819    2.170961   -0.094726
     11          1           0        8.138906    2.205590   -0.140754
     12          1           0        8.176799   -2.110339   -0.105881
     13          1           0        5.701766   -2.116892   -0.060100
     14          1           0       10.245850    1.077658   -0.186444
     15          1           0       10.184168   -0.487528   -1.076038
     16          1           0       10.234211   -0.473205    0.732544
 ---------------------------------------------------------------------
                    Distance matrix (angstroms):
                    1          2          3          4          5
     1  Cl   0.000000
     2  Mg   2.430000   0.000000
     3  C    4.600000   2.170000   0.000000
     4  C    5.425988   3.105764   1.396508   0.000000
     5  C    6.798691   4.430658   2.422074   1.398670   0.000000
     6  C    7.404358   4.974477   2.804757   2.429799   1.405098
     7  C    6.811022   4.439426   2.421527   2.796974   2.425738
     8  C    5.441532   3.118613   1.396706   2.419984   2.798302
     9  C    8.904186   6.474386   4.304756   3.808970   2.526427
    10  H    5.198371   3.148758   2.149146   1.081757   2.155587
    11  H    7.528043   5.249613   3.397413   2.146608   1.082954
    12  H    7.551849   5.266238   3.398938   3.880103   3.411346
    13  H    5.227679   3.171772   2.149720   3.398255   3.880045
    14  H    9.372166   6.963100   4.829554   4.028529   2.632621
    15  H    9.319306   6.913501   4.785815   4.433616   3.244442
    16  H    9.348546   6.935353   4.794733   4.440665   3.247704
                    6          7          8          9         10
     6  C    0.000000
     7  C    1.404249   0.000000
     8  C    2.430180   1.398852   0.000000
     9  C    1.500059   2.512982   3.800716   0.000000
    10  H    3.410877   3.878711   3.398033   4.679832   0.000000
    11  H    2.167537   3.413048   3.881153   2.748366   2.470758
    12  H    2.163662   1.083180   2.149461   2.721332   4.961816
    13  H    3.411148   2.156127   1.081763   4.667605   4.288119
    14  H    2.169438   3.443648   4.598947   1.110854   4.706690
    15  H    2.144210   2.810433   4.128003   1.110231   5.330939
    16  H    2.145946   2.813637   4.135152   1.110320   5.340299
                   11         12         13         14         15
    11  H    0.000000
    12  H    4.316236   0.000000
    13  H    4.962863   2.475466   0.000000
    14  H    2.390299   3.801419   5.556060   0.000000
    15  H    3.508666   2.757580   4.876360   1.801385   0.000000
    16  H    3.511253   2.759730   4.886006   1.802734   1.809331
                   16
    16  H    0.000000
 Stoichiometry    C7H7ClMg
 Framework group  C1[X(C7H7ClMg)]
 Deg. of freedom    42
 Full point group                 C1      NOp   1
 Largest Abelian subgroup         C1      NOp   1
 Largest concise Abelian subgroup C1      NOp   1
                         Standard orientation:                         
 ---------------------------------------------------------------------
 Center     Atomic      Atomic             Coordinates (Angstroms)
 Number     Number       Type             X           Y           Z
 ---------------------------------------------------------------------
      1         17           0        4.491576    0.001382    0.015520
      2         12           0        2.061682   -0.003477   -0.006589
      3          6           0       -0.108224   -0.007816   -0.026332
      4          6           0       -0.798900    1.205924   -0.020288
      5          6           0       -2.197447    1.217404   -0.005766
      6          6           0       -2.912770    0.008060    0.004173
      7          6           0       -2.211129   -1.208296   -0.005478
      8          6           0       -0.812365   -1.214023   -0.020096
      9          6           0       -4.412598    0.003047    0.030016
     10          1           0       -0.247813    2.136785   -0.020550
     11          1           0       -2.718279    2.166853    0.002716
     12          1           0       -2.747547   -2.149284    0.003132
     13          1           0       -0.272191   -2.151265   -0.020074
     14          1           0       -4.823376    1.035125    0.038545
     15          1           0       -4.766794   -0.522553    0.941555
     16          1           0       -4.800379   -0.523229   -0.867464
 ---------------------------------------------------------------------
 Rotational constants (GHZ):      5.4682055      0.3722432      0.3493339
 Leave Link  202 at Sun Oct  3 06:55:54 2021, MaxMem=  536870912 cpu:       0.0
 (Enter /sw/target/amd/app/gaussian/Gaussian09RevA.02_gcc-4.9.2/g09/l301.exe)
 Standard basis: 6-31G(d) (6D, 7F)
 Ernie: Thresh=  0.10000D-02 Tol=  0.10000D-05 Strict=F.
 There are   157 symmetry adapted basis functions of A   symmetry.
 Integral buffers will be    131072 words long.
 Raffenetti 2 integral format.
 Two-electron integral symmetry is turned on.
   157 basis functions,   328 primitive gaussians,   157 cartesian basis functions
    39 alpha electrons       39 beta electrons
       nuclear repulsion energy       454.5131695143 Hartrees.
 IExCor=  402 DFT=T Ex+Corr=B3LYP ExCW=0 ScaHFX=  0.200000
 ScaDFX=  0.800000  0.720000  1.000000  0.810000 ScalE2=  1.000000  1.000000
 IRadAn=      0 IRanWt=     -1 IRanGd=            0 ICorTp=0
 NAtoms=   16 NActive=   16 NUniq=   16 SFac= 7.50D-01 NAtFMM=   80 NAOKFM=F Big=F
 Leave Link  301 at Sun Oct  3 06:55:55 2021, MaxMem=  536870912 cpu:       0.1
 (Enter /sw/target/amd/app/gaussian/Gaussian09RevA.02_gcc-4.9.2/g09/l302.exe)
 NPDir=0 NMtPBC=     1 NCelOv=     1 NCel=       1 NClECP=     1 NCelD=      1
         NCelK=      1 NCelE2=     1 NClLst=     1 CellRange=     0.0.
 One-electron integrals computed using PRISM.
 NBasis=   157 RedAO= T  NBF=   157
 NBsUse=   157 1.00D-06 NBFU=   157
 Precomputing XC quadrature grid using
 IXCGrd= 2 IRadAn=           0 IRanWt=          -1 IRanGd=           0 AccXCQ= 1.00D-10.
 NRdTot=    1021 NPtTot=      129832 NUsed=      137200 NTot=      137232
 NSgBfM=   155   155   155   155   155 NAtAll=    16    16.
 Leave Link  302 at Sun Oct  3 06:55:58 2021, MaxMem=  536870912 cpu:       0.8
 (Enter /sw/target/amd/app/gaussian/Gaussian09RevA.02_gcc-4.9.2/g09/l303.exe)
 DipDrv:  MaxL=1.
 Leave Link  303 at Sun Oct  3 06:55:59 2021, MaxMem=  536870912 cpu:       0.1
 (Enter /sw/target/amd/app/gaussian/Gaussian09RevA.02_gcc-4.9.2/g09/l401.exe)
 Harris functional with IExCor=  402 diagonalized for initial guess.
 ExpMin= 4.21D-02 ExpMax= 2.52D+04 ExpMxC= 3.78D+03 IAcc=2 IRadAn=         0 AccDes= 0.00D+00
 HarFok:  IExCor=  402 AccDes= 0.00D+00 IRadAn=         0 IDoV= 1
 ScaDFX=  1.000000  1.000000  1.000000  1.000000
 FoFCou: FMM=F IPFlag=           0 FMFlag=      100000 FMFlg1=           0
         NFxFlg=           0 DoJE=T BraDBF=F KetDBF=T FulRan=T
         Omega=  0.000000  0.000000  1.000000  0.000000  0.000000 ICntrl=     500 IOpCl=  0
         NMat0=    1 NMatS0=    1 NMatT0=    0 NMatD0=    1 NMtDS0=    0 NMtDT0=    0
         I1Cent=           4 NGrid=           0.
 Petite list used in FoFCou.
 Harris En= -931.402379813706    
 Initial guess orbital symmetries:
       Occupied  (A) (A) (A) (A) (A) (A) (A) (A) (A) (A) (A) (A)
                 (A) (A) (A) (A) (A) (A) (A) (A) (A) (A) (A) (A)
                 (A) (A) (A) (A) (A) (A) (A) (A) (A) (A) (A) (A)
                 (A) (A) (A)
       Virtual   (A) (A) (A) (A) (A) (A) (A) (A) (A) (A) (A) (A)
                 (A) (A) (A) (A) (A) (A) (A) (A) (A) (A) (A) (A)
                 (A) (A) (A) (A) (A) (A) (A) (A) (A) (A) (A) (A)
                 (A) (A) (A) (A) (A) (A) (A) (A) (A) (A) (A) (A)
                 (A) (A) (A) (A) (A) (A) (A) (A) (A) (A) (A) (A)
                 (A) (A) (A) (A) (A) (A) (A) (A) (A) (A) (A) (A)
                 (A) (A) (A) (A) (A) (A) (A) (A) (A) (A) (A) (A)
                 (A) (A) (A) (A) (A) (A) (A) (A) (A) (A) (A) (A)
                 (A) (A) (A) (A) (A) (A) (A) (A) (A) (A) (A) (A)
                 (A) (A) (A) (A) (A) (A) (A) (A) (A) (A)
 The electronic state of the initial guess is 1-A.
 Leave Link  401 at Sun Oct  3 06:56:26 2021, MaxMem=  536870912 cpu:       8.1
 (Enter /sw/target/amd/app/gaussian/Gaussian09RevA.02_gcc-4.9.2/g09/l502.exe)
 Closed shell SCF:
 Requested convergence on RMS density matrix=1.00D-08 within  64 cycles.
 Requested convergence on MAX density matrix=1.00D-06.
 Requested convergence on             energy=1.00D-06.
 No special actions if energy rises.
 Using DIIS extrapolation, IDIIS=  1040.
 Integral symmetry usage will be decided dynamically.
       137043 words used for storage of precomputed grid.
 Keep R1 ints in memory in canonical form, NReq=79114150.
 IEnd=      218653 IEndB=      218653 NGot=   536870912 MDV=   459757856
 LenX=   459757856 LenY=   459732766
 Symmetry not used in FoFDir.
 MinBra= 0 MaxBra= 2 Meth= 1.
 IRaf=       0 NMat=   1 IRICut=       1 DoRegI=T DoRafI=F ISym2E= 0 JSym2E=0.

 Cycle   1  Pass 1  IDiag  1:
 E= -930.994800499273    
 DIIS: error= 5.15D-02 at cycle   1 NSaved=   1.
 NSaved= 1 IEnMin= 1 EnMin= -930.994800499273     IErMin= 1 ErrMin= 5.15D-02
 ErrMax= 5.15D-02 EMaxC= 1.00D-01 BMatC= 2.50D-01 BMatP= 2.50D-01
 IDIUse=3 WtCom= 4.85D-01 WtEn= 5.15D-01
 Coeff-Com:  0.100D+01
 Coeff-En:   0.100D+01
 Coeff:      0.100D+01
 Gap=     0.231 Goal=   None    Shift=    0.000
 GapD=    0.231 DampG=1.000 DampE=0.500 DampFc=0.5000 IDamp=-1.
 Damping current iteration by 5.00D-01
 RMSDP=9.92D-03 MaxDP=5.63D-01              OVMax= 5.48D-01

 Cycle   2  Pass 1  IDiag  1:
 E= -931.054087108237     Delta-E=       -0.059286608964 Rises=F Damp=T
 DIIS: error= 1.25D-02 at cycle   2 NSaved=   2.
 NSaved= 2 IEnMin= 2 EnMin= -931.054087108237     IErMin= 2 ErrMin= 1.25D-02
 ErrMax= 1.25D-02 EMaxC= 1.00D-01 BMatC= 3.36D-02 BMatP= 2.50D-01
 IDIUse=3 WtCom= 8.75D-01 WtEn= 1.25D-01
 Coeff-Com:  0.193D+00 0.807D+00
 Coeff-En:   0.399D+00 0.601D+00
 Coeff:      0.219D+00 0.781D+00
 Gap=     0.224 Goal=   None    Shift=    0.000
 RMSDP=3.24D-03 MaxDP=1.69D-01 DE=-5.93D-02 OVMax= 3.71D-01

 Cycle   3  Pass 1  IDiag  1:
 E= -931.275913823638     Delta-E=       -0.221826715401 Rises=F Damp=F
 DIIS: error= 1.49D-02 at cycle   3 NSaved=   3.
 NSaved= 3 IEnMin= 3 EnMin= -931.275913823638     IErMin= 2 ErrMin= 1.25D-02
 ErrMax= 1.49D-02 EMaxC= 1.00D-01 BMatC= 2.49D-02 BMatP= 3.36D-02
 IDIUse=3 WtCom= 8.51D-01 WtEn= 1.49D-01
 Coeff-Com:  0.396D-01 0.460D+00 0.501D+00
 Coeff-En:   0.000D+00 0.000D+00 0.100D+01
 Coeff:      0.337D-01 0.391D+00 0.575D+00
 Gap=     0.222 Goal=   None    Shift=    0.000
 RMSDP=1.62D-03 MaxDP=4.48D-02 DE=-2.22D-01 OVMax= 9.22D-02

 Cycle   4  Pass 1  IDiag  1:
 E= -931.295786602208     Delta-E=       -0.019872778569 Rises=F Damp=F
 DIIS: error= 1.02D-02 at cycle   4 NSaved=   4.
 NSaved= 4 IEnMin= 4 EnMin= -931.295786602208     IErMin= 4 ErrMin= 1.02D-02
 ErrMax= 1.02D-02 EMaxC= 1.00D-01 BMatC= 8.07D-03 BMatP= 2.49D-02
 IDIUse=3 WtCom= 8.98D-01 WtEn= 1.02D-01
 Coeff-Com: -0.210D-01 0.119D+00 0.371D+00 0.531D+00
 Coeff-En:   0.000D+00 0.000D+00 0.269D+00 0.731D+00
 Coeff:     -0.189D-01 0.107D+00 0.361D+00 0.552D+00
 Gap=     0.175 Goal=   None    Shift=    0.000
 RMSDP=8.48D-04 MaxDP=1.87D-02 DE=-1.99D-02 OVMax= 5.00D-02

 Cycle   5  Pass 1  IDiag  1:
 E= -931.304399832484     Delta-E=       -0.008613230277 Rises=F Damp=F
 DIIS: error= 3.19D-03 at cycle   5 NSaved=   5.
 NSaved= 5 IEnMin= 5 EnMin= -931.304399832484     IErMin= 5 ErrMin= 3.19D-03
 ErrMax= 3.19D-03 EMaxC= 1.00D-01 BMatC= 7.48D-04 BMatP= 8.07D-03
 IDIUse=3 WtCom= 9.68D-01 WtEn= 3.19D-02
 Coeff-Com: -0.145D-01 0.427D-01 0.159D+00 0.319D+00 0.494D+00
 Coeff-En:   0.000D+00 0.000D+00 0.000D+00 0.525D-01 0.948D+00
 Coeff:     -0.140D-01 0.413D-01 0.154D+00 0.310D+00 0.509D+00
 Gap=     0.179 Goal=   None    Shift=    0.000
 RMSDP=2.31D-04 MaxDP=6.64D-03 DE=-8.61D-03 OVMax= 1.39D-02

 Cycle   6  Pass 1  IDiag  1:
 E= -931.305222810193     Delta-E=       -0.000822977709 Rises=F Damp=F
 DIIS: error= 4.20D-04 at cycle   6 NSaved=   6.
 NSaved= 6 IEnMin= 6 EnMin= -931.305222810193     IErMin= 6 ErrMin= 4.20D-04
 ErrMax= 4.20D-04 EMaxC= 1.00D-01 BMatC= 3.92D-05 BMatP= 7.48D-04
 IDIUse=3 WtCom= 9.96D-01 WtEn= 4.20D-03
 Coeff-Com: -0.371D-02 0.419D-02 0.167D-01 0.631D-01 0.235D+00 0.685D+00
 Coeff-En:   0.000D+00 0.000D+00 0.000D+00 0.000D+00 0.000D+00 0.100D+01
 Coeff:     -0.369D-02 0.417D-02 0.166D-01 0.629D-01 0.234D+00 0.686D+00
 Gap=     0.178 Goal=   None    Shift=    0.000
 RMSDP=4.77D-05 MaxDP=1.48D-03 DE=-8.23D-04 OVMax= 2.05D-03

 Cycle   7  Pass 1  IDiag  1:
 E= -931.305260687361     Delta-E=       -0.000037877168 Rises=F Damp=F
 DIIS: error= 1.51D-04 at cycle   7 NSaved=   7.
 NSaved= 7 IEnMin= 7 EnMin= -931.305260687361     IErMin= 7 ErrMin= 1.51D-04
 ErrMax= 1.51D-04 EMaxC= 1.00D-01 BMatC= 3.36D-06 BMatP= 3.92D-05
 IDIUse=3 WtCom= 9.98D-01 WtEn= 1.51D-03
 Coeff-Com: -0.611D-03-0.555D-03-0.137D-02 0.863D-02 0.846D-01 0.341D+00
 Coeff-Com:  0.568D+00
 Coeff-En:   0.000D+00 0.000D+00 0.000D+00 0.000D+00 0.000D+00 0.000D+00
 Coeff-En:   0.100D+01
 Coeff:     -0.611D-03-0.555D-03-0.136D-02 0.862D-02 0.845D-01 0.341D+00
 Coeff:      0.569D+00
 Gap=     0.178 Goal=   None    Shift=    0.000
 RMSDP=1.31D-05 MaxDP=3.26D-04 DE=-3.79D-05 OVMax= 6.05D-04

 Cycle   8  Pass 1  IDiag  1:
 E= -931.305263749917     Delta-E=       -0.000003062557 Rises=F Damp=F
 DIIS: error= 4.52D-05 at cycle   8 NSaved=   8.
 NSaved= 8 IEnMin= 8 EnMin= -931.305263749917     IErMin= 8 ErrMin= 4.52D-05
 ErrMax= 4.52D-05 EMaxC= 1.00D-01 BMatC= 2.97D-07 BMatP= 3.36D-06
 IDIUse=1 WtCom= 1.00D+00 WtEn= 0.00D+00
 Coeff-Com:  0.157D-03-0.665D-03-0.163D-02-0.270D-02 0.171D-01 0.901D-01
 Coeff-Com:  0.261D+00 0.636D+00
 Coeff:      0.157D-03-0.665D-03-0.163D-02-0.270D-02 0.171D-01 0.901D-01
 Coeff:      0.261D+00 0.636D+00
 Gap=     0.178 Goal=   None    Shift=    0.000
 RMSDP=4.11D-06 MaxDP=8.82D-05 DE=-3.06D-06 OVMax= 1.75D-04

 Cycle   9  Pass 1  IDiag  1:
 E= -931.305264078939     Delta-E=       -0.000000329022 Rises=F Damp=F
 DIIS: error= 6.95D-06 at cycle   9 NSaved=   9.
 NSaved= 9 IEnMin= 9 EnMin= -931.305264078939     IErMin= 9 ErrMin= 6.95D-06
 ErrMax= 6.95D-06 EMaxC= 1.00D-01 BMatC= 7.99D-09 BMatP= 2.97D-07
 IDIUse=1 WtCom= 1.00D+00 WtEn= 0.00D+00
 Coeff-Com:  0.646D-04-0.160D-03-0.423D-04-0.673D-03 0.165D-02 0.726D-02
 Coeff-Com:  0.284D-01 0.154D+00 0.810D+00
 Coeff:      0.646D-04-0.160D-03-0.423D-04-0.673D-03 0.165D-02 0.726D-02
 Coeff:      0.284D-01 0.154D+00 0.810D+00
 Gap=     0.178 Goal=   None    Shift=    0.000
 RMSDP=8.57D-07 MaxDP=4.15D-05 DE=-3.29D-07 OVMax= 3.60D-05

 Cycle  10  Pass 1  IDiag  1:
 E= -931.305264087220     Delta-E=       -0.000000008281 Rises=F Damp=F
 DIIS: error= 2.14D-06 at cycle  10 NSaved=  10.
 NSaved=10 IEnMin=10 EnMin= -931.305264087220     IErMin=10 ErrMin= 2.14D-06
 ErrMax= 2.14D-06 EMaxC= 1.00D-01 BMatC= 8.54D-10 BMatP= 7.99D-09
 IDIUse=1 WtCom= 1.00D+00 WtEn= 0.00D+00
 Coeff-Com:  0.248D-04-0.442D-04 0.645D-04-0.182D-03-0.119D-04-0.834D-03
 Coeff-Com: -0.444D-03 0.359D-01 0.350D+00 0.616D+00
 Coeff:      0.248D-04-0.442D-04 0.645D-04-0.182D-03-0.119D-04-0.834D-03
 Coeff:     -0.444D-03 0.359D-01 0.350D+00 0.616D+00
 Gap=     0.178 Goal=   None    Shift=    0.000
 RMSDP=3.18D-07 MaxDP=7.70D-06 DE=-8.28D-09 OVMax= 1.66D-05

 Cycle  11  Pass 1  IDiag  1:
 E= -931.305264087992     Delta-E=       -0.000000000772 Rises=F Damp=F
 DIIS: error= 1.63D-06 at cycle  11 NSaved=  11.
 NSaved=11 IEnMin=11 EnMin= -931.305264087992     IErMin=11 ErrMin= 1.63D-06
 ErrMax= 1.63D-06 EMaxC= 1.00D-01 BMatC= 2.38D-10 BMatP= 8.54D-10
 IDIUse=1 WtCom= 1.00D+00 WtEn= 0.00D+00
 Coeff-Com:  0.874D-05-0.160D-04 0.514D-04-0.342D-04-0.110D-03-0.108D-02
 Coeff-Com: -0.306D-02 0.750D-02 0.143D+00 0.390D+00 0.464D+00
 Coeff:      0.874D-05-0.160D-04 0.514D-04-0.342D-04-0.110D-03-0.108D-02
 Coeff:     -0.306D-02 0.750D-02 0.143D+00 0.390D+00 0.464D+00
 Gap=     0.178 Goal=   None    Shift=    0.000
 RMSDP=1.26D-07 MaxDP=2.62D-06 DE=-7.72D-10 OVMax= 8.06D-06

 Cycle  12  Pass 1  IDiag  1:
 E= -931.305264088268     Delta-E=       -0.000000000276 Rises=F Damp=F
 DIIS: error= 3.06D-07 at cycle  12 NSaved=  12.
 NSaved=12 IEnMin=12 EnMin= -931.305264088268     IErMin=12 ErrMin= 3.06D-07
 ErrMax= 3.06D-07 EMaxC= 1.00D-01 BMatC= 1.15D-11 BMatP= 2.38D-10
 IDIUse=1 WtCom= 1.00D+00 WtEn= 0.00D+00
 Coeff-Com:  0.154D-05-0.447D-05 0.210D-04 0.834D-05-0.484D-04-0.424D-03
 Coeff-Com: -0.153D-02-0.725D-03 0.294D-01 0.120D+00 0.226D+00 0.627D+00
 Coeff:      0.154D-05-0.447D-05 0.210D-04 0.834D-05-0.484D-04-0.424D-03
 Coeff:     -0.153D-02-0.725D-03 0.294D-01 0.120D+00 0.226D+00 0.627D+00
 Gap=     0.178 Goal=   None    Shift=    0.000
 RMSDP=3.22D-08 MaxDP=1.18D-06 DE=-2.76D-10 OVMax= 1.59D-06

 Cycle  13  Pass 1  IDiag  1:
 E= -931.305264088274     Delta-E=       -0.000000000006 Rises=F Damp=F
 DIIS: error= 9.28D-08 at cycle  13 NSaved=  13.
 NSaved=13 IEnMin=13 EnMin= -931.305264088274     IErMin=13 ErrMin= 9.28D-08
 ErrMax= 9.28D-08 EMaxC= 1.00D-01 BMatC= 1.31D-12 BMatP= 1.15D-11
 IDIUse=1 WtCom= 1.00D+00 WtEn= 0.00D+00
 Coeff-Com:  0.424D-06-0.512D-06 0.346D-05 0.203D-05-0.282D-04-0.119D-03
 Coeff-Com: -0.398D-03-0.113D-02-0.221D-02 0.134D-01 0.576D-01 0.310D+00
 Coeff-Com:  0.623D+00
 Coeff:      0.424D-06-0.512D-06 0.346D-05 0.203D-05-0.282D-04-0.119D-03
 Coeff:     -0.398D-03-0.113D-02-0.221D-02 0.134D-01 0.576D-01 0.310D+00
 Coeff:      0.623D+00
 Gap=     0.178 Goal=   None    Shift=    0.000
 RMSDP=1.07D-08 MaxDP=5.36D-07 DE=-6.14D-12 OVMax= 4.31D-07

 Cycle  14  Pass 1  IDiag  1:
 E= -931.305264088283     Delta-E=       -0.000000000009 Rises=F Damp=F
 DIIS: error= 9.51D-09 at cycle  14 NSaved=  14.
 NSaved=14 IEnMin=14 EnMin= -931.305264088283     IErMin=14 ErrMin= 9.51D-09
 ErrMax= 9.51D-09 EMaxC= 1.00D-01 BMatC= 1.88D-14 BMatP= 1.31D-12
 IDIUse=1 WtCom= 1.00D+00 WtEn= 0.00D+00
 Coeff-Com:  0.261D-07 0.852D-08 0.141D-06 0.943D-06-0.186D-05-0.757D-06
 Coeff-Com: -0.311D-05-0.224D-03-0.207D-02-0.252D-02 0.400D-02 0.508D-01
 Coeff-Com:  0.170D+00 0.780D+00
 Coeff:      0.261D-07 0.852D-08 0.141D-06 0.943D-06-0.186D-05-0.757D-06
 Coeff:     -0.311D-05-0.224D-03-0.207D-02-0.252D-02 0.400D-02 0.508D-01
 Coeff:      0.170D+00 0.780D+00
 Gap=     0.178 Goal=   None    Shift=    0.000
 RMSDP=1.30D-09 MaxDP=4.80D-08 DE=-9.09D-12 OVMax= 5.53D-08

 SCF Done:  E(RB3LYP) =  -931.305264088     A.U. after   14 cycles
             Convg  =    0.1302D-08             -V/T =  2.0055
 KE= 9.261706026286D+02 PE=-3.109081518710D+03 EE= 7.970924824788D+02
 Leave Link  502 at Sun Oct  3 07:02:25 2021, MaxMem=  536870912 cpu:      91.9
 (Enter /sw/target/amd/app/gaussian/Gaussian09RevA.02_gcc-4.9.2/g09/l508.exe)
 QCSCF skips out because SCF is already converged.
 Leave Link  508 at Sun Oct  3 07:02:26 2021, MaxMem=  536870912 cpu:       0.0
 (Enter /sw/target/amd/app/gaussian/Gaussian09RevA.02_gcc-4.9.2/g09/l601.exe)
 Copying SCF densities to generalized density rwf, IOpCl= 0 IROHF=0.

 **********************************************************************

            Population analysis using the SCF density.

 **********************************************************************

 Orbital symmetries:
       Occupied  (A) (A) (A) (A) (A) (A) (A) (A) (A) (A) (A) (A)
                 (A) (A) (A) (A) (A) (A) (A) (A) (A) (A) (A) (A)
                 (A) (A) (A) (A) (A) (A) (A) (A) (A) (A) (A) (A)
                 (A) (A) (A)
       Virtual   (A) (A) (A) (A) (A) (A) (A) (A) (A) (A) (A) (A)
                 (A) (A) (A) (A) (A) (A) (A) (A) (A) (A) (A) (A)
                 (A) (A) (A) (A) (A) (A) (A) (A) (A) (A) (A) (A)
                 (A) (A) (A) (A) (A) (A) (A) (A) (A) (A) (A) (A)
                 (A) (A) (A) (A) (A) (A) (A) (A) (A) (A) (A) (A)
                 (A) (A) (A) (A) (A) (A) (A) (A) (A) (A) (A) (A)
                 (A) (A) (A) (A) (A) (A) (A) (A) (A) (A) (A) (A)
                 (A) (A) (A) (A) (A) (A) (A) (A) (A) (A) (A) (A)
                 (A) (A) (A) (A) (A) (A) (A) (A) (A) (A) (A) (A)
                 (A) (A) (A) (A) (A) (A) (A) (A) (A) (A)
 The electronic state is 1-A.
 Alpha  occ. eigenvalues -- -101.49014 -46.86789 -10.20049 -10.19250 -10.19204
 Alpha  occ. eigenvalues --  -10.19025 -10.18910 -10.18883 -10.17922  -9.40494
 Alpha  occ. eigenvalues --   -7.16477  -7.16145  -7.16139  -3.15007  -1.89692
 Alpha  occ. eigenvalues --   -1.89632  -1.88901  -0.85190  -0.76632  -0.74715
 Alpha  occ. eigenvalues --   -0.74443  -0.67461  -0.60649  -0.57477  -0.49008
 Alpha  occ. eigenvalues --   -0.45753  -0.45221  -0.42404  -0.42314  -0.38388
 Alpha  occ. eigenvalues --   -0.37321  -0.35282  -0.34184  -0.32303  -0.28095
 Alpha  occ. eigenvalues --   -0.28067  -0.26009  -0.25133  -0.24107
 Alpha virt. eigenvalues --   -0.06285  -0.03034  -0.02289  -0.00464   0.01483
 Alpha virt. eigenvalues --    0.06659   0.10618   0.11593   0.12359   0.12850
 Alpha virt. eigenvalues --    0.13015   0.14891   0.16383   0.17150   0.18438
 Alpha virt. eigenvalues --    0.19063   0.19708   0.22495   0.26011   0.27112
 Alpha virt. eigenvalues --    0.27294   0.27840   0.31151   0.31811   0.34184
 Alpha virt. eigenvalues --    0.35291   0.37588   0.42307   0.50020   0.51738
 Alpha virt. eigenvalues --    0.51762   0.53165   0.53183   0.55297   0.55842
 Alpha virt. eigenvalues --    0.57598   0.57642   0.58325   0.60312   0.61079
 Alpha virt. eigenvalues --    0.63347   0.65454   0.66430   0.70167   0.70526
 Alpha virt. eigenvalues --    0.72403   0.73377   0.74635   0.77944   0.79711
 Alpha virt. eigenvalues --    0.84555   0.84869   0.87040   0.87471   0.88027
 Alpha virt. eigenvalues --    0.90367   0.92304   0.92451   0.92484   0.93438
 Alpha virt. eigenvalues --    0.96654   0.97371   0.98957   0.99611   1.02984
 Alpha virt. eigenvalues --    1.11102   1.16195   1.17545   1.20816   1.21871
 Alpha virt. eigenvalues --    1.25940   1.26229   1.37725   1.43154   1.44799
 Alpha virt. eigenvalues --    1.44868   1.48262   1.48971   1.51089   1.55837
 Alpha virt. eigenvalues --    1.78244   1.79706   1.81581   1.87455   1.90259
 Alpha virt. eigenvalues --    1.90821   1.94608   1.97879   2.05069   2.08467
 Alpha virt. eigenvalues --    2.12190   2.13534   2.16097   2.17823   2.24501
 Alpha virt. eigenvalues --    2.30426   2.31218   2.32473   2.32727   2.40744
 Alpha virt. eigenvalues --    2.57238   2.61261   2.65383   2.68560   2.74002
 Alpha virt. eigenvalues --    2.74717   2.81940   2.86937   3.06070   3.37146
 Alpha virt. eigenvalues --    4.09921   4.11412   4.15315   4.22945   4.31176
 Alpha virt. eigenvalues --    4.32924   4.40547   4.68701
          Condensed to atoms (all electrons):
              1          2          3          4          5          6
     1  Cl  17.088136   0.322040  -0.002291   0.000014  -0.000000  -0.000000
     2  Mg   0.322040  10.844492   0.361537  -0.031827   0.007039   0.000898
     3  C   -0.002291   0.361537   4.816314   0.528306  -0.034894  -0.032554
     4  C    0.000014  -0.031827   0.528306   4.969579   0.505184  -0.026032
     5  C   -0.000000   0.007039  -0.034894   0.505184   4.954086   0.566348
     6  C   -0.000000   0.000898  -0.032554  -0.026032   0.566348   4.624597
     7  C   -0.000000   0.006902  -0.033937  -0.050969  -0.027623   0.544017
     8  C    0.000007  -0.030968   0.526926  -0.035307  -0.049158  -0.020100
     9  C   -0.000000   0.000087   0.000416   0.007668  -0.055596   0.347806
    10  H   -0.000008  -0.014863  -0.053500   0.356222  -0.044253   0.003519
    11  H    0.000000  -0.000911   0.004766  -0.045031   0.347497  -0.041525
    12  H    0.000000  -0.000890   0.004874   0.000555   0.005566  -0.050800
    13  H   -0.000007  -0.014394  -0.051989   0.005884   0.000755   0.003147
    14  H    0.000000  -0.000015   0.000013   0.000190  -0.003080  -0.029942
    15  H    0.000000   0.000002   0.000037  -0.000210   0.000680  -0.029533
    16  H    0.000000   0.000004   0.000031  -0.000207   0.000720  -0.029375
              7          8          9         10         11         12
     1  Cl  -0.000000   0.000007  -0.000000  -0.000008   0.000000   0.000000
     2  Mg   0.006902  -0.030968   0.000087  -0.014863  -0.000911  -0.000890
     3  C   -0.033937   0.526926   0.000416  -0.053500   0.004766   0.004874
     4  C   -0.050969  -0.035307   0.007668   0.356222  -0.045031   0.000555
     5  C   -0.027623  -0.049158  -0.055596  -0.044253   0.347497   0.005566
     6  C    0.544017  -0.020100   0.347806   0.003519  -0.041525  -0.050800
     7  C    4.979634   0.509658  -0.073005   0.000814   0.006128   0.352807
     8  C    0.509658   4.959571   0.006368   0.005776   0.000495  -0.042744
     9  C   -0.073005   0.006368   5.224390  -0.000220  -0.010910  -0.008193
    10  H    0.000814   0.005776  -0.000220   0.632452  -0.003979   0.000026
    11  H    0.006128   0.000495  -0.010910  -0.003979   0.613550  -0.000143
    12  H    0.352807  -0.042744  -0.008193   0.000026  -0.000143   0.616235
    13  H   -0.045449   0.357309  -0.000203  -0.000151   0.000025  -0.004006
    14  H    0.003902  -0.000162   0.362516  -0.000005   0.007167   0.000043
    15  H   -0.003216  -0.000001   0.361877   0.000004   0.000141   0.002279
    16  H   -0.003151  -0.000005   0.361730   0.000003   0.000139   0.002265
             13         14         15         16
     1  Cl  -0.000007   0.000000   0.000000   0.000000
     2  Mg  -0.014394  -0.000015   0.000002   0.000004
     3  C   -0.051989   0.000013   0.000037   0.000031
     4  C    0.005884   0.000190  -0.000210  -0.000207
     5  C    0.000755  -0.003080   0.000680   0.000720
     6  C    0.003147  -0.029942  -0.029533  -0.029375
     7  C   -0.045449   0.003902  -0.003216  -0.003151
     8  C    0.357309  -0.000162  -0.000001  -0.000005
     9  C   -0.000203   0.362516   0.361877   0.361730
    10  H   -0.000151  -0.000005   0.000004   0.000003
    11  H    0.000025   0.007167   0.000141   0.000139
    12  H   -0.004006   0.000043   0.002279   0.002265
    13  H    0.630067   0.000003  -0.000000  -0.000000
    14  H    0.000003   0.559905  -0.026648  -0.026489
    15  H   -0.000000  -0.026648   0.561967  -0.029034
    16  H   -0.000000  -0.026489  -0.029034   0.561763
 Mulliken atomic charges:
              1
     1  Cl  -0.407890
     2  Mg   0.550867
     3  C   -0.034055
     4  C   -0.184021
     5  C   -0.173271
     6  C    0.169528
     7  C   -0.166511
     8  C   -0.187665
     9  C   -0.524730
    10  H    0.118160
    11  H    0.122590
    12  H    0.122125
    13  H    0.119010
    14  H    0.152603
    15  H    0.161655
    16  H    0.161605
 Sum of Mulliken atomic charges =  -0.00000
 Mulliken charges with hydrogens summed into heavy atoms:
              1
     1  Cl  -0.407890
     2  Mg   0.550867
     3  C   -0.034055
     4  C   -0.065861
     5  C   -0.050680
     6  C    0.169528
     7  C   -0.044386
     8  C   -0.068655
     9  C   -0.048867
 Sum of Mulliken charges with hydrogens summed into heavy atoms =  -0.00000
 Electronic spatial extent (au):  <R**2>=           2902.7708
 Charge=             -0.0000 electrons
 Dipole moment (field-independent basis, Debye):
    X=             -4.0149    Y=             -0.0431    Z=              0.0123  Tot=              4.0151
 Quadrupole moment (field-independent basis, Debye-Ang):
   XX=            -86.7359   YY=            -58.7080   ZZ=            -65.3098
   XY=              0.1386   XZ=             -0.2486   YZ=              0.0003
 Traceless Quadrupole moment (field-independent basis, Debye-Ang):
   XX=            -16.4847   YY=             11.5432   ZZ=              4.9414
   XY=              0.1386   XZ=             -0.2486   YZ=              0.0003
 Octapole moment (field-independent basis, Debye-Ang**2):
  XXX=           -159.6374  YYY=              0.4470  ZZZ=              0.2449  XYY=              2.2610
  XXY=             -0.5678  XXZ=             -0.4699  XZZ=             10.4074  YZZ=             -0.6205
  YYZ=              0.0345  XYZ=             -0.0202
 Hexadecapole moment (field-independent basis, Debye-Ang**3):
 XXXX=          -4147.6623 YYYY=           -318.3015 ZZZZ=            -83.3964 XXXY=              0.7099
 XXXZ=             -3.0268 YYYX=             -2.4496 YYYZ=              0.0204 ZZZX=             -0.3764
 ZZZY=             -0.0686 XXYY=           -618.8807 XXZZ=           -599.4464 YYZZ=            -75.0640
 XXYZ=              0.1586 YYXZ=             -0.2126 ZZXY=              2.9544
 N-N= 4.545131695143D+02 E-N=-3.109081519881D+03  KE= 9.261706026286D+02
 No NMR shielding tensors so no spin-rotation constants.
 Leave Link  601 at Sun Oct  3 07:02:28 2021, MaxMem=  536870912 cpu:       0.4
 (Enter /sw/target/amd/app/gaussian/Gaussian09RevA.02_gcc-4.9.2/g09/l701.exe)
 Compute integral first derivatives.
 ... and contract with generalized density number  0.
 Leave Link  701 at Sun Oct  3 07:02:31 2021, MaxMem=  536870912 cpu:       0.6
 (Enter /sw/target/amd/app/gaussian/Gaussian09RevA.02_gcc-4.9.2/g09/l702.exe)
 L702 exits ... SP integral derivatives will be done elsewhere.
 Leave Link  702 at Sun Oct  3 07:02:31 2021, MaxMem=  536870912 cpu:       0.1
 (Enter /sw/target/amd/app/gaussian/Gaussian09RevA.02_gcc-4.9.2/g09/l703.exe)
 Compute integral first derivatives, UseDBF=F ICtDFT=           0.
 Integral derivatives from FoFDir, PRISM(SPDF).
 Calling FoFJK, ICntrl=      2127 FMM=F ISym2X=0 I1Cent= 0 IOpClX= 0 NMat=1 NMatS=1 NMatT=0.
 FoFCou: FMM=F IPFlag=           0 FMFlag=      100000 FMFlg1=         800
         NFxFlg=           0 DoJE=F BraDBF=F KetDBF=F FulRan=T
         Omega=  0.000000  0.000000  1.000000  0.000000  0.000000 ICntrl=    2127 IOpCl=  0
         NMat0=    1 NMatS0=    1 NMatT0=    0 NMatD0=    1 NMtDS0=    0 NMtDT0=    0
         I1Cent=           0 NGrid=           0.
 Symmetry not used in FoFCou.
 Leave Link  703 at Sun Oct  3 07:04:17 2021, MaxMem=  536870912 cpu:      31.2
 (Enter /sw/target/amd/app/gaussian/Gaussian09RevA.02_gcc-4.9.2/g09/l716.exe)
 Dipole        =-1.57957077D+00-1.69504982D-02 4.83998164D-03
 ***** Axes restored to original set *****
 -------------------------------------------------------------------
 Center     Atomic                   Forces (Hartrees/Bohr)
 Number     Number              X              Y              Z
 -------------------------------------------------------------------
      1       17           0.031784632    0.000026816   -0.000031406
      2       12          -0.015730165   -0.000206205    0.000295386
      3        6          -0.036635499    0.000872860    0.000037683
      4        6           0.008379281   -0.004977585   -0.000317239
      5        6          -0.005540810   -0.006711651    0.000039198
      6        6          -0.003796831    0.004042758    0.000200322
      7        6          -0.007953648    0.004805961    0.000033515
      8        6           0.010745585    0.004162401   -0.000458760
      9        6           0.009230196    0.001520692   -0.000255130
     10        1           0.000789778    0.005786605    0.000137448
     11        1           0.004074290    0.001756977   -0.000045252
     12        1           0.003518158   -0.002241964   -0.000006962
     13        1           0.000859571   -0.005663976    0.000238284
     14        1          -0.002601516   -0.010310450    0.000280431
     15        1           0.001714760    0.003575850    0.008857752
     16        1           0.001162219    0.003560910   -0.009005271
 -------------------------------------------------------------------
 Cartesian Forces:  Max     0.036635499 RMS     0.008558488
 Leave Link  716 at Sun Oct  3 07:04:17 2021, MaxMem=  536870912 cpu:       0.1
 (Enter /sw/target/amd/app/gaussian/Gaussian09RevA.02_gcc-4.9.2/g09/l103.exe)

 GradGradGradGradGradGradGradGradGradGradGradGradGradGradGradGradGradGrad
 Berny optimization.
 Internal  Forces:  Max     0.031784615 RMS     0.005694593
 Search for a local minimum.
 Step number   1 out of a maximum of   82
 All quantities printed in internal units (Hartrees-Bohrs-Radians)
 RMS Force = .56946D-02 SwitMx=.10000D-02 MixMth= 1
 Mixed Optimization -- RFO/linear search
 Second derivative matrix not updated -- first step.
     Eigenvalues ---    0.00240   0.00240   0.00765   0.01522   0.02037
     Eigenvalues ---    0.02062   0.02070   0.02095   0.02117   0.02120
     Eigenvalues ---    0.02127   0.02134   0.07285   0.07478   0.10112
     Eigenvalues ---    0.10784   0.16000   0.16000   0.16000   0.16000
     Eigenvalues ---    0.16000   0.16000   0.16000   0.22000   0.22978
     Eigenvalues ---    0.24000   0.24995   0.25000   0.32371   0.32510
     Eigenvalues ---    0.32566   0.32576   0.35613   0.35640   0.35782
     Eigenvalues ---    0.35783   0.41479   0.41665   0.45060   0.45616
     Eigenvalues ---    0.45827   0.461231000.000001000.000001000.00000
     Eigenvalues --- 1000.000001000.000001000.000001000.000001000.00000
     Eigenvalues --- 1000.000001000.000001000.000001000.000001000.00000
     Eigenvalues --- 1000.000001000.000001000.000001000.000001000.00000
     Eigenvalues --- 1000.000001000.000001000.000001000.000001000.00000
     Eigenvalues --- 1000.000001000.000001000.000001000.000001000.00000
     Eigenvalues --- 1000.000001000.00000
 RFO step:  Lambda=-1.42983337D-02 EMin= 2.39615807D-03
 Linear search not attempted -- first point.
 Maximum step size (   0.300) exceeded in Quadratic search.
    -- Step size scaled by   0.938
 Iteration  1 RMS(Cart)=  0.03555224 RMS(Int)=  0.00522009
 Iteration  2 RMS(Cart)=  0.00509315 RMS(Int)=  0.00007193
 Iteration  3 RMS(Cart)=  0.00000119 RMS(Int)=  0.00007192
 Iteration  4 RMS(Cart)=  0.00000000 RMS(Int)=  0.00007192
 Variable       Old X    -DE/DX   Delta X   Delta X   Delta X     New X
                                 (Linear)    (Quad)   (Total)
    R1        4.59203  -0.03178   0.00000  -0.24406  -0.24406   4.34797
    R2        4.10071  -0.01605   0.00000  -0.13045  -0.13045   3.97026
    R3        2.63902   0.00752   0.00000   0.01574   0.01580   2.65482
    R4        2.63939   0.00850   0.00000   0.01767   0.01772   2.65711
    R5        2.64310   0.00087   0.00000   0.00175   0.00175   2.64486
    R6        2.04422   0.00457   0.00000   0.01152   0.01152   2.05574
    R7        2.65525  -0.00493   0.00000  -0.01095  -0.01100   2.64425
    R8        2.04649   0.00349   0.00000   0.00884   0.00884   2.05533
    R9        2.65365  -0.00241   0.00000  -0.00583  -0.00589   2.64776
   R10        2.83470   0.00951   0.00000   0.02638   0.02638   2.86108
   R11        2.64345  -0.00106   0.00000  -0.00211  -0.00212   2.64133
   R12        2.04691   0.00369   0.00000   0.00935   0.00935   2.05626
   R13        2.04424   0.00449   0.00000   0.01131   0.01131   2.05555
   R14        2.09921  -0.01055   0.00000  -0.02915  -0.02915   2.07006
   R15        2.09803  -0.00844   0.00000  -0.02328  -0.02328   2.07475
   R16        2.09820  -0.00853   0.00000  -0.02353  -0.02353   2.07467
    A1        2.08607   0.00604   0.00000   0.02028   0.02022   2.10629
    A2        2.10111   0.00544   0.00000   0.01817   0.01811   2.11923
    A3        2.09581  -0.01148   0.00000  -0.03835  -0.03824   2.05757
    A4        2.09637   0.00358   0.00000   0.01508   0.01514   2.11151
    A5        2.08971   0.00192   0.00000   0.01246   0.01242   2.10213
    A6        2.09709  -0.00550   0.00000  -0.02751  -0.02754   2.06955
    A7        2.09677   0.00415   0.00000   0.01348   0.01343   2.11020
    A8        2.08079   0.00073   0.00000   0.00833   0.00834   2.08913
    A9        2.10561  -0.00487   0.00000  -0.02178  -0.02176   2.08385
   A10        2.08415  -0.00405   0.00000  -0.01891  -0.01902   2.06513
   A11        2.10832   0.00186   0.00000   0.00887   0.00892   2.11724
   A12        2.09071   0.00219   0.00000   0.01005   0.01010   2.10081
   A13        2.09814   0.00388   0.00000   0.01233   0.01227   2.11041
   A14        2.10017  -0.00392   0.00000  -0.01683  -0.01680   2.08337
   A15        2.08486   0.00004   0.00000   0.00451   0.00454   2.08940
   A16        2.09511   0.00392   0.00000   0.01638   0.01643   2.11154
   A17        2.09035   0.00168   0.00000   0.01141   0.01138   2.10172
   A18        2.09770  -0.00560   0.00000  -0.02775  -0.02778   2.06992
   A19        1.94632   0.00010   0.00000   0.00115   0.00108   1.94740
   A20        1.91209   0.00536   0.00000   0.02872   0.02850   1.94059
   A21        1.91437   0.00524   0.00000   0.02770   0.02749   1.94186
   A22        1.89185  -0.00266   0.00000  -0.01339  -0.01347   1.87838
   A23        1.89382  -0.00277   0.00000  -0.01463  -0.01470   1.87912
   A24        1.90481  -0.00560   0.00000  -0.03135  -0.03169   1.87312
   A25        3.14159  -0.00014   0.00000  -0.00766  -0.00766   3.13394
   A26        3.14159   0.00006   0.00000   0.00330   0.00330   3.14489
    D1       -3.11919  -0.00027   0.00000  -0.00730  -0.00735  -3.12654
    D2        0.01566  -0.00007   0.00000  -0.00177  -0.00173   0.01393
    D3        0.00183  -0.00006   0.00000  -0.00143  -0.00143   0.00040
    D4        3.13668   0.00014   0.00000   0.00411   0.00419   3.14086
    D5        3.11894   0.00028   0.00000   0.00745   0.00749   3.12643
    D6       -0.01570   0.00007   0.00000   0.00176   0.00172  -0.01398
    D7       -0.00190   0.00006   0.00000   0.00150   0.00151  -0.00039
    D8       -3.13654  -0.00014   0.00000  -0.00419  -0.00426  -3.14080
    D9        0.00113  -0.00002   0.00000  -0.00053  -0.00053   0.00060
   D10        3.13741   0.00013   0.00000   0.00363   0.00365   3.14106
   D11       -3.13369  -0.00025   0.00000  -0.00624  -0.00619  -3.13988
   D12        0.00259  -0.00009   0.00000  -0.00208  -0.00201   0.00057
   D13       -0.00398   0.00009   0.00000   0.00239   0.00240  -0.00158
   D14        3.13365   0.00017   0.00000   0.00462   0.00460   3.13825
   D15       -3.14018  -0.00008   0.00000  -0.00193  -0.00186   3.14115
   D16       -0.00255  -0.00000   0.00000   0.00031   0.00034  -0.00221
   D17        0.00390  -0.00009   0.00000  -0.00231  -0.00232   0.00158
   D18        3.14036   0.00007   0.00000   0.00178   0.00173  -3.14110
   D19       -3.13377  -0.00017   0.00000  -0.00452  -0.00450  -3.13827
   D20        0.00269  -0.00000   0.00000  -0.00043  -0.00045   0.00224
   D21        0.00057   0.00004   0.00000  -0.00018  -0.00017   0.00040
   D22       -2.09381  -0.00024   0.00000  -0.00314  -0.00304  -2.09685
   D23        2.09893   0.00012   0.00000   0.00064   0.00053   2.09946
   D24        3.13819   0.00010   0.00000   0.00200   0.00200   3.14019
   D25        1.04380  -0.00017   0.00000  -0.00096  -0.00086   1.04294
   D26       -1.04664   0.00018   0.00000   0.00282   0.00271  -1.04393
   D27       -0.00098   0.00002   0.00000   0.00038   0.00037  -0.00061
   D28        3.13362   0.00025   0.00000   0.00625   0.00620   3.13982
   D29       -3.13748  -0.00013   0.00000  -0.00362  -0.00363  -3.14111
   D30       -0.00288   0.00010   0.00000   0.00226   0.00219  -0.00068
         Item               Value     Threshold  Converged?
 Maximum Force            0.031785     0.000450     NO 
 RMS     Force            0.005695     0.000300     NO 
 Maximum Displacement     0.274379     0.001800     NO 
 RMS     Displacement     0.039628     0.001200     NO 
 Predicted change in Energy=-7.764253D-03
 GradGradGradGradGradGradGradGradGradGradGradGradGradGradGradGradGradGrad

 Leave Link  103 at Sun Oct  3 07:04:21 2021, MaxMem=  536870912 cpu:       1.1
 (Enter /sw/target/amd/app/gaussian/Gaussian09RevA.02_gcc-4.9.2/g09/l202.exe)
                          Input orientation:                          
 ---------------------------------------------------------------------
 Center     Atomic      Atomic             Coordinates (Angstroms)
 Number     Number       Type             X           Y           Z
 ---------------------------------------------------------------------
      1         17           0        1.078772    0.036780   -0.056330
      2         12           0        3.379558    0.022207   -0.065214
      3          6           0        5.480497    0.024934   -0.076358
      4          6           0        6.195678    1.233921   -0.099185
      5          6           0        7.595013    1.242823   -0.124785
      6          6           0        8.321383    0.046855   -0.129088
      7          6           0        7.612547   -1.161513   -0.105164
      8          6           0        6.215107   -1.173987   -0.079571
      9          6           0        9.835064    0.045794   -0.161024
     10          1           0        5.669188    2.185881   -0.098337
     11          1           0        8.127607    2.190963   -0.142674
     12          1           0        8.160358   -2.101682   -0.107624
     13          1           0        5.703207   -2.133615   -0.063196
     14          1           0       10.238354    1.064134   -0.178518
     15          1           0       10.212852   -0.476645   -1.049697
     16          1           0       10.251450   -0.462377    0.718578
 ---------------------------------------------------------------------
                    Distance matrix (angstroms):
                    1          2          3          4          5
     1  Cl   0.000000
     2  Mg   2.300849   0.000000
     3  C    4.401787   2.100971   0.000000
     4  C    5.255255   3.065932   1.404868   0.000000
     5  C    6.627263   4.389022   2.440651   1.399597   0.000000
     6  C    7.242983   4.942299   2.841459   2.434880   1.399276
     7  C    6.642929   4.395564   2.440107   2.783102   2.404480
     8  C    5.277161   3.077568   1.406084   2.408066   2.783371
     9  C    8.756922   6.456260   4.355440   3.828916   2.540083
    10  H    5.068759   3.150395   2.169281   1.087851   2.144495
    11  H    7.371162   5.220486   3.421004   2.156426   1.087633
    12  H    7.397602   5.231516   3.421276   3.871213   3.391995
    13  H    5.108430   3.169687   2.170047   3.403545   3.870795
    14  H    9.217826   6.938410   4.871095   4.047017   2.649919
    15  H    9.202271   6.921847   4.857381   4.468467   3.265749
    16  H    9.218875   6.933401   4.861212   4.471627   3.267358
                    6          7          8          9         10
     6  C    0.000000
     7  C    1.401132   0.000000
     8  C    2.435016   1.397730   0.000000
     9  C    1.514018   2.529880   3.820810   0.000000
    10  H    3.407421   3.870625   3.403982   4.683847   0.000000
    11  H    2.152890   3.392018   3.870985   2.741805   2.458824
    12  H    2.154669   1.088128   2.155321   2.723811   4.958752
    13  H    3.407878   2.142971   1.087748   4.672434   4.319773
    14  H    2.170732   3.442927   4.604942   1.095429   4.705531
    15  H    2.167771   2.850048   4.172457   1.097910   5.351543
    16  H    2.168643   2.851517   4.175583   1.097868   5.355161
                   11         12         13         14         15
    11  H    0.000000
    12  H    4.292913   0.000000
    13  H    4.958428   2.457761   0.000000
    14  H    2.392964   3.787544   5.550356   0.000000
    15  H    3.505291   2.782262   4.904654   1.770199   0.000000
    16  H    3.506091   2.782552   4.908230   1.770647   1.768754
                   16
    16  H    0.000000
 Stoichiometry    C7H7ClMg
 Framework group  C1[X(C7H7ClMg)]
 Deg. of freedom    42
 Full point group                 C1      NOp   1
 Largest Abelian subgroup         C1      NOp   1
 Largest concise Abelian subgroup C1      NOp   1
                         Standard orientation:                         
 ---------------------------------------------------------------------
 Center     Atomic      Atomic             Coordinates (Angstroms)
 Number     Number       Type             X           Y           Z
 ---------------------------------------------------------------------
      1         17           0        4.367378    0.005685    0.010914
      2         12           0        2.066648   -0.010910   -0.005553
      3          6           0       -0.034287   -0.010003   -0.017692
      4          6           0       -0.750666    1.198480   -0.012873
      5          6           0       -2.150205    1.206321   -0.002841
      6          6           0       -2.875599    0.009769    0.003398
      7          6           0       -2.165553   -1.198110   -0.002595
      8          6           0       -0.767906   -1.209524   -0.012610
      9          6           0       -4.389540    0.007596    0.018582
     10          1           0       -0.224978    2.150879   -0.015834
     11          1           0       -2.683741    2.154091    0.001239
     12          1           0       -2.712589   -2.138725    0.001644
     13          1           0       -0.255071   -2.168788   -0.015311
     14          1           0       -4.793832    1.025679    0.023113
     15          1           0       -4.776722   -0.507763    0.907346
     16          1           0       -4.795740   -0.508267   -0.861306
 ---------------------------------------------------------------------
 Rotational constants (GHZ):      5.5322253      0.3865879      0.3621640
 Leave Link  202 at Sun Oct  3 07:04:21 2021, MaxMem=  536870912 cpu:       0.0
 (Enter /sw/target/amd/app/gaussian/Gaussian09RevA.02_gcc-4.9.2/g09/l301.exe)
 Standard basis: 6-31G(d) (6D, 7F)
 Ernie: Thresh=  0.10000D-02 Tol=  0.10000D-05 Strict=F.
 There are   157 symmetry adapted basis functions of A   symmetry.
 Integral buffers will be    131072 words long.
 Raffenetti 2 integral format.
 Two-electron integral symmetry is turned on.
   157 basis functions,   328 primitive gaussians,   157 cartesian basis functions
    39 alpha electrons       39 beta electrons
       nuclear repulsion energy       459.6313016699 Hartrees.
 IExCor=  402 DFT=T Ex+Corr=B3LYP ExCW=0 ScaHFX=  0.200000
 ScaDFX=  0.800000  0.720000  1.000000  0.810000 ScalE2=  1.000000  1.000000
 IRadAn=      0 IRanWt=     -1 IRanGd=            0 ICorTp=0
 NAtoms=   16 NActive=   16 NUniq=   16 SFac= 7.50D-01 NAtFMM=   80 NAOKFM=F Big=F
 Leave Link  301 at Sun Oct  3 07:04:22 2021, MaxMem=  536870912 cpu:       0.1
 (Enter /sw/target/amd/app/gaussian/Gaussian09RevA.02_gcc-4.9.2/g09/l302.exe)
 NPDir=0 NMtPBC=     1 NCelOv=     1 NCel=       1 NClECP=     1 NCelD=      1
         NCelK=      1 NCelE2=     1 NClLst=     1 CellRange=     0.0.
 One-electron integrals computed using PRISM.
 NBasis=   157 RedAO= T  NBF=   157
 NBsUse=   157 1.00D-06 NBFU=   157
 Precomputing XC quadrature grid using
 IXCGrd= 2 IRadAn=           0 IRanWt=          -1 IRanGd=           0 AccXCQ= 1.00D-10.
 NRdTot=    1021 NPtTot=      129832 NUsed=      137200 NTot=      137232
 NSgBfM=   155   155   155   155   155 NAtAll=    16    16.
 Leave Link  302 at Sun Oct  3 07:04:26 2021, MaxMem=  536870912 cpu:       0.8
 (Enter /sw/target/amd/app/gaussian/Gaussian09RevA.02_gcc-4.9.2/g09/l303.exe)
 DipDrv:  MaxL=1.
 Leave Link  303 at Sun Oct  3 07:04:27 2021, MaxMem=  536870912 cpu:       0.1
 (Enter /sw/target/amd/app/gaussian/Gaussian09RevA.02_gcc-4.9.2/g09/l401.exe)
 Initial guess read from the read-write file.
 B after Tr=     0.000000    0.000000    0.000000
         Rot=    1.000000    0.000000    0.000000    0.000000 Ang=   0.00 deg.
 Guess basis will be translated and rotated to current coordinates.
 Initial guess orbital symmetries:
       Occupied  (A) (A) (A) (A) (A) (A) (A) (A) (A) (A) (A) (A)
                 (A) (A) (A) (A) (A) (A) (A) (A) (A) (A) (A) (A)
                 (A) (A) (A) (A) (A) (A) (A) (A) (A) (A) (A) (A)
                 (A) (A) (A)
       Virtual   (A) (A) (A) (A) (A) (A) (A) (A) (A) (A) (A) (A)
                 (A) (A) (A) (A) (A) (A) (A) (A) (A) (A) (A) (A)
                 (A) (A) (A) (A) (A) (A) (A) (A) (A) (A) (A) (A)
                 (A) (A) (A) (A) (A) (A) (A) (A) (A) (A) (A) (A)
                 (A) (A) (A) (A) (A) (A) (A) (A) (A) (A) (A) (A)
                 (A) (A) (A) (A) (A) (A) (A) (A) (A) (A) (A) (A)
                 (A) (A) (A) (A) (A) (A) (A) (A) (A) (A) (A) (A)
                 (A) (A) (A) (A) (A) (A) (A) (A) (A) (A) (A) (A)
                 (A) (A) (A) (A) (A) (A) (A) (A) (A) (A) (A) (A)
                 (A) (A) (A) (A) (A) (A) (A) (A) (A) (A)
 The electronic state of the initial guess is 1-A.
 Generating alternative initial guess.
 Harris functional with IExCor=  402 diagonalized for initial guess.
 ExpMin= 4.21D-02 ExpMax= 2.52D+04 ExpMxC= 3.78D+03 IAcc=2 IRadAn=         0 AccDes= 0.00D+00
 HarFok:  IExCor=  402 AccDes= 0.00D+00 IRadAn=         0 IDoV= 1
 ScaDFX=  1.000000  1.000000  1.000000  1.000000
 FoFCou: FMM=F IPFlag=           0 FMFlag=      100000 FMFlg1=           0
         NFxFlg=           0 DoJE=T BraDBF=F KetDBF=T FulRan=T
         Omega=  0.000000  0.000000  1.000000  0.000000  0.000000 ICntrl=     500 IOpCl=  0
         NMat0=    1 NMatS0=    1 NMatT0=    0 NMatD0=    1 NMtDS0=    0 NMtDT0=    0
         I1Cent=           4 NGrid=           0.
 Petite list used in FoFCou.
 Harris En= -931.404070473798    
 Leave Link  401 at Sun Oct  3 07:04:58 2021, MaxMem=  536870912 cpu:       8.5
 (Enter /sw/target/amd/app/gaussian/Gaussian09RevA.02_gcc-4.9.2/g09/l502.exe)
 Closed shell SCF:
 Requested convergence on RMS density matrix=1.00D-08 within  64 cycles.
 Requested convergence on MAX density matrix=1.00D-06.
 Requested convergence on             energy=1.00D-06.
 No special actions if energy rises.
 Using DIIS extrapolation, IDIIS=  1040.
 Integral symmetry usage will be decided dynamically.
       137043 words used for storage of precomputed grid.
 Keep R1 ints in memory in canonical form, NReq=79114150.
 IEnd=      218653 IEndB=      218653 NGot=   536870912 MDV=   459757856
 LenX=   459757856 LenY=   459732766
 Symmetry not used in FoFDir.
 MinBra= 0 MaxBra= 2 Meth= 1.
 IRaf=       0 NMat=   1 IRICut=       1 DoRegI=T DoRafI=F ISym2E= 0 JSym2E=0.

 Cycle   1  Pass 1  IDiag  1:
 E= -931.313403103395    
 DIIS: error= 2.11D-03 at cycle   1 NSaved=   1.
 NSaved= 1 IEnMin= 1 EnMin= -931.313403103395     IErMin= 1 ErrMin= 2.11D-03
 ErrMax= 2.11D-03 EMaxC= 1.00D-01 BMatC= 9.95D-04 BMatP= 9.95D-04
 IDIUse=3 WtCom= 9.79D-01 WtEn= 2.11D-02
 Coeff-Com:  0.100D+01
 Coeff-En:   0.100D+01
 Coeff:      0.100D+01
 Gap=     0.212 Goal=   None    Shift=    0.000
 GapD=    0.212 DampG=1.000 DampE=1.000 DampFc=1.0000 IDamp=-1.
 RMSDP=5.88D-04 MaxDP=1.67D-02              OVMax= 1.98D-02

 Cycle   2  Pass 1  IDiag  1:
 E= -931.314657685542     Delta-E=       -0.001254582147 Rises=F Damp=F
 DIIS: error= 1.04D-03 at cycle   2 NSaved=   2.
 NSaved= 2 IEnMin= 2 EnMin= -931.314657685542     IErMin= 2 ErrMin= 1.04D-03
 ErrMax= 1.04D-03 EMaxC= 1.00D-01 BMatC= 2.16D-04 BMatP= 9.95D-04
 IDIUse=3 WtCom= 9.90D-01 WtEn= 1.04D-02
 Coeff-Com:  0.236D+00 0.764D+00
 Coeff-En:   0.000D+00 0.100D+01
 Coeff:      0.234D+00 0.766D+00
 Gap=     0.189 Goal=   None    Shift=    0.000
 RMSDP=1.72D-04 MaxDP=6.23D-03 DE=-1.25D-03 OVMax= 7.43D-03

 Cycle   3  Pass 1  IDiag  1:
 E= -931.314750582386     Delta-E=       -0.000092896844 Rises=F Damp=F
 DIIS: error= 6.99D-04 at cycle   3 NSaved=   3.
 NSaved= 3 IEnMin= 3 EnMin= -931.314750582386     IErMin= 3 ErrMin= 6.99D-04
 ErrMax= 6.99D-04 EMaxC= 1.00D-01 BMatC= 1.25D-04 BMatP= 2.16D-04
 IDIUse=3 WtCom= 9.93D-01 WtEn= 6.99D-03
 Coeff-Com:  0.211D-01 0.425D+00 0.554D+00
 Coeff-En:   0.000D+00 0.370D+00 0.630D+00
 Coeff:      0.210D-01 0.424D+00 0.555D+00
 Gap=     0.188 Goal=   None    Shift=    0.000
 RMSDP=8.72D-05 MaxDP=3.08D-03 DE=-9.29D-05 OVMax= 5.26D-03

 Cycle   4  Pass 1  IDiag  1:
 E= -931.314864734375     Delta-E=       -0.000114151989 Rises=F Damp=F
 DIIS: error= 3.00D-04 at cycle   4 NSaved=   4.
 NSaved= 4 IEnMin= 4 EnMin= -931.314864734375     IErMin= 4 ErrMin= 3.00D-04
 ErrMax= 3.00D-04 EMaxC= 1.00D-01 BMatC= 1.44D-05 BMatP= 1.25D-04
 IDIUse=3 WtCom= 9.97D-01 WtEn= 3.00D-03
 Coeff-Com: -0.819D-02 0.176D+00 0.323D+00 0.509D+00
 Coeff-En:   0.000D+00 0.000D+00 0.531D-01 0.947D+00
 Coeff:     -0.817D-02 0.176D+00 0.322D+00 0.510D+00
 Gap=     0.188 Goal=   None    Shift=    0.000
 RMSDP=3.17D-05 MaxDP=9.50D-04 DE=-1.14D-04 OVMax= 1.92D-03

 Cycle   5  Pass 1  IDiag  1:
 E= -931.314878767910     Delta-E=       -0.000014033535 Rises=F Damp=F
 DIIS: error= 1.54D-04 at cycle   5 NSaved=   5.
 NSaved= 5 IEnMin= 5 EnMin= -931.314878767910     IErMin= 5 ErrMin= 1.54D-04
 ErrMax= 1.54D-04 EMaxC= 1.00D-01 BMatC= 1.60D-06 BMatP= 1.44D-05
 IDIUse=3 WtCom= 9.98D-01 WtEn= 1.54D-03
 Coeff-Com: -0.574D-02 0.684D-01 0.146D+00 0.309D+00 0.482D+00
 Coeff-En:   0.000D+00 0.000D+00 0.000D+00 0.644D-01 0.936D+00
 Coeff:     -0.573D-02 0.683D-01 0.146D+00 0.309D+00 0.483D+00
 Gap=     0.188 Goal=   None    Shift=    0.000
 RMSDP=1.09D-05 MaxDP=2.10D-04 DE=-1.40D-05 OVMax= 6.77D-04

 Cycle   6  Pass 1  IDiag  1:
 E= -931.314880513330     Delta-E=       -0.000001745420 Rises=F Damp=F
 DIIS: error= 4.03D-05 at cycle   6 NSaved=   6.
 NSaved= 6 IEnMin= 6 EnMin= -931.314880513330     IErMin= 6 ErrMin= 4.03D-05
 ErrMax= 4.03D-05 EMaxC= 1.00D-01 BMatC= 1.07D-07 BMatP= 1.60D-06
 IDIUse=1 WtCom= 1.00D+00 WtEn= 0.00D+00
 Coeff-Com: -0.174D-02 0.115D-01 0.327D-01 0.899D-01 0.253D+00 0.615D+00
 Coeff:     -0.174D-02 0.115D-01 0.327D-01 0.899D-01 0.253D+00 0.615D+00
 Gap=     0.188 Goal=   None    Shift=    0.000
 RMSDP=2.74D-06 MaxDP=7.33D-05 DE=-1.75D-06 OVMax= 1.58D-04

 Cycle   7  Pass 1  IDiag  1:
 E= -931.314880627662     Delta-E=       -0.000000114332 Rises=F Damp=F
 DIIS: error= 5.83D-06 at cycle   7 NSaved=   7.
 NSaved= 7 IEnMin= 7 EnMin= -931.314880627662     IErMin= 7 ErrMin= 5.83D-06
 ErrMax= 5.83D-06 EMaxC= 1.00D-01 BMatC= 7.66D-09 BMatP= 1.07D-07
 IDIUse=1 WtCom= 1.00D+00 WtEn= 0.00D+00
 Coeff-Com: -0.448D-03 0.975D-04 0.481D-02 0.197D-01 0.891D-01 0.306D+00
 Coeff-Com:  0.581D+00
 Coeff:     -0.448D-03 0.975D-04 0.481D-02 0.197D-01 0.891D-01 0.306D+00
 Coeff:      0.581D+00
 Gap=     0.188 Goal=   None    Shift=    0.000
 RMSDP=7.01D-07 MaxDP=2.28D-05 DE=-1.14D-07 OVMax= 2.57D-05

 Cycle   8  Pass 1  IDiag  1:
 E= -931.314880635516     Delta-E=       -0.000000007854 Rises=F Damp=F
 DIIS: error= 1.12D-06 at cycle   8 NSaved=   8.
 NSaved= 8 IEnMin= 8 EnMin= -931.314880635516     IErMin= 8 ErrMin= 1.12D-06
 ErrMax= 1.12D-06 EMaxC= 1.00D-01 BMatC= 2.97D-10 BMatP= 7.66D-09
 IDIUse=1 WtCom= 1.00D+00 WtEn= 0.00D+00
 Coeff-Com:  0.217D-04-0.133D-02-0.168D-02-0.210D-02 0.844D-02 0.582D-01
 Coeff-Com:  0.214D+00 0.724D+00
 Coeff:      0.217D-04-0.133D-02-0.168D-02-0.210D-02 0.844D-02 0.582D-01
 Coeff:      0.214D+00 0.724D+00
 Gap=     0.188 Goal=   None    Shift=    0.000
 RMSDP=1.87D-07 MaxDP=4.30D-06 DE=-7.85D-09 OVMax= 4.93D-06

 Cycle   9  Pass 1  IDiag  1:
 E= -931.314880635843     Delta-E=       -0.000000000327 Rises=F Damp=F
 DIIS: error= 2.08D-07 at cycle   9 NSaved=   9.
 NSaved= 9 IEnMin= 9 EnMin= -931.314880635843     IErMin= 9 ErrMin= 2.08D-07
 ErrMax= 2.08D-07 EMaxC= 1.00D-01 BMatC= 9.95D-12 BMatP= 2.97D-10
 IDIUse=1 WtCom= 1.00D+00 WtEn= 0.00D+00
 Coeff-Com:  0.148D-04-0.469D-03-0.679D-03-0.121D-02 0.108D-02 0.127D-01
 Coeff-Com:  0.593D-01 0.257D+00 0.672D+00
 Coeff:      0.148D-04-0.469D-03-0.679D-03-0.121D-02 0.108D-02 0.127D-01
 Coeff:      0.593D-01 0.257D+00 0.672D+00
 Gap=     0.188 Goal=   None    Shift=    0.000
 RMSDP=3.71D-08 MaxDP=1.03D-06 DE=-3.27D-10 OVMax= 1.69D-06

 Cycle  10  Pass 1  IDiag  1:
 E= -931.314880635858     Delta-E=       -0.000000000015 Rises=F Damp=F
 DIIS: error= 1.23D-07 at cycle  10 NSaved=  10.
 NSaved=10 IEnMin=10 EnMin= -931.314880635858     IErMin=10 ErrMin= 1.23D-07
 ErrMax= 1.23D-07 EMaxC= 1.00D-01 BMatC= 3.36D-12 BMatP= 9.95D-12
 IDIUse=1 WtCom= 1.00D+00 WtEn= 0.00D+00
 Coeff-Com:  0.583D-05-0.695D-04-0.139D-03-0.393D-03-0.579D-03-0.177D-02
 Coeff-Com:  0.708D-03 0.345D-01 0.386D+00 0.582D+00
 Coeff:      0.583D-05-0.695D-04-0.139D-03-0.393D-03-0.579D-03-0.177D-02
 Coeff:      0.708D-03 0.345D-01 0.386D+00 0.582D+00
 Gap=     0.188 Goal=   None    Shift=    0.000
 RMSDP=1.63D-08 MaxDP=4.64D-07 DE=-1.48D-11 OVMax= 1.20D-06

 Cycle  11  Pass 1  IDiag  1:
 E= -931.314880635857     Delta-E=        0.000000000000 Rises=F Damp=F
 DIIS: error= 7.72D-08 at cycle  11 NSaved=  11.
 NSaved=11 IEnMin=10 EnMin= -931.314880635858     IErMin=11 ErrMin= 7.72D-08
 ErrMax= 7.72D-08 EMaxC= 1.00D-01 BMatC= 3.95D-13 BMatP= 3.36D-12
 IDIUse=1 WtCom= 1.00D+00 WtEn= 0.00D+00
 Coeff-Com:  0.281D-05-0.130D-04-0.430D-04-0.157D-03-0.374D-03-0.179D-02
 Coeff-Com: -0.304D-02 0.385D-02 0.182D+00 0.350D+00 0.469D+00
 Coeff:      0.281D-05-0.130D-04-0.430D-04-0.157D-03-0.374D-03-0.179D-02
 Coeff:     -0.304D-02 0.385D-02 0.182D+00 0.350D+00 0.469D+00
 Gap=     0.188 Goal=   None    Shift=    0.000
 RMSDP=5.60D-09 MaxDP=1.25D-07 DE= 2.27D-13 OVMax= 3.61D-07

 SCF Done:  E(RB3LYP) =  -931.314880636     A.U. after   11 cycles
             Convg  =    0.5599D-08             -V/T =  2.0054
 KE= 9.262893705430D+02 PE=-3.119530630382D+03 EE= 8.022950775330D+02
 Leave Link  502 at Sun Oct  3 07:10:12 2021, MaxMem=  536870912 cpu:      75.6
 (Enter /sw/target/amd/app/gaussian/Gaussian09RevA.02_gcc-4.9.2/g09/l508.exe)
 QCSCF skips out because SCF is already converged.
 Leave Link  508 at Sun Oct  3 07:10:12 2021, MaxMem=  536870912 cpu:       0.0
 (Enter /sw/target/amd/app/gaussian/Gaussian09RevA.02_gcc-4.9.2/g09/l701.exe)
 Compute integral first derivatives.
 ... and contract with generalized density number  0.
 Leave Link  701 at Sun Oct  3 07:10:15 2021, MaxMem=  536870912 cpu:       0.5
 (Enter /sw/target/amd/app/gaussian/Gaussian09RevA.02_gcc-4.9.2/g09/l702.exe)
 L702 exits ... SP integral derivatives will be done elsewhere.
 Leave Link  702 at Sun Oct  3 07:10:15 2021, MaxMem=  536870912 cpu:       0.1
 (Enter /sw/target/amd/app/gaussian/Gaussian09RevA.02_gcc-4.9.2/g09/l703.exe)
 Compute integral first derivatives, UseDBF=F ICtDFT=           0.
 Integral derivatives from FoFDir, PRISM(SPDF).
 Calling FoFJK, ICntrl=      2127 FMM=F ISym2X=0 I1Cent= 0 IOpClX= 0 NMat=1 NMatS=1 NMatT=0.
 FoFCou: FMM=F IPFlag=           0 FMFlag=      100000 FMFlg1=         800
         NFxFlg=           0 DoJE=F BraDBF=F KetDBF=F FulRan=T
         Omega=  0.000000  0.000000  1.000000  0.000000  0.000000 ICntrl=    2127 IOpCl=  0
         NMat0=    1 NMatS0=    1 NMatT0=    0 NMatD0=    1 NMtDS0=    0 NMtDT0=    0
         I1Cent=           0 NGrid=           0.
 Symmetry not used in FoFCou.
 Leave Link  703 at Sun Oct  3 07:12:12 2021, MaxMem=  536870912 cpu:      32.2
 (Enter /sw/target/amd/app/gaussian/Gaussian09RevA.02_gcc-4.9.2/g09/l716.exe)
 Dipole        =-1.33614279D+00-3.07920938D-02-3.73192772D-04
 ***** Axes restored to original set *****
 -------------------------------------------------------------------
 Center     Atomic                   Forces (Hartrees/Bohr)
 Number     Number              X              Y              Z
 -------------------------------------------------------------------
      1       17           0.016211131   -0.000134337   -0.000075100
      2       12          -0.010939771    0.000106568    0.000213450
      3        6          -0.014804169    0.000519287   -0.000095370
      4        6           0.005337718   -0.003047674   -0.000067970
      5        6          -0.002071703    0.000481249    0.000045630
      6        6           0.002423010    0.000471524   -0.000045894
      7        6          -0.003073387   -0.001050371    0.000088787
      8        6           0.006240696    0.002526369   -0.000135125
      9        6          -0.000857682    0.000632483   -0.000025081
     10        1           0.000566398    0.001383149    0.000004689
     11        1           0.000490250    0.000437259   -0.000021965
     12        1           0.000335191   -0.000452864   -0.000012372
     13        1           0.000474389   -0.001355452    0.000033045
     14        1          -0.000501925   -0.000400391    0.000059241
     15        1           0.000114085   -0.000063938    0.000765766
     16        1           0.000055769   -0.000052861   -0.000731731
 -------------------------------------------------------------------
 Cartesian Forces:  Max     0.016211131 RMS     0.003856961
 Leave Link  716 at Sun Oct  3 07:12:13 2021, MaxMem=  536870912 cpu:       0.1
 (Enter /sw/target/amd/app/gaussian/Gaussian09RevA.02_gcc-4.9.2/g09/l103.exe)

 GradGradGradGradGradGradGradGradGradGradGradGradGradGradGradGradGradGrad
 Berny optimization.
 Using GEDIIS/GDIIS optimizer.
 Internal  Forces:  Max     0.016211801 RMS     0.002309079
 Search for a local minimum.
 Step number   2 out of a maximum of   82
 All quantities printed in internal units (Hartrees-Bohrs-Radians)
 RMS Force = .23091D-02 SwitMx=.10000D-02 MixMth= 1
 Mixed Optimization -- RFO/linear search
 Update second derivatives using D2CorX and points    1    2
 DE= -9.62D-03 DEPred=-7.76D-03 R= 1.24D+00
 SS=  1.41D+00  RLast= 3.00D-01 DXNew= 5.0454D-01 8.9999D-01
 Trust test= 1.24D+00 RLast= 3.00D-01 DXMaxT set to 5.05D-01
 Use linear search instead of GDIIS.
     Eigenvalues ---    0.00240   0.00240   0.00765   0.01513   0.02037
     Eigenvalues ---    0.02063   0.02071   0.02095   0.02118   0.02121
     Eigenvalues ---    0.02126   0.02134   0.06999   0.07138   0.07224
     Eigenvalues ---    0.10338   0.15954   0.16000   0.16000   0.16000
     Eigenvalues ---    0.16000   0.16000   0.16518   0.22000   0.22743
     Eigenvalues ---    0.23715   0.24997   0.25006   0.32409   0.32539
     Eigenvalues ---    0.32571   0.34210   0.35626   0.35681   0.35782
     Eigenvalues ---    0.35932   0.41373   0.41801   0.45060   0.45478
     Eigenvalues ---    0.45945   0.461181000.000001000.000001000.00000
     Eigenvalues --- 1000.000001000.000001000.000001000.000001000.00000
     Eigenvalues --- 1000.000001000.000001000.000001000.000001000.00000
     Eigenvalues --- 1000.000001000.000001000.000001000.000001000.00000
     Eigenvalues --- 1000.000001000.000001000.000001000.000001000.00000
     Eigenvalues --- 1000.000001000.000001000.000001000.000001000.00000
     Eigenvalues --- 1000.000001000.00000
 RFO step:  Lambda=-9.96320291D-04 EMin= 2.39612617D-03
 Quartic linear search produced a step of  0.52957.
 Iteration  1 RMS(Cart)=  0.04867055 RMS(Int)=  0.00225191
 Iteration  2 RMS(Cart)=  0.00265256 RMS(Int)=  0.00004720
 Iteration  3 RMS(Cart)=  0.00000865 RMS(Int)=  0.00004687
 Iteration  4 RMS(Cart)=  0.00000000 RMS(Int)=  0.00004687
 Variable       Old X    -DE/DX   Delta X   Delta X   Delta X     New X
                                 (Linear)    (Quad)   (Total)
    R1        4.34797  -0.01621  -0.12925  -0.06428  -0.19353   4.15445
    R2        3.97026  -0.00527  -0.06908   0.01003  -0.05905   3.91121
    R3        2.65482   0.00244   0.00837  -0.00009   0.00834   2.66315
    R4        2.65711   0.00308   0.00938   0.00105   0.01049   2.66760
    R5        2.64486  -0.00128   0.00093  -0.00521  -0.00427   2.64058
    R6        2.05574   0.00094   0.00610  -0.00223   0.00386   2.05960
    R7        2.64425  -0.00057  -0.00583   0.00363  -0.00225   2.64200
    R8        2.05533   0.00062   0.00468  -0.00212   0.00256   2.05789
    R9        2.64776   0.00025  -0.00312   0.00375   0.00057   2.64833
   R10        2.86108  -0.00119   0.01397  -0.02002  -0.00605   2.85503
   R11        2.64133  -0.00181  -0.00112  -0.00489  -0.00601   2.63531
   R12        2.05626   0.00056   0.00495  -0.00266   0.00229   2.05856
   R13        2.05555   0.00097   0.00599  -0.00197   0.00402   2.05957
   R14        2.07006  -0.00056  -0.01544   0.01329  -0.00214   2.06792
   R15        2.07475  -0.00055  -0.01233   0.01014  -0.00219   2.07256
   R16        2.07467  -0.00054  -0.01246   0.01032  -0.00214   2.07253
    A1        2.10629   0.00264   0.01071   0.00467   0.01531   2.12161
    A2        2.11923   0.00240   0.00959   0.00436   0.01389   2.13311
    A3        2.05757  -0.00504  -0.02025  -0.00902  -0.02915   2.02842
    A4        2.11151   0.00262   0.00802   0.00897   0.01705   2.12856
    A5        2.10213  -0.00011   0.00658  -0.00529   0.00125   2.10338
    A6        2.06955  -0.00251  -0.01459  -0.00369  -0.01831   2.05124
    A7        2.11020   0.00044   0.00711  -0.00595   0.00111   2.11131
    A8        2.08913   0.00000   0.00442  -0.00411   0.00034   2.08947
    A9        2.08385  -0.00044  -0.01153   0.01006  -0.00145   2.08240
   A10        2.06513  -0.00097  -0.01007   0.00341  -0.00678   2.05835
   A11        2.11724  -0.00004   0.00472  -0.00455   0.00024   2.11748
   A12        2.10081   0.00101   0.00535   0.00113   0.00655   2.10736
   A13        2.11041   0.00032   0.00650  -0.00597   0.00046   2.11087
   A14        2.08337  -0.00022  -0.00890   0.00889   0.00003   2.08340
[...]
 Alpha virt. eigenvalues --    2.12560   2.13357   2.15552   2.18457   2.24926
 Alpha virt. eigenvalues --    2.30840   2.31848   2.32479   2.33766   2.42441
 Alpha virt. eigenvalues --    2.56985   2.60255   2.65406   2.67224   2.72776
 Alpha virt. eigenvalues --    2.75572   2.84248   2.87599   3.06635   3.36236
 Alpha virt. eigenvalues --    4.10247   4.11666   4.15393   4.23843   4.31073
 Alpha virt. eigenvalues --    4.33451   4.41199   4.68743
          Condensed to atoms (all electrons):
              1          2          3          4          5          6
     1  Cl  17.142115   0.155640   0.000082   0.000037   0.000000   0.000000
     2  Mg   0.155640  11.790230   0.166115  -0.051811   0.003031  -0.002792
     3  C    0.000082   0.166115   5.053713   0.462273  -0.028496  -0.022921
     4  C    0.000037  -0.051811   0.462273   5.006052   0.516892  -0.027963
     5  C    0.000000   0.003031  -0.028496   0.516892   4.976045   0.521119
     6  C    0.000000  -0.002792  -0.022921  -0.027963   0.521119   4.686946
     7  C    0.000001   0.003002  -0.025481  -0.049130  -0.044994   0.484301
     8  C    0.000037  -0.048626   0.474872  -0.036578  -0.048500  -0.025398
     9  C   -0.000000   0.000199   0.000145   0.006353  -0.051804   0.360145
    10  H   -0.000161   0.013719  -0.054635   0.356017  -0.053550   0.003075
    11  H   -0.000000   0.001218   0.003507  -0.035437   0.351875  -0.047574
    12  H   -0.000000   0.001225   0.003619   0.000634   0.005158  -0.056115
    13  H   -0.000151   0.013147  -0.052849   0.007306   0.000334   0.002728
    14  H   -0.000000   0.000024   0.000012   0.000250  -0.001678  -0.030404
    15  H   -0.000000   0.000003   0.000013  -0.000183   0.001044  -0.023119
    16  H   -0.000000   0.000003   0.000013  -0.000183   0.001047  -0.023126
              7          8          9         10         11         12
     1  Cl   0.000001   0.000037  -0.000000  -0.000161  -0.000000  -0.000000
     2  Mg   0.003002  -0.048626   0.000199   0.013719   0.001218   0.001225
     3  C   -0.025481   0.474872   0.000145  -0.054635   0.003507   0.003619
     4  C   -0.049130  -0.036578   0.006353   0.356017  -0.035437   0.000634
     5  C   -0.044994  -0.048500  -0.051804  -0.053550   0.351875   0.005158
     6  C    0.484301  -0.025398   0.360145   0.003075  -0.047574  -0.056115
     7  C    5.003124   0.523645  -0.067098   0.000389   0.005848   0.356322
     8  C    0.523645   4.988856   0.005253   0.007111   0.000574  -0.033012
     9  C   -0.067098   0.005253   5.215059  -0.000165  -0.008983  -0.006143
    10  H    0.000389   0.007111  -0.000165   0.556945  -0.000998   0.000031
    11  H    0.005848   0.000574  -0.008983  -0.000998   0.561852  -0.000089
    12  H    0.356322  -0.033012  -0.006143   0.000031  -0.000089   0.562220
    13  H   -0.055063   0.358086  -0.000147   0.000002   0.000029  -0.001142
    14  H    0.003771  -0.000133   0.368664   0.000001   0.006339   0.000081
    15  H   -0.001421  -0.000007   0.360578   0.000003   0.000141   0.001739
    16  H   -0.001422  -0.000007   0.360585   0.000003   0.000141   0.001742
             13         14         15         16
     1  Cl  -0.000151  -0.000000  -0.000000  -0.000000
     2  Mg   0.013147   0.000024   0.000003   0.000003
     3  C   -0.052849   0.000012   0.000013   0.000013
     4  C    0.007306   0.000250  -0.000183  -0.000183
     5  C    0.000334  -0.001678   0.001044   0.001047
     6  C    0.002728  -0.030404  -0.023119  -0.023126
     7  C   -0.055063   0.003771  -0.001421  -0.001422
     8  C    0.358086  -0.000133  -0.000007  -0.000007
     9  C   -0.000147   0.368664   0.360578   0.360585
    10  H    0.000002   0.000001   0.000003   0.000003
    11  H    0.000029   0.006339   0.000141   0.000141
    12  H   -0.001142   0.000081   0.001739   0.001742
    13  H    0.558262   0.000003   0.000001   0.000001
    14  H    0.000003   0.513285  -0.024471  -0.024474
    15  H    0.000001  -0.024471   0.503246  -0.023469
    16  H    0.000001  -0.024474  -0.023469   0.503261
 Mulliken atomic charges:
              1
     1  Cl  -0.297600
     2  Mg  -0.044324
     3  C    0.020018
     4  C   -0.154528
     5  C   -0.147525
     6  C    0.201098
     7  C   -0.135794
     8  C   -0.166174
     9  C   -0.542640
    10  H    0.172213
    11  H    0.161556
    12  H    0.163731
    13  H    0.169453
    14  H    0.188729
    15  H    0.205902
    16  H    0.205884
 Sum of Mulliken atomic charges =  -0.00000
 Mulliken charges with hydrogens summed into heavy atoms:
              1
     1  Cl  -0.297600
     2  Mg  -0.044324
     3  C    0.020018
     4  C    0.017685
     5  C    0.014031
     6  C    0.201098
     7  C    0.027937
     8  C    0.003280
     9  C    0.057875
 Sum of Mulliken charges with hydrogens summed into heavy atoms =  -0.00000
 Electronic spatial extent (au):  <R**2>=           2764.1063
 Charge=             -0.0000 electrons
 Dipole moment (field-independent basis, Debye):
    X=             15.2779    Y=             -0.0842    Z=              0.0002  Tot=             15.2781
 Quadrupole moment (field-independent basis, Debye-Ang):
   XX=            -86.2662   YY=            -61.0719   ZZ=            -68.5456
   XY=             -0.5425   XZ=              0.0013   YZ=             -0.0001
 Traceless Quadrupole moment (field-independent basis, Debye-Ang):
   XX=            -14.3050   YY=             10.8893   ZZ=              3.4157
   XY=             -0.5425   XZ=              0.0013   YZ=             -0.0001
 Octapole moment (field-independent basis, Debye-Ang**2):
  XXX=            280.5711  YYY=              0.5419  ZZZ=              0.0058  XYY=             20.3664
  XXY=             -2.6170  XXZ=              0.0003  XZZ=              9.0997  YZZ=             -0.7173
  YYZ=              0.0016  XYZ=             -0.0001
 Hexadecapole moment (field-independent basis, Debye-Ang**3):
 XXXX=          -3763.7095 YYYY=           -329.7852 ZZZZ=           -112.3251 XXXY=            -10.7376
 XXXZ=              0.0258 YYYX=              2.2230 YYYZ=              0.0001 ZZZX=             -0.0132
 ZZZY=             -0.0008 XXYY=           -610.0480 XXZZ=           -592.0851 YYZZ=            -83.4359
 XXYZ=              0.0003 YYXZ=              0.0012 ZZXY=             -3.7131
 N-N= 4.629648099481D+02 E-N=-3.125129910274D+03  KE= 9.266142667557D+02
 No NMR shielding tensors so no spin-rotation constants.
 Leave Link  601 at Sun Oct  3 10:56:26 2021, MaxMem=  536870912 cpu:       0.4
 (Enter /sw/target/amd/app/gaussian/Gaussian09RevA.02_gcc-4.9.2/g09/l604.exe)
 Evaluate density.
 Using the total density.
 Monte-Carlo method of calculating molar volume:
 based on  0.001 e/bohr**3 density envelope.
 Number of points per bohr**3 =   20 CutOff= 1.00D-04
 Using the CI density.
 There are       522 points.  Will hold       522 in memory.
 LenV=   536762064 MDV=   536870912.
 Box volume =17872.948 fraction occupied=0.090
 Integrated density= 5.0442882971329432D+01 error=-2.7557117028670568D+01
 Molar volume = 1609.250 bohr**3/mol (143.608 cm**3/mol)
 Recommended a0 for SCRF calculation =  4.73 angstrom (  8.95 bohr)
 Leave Link  604 at Sun Oct  3 10:56:28 2021, MaxMem=  536870912 cpu:       0.2
 (Enter /sw/target/amd/app/gaussian/Gaussian09RevA.02_gcc-4.9.2/g09/l607.exe)
 ******************************Gaussian NBO Version 3.1******************************
             N A T U R A L   A T O M I C   O R B I T A L   A N D
          N A T U R A L   B O N D   O R B I T A L   A N A L Y S I S
 ******************************Gaussian NBO Version 3.1******************************
       /RESON  / : Allow strongly delocalized NBO set

 Analyzing the CI density

 Job title: Cl[Mg]c1ccc(cc1)C_conf_0                                        

 Storage needed:     74888 in NPA ( 536869472 available)


 NATURAL POPULATIONS:  Natural atomic orbital occupancies 
                                                          
   NAO  Atom  No  lang   Type(AO)    Occupancy
 --------------------------------------------
     1   Cl    1  S      Cor( 1S)     2.00000
     2   Cl    1  S      Cor( 2S)     1.99993
     3   Cl    1  S      Val( 3S)     1.94932
     4   Cl    1  S      Ryd( 4S)     0.00287
     5   Cl    1  S      Ryd( 5S)     0.00000
     6   Cl    1  px     Cor( 2p)     1.99997
     7   Cl    1  px     Val( 3p)     1.88094
     8   Cl    1  px     Ryd( 4p)     0.00042
     9   Cl    1  py     Cor( 2p)     2.00000
    10   Cl    1  py     Val( 3p)     1.94503
    11   Cl    1  py     Ryd( 4p)     0.00000
    12   Cl    1  pz     Cor( 2p)     2.00000
    13   Cl    1  pz     Val( 3p)     1.94318
    14   Cl    1  pz     Ryd( 4p)     0.00000
    15   Cl    1  dxy    Ryd( 3d)     0.00057
    16   Cl    1  dxz    Ryd( 3d)     0.00055
    17   Cl    1  dyz    Ryd( 3d)     0.00000
    18   Cl    1  dx2y2  Ryd( 3d)     0.00191
    19   Cl    1  dz2    Ryd( 3d)     0.00064

    20   Mg    2  S      Cor( 1S)     2.00000
    21   Mg    2  S      Cor( 2S)     1.99945
    22   Mg    2  S      Val( 3S)     1.09052
    23   Mg    2  S      Ryd( 4S)     0.01636
    24   Mg    2  S      Ryd( 5S)     0.00041
    25   Mg    2  px     Cor( 2p)     1.99942
    26   Mg    2  px     Val( 3p)     0.10529
    27   Mg    2  px     Ryd( 4p)     0.00216
    28   Mg    2  py     Cor( 2p)     1.99978
    29   Mg    2  py     Val( 3p)     0.05304
    30   Mg    2  py     Ryd( 4p)     0.00020
    31   Mg    2  pz     Cor( 2p)     1.99973
    32   Mg    2  pz     Val( 3p)     0.03649
    33   Mg    2  pz     Ryd( 4p)     0.00030
    34   Mg    2  dxy    Ryd( 3d)     0.00190
    35   Mg    2  dxz    Ryd( 3d)     0.00131
    36   Mg    2  dyz    Ryd( 3d)     0.00001
    37   Mg    2  dx2y2  Ryd( 3d)     0.00314
    38   Mg    2  dz2    Ryd( 3d)     0.00073

    39    C    3  S      Cor( 1S)     1.99931
    40    C    3  S      Val( 2S)     1.20255
    41    C    3  S      Ryd( 3S)     0.00760
    42    C    3  S      Ryd( 4S)     0.00003
    43    C    3  px     Val( 2p)     1.55590
    44    C    3  px     Ryd( 3p)     0.01551
    45    C    3  py     Val( 2p)     0.97966
    46    C    3  py     Ryd( 3p)     0.00812
    47    C    3  pz     Val( 2p)     0.56461
    48    C    3  pz     Ryd( 3p)     0.00082
    49    C    3  dxy    Ryd( 3d)     0.00112
    50    C    3  dxz    Ryd( 3d)     0.00067
    51    C    3  dyz    Ryd( 3d)     0.00043
    52    C    3  dx2y2  Ryd( 3d)     0.00027
    53    C    3  dz2    Ryd( 3d)     0.00042

    54    C    4  S      Cor( 1S)     1.99917
    55    C    4  S      Val( 2S)     0.99089
    56    C    4  S      Ryd( 3S)     0.00120
    57    C    4  S      Ryd( 4S)     0.00005
    58    C    4  px     Val( 2p)     1.08703
    59    C    4  px     Ryd( 3p)     0.00425
    60    C    4  py     Val( 2p)     1.19948
    61    C    4  py     Ryd( 3p)     0.00675
    62    C    4  pz     Val( 2p)     0.89687
    63    C    4  pz     Ryd( 3p)     0.00030
    64    C    4  dxy    Ryd( 3d)     0.00095
    65    C    4  dxz    Ryd( 3d)     0.00039
    66    C    4  dyz    Ryd( 3d)     0.00032
    67    C    4  dx2y2  Ryd( 3d)     0.00101
    68    C    4  dz2    Ryd( 3d)     0.00041

    69    C    5  S      Cor( 1S)     1.99904
    70    C    5  S      Val( 2S)     0.97553
    71    C    5  S      Ryd( 3S)     0.00066
    72    C    5  S      Ryd( 4S)     0.00003
    73    C    5  px     Val( 2p)     1.11459
    74    C    5  px     Ryd( 3p)     0.00455
    75    C    5  py     Val( 2p)     1.15965
    76    C    5  py     Ryd( 3p)     0.00484
    77    C    5  pz     Val( 2p)     0.96330
    78    C    5  pz     Ryd( 3p)     0.00048
    79    C    5  dxy    Ryd( 3d)     0.00097
    80    C    5  dxz    Ryd( 3d)     0.00038
    81    C    5  dyz    Ryd( 3d)     0.00037
    82    C    5  dx2y2  Ryd( 3d)     0.00065
    83    C    5  dz2    Ryd( 3d)     0.00041

    84    C    6  S      Cor( 1S)     1.99903
    85    C    6  S      Val( 2S)     0.91554
    86    C    6  S      Ryd( 3S)     0.00057
    87    C    6  S      Ryd( 4S)     0.00006
    88    C    6  px     Val( 2p)     1.06641
    89    C    6  px     Ryd( 3p)     0.00472
    90    C    6  py     Val( 2p)     1.08494
    91    C    6  py     Ryd( 3p)     0.00378
    92    C    6  pz     Val( 2p)     0.78255
    93    C    6  pz     Ryd( 3p)     0.00122
    94    C    6  dxy    Ryd( 3d)     0.00095
    95    C    6  dxz    Ryd( 3d)     0.00064
    96    C    6  dyz    Ryd( 3d)     0.00071
    97    C    6  dx2y2  Ryd( 3d)     0.00075
    98    C    6  dz2    Ryd( 3d)     0.00033

    99    C    7  S      Cor( 1S)     1.99903
   100    C    7  S      Val( 2S)     0.97641
   101    C    7  S      Ryd( 3S)     0.00068
   102    C    7  S      Ryd( 4S)     0.00003
   103    C    7  px     Val( 2p)     1.11625
   104    C    7  px     Ryd( 3p)     0.00457
   105    C    7  py     Val( 2p)     1.15787
   106    C    7  py     Ryd( 3p)     0.00462
   107    C    7  pz     Val( 2p)     0.93608
   108    C    7  pz     Ryd( 3p)     0.00044
   109    C    7  dxy    Ryd( 3d)     0.00099
   110    C    7  dxz    Ryd( 3d)     0.00042
   111    C    7  dyz    Ryd( 3d)     0.00036
   112    C    7  dx2y2  Ryd( 3d)     0.00064
   113    C    7  dz2    Ryd( 3d)     0.00041

   114    C    8  S      Cor( 1S)     1.99918
   115    C    8  S      Val( 2S)     0.98855
   116    C    8  S      Ryd( 3S)     0.00123
   117    C    8  S      Ryd( 4S)     0.00004
   118    C    8  px     Val( 2p)     1.08712
   119    C    8  px     Ryd( 3p)     0.00439
   120    C    8  py     Val( 2p)     1.20159
   121    C    8  py     Ryd( 3p)     0.00688
   122    C    8  pz     Val( 2p)     0.92954
   123    C    8  pz     Ryd( 3p)     0.00031
   124    C    8  dxy    Ryd( 3d)     0.00092
   125    C    8  dxz    Ryd( 3d)     0.00038
   126    C    8  dyz    Ryd( 3d)     0.00031
   127    C    8  dx2y2  Ryd( 3d)     0.00101
   128    C    8  dz2    Ryd( 3d)     0.00041

   129    C    9  S      Cor( 1S)     1.99938
   130    C    9  S      Val( 2S)     1.10989
   131    C    9  S      Ryd( 3S)     0.00029
   132    C    9  S      Ryd( 4S)     0.00001
   133    C    9  px     Val( 2p)     1.07432
   134    C    9  px     Ryd( 3p)     0.00107
   135    C    9  py     Val( 2p)     1.27486
   136    C    9  py     Ryd( 3p)     0.00309
   137    C    9  pz     Val( 2p)     1.25037
   138    C    9  pz     Ryd( 3p)     0.00033
   139    C    9  dxy    Ryd( 3d)     0.00051
   140    C    9  dxz    Ryd( 3d)     0.00042
   141    C    9  dyz    Ryd( 3d)     0.00075
   142    C    9  dx2y2  Ryd( 3d)     0.00078
   143    C    9  dz2    Ryd( 3d)     0.00066

   144    H   10  S      Val( 1S)     0.75510
   145    H   10  S      Ryd( 2S)     0.00236

   146    H   11  S      Val( 1S)     0.75151
   147    H   11  S      Ryd( 2S)     0.00122

   148    H   12  S      Val( 1S)     0.75208
   149    H   12  S      Ryd( 2S)     0.00125

   150    H   13  S      Val( 1S)     0.75392
   151    H   13  S      Ryd( 2S)     0.00227

   152    H   14  S      Val( 1S)     0.74327
   153    H   14  S      Ryd( 2S)     0.00066

   154    H   15  S      Val( 1S)     0.72425
   155    H   15  S      Ryd( 2S)     0.00059

   156    H   16  S      Val( 1S)     0.72426
   157    H   16  S      Ryd( 2S)     0.00059


 Summary of Natural Population Analysis:                  
                                                          
                                       Natural Population 
                Natural  -----------------------------------------------
    Atom  No    Charge         Core      Valence    Rydberg      Total
 -----------------------------------------------------------------------
     Cl    1   -0.72533      9.99990     7.71848    0.00695    17.72533
     Mg    2    0.68975      9.99838     1.28534    0.02653    11.31025
      C    3   -0.33703      1.99931     4.30273    0.03499     6.33703
      C    4   -0.18907      1.99917     4.17427    0.01563     6.18907
      C    5   -0.22545      1.99904     4.21308    0.01333     6.22545
      C    6    0.13782      1.99903     3.84943    0.01372     5.86218
      C    7   -0.19881      1.99903     4.18661    0.01317     6.19881
      C    8   -0.22186      1.99918     4.20680    0.01588     6.22186
      C    9   -0.71674      1.99938     4.70945    0.00790     6.71674
      H   10    0.24254      0.00000     0.75510    0.00236     0.75746
      H   11    0.24727      0.00000     0.75151    0.00122     0.75273
      H   12    0.24667      0.00000     0.75208    0.00125     0.75333
      H   13    0.24382      0.00000     0.75392    0.00227     0.75618
      H   14    0.25607      0.00000     0.74327    0.00066     0.74393
      H   15    0.27516      0.00000     0.72425    0.00059     0.72484
      H   16    0.27515      0.00000     0.72426    0.00059     0.72485
 =======================================================================
   * Total *   -0.00003     33.99243    43.85055    0.15705    78.00003

                                 Natural Population      
 --------------------------------------------------------
   Core                      33.99243 ( 99.9777% of  34)
   Valence                   43.85055 ( 99.6603% of  44)
   Natural Minimal Basis     77.84298 ( 99.7987% of  78)
   Natural Rydberg Basis      0.15705 (  0.2013% of  78)
 --------------------------------------------------------

    Atom  No          Natural Electron Configuration
 ----------------------------------------------------------------------------
     Cl    1      [core]3S( 1.95)3p( 5.77)
     Mg    2      [core]3S( 1.09)3p( 0.19)4S( 0.02)3d( 0.01)
      C    3      [core]2S( 1.20)2p( 3.10)3S( 0.01)3p( 0.02)
      C    4      [core]2S( 0.99)2p( 3.18)3p( 0.01)
      C    5      [core]2S( 0.98)2p( 3.24)3p( 0.01)
      C    6      [core]2S( 0.92)2p( 2.93)3p( 0.01)
      C    7      [core]2S( 0.98)2p( 3.21)3p( 0.01)
      C    8      [core]2S( 0.99)2p( 3.22)3p( 0.01)
      C    9      [core]2S( 1.11)2p( 3.60)
      H   10            1S( 0.76)
      H   11            1S( 0.75)
      H   12            1S( 0.75)
      H   13            1S( 0.75)
      H   14            1S( 0.74)
      H   15            1S( 0.72)
      H   16            1S( 0.72)


 NBO analysis skipped by request.
 Leave Link  607 at Sun Oct  3 10:56:57 2021, MaxMem=  536870912 cpu:       7.2
 (Enter /sw/target/amd/app/gaussian/Gaussian09RevA.02_gcc-4.9.2/g09/l9999.exe)
 1\1\GINC-HERMITE\SP\RTD-B3LYP-FC\6-31G(d)\C7H7Cl1Mg1\JSCHLEINITZ\03-Oc
 t-2021\0\\#p TD(NStates=10, Root=1) b3lyp/6-31G* volume pop=NPA densit
 y=current Geom=AllCheck Guess=Read\\Cl[Mg]c1ccc(cc1)C_conf_0\\0,1\Cl,0
 ,1.1660414361,0.0261274802,-0.0268727988\Mg,0,3.3808608972,0.025388205
 5,-0.0593808576\C,0,5.4531573181,0.0293886251,-0.0896051015\C,0,6.1921
 133548,1.229050049,-0.1094694562\C,0,7.589338844,1.2386402118,-0.12957
 26683\C,0,8.3185693403,0.0448788562,-0.1308277833\C,0,7.6012741994,-1.
 159494814,-0.1112666522\C,0,6.2068696716,-1.1643719858,-0.0912357625\C
 ,0,9.8293566802,0.0458472832,-0.1525542837\H,0,5.681729392,2.192347338
 3,-0.1096220535\H,0,8.120794303,2.1885276751,-0.1445371933\H,0,8.14264
 68728,-2.1043182498,-0.1117735609\H,0,5.7055234027,-2.132251946,-0.076
 6371629\H,0,10.2285036952,1.0649229938,-0.165741791\H,0,10.2172593328,
 -0.476543442,-1.0360711247\H,0,10.2425933995,-0.4636654605,0.726982892
 2\\Version=AM64L-G09RevA.02\State=1-A\HF=-931.3166942\RMSD=8.461e-10\D
 ipole=6.0102167,-0.0206919,-0.0868945\Quadrupole=-10.6307505,8.0938599
 ,2.5368906,-0.4426469,0.1953261,-0.0364282\PG=C01 [X(C7H7Cl1Mg1)]\\@


 SUCCESS-- IF YOU HAVE TRIED TO DO SOMETHING AND FAILED
           YOU ARE BETTER OFF THAN IF YOU HAD TRIED TO DO
           NOTHING AND SUCCEEDED.

                   -- FROM THE BACK OF A SUGAR PACKET
 Job cpu time:  0 days  0 hours 30 minutes 19.0 seconds.
 File lengths (MBytes):  RWF=     70 Int=      0 D2E=      0 Chk=     11 Scr=      1
 Normal termination of Gaussian 09 at Sun Oct  3 10:57:10 2021.
