 Entering Gaussian System, Link 0=g09
 Input=C7H8O_1d31_conf_0.com
 Output=C7H8O_1d31_conf_0.log
 Initial command:
 /sw/target/amd/app/gaussian/Gaussian09RevA.02_gcc-4.9.2/g09/l1.exe /home/jschleinitz/gaussian/Gau-3301334.inp -scrdir=/home/jschleinitz/gaussian/
 Entering Link 1 = /sw/target/amd/app/gaussian/Gaussian09RevA.02_gcc-4.9.2/g09/l1.exe PID=   3301389.
  
 Copyright (c) 1988,1990,1992,1993,1995,1998,2003,2009, Gaussian, Inc.
                  All Rights Reserved.
  
 This is part of the Gaussian(R) 09 program.  It is based on
 the Gaussian(R) 03 system (copyright 2003, Gaussian, Inc.),
 the Gaussian(R) 98 system (copyright 1998, Gaussian, Inc.),
 the Gaussian(R) 94 system (copyright 1995, Gaussian, Inc.),
 the Gaussian 92(TM) system (copyright 1992, Gaussian, Inc.),
 the Gaussian 90(TM) system (copyright 1990, Gaussian, Inc.),
 the Gaussian 88(TM) system (copyright 1988, Gaussian, Inc.),
 the Gaussian 86(TM) system (copyright 1986, Carnegie Mellon
 University), and the Gaussian 82(TM) system (copyright 1983,
 Carnegie Mellon University). Gaussian is a federally registered
 trademark of Gaussian, Inc.
  
 This software contains proprietary and confidential information,
 including trade secrets, belonging to Gaussian, Inc.
  
 This software is provided under written license and may be
 used, copied, transmitted, or stored only in accord with that
 written license.
  
 The following legend is applicable only to US Government
 contracts under FAR:
  
                    RESTRICTED RIGHTS LEGEND
  
 Use, reproduction and disclosure by the US Government is
 subject to restrictions as set forth in subparagraphs (a)
 and (c) of the Commercial Computer Software - Restricted
 Rights clause in FAR 52.227-19.
  
 Gaussian, Inc.
 340 Quinnipiac St., Bldg. 40, Wallingford CT 06492
  
  
 ---------------------------------------------------------------
 Warning -- This program may not be used in any manner that
 competes with the business of Gaussian, Inc. or will provide
 assistance to any competitor of Gaussian, Inc.  The licensee
 of this program is prohibited from giving any competitor of
 Gaussian, Inc. access to this program.  By using this program,
 the user acknowledges that Gaussian, Inc. is engaged in the
 business of creating and licensing software in the field of
 computational chemistry and represents and warrants to the
 licensee that it is not a competitor of Gaussian, Inc. and that
 it will not use this program in any manner prohibited above.
 ---------------------------------------------------------------
  

 Cite this work as:
 Gaussian 09, Revision A.02,
 M. J. Frisch, G. W. Trucks, H. B. Schlegel, G. E. Scuseria, 
 M. A. Robb, J. R. Cheeseman, G. Scalmani, V. Barone, B. Mennucci, 
 G. A. Petersson, H. Nakatsuji, M. Caricato, X. Li, H. P. Hratchian, 
 A. F. Izmaylov, J. Bloino, G. Zheng, J. L. Sonnenberg, M. Hada, 
 M. Ehara, K. Toyota, R. Fukuda, J. Hasegawa, M. Ishida, T. Nakajima, 
 Y. Honda, O. Kitao, H. Nakai, T. Vreven, J. A. Montgomery, Jr., 
 J. E. Peralta, F. Ogliaro, M. Bearpark, J. J. Heyd, E. Brothers, 
 K. N. Kudin, V. N. Staroverov, R. Kobayashi, J. Normand, 
 K. Raghavachari, A. Rendell, J. C. Burant, S. S. Iyengar, J. Tomasi, 
 M. Cossi, N. Rega, J. M. Millam, M. Klene, J. E. Knox, J. B. Cross, 
 V. Bakken, C. Adamo, J. Jaramillo, R. Gomperts, R. E. Stratmann, 
 O. Yazyev, A. J. Austin, R. Cammi, C. Pomelli, J. W. Ochterski, 
 R. L. Martin, K. Morokuma, V. G. Zakrzewski, G. A. Voth, 
 P. Salvador, J. J. Dannenberg, S. Dapprich, A. D. Daniels, 
 O. Farkas, J. B. Foresman, J. V. Ortiz, J. Cioslowski, 
 and D. J. Fox, Gaussian, Inc., Wallingford CT, 2009.
 
 ******************************************
 Gaussian 09:  AM64L-G09RevA.02 11-Jun-2009
                28-Sep-2021 
 ******************************************
 %nproc=2
 Will use up to    2 processors via shared memory.
 %mem=4gb
 %chk=C7H8O_1d31_conf_0.chk
 -----------------------------------
 #p opt b3lyp/6-31G* scf=(xqc,tight)
 -----------------------------------
 1/14=-1,18=20,19=15,26=3,38=1/1,3;
 2/9=110,12=2,17=6,18=5,40=1/2;
 3/5=1,6=6,7=1,11=2,16=1,25=1,30=1,71=1,74=-5/1,2,3;
 4//1;
 5/5=2,8=3,13=1,32=2,38=5/2,8;
 6/7=2,8=2,9=2,10=2,28=1/1;
 7//1,2,3,16;
 1/14=-1,18=20,19=15/3(2);
 2/9=110/2;
 99//99;
 2/9=110/2;
 3/5=1,6=6,7=1,11=2,16=1,25=1,30=1,71=1,74=-5/1,2,3;
 4/5=5,16=3/1;
 5/5=2,8=3,13=1,32=2,38=5/2,8;
 7//1,2,3,16;
 1/14=-1,18=20,19=15/3(-5);
 2/9=110/2;
 6/7=2,8=2,9=2,10=2,19=2,28=1/1;
 99/9=1/99;
 Leave Link    1 at Tue Sep 28 15:18:40 2021, MaxMem=  536870912 cpu:       0.1
 (Enter /sw/target/amd/app/gaussian/Gaussian09RevA.02_gcc-4.9.2/g09/l101.exe)
 -----------------
 COc1ccccc1_conf_0
 -----------------
 Symbolic Z-matrix:
 Charge =  0 Multiplicity = 1
 C                     2.49224   1.47118  -0.32229 
 O                     2.20302   0.25428   0.3537 
 C                     3.05869  -0.11279   1.35583 
 C                     2.68383  -1.26549   2.0513 
 C                     3.46576  -1.74986   3.1013 
 C                     4.6342   -1.08263   3.46059 
 C                     5.01785   0.0647    2.76832 
 C                     4.23298   0.54982   1.71714 
 H                     1.69967   1.64171  -1.05727 
 H                     3.44082   1.40489  -0.86508 
 H                     2.4909    2.31902   0.37092 
 H                     1.77216  -1.78854   1.77313 
 H                     3.16139  -2.64537   3.63593 
 H                     5.24542  -1.45644   4.27777 
 H                     5.9313    0.58453   3.04626 
 H                     4.56767   1.44315   1.20148 
 
 NAtoms=     16 NQM=     16 NQMF=      0 NMic=      0 NMicF=      0 NTot=     16.
                    Isotopes and Nuclear Properties:
 (Nuclear quadrupole moments (NQMom) in fm**2, nuclear magnetic moments (NMagM)
  in nuclear magnetons)

  Atom         1           2           3           4           5           6           7           8           9          10
 IAtWgt=          12          16          12          12          12          12          12          12           1           1
 AtmWgt=  12.0000000  15.9949146  12.0000000  12.0000000  12.0000000  12.0000000  12.0000000  12.0000000   1.0078250   1.0078250
 NucSpn=           0           0           0           0           0           0           0           0           1           1
 AtZEff=   0.0000000   0.0000000   0.0000000   0.0000000   0.0000000   0.0000000   0.0000000   0.0000000   0.0000000   0.0000000
 NQMom=    0.0000000   0.0000000   0.0000000   0.0000000   0.0000000   0.0000000   0.0000000   0.0000000   0.0000000   0.0000000
 NMagM=    0.0000000   0.0000000   0.0000000   0.0000000   0.0000000   0.0000000   0.0000000   0.0000000   2.7928460   2.7928460

  Atom        11          12          13          14          15          16
 IAtWgt=           1           1           1           1           1           1
 AtmWgt=   1.0078250   1.0078250   1.0078250   1.0078250   1.0078250   1.0078250
 NucSpn=           1           1           1           1           1           1
 AtZEff=   0.0000000   0.0000000   0.0000000   0.0000000   0.0000000   0.0000000
 NQMom=    0.0000000   0.0000000   0.0000000   0.0000000   0.0000000   0.0000000
 NMagM=    2.7928460   2.7928460   2.7928460   2.7928460   2.7928460   2.7928460
 Leave Link  101 at Tue Sep 28 15:18:41 2021, MaxMem=  536870912 cpu:       0.3
 (Enter /sw/target/amd/app/gaussian/Gaussian09RevA.02_gcc-4.9.2/g09/l103.exe)

 GradGradGradGradGradGradGradGradGradGradGradGradGradGradGradGradGradGrad
 Berny optimization.
 Initialization pass.
                           ----------------------------
                           !    Initial Parameters    !
                           ! (Angstroms and Degrees)  !
 --------------------------                            --------------------------
 ! Name  Definition              Value          Derivative Info.                !
 --------------------------------------------------------------------------------
 ! R1    R(1,2)                  1.4218         estimate D2E/DX2                !
 ! R2    R(1,9)                  1.0943         estimate D2E/DX2                !
 ! R3    R(1,10)                 1.0949         estimate D2E/DX2                !
 ! R4    R(1,11)                 1.0952         estimate D2E/DX2                !
 ! R5    R(2,3)                  1.3679         estimate D2E/DX2                !
 ! R6    R(3,4)                  1.3975         estimate D2E/DX2                !
 ! R7    R(3,8)                  1.3959         estimate D2E/DX2                !
 ! R8    R(4,5)                  1.3959         estimate D2E/DX2                !
 ! R9    R(4,12)                 1.0872         estimate D2E/DX2                !
 ! R10   R(5,6)                  1.3927         estimate D2E/DX2                !
 ! R11   R(5,13)                 1.0865         estimate D2E/DX2                !
 ! R12   R(6,7)                  1.3938         estimate D2E/DX2                !
 ! R13   R(6,14)                 1.0868         estimate D2E/DX2                !
 ! R14   R(7,8)                  1.3987         estimate D2E/DX2                !
 ! R15   R(7,15)                 1.0871         estimate D2E/DX2                !
 ! R16   R(8,16)                 1.0844         estimate D2E/DX2                !
 ! A1    A(2,1,9)              107.7818         estimate D2E/DX2                !
 ! A2    A(2,1,10)             111.1068         estimate D2E/DX2                !
 ! A3    A(2,1,11)             111.187          estimate D2E/DX2                !
 ! A4    A(9,1,10)             107.6956         estimate D2E/DX2                !
 ! A5    A(9,1,11)             107.6746         estimate D2E/DX2                !
 ! A6    A(10,1,11)            111.2063         estimate D2E/DX2                !
 ! A7    A(1,2,3)              116.7917         estimate D2E/DX2                !
 ! A8    A(2,3,4)              114.7173         estimate D2E/DX2                !
 ! A9    A(2,3,8)              126.0482         estimate D2E/DX2                !
 ! A10   A(4,3,8)              119.2342         estimate D2E/DX2                !
 ! A11   A(3,4,5)              120.6843         estimate D2E/DX2                !
 ! A12   A(3,4,12)             119.6314         estimate D2E/DX2                !
 ! A13   A(5,4,12)             119.6841         estimate D2E/DX2                !
 ! A14   A(4,5,6)              119.8536         estimate D2E/DX2                !
 ! A15   A(4,5,13)             119.9482         estimate D2E/DX2                !
 ! A16   A(6,5,13)             120.1982         estimate D2E/DX2                !
 ! A17   A(5,6,7)              119.8126         estimate D2E/DX2                !
 ! A18   A(5,6,14)             120.0697         estimate D2E/DX2                !
 ! A19   A(7,6,14)             120.1177         estimate D2E/DX2                !
 ! A20   A(6,7,8)              120.2853         estimate D2E/DX2                !
 ! A21   A(6,7,15)             119.8608         estimate D2E/DX2                !
 ! A22   A(8,7,15)             119.854          estimate D2E/DX2                !
 ! A23   A(3,8,7)              120.129          estimate D2E/DX2                !
 ! A24   A(3,8,16)             121.8432         estimate D2E/DX2                !
 ! A25   A(7,8,16)             118.0276         estimate D2E/DX2                !
 ! D1    D(9,1,2,3)           -177.6364         estimate D2E/DX2                !
 ! D2    D(10,1,2,3)            64.5911         estimate D2E/DX2                !
 ! D3    D(11,1,2,3)           -59.8439         estimate D2E/DX2                !
 ! D4    D(1,2,3,4)            175.8029         estimate D2E/DX2                !
 ! D5    D(1,2,3,8)             -4.4133         estimate D2E/DX2                !
 ! D6    D(2,3,4,5)           -179.8271         estimate D2E/DX2                !
 ! D7    D(2,3,4,12)             0.0001         estimate D2E/DX2                !
 ! D8    D(8,3,4,5)              0.3732         estimate D2E/DX2                !
 ! D9    D(8,3,4,12)          -179.7995         estimate D2E/DX2                !
 ! D10   D(2,3,8,7)            179.9104         estimate D2E/DX2                !
 ! D11   D(2,3,8,16)            -0.2493         estimate D2E/DX2                !
 ! D12   D(4,3,8,7)             -0.3148         estimate D2E/DX2                !
 ! D13   D(4,3,8,16)           179.5256         estimate D2E/DX2                !
 ! D14   D(3,4,5,6)             -0.1715         estimate D2E/DX2                !
 ! D15   D(3,4,5,13)           179.8061         estimate D2E/DX2                !
 ! D16   D(12,4,5,6)          -179.9987         estimate D2E/DX2                !
 ! D17   D(12,4,5,13)           -0.0211         estimate D2E/DX2                !
 ! D18   D(4,5,6,7)             -0.0906         estimate D2E/DX2                !
 ! D19   D(4,5,6,14)           179.9768         estimate D2E/DX2                !
 ! D20   D(13,5,6,7)           179.9318         estimate D2E/DX2                !
 ! D21   D(13,5,6,14)           -0.0008         estimate D2E/DX2                !
 ! D22   D(5,6,7,8)              0.1475         estimate D2E/DX2                !
 ! D23   D(5,6,7,15)          -179.8238         estimate D2E/DX2                !
 ! D24   D(14,6,7,8)          -179.92           estimate D2E/DX2                !
 ! D25   D(14,6,7,15)            0.1087         estimate D2E/DX2                !
 ! D26   D(6,7,8,3)              0.0572         estimate D2E/DX2                !
 ! D27   D(6,7,8,16)          -179.7892         estimate D2E/DX2                !
 ! D28   D(15,7,8,3)          -179.9716         estimate D2E/DX2                !
 ! D29   D(15,7,8,16)            0.1821         estimate D2E/DX2                !
 --------------------------------------------------------------------------------
 Trust Radius=3.00D-01 FncErr=1.00D-07 GrdErr=1.00D-06
 Number of steps in this run=  80 maximum allowed number of steps= 100.
 GradGradGradGradGradGradGradGradGradGradGradGradGradGradGradGradGradGrad

 Leave Link  103 at Tue Sep 28 15:18:41 2021, MaxMem=  536870912 cpu:       0.0
 (Enter /sw/target/amd/app/gaussian/Gaussian09RevA.02_gcc-4.9.2/g09/l202.exe)
                          Input orientation:                          
 ---------------------------------------------------------------------
 Center     Atomic      Atomic             Coordinates (Angstroms)
 Number     Number       Type             X           Y           Z
 ---------------------------------------------------------------------
      1          6           0        2.492236    1.471184   -0.322292
      2          8           0        2.203024    0.254279    0.353697
      3          6           0        3.058691   -0.112789    1.355829
      4          6           0        2.683835   -1.265487    2.051300
      5          6           0        3.465765   -1.749856    3.101305
      6          6           0        4.634205   -1.082629    3.460593
      7          6           0        5.017855    0.064698    2.768323
      8          6           0        4.232976    0.549819    1.717139
      9          1           0        1.699667    1.641715   -1.057270
     10          1           0        3.440822    1.404889   -0.865084
     11          1           0        2.490895    2.319023    0.370920
     12          1           0        1.772164   -1.788543    1.773135
     13          1           0        3.161386   -2.645373    3.635929
     14          1           0        5.245423   -1.456439    4.277766
     15          1           0        5.931299    0.584526    3.046259
     16          1           0        4.567673    1.443154    1.201478
 ---------------------------------------------------------------------
                    Distance matrix (angstroms):
                    1          2          3          4          5
     1  C    0.000000
     2  O    1.421781   0.000000
     3  C    2.376117   1.367909   0.000000
     4  C    3.627673   2.328675   1.397466   0.000000
     5  C    4.800403   3.627730   2.427423   1.395900   0.000000
     6  C    5.041845   4.165425   2.802296   2.413190   1.392670
     7  C    4.231885   3.713440   2.421769   2.780497   2.410906
     8  C    2.835201   2.463133   1.395901   2.409738   2.791600
     9  H    1.094276   2.041855   3.278457   4.368480   5.649389
    10  H    1.094912   2.083620   2.716951   4.026069   5.068064
    11  H    1.095160   2.084787   2.684427   3.963536   4.996113
    12  H    3.941463   2.524592   2.153473   1.087247   2.152630
    13  H    5.749896   4.483245   3.409308   2.154806   1.086471
    14  H    6.108318   5.251769   3.889076   3.399316   2.153448
    15  H    4.894941   4.610747   3.405242   3.867624   3.395766
    16  H    2.574898   2.779159   2.172972   3.407019   3.875416
                    6          7          8          9         10
     6  C    0.000000
     7  C    1.393838   0.000000
     8  C    2.421880   1.398702   0.000000
     9  H    6.036940   5.304010   3.912446   0.000000
    10  H    5.130632   4.181482   2.833112   1.767666   0.000000
    11  H    5.070611   4.149102   2.824400   1.767630   1.807127
    12  H    3.396631   3.867740   3.395095   4.447821   4.465716
    13  H    2.154554   3.397602   3.878055   6.522412   6.061503
    14  H    1.086782   2.155009   3.406895   7.115726   6.155704
    15  H    2.152564   1.087129   2.156865   5.988598   4.708935
    16  H    3.389337   2.134902   1.084423   3.656067   2.354132
                   11         12         13         14         15
    11  H    0.000000
    12  H    4.399418   0.000000
    13  H    5.979554   2.476711   0.000000
    14  H    6.091387   4.294997   2.483693   0.000000
    15  H    4.690661   4.954867   4.295623   2.480438   0.000000
    16  H    2.402078   4.311093   4.961879   4.281417   2.449476
                   16
    16  H    0.000000
 Stoichiometry    C7H8O
 Framework group  C1[X(C7H8O)]
 Deg. of freedom    42
 Full point group                 C1      NOp   1
 Largest Abelian subgroup         C1      NOp   1
 Largest concise Abelian subgroup C1      NOp   1
                         Standard orientation:                         
 ---------------------------------------------------------------------
 Center     Atomic      Atomic             Coordinates (Angstroms)
 Number     Number       Type             X           Y           Z
 ---------------------------------------------------------------------
      1          6           0       -2.762335    0.330303    0.039587
      2          8           0       -1.764365   -0.679519   -0.036411
      3          6           0       -0.461932   -0.261664   -0.020851
      4          6           0        0.482118   -1.291914   -0.004587
      5          6           0        1.848266   -1.005984    0.015926
      6          6           0        2.279444    0.318258    0.016686
      7          6           0        1.344235    1.351554   -0.004962
      8          6           0       -0.024431    1.063900   -0.024317
      9          1           0       -3.737987   -0.164841    0.058960
     10          1           0       -2.735473    0.978372   -0.842523
     11          1           0       -2.666657    0.912706    0.962099
     12          1           0        0.148560   -2.326730   -0.005105
     13          1           0        2.571827   -1.816313    0.031613
     14          1           0        3.342209    0.544881    0.033006
     15          1           0        1.679994    2.385531   -0.007284
     16          1           0       -0.719746    1.895831   -0.044370
 ---------------------------------------------------------------------
 Rotational constants (GHZ):      5.0424705      1.5615845      1.2020599
 Leave Link  202 at Tue Sep 28 15:18:41 2021, MaxMem=  536870912 cpu:       0.0
 (Enter /sw/target/amd/app/gaussian/Gaussian09RevA.02_gcc-4.9.2/g09/l301.exe)
 Standard basis: 6-31G(d) (6D, 7F)
 Ernie: Thresh=  0.10000D-02 Tol=  0.10000D-05 Strict=F.
 There are   136 symmetry adapted basis functions of A   symmetry.
 Integral buffers will be    131072 words long.
 Raffenetti 2 integral format.
 Two-electron integral symmetry is turned on.
   136 basis functions,   256 primitive gaussians,   136 cartesian basis functions
    29 alpha electrons       29 beta electrons
       nuclear repulsion energy       345.3603357004 Hartrees.
 IExCor=  402 DFT=T Ex+Corr=B3LYP ExCW=0 ScaHFX=  0.200000
 ScaDFX=  0.800000  0.720000  1.000000  0.810000 ScalE2=  1.000000  1.000000
 IRadAn=      0 IRanWt=     -1 IRanGd=            0 ICorTp=0
 NAtoms=   16 NActive=   16 NUniq=   16 SFac= 7.50D-01 NAtFMM=   80 NAOKFM=F Big=F
 Leave Link  301 at Tue Sep 28 15:18:41 2021, MaxMem=  536870912 cpu:       0.1
 (Enter /sw/target/amd/app/gaussian/Gaussian09RevA.02_gcc-4.9.2/g09/l302.exe)
 NPDir=0 NMtPBC=     1 NCelOv=     1 NCel=       1 NClECP=     1 NCelD=      1
         NCelK=      1 NCelE2=     1 NClLst=     1 CellRange=     0.0.
 One-electron integrals computed using PRISM.
 NBasis=   136 RedAO= T  NBF=   136
 NBsUse=   136 1.00D-06 NBFU=   136
 Precomputing XC quadrature grid using
 IXCGrd= 2 IRadAn=           0 IRanWt=          -1 IRanGd=           0 AccXCQ= 1.00D-10.
 NRdTot=     998 NPtTot=      126646 NUsed=      133853 NTot=      133885
 NSgBfM=   136   136   136   136   136 NAtAll=    16    16.
 Leave Link  302 at Tue Sep 28 15:18:43 2021, MaxMem=  536870912 cpu:       0.8
 (Enter /sw/target/amd/app/gaussian/Gaussian09RevA.02_gcc-4.9.2/g09/l303.exe)
 DipDrv:  MaxL=1.
 Leave Link  303 at Tue Sep 28 15:18:43 2021, MaxMem=  536870912 cpu:       0.1
 (Enter /sw/target/amd/app/gaussian/Gaussian09RevA.02_gcc-4.9.2/g09/l401.exe)
 Harris functional with IExCor=  402 diagonalized for initial guess.
 ExpMin= 1.61D-01 ExpMax= 5.48D+03 ExpMxC= 8.25D+02 IAcc=1 IRadAn=         1 AccDes= 0.00D+00
 HarFok:  IExCor=  402 AccDes= 0.00D+00 IRadAn=         1 IDoV= 1
 ScaDFX=  1.000000  1.000000  1.000000  1.000000
 FoFCou: FMM=F IPFlag=           0 FMFlag=      100000 FMFlg1=           0
         NFxFlg=           0 DoJE=T BraDBF=F KetDBF=T FulRan=T
         Omega=  0.000000  0.000000  1.000000  0.000000  0.000000 ICntrl=     500 IOpCl=  0
         NMat0=    1 NMatS0=    1 NMatT0=    0 NMatD0=    1 NMtDS0=    0 NMtDT0=    0
         I1Cent=           4 NGrid=           0.
 Petite list used in FoFCou.
 Harris En= -346.821698896688    
 Initial guess orbital symmetries:
       Occupied  (A) (A) (A) (A) (A) (A) (A) (A) (A) (A) (A) (A)
                 (A) (A) (A) (A) (A) (A) (A) (A) (A) (A) (A) (A)
                 (A) (A) (A) (A) (A)
       Virtual   (A) (A) (A) (A) (A) (A) (A) (A) (A) (A) (A) (A)
                 (A) (A) (A) (A) (A) (A) (A) (A) (A) (A) (A) (A)
                 (A) (A) (A) (A) (A) (A) (A) (A) (A) (A) (A) (A)
                 (A) (A) (A) (A) (A) (A) (A) (A) (A) (A) (A) (A)
                 (A) (A) (A) (A) (A) (A) (A) (A) (A) (A) (A) (A)
                 (A) (A) (A) (A) (A) (A) (A) (A) (A) (A) (A) (A)
                 (A) (A) (A) (A) (A) (A) (A) (A) (A) (A) (A) (A)
                 (A) (A) (A) (A) (A) (A) (A) (A) (A) (A) (A) (A)
                 (A) (A) (A) (A) (A) (A) (A) (A) (A) (A) (A)
 The electronic state of the initial guess is 1-A.
 Leave Link  401 at Tue Sep 28 15:18:47 2021, MaxMem=  536870912 cpu:       3.4
 (Enter /sw/target/amd/app/gaussian/Gaussian09RevA.02_gcc-4.9.2/g09/l502.exe)
 Closed shell SCF:
 Requested convergence on RMS density matrix=1.00D-08 within  64 cycles.
 Requested convergence on MAX density matrix=1.00D-06.
 Requested convergence on             energy=1.00D-06.
 No special actions if energy rises.
 Using DIIS extrapolation, IDIIS=  1040.
 Integral symmetry usage will be decided dynamically.
       133696 words used for storage of precomputed grid.
 Keep R1 ints in memory in canonical form, NReq=44880778.
 IEnd=      196570 IEndB=      196570 NGot=   536870912 MDV=   493298585
 LenX=   493298585 LenY=   493279648
 Symmetry not used in FoFDir.
 MinBra= 0 MaxBra= 2 Meth= 1.
 IRaf=       0 NMat=   1 IRICut=       1 DoRegI=T DoRafI=F ISym2E= 0 JSym2E=0.
 Integral accuracy reduced to 1.0D-05 until final iterations.

 Cycle   1  Pass 0  IDiag  1:
 E= -346.571976393223    
 DIIS: error= 4.87D-02 at cycle   1 NSaved=   1.
 NSaved= 1 IEnMin= 1 EnMin= -346.571976393223     IErMin= 1 ErrMin= 4.87D-02
 ErrMax= 4.87D-02 EMaxC= 1.00D-01 BMatC= 1.81D-01 BMatP= 1.81D-01
 IDIUse=3 WtCom= 5.13D-01 WtEn= 4.87D-01
 Coeff-Com:  0.100D+01
 Coeff-En:   0.100D+01
 Coeff:      0.100D+01
 Gap=     0.247 Goal=   None    Shift=    0.000
 GapD=    0.247 DampG=1.000 DampE=0.500 DampFc=0.5000 IDamp=-1.
 Damping current iteration by 5.00D-01
 RMSDP=7.08D-03 MaxDP=1.36D-01              OVMax= 1.99D-01

 Cycle   2  Pass 0  IDiag  1:
 E= -346.664284776373     Delta-E=       -0.092308383150 Rises=F Damp=T
 DIIS: error= 8.20D-03 at cycle   2 NSaved=   2.
 NSaved= 2 IEnMin= 2 EnMin= -346.664284776373     IErMin= 2 ErrMin= 8.20D-03
 ErrMax= 8.20D-03 EMaxC= 1.00D-01 BMatC= 9.71D-03 BMatP= 1.81D-01
 IDIUse=3 WtCom= 9.18D-01 WtEn= 8.20D-02
 Coeff-Com:  0.276D-01 0.972D+00
 Coeff-En:   0.431D-01 0.957D+00
 Coeff:      0.289D-01 0.971D+00
 Gap=     0.229 Goal=   None    Shift=    0.000
 RMSDP=1.66D-03 MaxDP=3.60D-02 DE=-9.23D-02 OVMax= 1.50D-01

 Cycle   3  Pass 0  IDiag  1:
 E= -346.762809470695     Delta-E=       -0.098524694322 Rises=F Damp=F
 DIIS: error= 7.42D-03 at cycle   3 NSaved=   3.
 NSaved= 3 IEnMin= 3 EnMin= -346.762809470695     IErMin= 3 ErrMin= 7.42D-03
 ErrMax= 7.42D-03 EMaxC= 1.00D-01 BMatC= 6.99D-03 BMatP= 9.71D-03
 IDIUse=3 WtCom= 9.26D-01 WtEn= 7.42D-02
 Coeff-Com: -0.233D-01 0.457D+00 0.567D+00
 Coeff-En:   0.000D+00 0.000D+00 0.100D+01
 Coeff:     -0.215D-01 0.423D+00 0.599D+00
 Gap=     0.224 Goal=   None    Shift=    0.000
 RMSDP=1.08D-03 MaxDP=2.76D-02 DE=-9.85D-02 OVMax= 6.60D-02

 Cycle   4  Pass 0  IDiag  1:
 E= -346.767006363755     Delta-E=       -0.004196893060 Rises=F Damp=F
 DIIS: error= 5.19D-03 at cycle   4 NSaved=   4.
 NSaved= 4 IEnMin= 4 EnMin= -346.767006363755     IErMin= 4 ErrMin= 5.19D-03
 ErrMax= 5.19D-03 EMaxC= 1.00D-01 BMatC= 3.07D-03 BMatP= 6.99D-03
 IDIUse=3 WtCom= 9.48D-01 WtEn= 5.19D-02
 Coeff-Com: -0.157D-01 0.104D+00 0.403D+00 0.508D+00
 Coeff-En:   0.000D+00 0.000D+00 0.345D+00 0.655D+00
 Coeff:     -0.149D-01 0.989D-01 0.400D+00 0.516D+00
 Gap=     0.220 Goal=   None    Shift=    0.000
 RMSDP=5.00D-04 MaxDP=9.46D-03 DE=-4.20D-03 OVMax= 2.65D-02

 Cycle   5  Pass 0  IDiag  1:
 E= -346.770408853126     Delta-E=       -0.003402489371 Rises=F Damp=F
 DIIS: error= 5.60D-04 at cycle   5 NSaved=   5.
 NSaved= 5 IEnMin= 5 EnMin= -346.770408853126     IErMin= 5 ErrMin= 5.60D-04
 ErrMax= 5.60D-04 EMaxC= 1.00D-01 BMatC= 5.50D-05 BMatP= 3.07D-03
 IDIUse=3 WtCom= 9.94D-01 WtEn= 5.60D-03
 Coeff-Com: -0.388D-02 0.147D-01 0.123D+00 0.211D+00 0.655D+00
 Coeff-En:   0.000D+00 0.000D+00 0.000D+00 0.000D+00 0.100D+01
 Coeff:     -0.386D-02 0.146D-01 0.122D+00 0.210D+00 0.657D+00
 Gap=     0.219 Goal=   None    Shift=    0.000
 RMSDP=6.40D-05 MaxDP=1.78D-03 DE=-3.40D-03 OVMax= 3.69D-03

 Cycle   6  Pass 0  IDiag  1:
 E= -346.770454762959     Delta-E=       -0.000045909833 Rises=F Damp=F
 DIIS: error= 1.55D-04 at cycle   6 NSaved=   6.
 NSaved= 6 IEnMin= 6 EnMin= -346.770454762959     IErMin= 6 ErrMin= 1.55D-04
 ErrMax= 1.55D-04 EMaxC= 1.00D-01 BMatC= 8.86D-06 BMatP= 5.50D-05
 IDIUse=3 WtCom= 9.98D-01 WtEn= 1.55D-03
 Coeff-Com: -0.116D-02 0.148D-02 0.429D-01 0.851D-01 0.369D+00 0.503D+00
 Coeff-En:   0.000D+00 0.000D+00 0.000D+00 0.000D+00 0.657D-01 0.934D+00
 Coeff:     -0.116D-02 0.148D-02 0.428D-01 0.850D-01 0.368D+00 0.504D+00
 Gap=     0.219 Goal=   None    Shift=    0.000
 RMSDP=2.21D-05 MaxDP=7.10D-04 DE=-4.59D-05 OVMax= 1.14D-03

 Cycle   7  Pass 0  IDiag  1:
 E= -346.770463056321     Delta-E=       -0.000008293362 Rises=F Damp=F
 DIIS: error= 4.41D-05 at cycle   7 NSaved=   7.
 NSaved= 7 IEnMin= 7 EnMin= -346.770463056321     IErMin= 7 ErrMin= 4.41D-05
 ErrMax= 4.41D-05 EMaxC= 1.00D-01 BMatC= 2.26D-07 BMatP= 8.86D-06
 IDIUse=1 WtCom= 1.00D+00 WtEn= 0.00D+00
 Coeff-Com: -0.269D-03-0.189D-03 0.132D-01 0.272D-01 0.132D+00 0.224D+00
 Coeff-Com:  0.604D+00
 Coeff:     -0.269D-03-0.189D-03 0.132D-01 0.272D-01 0.132D+00 0.224D+00
 Coeff:      0.604D+00
 Gap=     0.219 Goal=   None    Shift=    0.000
 RMSDP=5.84D-06 MaxDP=1.24D-04 DE=-8.29D-06 OVMax= 3.39D-04

 Initial convergence to 1.0D-05 achieved.  Increase integral accuracy.
 Cycle   8  Pass 1  IDiag  1:
 E= -346.770450392806     Delta-E=        0.000012663515 Rises=F Damp=F
 DIIS: error= 3.15D-05 at cycle   1 NSaved=   1.
 NSaved= 1 IEnMin= 1 EnMin= -346.770450392806     IErMin= 1 ErrMin= 3.15D-05
 ErrMax= 3.15D-05 EMaxC= 1.00D-01 BMatC= 1.05D-07 BMatP= 1.05D-07
 IDIUse=1 WtCom= 1.00D+00 WtEn= 0.00D+00
 Coeff-Com:  0.100D+01
 Coeff:      0.100D+01
 Gap=     0.219 Goal=   None    Shift=    0.000
 RMSDP=5.84D-06 MaxDP=1.24D-04 DE= 1.27D-05 OVMax= 3.86D-04

 Cycle   9  Pass 1  IDiag  1:
 E= -346.770450182283     Delta-E=        0.000000210523 Rises=F Damp=F
 DIIS: error= 6.35D-05 at cycle   2 NSaved=   2.
 NSaved= 2 IEnMin= 1 EnMin= -346.770450392806     IErMin= 1 ErrMin= 3.15D-05
 ErrMax= 6.35D-05 EMaxC= 1.00D-01 BMatC= 2.87D-07 BMatP= 1.05D-07
 IDIUse=1 WtCom= 1.00D+00 WtEn= 0.00D+00
 Coeff-Com:  0.630D+00 0.370D+00
 Coeff:      0.630D+00 0.370D+00
 Gap=     0.219 Goal=   None    Shift=    0.000
 RMSDP=4.60D-06 MaxDP=1.03D-04 DE= 2.11D-07 OVMax= 2.76D-04

 Cycle  10  Pass 1  IDiag  1:
 E= -346.770450512854     Delta-E=       -0.000000330571 Rises=F Damp=F
 DIIS: error= 5.64D-06 at cycle   3 NSaved=   3.
 NSaved= 3 IEnMin= 3 EnMin= -346.770450512854     IErMin= 3 ErrMin= 5.64D-06
 ErrMax= 5.64D-06 EMaxC= 1.00D-01 BMatC= 3.27D-09 BMatP= 1.05D-07
 IDIUse=1 WtCom= 1.00D+00 WtEn= 0.00D+00
 Coeff-Com:  0.985D-01 0.116D+00 0.786D+00
 Coeff:      0.985D-01 0.116D+00 0.786D+00
 Gap=     0.219 Goal=   None    Shift=    0.000
 RMSDP=6.15D-07 MaxDP=1.53D-05 DE=-3.31D-07 OVMax= 3.08D-05

 Cycle  11  Pass 1  IDiag  1:
 E= -346.770450515202     Delta-E=       -0.000000002348 Rises=F Damp=F
 DIIS: error= 2.31D-06 at cycle   4 NSaved=   4.
 NSaved= 4 IEnMin= 4 EnMin= -346.770450515202     IErMin= 4 ErrMin= 2.31D-06
 ErrMax= 2.31D-06 EMaxC= 1.00D-01 BMatC= 1.36D-09 BMatP= 3.27D-09
 IDIUse=1 WtCom= 1.00D+00 WtEn= 0.00D+00
 Coeff-Com: -0.136D-01 0.277D-01 0.467D+00 0.519D+00
 Coeff:     -0.136D-01 0.277D-01 0.467D+00 0.519D+00
 Gap=     0.219 Goal=   None    Shift=    0.000
 RMSDP=2.27D-07 MaxDP=5.21D-06 DE=-2.35D-09 OVMax= 1.03D-05

 Cycle  12  Pass 1  IDiag  1:
 E= -346.770450516360     Delta-E=       -0.000000001158 Rises=F Damp=F
 DIIS: error= 4.35D-07 at cycle   5 NSaved=   5.
 NSaved= 5 IEnMin= 5 EnMin= -346.770450516360     IErMin= 5 ErrMin= 4.35D-07
 ErrMax= 4.35D-07 EMaxC= 1.00D-01 BMatC= 2.61D-11 BMatP= 1.36D-09
 IDIUse=1 WtCom= 1.00D+00 WtEn= 0.00D+00
 Coeff-Com: -0.917D-02 0.105D-01 0.209D+00 0.254D+00 0.535D+00
 Coeff:     -0.917D-02 0.105D-01 0.209D+00 0.254D+00 0.535D+00
 Gap=     0.219 Goal=   None    Shift=    0.000
 RMSDP=5.55D-08 MaxDP=1.07D-06 DE=-1.16D-09 OVMax= 2.70D-06

 Cycle  13  Pass 1  IDiag  1:
 E= -346.770450516379     Delta-E=       -0.000000000019 Rises=F Damp=F
 DIIS: error= 1.77D-07 at cycle   6 NSaved=   6.
 NSaved= 6 IEnMin= 6 EnMin= -346.770450516379     IErMin= 6 ErrMin= 1.77D-07
 ErrMax= 1.77D-07 EMaxC= 1.00D-01 BMatC= 4.70D-12 BMatP= 2.61D-11
 IDIUse=1 WtCom= 1.00D+00 WtEn= 0.00D+00
 Coeff-Com: -0.397D-02 0.345D-02 0.768D-01 0.961D-01 0.321D+00 0.507D+00
 Coeff:     -0.397D-02 0.345D-02 0.768D-01 0.961D-01 0.321D+00 0.507D+00
 Gap=     0.219 Goal=   None    Shift=    0.000
 RMSDP=2.01D-08 MaxDP=5.03D-07 DE=-1.88D-11 OVMax= 1.32D-06

 Cycle  14  Pass 1  IDiag  1:
 E= -346.770450516390     Delta-E=       -0.000000000011 Rises=F Damp=F
 DIIS: error= 4.44D-08 at cycle   7 NSaved=   7.
 NSaved= 7 IEnMin= 7 EnMin= -346.770450516390     IErMin= 7 ErrMin= 4.44D-08
 ErrMax= 4.44D-08 EMaxC= 1.00D-01 BMatC= 2.39D-13 BMatP= 4.70D-12
 IDIUse=1 WtCom= 1.00D+00 WtEn= 0.00D+00
 Coeff-Com: -0.854D-03 0.487D-03 0.131D-01 0.165D-01 0.847D-01 0.234D+00
 Coeff-Com:  0.652D+00
 Coeff:     -0.854D-03 0.487D-03 0.131D-01 0.165D-01 0.847D-01 0.234D+00
 Coeff:      0.652D+00
 Gap=     0.219 Goal=   None    Shift=    0.000
 RMSDP=4.46D-09 MaxDP=1.32D-07 DE=-1.08D-11 OVMax= 1.95D-07

 SCF Done:  E(RB3LYP) =  -346.770450516     A.U. after   14 cycles
             Convg  =    0.4457D-08             -V/T =  2.0095
 KE= 3.434971469867D+02 PE=-1.496430409905D+03 EE= 4.608024767012D+02
 Leave Link  502 at Tue Sep 28 15:22:25 2021, MaxMem=  536870912 cpu:      46.9
 (Enter /sw/target/amd/app/gaussian/Gaussian09RevA.02_gcc-4.9.2/g09/l508.exe)
 QCSCF skips out because SCF is already converged.
 Leave Link  508 at Tue Sep 28 15:24:05 2021, MaxMem=  536870912 cpu:       0.0
 (Enter /sw/target/amd/app/gaussian/Gaussian09RevA.02_gcc-4.9.2/g09/l601.exe)
 Copying SCF densities to generalized density rwf, IOpCl= 0 IROHF=0.

 **********************************************************************

            Population analysis using the SCF density.

 **********************************************************************

 Orbital symmetries:
       Occupied  (A) (A) (A) (A) (A) (A) (A) (A) (A) (A) (A) (A)
                 (A) (A) (A) (A) (A) (A) (A) (A) (A) (A) (A) (A)
                 (A) (A) (A) (A) (A)
       Virtual   (A) (A) (A) (A) (A) (A) (A) (A) (A) (A) (A) (A)
                 (A) (A) (A) (A) (A) (A) (A) (A) (A) (A) (A) (A)
                 (A) (A) (A) (A) (A) (A) (A) (A) (A) (A) (A) (A)
                 (A) (A) (A) (A) (A) (A) (A) (A) (A) (A) (A) (A)
                 (A) (A) (A) (A) (A) (A) (A) (A) (A) (A) (A) (A)
                 (A) (A) (A) (A) (A) (A) (A) (A) (A) (A) (A) (A)
                 (A) (A) (A) (A) (A) (A) (A) (A) (A) (A) (A) (A)
                 (A) (A) (A) (A) (A) (A) (A) (A) (A) (A) (A) (A)
                 (A) (A) (A) (A) (A) (A) (A) (A) (A) (A) (A)
 The electronic state is 1-A.
 Alpha  occ. eigenvalues --  -19.17512 -10.24286 -10.23873 -10.18753 -10.18547
 Alpha  occ. eigenvalues --  -10.18452 -10.17942 -10.17809  -1.05981  -0.84422
 Alpha  occ. eigenvalues --   -0.75108  -0.73988  -0.69131  -0.60427  -0.58584
 Alpha  occ. eigenvalues --   -0.53092  -0.47970  -0.47278  -0.46812  -0.44292
 Alpha  occ. eigenvalues --   -0.41842  -0.40677  -0.37358  -0.36020  -0.35168
 Alpha  occ. eigenvalues --   -0.32471  -0.31506  -0.24555  -0.21592
 Alpha virt. eigenvalues --    0.00349   0.01900   0.09102   0.10832   0.13218
 Alpha virt. eigenvalues --    0.14788   0.15563   0.16682   0.16961   0.17490
 Alpha virt. eigenvalues --    0.19265   0.20173   0.25286   0.30687   0.31085
 Alpha virt. eigenvalues --    0.34256   0.36254   0.47194   0.50623   0.52459
 Alpha virt. eigenvalues --    0.52584   0.55612   0.55870   0.57894   0.59850
 Alpha virt. eigenvalues --    0.60410   0.60718   0.61822   0.61965   0.62413
 Alpha virt. eigenvalues --    0.64224   0.66961   0.68577   0.75109   0.76219
 Alpha virt. eigenvalues --    0.83780   0.84209   0.84433   0.85338   0.86281
 Alpha virt. eigenvalues --    0.86998   0.91192   0.92162   0.93994   0.94885
 Alpha virt. eigenvalues --    0.97096   1.02407   1.04584   1.04951   1.10158
 Alpha virt. eigenvalues --    1.11103   1.18130   1.20466   1.25609   1.28058
 Alpha virt. eigenvalues --    1.33482   1.36953   1.42883   1.44367   1.45843
 Alpha virt. eigenvalues --    1.46301   1.50030   1.51557   1.52814   1.67980
 Alpha virt. eigenvalues --    1.76974   1.81634   1.83628   1.87542   1.90257
 Alpha virt. eigenvalues --    1.96169   1.97141   1.98055   2.01575   2.07104
 Alpha virt. eigenvalues --    2.08747   2.10486   2.14601   2.15445   2.16115
 Alpha virt. eigenvalues --    2.23950   2.24607   2.27670   2.31132   2.35957
 Alpha virt. eigenvalues --    2.37223   2.51603   2.54243   2.59390   2.63142
 Alpha virt. eigenvalues --    2.66500   2.67801   2.73911   2.75293   2.78924
 Alpha virt. eigenvalues --    2.88040   2.99061   3.17203   3.43296   4.05468
 Alpha virt. eigenvalues --    4.09681   4.11917   4.20648   4.30487   4.34819
 Alpha virt. eigenvalues --    4.44331   4.74989
          Condensed to atoms (all electrons):
              1          2          3          4          5          6
     1  C    4.895098   0.249042  -0.043396   0.004343  -0.000141   0.000008
     2  O    0.249042   8.201334   0.279858  -0.055691   0.003116   0.000167
     3  C   -0.043396   0.279858   4.506987   0.543931  -0.014274  -0.039974
     4  C    0.004343  -0.055691   0.543931   4.976922   0.539046  -0.036692
     5  C   -0.000141   0.003116  -0.014274   0.539046   4.844972   0.546330
     6  C    0.000008   0.000167  -0.039974  -0.036692   0.546330   4.861264
     7  C    0.000272   0.003594   0.000544  -0.037861  -0.028553   0.558283
     8  C   -0.006457  -0.062627   0.471052  -0.070599  -0.039773  -0.036008
     9  H    0.383722  -0.031250   0.003235  -0.000118   0.000003   0.000000
    10  H    0.364838  -0.036195  -0.004988  -0.000006   0.000004  -0.000006
    11  H    0.363470  -0.035970  -0.004463   0.000158  -0.000002  -0.000010
    12  H   -0.000175  -0.000430  -0.037633   0.345724  -0.043984   0.005273
    13  H    0.000003  -0.000059   0.004300  -0.040761   0.359395  -0.044295
    14  H   -0.000000   0.000002   0.000684   0.004811  -0.044274   0.358523
    15  H   -0.000009  -0.000045   0.003127   0.000723   0.004723  -0.041522
    16  H    0.005828  -0.007363  -0.047291   0.004601   0.000583   0.004674
              7          8          9         10         11         12
     1  C    0.000272  -0.006457   0.383722   0.364838   0.363470  -0.000175
     2  O    0.003594  -0.062627  -0.031250  -0.036195  -0.035970  -0.000430
     3  C    0.000544   0.471052   0.003235  -0.004988  -0.004463  -0.037633
     4  C   -0.037861  -0.070599  -0.000118  -0.000006   0.000158   0.345724
     5  C   -0.028553  -0.039773   0.000003   0.000004  -0.000002  -0.043984
     6  C    0.558283  -0.036008   0.000000  -0.000006  -0.000010   0.005273
     7  C    4.853138   0.505922   0.000000  -0.000118  -0.000151   0.000091
     8  C    0.505922   5.098781   0.000196   0.004537   0.005463   0.007500
     9  H    0.000000   0.000196   0.545306  -0.034760  -0.033441  -0.000027
    10  H   -0.000118   0.004537  -0.034760   0.599235  -0.046523   0.000028
    11  H   -0.000151   0.005463  -0.033441  -0.046523   0.597166   0.000030
    12  H    0.000091   0.007500  -0.000027   0.000028   0.000030   0.595132
    13  H    0.005061   0.000442  -0.000000  -0.000000   0.000000  -0.006570
    14  H   -0.043612   0.005232  -0.000000   0.000000   0.000000  -0.000169
    15  H    0.357902  -0.039698  -0.000000   0.000003   0.000002   0.000014
    16  H   -0.041279   0.353789  -0.000105   0.001849   0.001561  -0.000161
             13         14         15         16
     1  C    0.000003  -0.000000  -0.000009   0.005828
     2  O   -0.000059   0.000002  -0.000045  -0.007363
     3  C    0.004300   0.000684   0.003127  -0.047291
     4  C   -0.040761   0.004811   0.000723   0.004601
     5  C    0.359395  -0.044274   0.004723   0.000583
     6  C   -0.044295   0.358523  -0.041522   0.004674
     7  C    0.005061  -0.043612   0.357902  -0.041279
     8  C    0.000442   0.005232  -0.039698   0.353789
     9  H   -0.000000  -0.000000  -0.000000  -0.000105
    10  H   -0.000000   0.000000   0.000003   0.001849
    11  H    0.000000   0.000000   0.000002   0.001561
    12  H   -0.006570  -0.000169   0.000014  -0.000161
    13  H    0.598747  -0.005773  -0.000201   0.000015
    14  H   -0.005773   0.607771  -0.005638  -0.000185
    15  H   -0.000201  -0.005638   0.597183  -0.005981
    16  H    0.000015  -0.000185  -0.005981   0.600276
 Mulliken atomic charges:
              1
     1  C   -0.216447
     2  O   -0.507484
     3  C    0.378299
     4  C   -0.178530
     5  C   -0.127173
     6  C   -0.136016
     7  C   -0.133234
     8  C   -0.197752
     9  H    0.167238
    10  H    0.152101
    11  H    0.152710
    12  H    0.135357
    13  H    0.129696
    14  H    0.122629
    15  H    0.129417
    16  H    0.129190
 Sum of Mulliken atomic charges =  -0.00000
 Mulliken charges with hydrogens summed into heavy atoms:
              1
     1  C    0.255602
     2  O   -0.507484
     3  C    0.378299
     4  C   -0.043173
     5  C    0.002523
     6  C   -0.013387
     7  C   -0.003817
     8  C   -0.068562
 Sum of Mulliken charges with hydrogens summed into heavy atoms =  -0.00000
 Electronic spatial extent (au):  <R**2>=            980.0413
 Charge=              0.0000 electrons
 Dipole moment (field-independent basis, Debye):
    X=             -0.7437    Y=              1.0995    Z=              0.0900  Tot=              1.3305
 Quadrupole moment (field-independent basis, Debye-Ang):
   XX=            -39.8971   YY=            -43.9872   ZZ=            -49.9214
   XY=             -2.9566   XZ=             -0.1436   YZ=             -0.0955
 Traceless Quadrupole moment (field-independent basis, Debye-Ang):
   XX=              4.7048   YY=              0.6147   ZZ=             -5.3195
   XY=             -2.9566   XZ=             -0.1436   YZ=             -0.0955
 Octapole moment (field-independent basis, Debye-Ang**2):
  XXX=            -18.4770  YYY=             -1.9033  ZZZ=             -0.0185  XYY=              2.0562
  XXY=              4.0866  XXZ=              0.7710  XZZ=             -7.5073  YZZ=             -0.6427
  YYZ=             -0.0953  XYZ=              0.0965
 Hexadecapole moment (field-independent basis, Debye-Ang**3):
 XXXX=           -817.2072 YYYY=           -303.6163 ZZZZ=            -56.9957 XXXY=             -4.7417
 XXXZ=             -0.5341 YYYX=              2.4273 YYYZ=             -0.2768 ZZZX=             -0.0861
 ZZZY=              0.2251 XXYY=           -200.3676 XXZZ=           -170.5120 YYZZ=            -68.8439
 XXYZ=             -0.4414 YYXZ=              0.2705 ZZXY=             -0.2229
 N-N= 3.453603357004D+02 E-N=-1.496430410237D+03  KE= 3.434971469867D+02
 No NMR shielding tensors so no spin-rotation constants.
 Leave Link  601 at Tue Sep 28 15:25:40 2021, MaxMem=  536870912 cpu:       0.4
 (Enter /sw/target/amd/app/gaussian/Gaussian09RevA.02_gcc-4.9.2/g09/l701.exe)
 Compute integral first derivatives.
 ... and contract with generalized density number  0.
 Leave Link  701 at Tue Sep 28 15:25:41 2021, MaxMem=  536870912 cpu:       0.4
 (Enter /sw/target/amd/app/gaussian/Gaussian09RevA.02_gcc-4.9.2/g09/l702.exe)
 L702 exits ... SP integral derivatives will be done elsewhere.
 Leave Link  702 at Tue Sep 28 15:25:41 2021, MaxMem=  536870912 cpu:       0.0
 (Enter /sw/target/amd/app/gaussian/Gaussian09RevA.02_gcc-4.9.2/g09/l703.exe)
 Compute integral first derivatives, UseDBF=F ICtDFT=           0.
 Integral derivatives from FoFDir, PRISM(SPDF).
 Calling FoFJK, ICntrl=      2127 FMM=F ISym2X=0 I1Cent= 0 IOpClX= 0 NMat=1 NMatS=1 NMatT=0.
 FoFCou: FMM=F IPFlag=           0 FMFlag=      100000 FMFlg1=         800
         NFxFlg=           0 DoJE=F BraDBF=F KetDBF=F FulRan=T
         Omega=  0.000000  0.000000  1.000000  0.000000  0.000000 ICntrl=    2127 IOpCl=  0
         NMat0=    1 NMatS0=    1 NMatT0=    0 NMatD0=    1 NMtDS0=    0 NMtDT0=    0
         I1Cent=           0 NGrid=           0.
 Symmetry not used in FoFCou.
 Leave Link  703 at Tue Sep 28 15:26:03 2021, MaxMem=  536870912 cpu:      25.8
 (Enter /sw/target/amd/app/gaussian/Gaussian09RevA.02_gcc-4.9.2/g09/l716.exe)
 Dipole        =-2.92611500D-01 4.32588743D-01 3.54154791D-02
 ***** Axes restored to original set *****
 -------------------------------------------------------------------
 Center     Atomic                   Forces (Hartrees/Bohr)
 Number     Number              X              Y              Z
 -------------------------------------------------------------------
      1        6          -0.004463843   -0.001249039   -0.003238136
      2        8           0.002061966    0.006541989   -0.002395598
      3        6          -0.004049158   -0.004816179    0.000378010
      4        6          -0.001347686   -0.010037438    0.007759738
      5        6          -0.003504144    0.003091013   -0.005843463
      6        6           0.006386086    0.000947865    0.004251959
      7        6          -0.003606869   -0.004069833    0.000589116
      8        6           0.006098142    0.006779205   -0.000777832
      9        1          -0.001260798   -0.004153912    0.001846690
     10        1           0.002982276    0.002186760    0.001404007
     11        1           0.003617362    0.001191825    0.000969742
     12        1           0.000222401    0.002535838   -0.001865598
     13        1          -0.000657890   -0.000059625   -0.000509697
     14        1           0.000186819    0.000213133   -0.000007198
     15        1          -0.000617016    0.000645031   -0.001044159
     16        1          -0.002047648    0.000253367   -0.001517581
 -------------------------------------------------------------------
 Cartesian Forces:  Max     0.010037438 RMS     0.003503615
 Leave Link  716 at Tue Sep 28 15:26:03 2021, MaxMem=  536870912 cpu:       0.1
 (Enter /sw/target/amd/app/gaussian/Gaussian09RevA.02_gcc-4.9.2/g09/l103.exe)

 GradGradGradGradGradGradGradGradGradGradGradGradGradGradGradGradGradGrad
 Berny optimization.
 Internal  Forces:  Max     0.006235900 RMS     0.002114982
 Search for a local minimum.
 Step number   1 out of a maximum of   80
 All quantities printed in internal units (Hartrees-Bohrs-Radians)
 RMS Force = .21150D-02 SwitMx=.10000D-02 MixMth= 1
 Mixed Optimization -- RFO/linear search
 Second derivative matrix not updated -- first step.
     Eigenvalues ---    0.01404   0.02116   0.02121   0.02127   0.02131
     Eigenvalues ---    0.02135   0.02137   0.02142   0.02163   0.02169
     Eigenvalues ---    0.02178   0.09987   0.10544   0.16000   0.16000
     Eigenvalues ---    0.16000   0.16000   0.16000   0.16000   0.16000
     Eigenvalues ---    0.16000   0.22000   0.22000   0.23480   0.25000
     Eigenvalues ---    0.25000   0.34223   0.34251   0.34323   0.35133
     Eigenvalues ---    0.35147   0.35187   0.35224   0.35465   0.41843
     Eigenvalues ---    0.42193   0.42349   0.45996   0.46207   0.46470
     Eigenvalues ---    0.46701   0.513801000.000001000.000001000.00000
     Eigenvalues --- 1000.000001000.000001000.000001000.000001000.00000
     Eigenvalues --- 1000.000001000.000001000.000001000.000001000.00000
     Eigenvalues --- 1000.000001000.000001000.000001000.000001000.00000
     Eigenvalues --- 1000.000001000.000001000.000001000.000001000.00000
     Eigenvalues --- 1000.000001000.000001000.000001000.000001000.00000
 RFO step:  Lambda=-1.45635930D-03 EMin= 1.40365945D-02
 Linear search not attempted -- first point.
 Iteration  1 RMS(Cart)=  0.02110061 RMS(Int)=  0.00032747
 Iteration  2 RMS(Cart)=  0.00044153 RMS(Int)=  0.00002674
 Iteration  3 RMS(Cart)=  0.00000024 RMS(Int)=  0.00002674
 Variable       Old X    -DE/DX   Delta X   Delta X   Delta X     New X
                                 (Linear)    (Quad)   (Total)
    R1        2.68678  -0.00201   0.00000  -0.00474  -0.00474   2.68204
    R2        2.06788  -0.00098   0.00000  -0.00284  -0.00284   2.06505
    R3        2.06908   0.00176   0.00000   0.00511   0.00511   2.07420
    R4        2.06955   0.00153   0.00000   0.00446   0.00446   2.07402
    R5        2.58497   0.00040   0.00000   0.00078   0.00078   2.58575
    R6        2.64083   0.00424   0.00000   0.00933   0.00932   2.65015
    R7        2.63787   0.00263   0.00000   0.00582   0.00582   2.64369
    R8        2.63787  -0.00348   0.00000  -0.00751  -0.00752   2.63035
    R9        2.05460  -0.00093   0.00000  -0.00263  -0.00263   2.05197
   R10        2.63177   0.00538   0.00000   0.01129   0.01130   2.64306
   R11        2.05313  -0.00002   0.00000  -0.00005  -0.00005   2.05309
   R12        2.63397   0.00002   0.00000  -0.00010  -0.00009   2.63388
   R13        2.05372   0.00003   0.00000   0.00007   0.00007   2.05379
   R14        2.64316   0.00027   0.00000   0.00059   0.00060   2.64376
   R15        2.05438  -0.00048   0.00000  -0.00136  -0.00136   2.05302
   R16        2.04926   0.00030   0.00000   0.00083   0.00083   2.05010
    A1        1.88115  -0.00624   0.00000  -0.03589  -0.03580   1.84534
    A2        1.93918   0.00202   0.00000   0.01105   0.01111   1.95029
    A3        1.94058   0.00125   0.00000   0.00637   0.00642   1.94700
    A4        1.87964   0.00308   0.00000   0.02173   0.02182   1.90147
    A5        1.87928   0.00350   0.00000   0.02448   0.02454   1.90382
    A6        1.94092  -0.00360   0.00000  -0.02706  -0.02703   1.91389
    A7        2.03840   0.00420   0.00000   0.01668   0.01668   2.05508
    A8        2.00219   0.00419   0.00000   0.01628   0.01629   2.01848
    A9        2.19996  -0.00609   0.00000  -0.02461  -0.02460   2.17535
   A10        2.08103   0.00190   0.00000   0.00832   0.00831   2.08934
   A11        2.10634  -0.00206   0.00000  -0.00881  -0.00883   2.09751
   A12        2.08796  -0.00207   0.00000  -0.01480  -0.01480   2.07317
   A13        2.08888   0.00413   0.00000   0.02362   0.02363   2.11251
   A14        2.09184   0.00225   0.00000   0.00998   0.00997   2.10181
   A15        2.09349  -0.00199   0.00000  -0.01033  -0.01033   2.08316
   A16        2.09785  -0.00026   0.00000   0.00036   0.00036   2.09821
   A17        2.09112  -0.00220   0.00000  -0.01039  -0.01038   2.08075
   A18        2.09561   0.00138   0.00000   0.00694   0.00693   2.10255
   A19        2.09645   0.00082   0.00000   0.00345   0.00344   2.09989
   A20        2.09937   0.00247   0.00000   0.01109   0.01110   2.11047
   A21        2.09196   0.00008   0.00000   0.00262   0.00261   2.09458
   A22        2.09185  -0.00255   0.00000  -0.01370  -0.01371   2.07814
   A23        2.09665  -0.00237   0.00000  -0.01015  -0.01015   2.08649
   A24        2.12656  -0.00141   0.00000  -0.01098  -0.01098   2.11559
   A25        2.05997   0.00378   0.00000   0.02113   0.02114   2.08111
    D1       -3.10034   0.00000   0.00000   0.00147   0.00145  -3.09889
    D2        1.12733  -0.00110   0.00000  -0.00940  -0.00934   1.11799
    D3       -1.04447   0.00117   0.00000   0.01298   0.01295  -1.03152
    D4        3.06834   0.00064   0.00000   0.02833   0.02832   3.09666
    D5       -0.07703   0.00060   0.00000   0.02650   0.02651  -0.05052
    D6       -3.13858  -0.00021   0.00000  -0.00877  -0.00878   3.13583
    D7        0.00000  -0.00011   0.00000  -0.00471  -0.00477  -0.00477
    D8        0.00651  -0.00016   0.00000  -0.00700  -0.00699  -0.00047
    D9       -3.13809  -0.00006   0.00000  -0.00294  -0.00298  -3.14107
   D10        3.14003   0.00014   0.00000   0.00638   0.00635  -3.13680
   D11       -0.00435   0.00018   0.00000   0.00796   0.00794   0.00358
   D12       -0.00549   0.00010   0.00000   0.00448   0.00449  -0.00100
   D13        3.13331   0.00014   0.00000   0.00607   0.00607   3.13939
   D14       -0.00299   0.00011   0.00000   0.00482   0.00480   0.00181
   D15        3.13821   0.00008   0.00000   0.00335   0.00335   3.14155
   D16       -3.14157   0.00002   0.00000   0.00082   0.00077  -3.14080
   D17       -0.00037  -0.00001   0.00000  -0.00064  -0.00069  -0.00106
   D18       -0.00158   0.00000   0.00000  -0.00003  -0.00005  -0.00163
   D19        3.14119  -0.00004   0.00000  -0.00188  -0.00189   3.13929
   D20        3.14040   0.00004   0.00000   0.00145   0.00142  -3.14136
   D21       -0.00001  -0.00001   0.00000  -0.00041  -0.00042  -0.00044
   D22        0.00257  -0.00006   0.00000  -0.00244  -0.00243   0.00014
   D23       -3.13852  -0.00005   0.00000  -0.00213  -0.00213  -3.14064
   D24       -3.14020  -0.00001   0.00000  -0.00058  -0.00059  -3.14079
   D25        0.00190  -0.00001   0.00000  -0.00027  -0.00028   0.00161
   D26        0.00100  -0.00000   0.00000   0.00016   0.00018   0.00117
   D27       -3.13791  -0.00003   0.00000  -0.00132  -0.00132  -3.13924
   D28       -3.14110  -0.00001   0.00000  -0.00014  -0.00012  -3.14122
   D29        0.00318  -0.00004   0.00000  -0.00161  -0.00163   0.00155
         Item               Value     Threshold  Converged?
 Maximum Force            0.006236     0.000450     NO 
 RMS     Force            0.002115     0.000300     NO 
 Maximum Displacement     0.089699     0.001800     NO 
 RMS     Displacement     0.021125     0.001200     NO 
 Predicted change in Energy=-7.347625D-04
 GradGradGradGradGradGradGradGradGradGradGradGradGradGradGradGradGradGrad

 Leave Link  103 at Tue Sep 28 15:26:09 2021, MaxMem=  536870912 cpu:       0.7
 (Enter /sw/target/amd/app/gaussian/Gaussian09RevA.02_gcc-4.9.2/g09/l202.exe)
                          Input orientation:                          
 ---------------------------------------------------------------------
 Center     Atomic      Atomic             Coordinates (Angstroms)
 Number     Number       Type             X           Y           Z
 ---------------------------------------------------------------------
      1          6           0        2.505823    1.473320   -0.328355
      2          8           0        2.201860    0.272801    0.364968
      3          6           0        3.046158   -0.113686    1.370000
      4          6           0        2.674159   -1.275129    2.062380
      5          6           0        3.469034   -1.756948    3.098465
      6          6           0        4.642963   -1.088256    3.460352
      7          6           0        5.009044    0.065804    2.769857
      8          6           0        4.219880    0.559485    1.725467
      9          1           0        1.693663    1.614956   -1.045638
     10          1           0        3.454802    1.398194   -0.874764
     11          1           0        2.538362    2.334361    0.351429
     12          1           0        1.760472   -1.785915    1.773660
     13          1           0        3.168149   -2.657878    3.625875
     14          1           0        5.263000   -1.462666    4.270630
     15          1           0        5.918744    0.594906    3.039643
     16          1           0        4.531803    1.458824    1.205058
 ---------------------------------------------------------------------
                    Distance matrix (angstroms):
                    1          2          3          4          5
     1  C    0.000000
     2  O    1.419273   0.000000
     3  C    2.386412   1.368321   0.000000
     4  C    3.646632   2.345285   1.402399   0.000000
     5  C    4.806818   3.632852   2.422132   1.391922   0.000000
     6  C    5.048103   4.170475   2.805199   2.421867   1.398650
     7  C    4.224468   3.702245   2.417589   2.783938   2.408742
     8  C    2.826884   2.450623   1.398978   2.422514   2.795488
     9  H    1.092775   2.012325   3.263856   4.355886   5.629855
    10  H    1.097619   2.091245   2.737103   4.047576   5.073624
    11  H    1.097523   2.088887   2.699681   3.996775   5.015093
    12  H    3.949257   2.533288   2.147622   1.085857   2.162205
    13  H    5.756857   4.489555   3.402464   2.144886   1.086447
    14  H    6.113322   5.257054   3.892016   3.407879   2.163074
    15  H    4.874736   4.590519   3.397287   3.870324   3.396432
    16  H    2.540897   2.746094   2.169593   3.414724   3.880161
                    6          7          8          9         10
     6  C    0.000000
     7  C    1.393791   0.000000
     8  C    2.429789   1.399017   0.000000
     9  H    6.025751   5.286740   3.895486   0.000000
    10  H    5.136866   4.180214   2.837248   1.782636   0.000000
    11  H    5.080261   4.135143   2.804580   1.784055   1.794386
    12  H    3.411805   3.869689   3.398811   4.418012   4.474757
    13  H    2.160136   3.397072   3.881895   6.500327   6.065446
    14  H    1.086820   2.157089   3.413949   7.104550   6.158666
    15  H    2.153519   1.086410   2.148127   5.965009   4.694557
    16  H    3.403869   2.148688   1.084865   3.625609   2.342918
                   11         12         13         14         15
    11  H    0.000000
    12  H    4.427700   0.000000
    13  H    6.003422   2.484467   0.000000
    14  H    6.099279   4.313589   2.496526   0.000000
    15  H    4.656091   4.956031   4.300004   2.485745   0.000000
    16  H    2.338601   4.304871   4.966602   4.297381   2.456759
                   16
    16  H    0.000000
 Stoichiometry    C7H8O
 Framework group  C1[X(C7H8O)]
 Deg. of freedom    42
 Full point group                 C1      NOp   1
 Largest Abelian subgroup         C1      NOp   1
 Largest concise Abelian subgroup C1      NOp   1
                         Standard orientation:                         
 ---------------------------------------------------------------------
 Center     Atomic      Atomic             Coordinates (Angstroms)
 Number     Number       Type             X           Y           Z
 ---------------------------------------------------------------------
      1          6           0       -2.765199    0.328349    0.021952
      2          8           0       -1.763623   -0.676193   -0.023633
      3          6           0       -0.456066   -0.273197   -0.009824
      4          6           0        0.496352   -1.302524    0.000501
      5          6           0        1.854732   -0.998883    0.007940
      6          6           0        2.282881    0.332623    0.007380
      7          6           0        1.333126    1.352680   -0.002703
      8          6           0       -0.035103    1.060942   -0.012043
      9          1           0       -3.718719   -0.204896    0.046588
     10          1           0       -2.738526    0.969834   -0.868302
     11          1           0       -2.676068    0.945934    0.924837
     12          1           0        0.152912   -2.332637    0.001596
     13          1           0        2.581056   -1.806817    0.015944
     14          1           0        3.343322    0.570490    0.015339
     15          1           0        1.651367    2.391434   -0.004151
     16          1           0       -0.750704    1.876263   -0.022008
 ---------------------------------------------------------------------
 Rotational constants (GHZ):      5.0330779      1.5604680      1.2004612
 Leave Link  202 at Tue Sep 28 15:26:20 2021, MaxMem=  536870912 cpu:       0.0
 (Enter /sw/target/amd/app/gaussian/Gaussian09RevA.02_gcc-4.9.2/g09/l301.exe)
 Standard basis: 6-31G(d) (6D, 7F)
 Ernie: Thresh=  0.10000D-02 Tol=  0.10000D-05 Strict=F.
 There are   136 symmetry adapted basis functions of A   symmetry.
 Integral buffers will be    131072 words long.
 Raffenetti 2 integral format.
 Two-electron integral symmetry is turned on.
   136 basis functions,   256 primitive gaussians,   136 cartesian basis functions
    29 alpha electrons       29 beta electrons
       nuclear repulsion energy       345.1539609654 Hartrees.
 IExCor=  402 DFT=T Ex+Corr=B3LYP ExCW=0 ScaHFX=  0.200000
 ScaDFX=  0.800000  0.720000  1.000000  0.810000 ScalE2=  1.000000  1.000000
 IRadAn=      0 IRanWt=     -1 IRanGd=            0 ICorTp=0
 NAtoms=   16 NActive=   16 NUniq=   16 SFac= 7.50D-01 NAtFMM=   80 NAOKFM=F Big=F
 Leave Link  301 at Tue Sep 28 15:26:37 2021, MaxMem=  536870912 cpu:       0.3
 (Enter /sw/target/amd/app/gaussian/Gaussian09RevA.02_gcc-4.9.2/g09/l302.exe)
 NPDir=0 NMtPBC=     1 NCelOv=     1 NCel=       1 NClECP=     1 NCelD=      1
         NCelK=      1 NCelE2=     1 NClLst=     1 CellRange=     0.0.
 One-electron integrals computed using PRISM.
 NBasis=   136 RedAO= T  NBF=   136
 NBsUse=   136 1.00D-06 NBFU=   136
 Precomputing XC quadrature grid using
 IXCGrd= 2 IRadAn=           0 IRanWt=          -1 IRanGd=           0 AccXCQ= 1.00D-10.
 NRdTot=     998 NPtTot=      126646 NUsed=      133853 NTot=      133885
 NSgBfM=   136   136   136   136   136 NAtAll=    16    16.
 Leave Link  302 at Tue Sep 28 15:27:11 2021, MaxMem=  536870912 cpu:       1.2
 (Enter /sw/target/amd/app/gaussian/Gaussian09RevA.02_gcc-4.9.2/g09/l303.exe)
 DipDrv:  MaxL=1.
 Leave Link  303 at Tue Sep 28 15:27:22 2021, MaxMem=  536870912 cpu:       0.1
 (Enter /sw/target/amd/app/gaussian/Gaussian09RevA.02_gcc-4.9.2/g09/l401.exe)
 Initial guess read from the read-write file.
 B after Tr=     0.000000    0.000000    0.000000
         Rot=    1.000000    0.000000    0.000000    0.000000 Ang=   0.00 deg.
 Guess basis will be translated and rotated to current coordinates.
 Initial guess orbital symmetries:
       Occupied  (A) (A) (A) (A) (A) (A) (A) (A) (A) (A) (A) (A)
                 (A) (A) (A) (A) (A) (A) (A) (A) (A) (A) (A) (A)
                 (A) (A) (A) (A) (A)
       Virtual   (A) (A) (A) (A) (A) (A) (A) (A) (A) (A) (A) (A)
                 (A) (A) (A) (A) (A) (A) (A) (A) (A) (A) (A) (A)
                 (A) (A) (A) (A) (A) (A) (A) (A) (A) (A) (A) (A)
                 (A) (A) (A) (A) (A) (A) (A) (A) (A) (A) (A) (A)
                 (A) (A) (A) (A) (A) (A) (A) (A) (A) (A) (A) (A)
                 (A) (A) (A) (A) (A) (A) (A) (A) (A) (A) (A) (A)
                 (A) (A) (A) (A) (A) (A) (A) (A) (A) (A) (A) (A)
                 (A) (A) (A) (A) (A) (A) (A) (A) (A) (A) (A) (A)
                 (A) (A) (A) (A) (A) (A) (A) (A) (A) (A) (A)
 The electronic state of the initial guess is 1-A.
 Generating alternative initial guess.
 Harris functional with IExCor=  402 diagonalized for initial guess.
 ExpMin= 1.61D-01 ExpMax= 5.48D+03 ExpMxC= 8.25D+02 IAcc=1 IRadAn=         1 AccDes= 0.00D+00
 HarFok:  IExCor=  402 AccDes= 0.00D+00 IRadAn=         1 IDoV= 1
 ScaDFX=  1.000000  1.000000  1.000000  1.000000
 FoFCou: FMM=F IPFlag=           0 FMFlag=      100000 FMFlg1=           0
         NFxFlg=           0 DoJE=T BraDBF=F KetDBF=T FulRan=T
         Omega=  0.000000  0.000000  1.000000  0.000000  0.000000 ICntrl=     500 IOpCl=  0
         NMat0=    1 NMatS0=    1 NMatT0=    0 NMatD0=    1 NMtDS0=    0 NMtDT0=    0
         I1Cent=           4 NGrid=           0.
 Petite list used in FoFCou.
 Harris En= -346.821417052019    
 Leave Link  401 at Tue Sep 28 15:27:45 2021, MaxMem=  536870912 cpu:       4.4
 (Enter /sw/target/amd/app/gaussian/Gaussian09RevA.02_gcc-4.9.2/g09/l502.exe)
 Closed shell SCF:
 Requested convergence on RMS density matrix=1.00D-08 within  64 cycles.
 Requested convergence on MAX density matrix=1.00D-06.
 Requested convergence on             energy=1.00D-06.
 No special actions if energy rises.
 Using DIIS extrapolation, IDIIS=  1040.
 Integral symmetry usage will be decided dynamically.
       133696 words used for storage of precomputed grid.
 Keep R1 ints in memory in canonical form, NReq=44880778.
 IEnd=      196570 IEndB=      196570 NGot=   536870912 MDV=   493298585
 LenX=   493298585 LenY=   493279648
 Symmetry not used in FoFDir.
 MinBra= 0 MaxBra= 2 Meth= 1.
 IRaf=       0 NMat=   1 IRICut=       1 DoRegI=T DoRafI=F ISym2E= 0 JSym2E=0.
 Integral accuracy reduced to 1.0D-05 until final iterations.

 Cycle   1  Pass 0  IDiag  1:
 E= -346.770512529166    
 DIIS: error= 1.40D-03 at cycle   1 NSaved=   1.
 NSaved= 1 IEnMin= 1 EnMin= -346.770512529166     IErMin= 1 ErrMin= 1.40D-03
 ErrMax= 1.40D-03 EMaxC= 1.00D-01 BMatC= 4.03D-04 BMatP= 4.03D-04
 IDIUse=3 WtCom= 9.86D-01 WtEn= 1.40D-02
 Coeff-Com:  0.100D+01
 Coeff-En:   0.100D+01
 Coeff:      0.100D+01
 Gap=     0.220 Goal=   None    Shift=    0.000
 GapD=    0.220 DampG=1.000 DampE=1.000 DampFc=1.0000 IDamp=-1.
 RMSDP=2.94D-04 MaxDP=3.55D-03              OVMax= 8.18D-03

 Cycle   2  Pass 0  IDiag  1:
 E= -346.771255056764     Delta-E=       -0.000742527598 Rises=F Damp=F
 DIIS: error= 1.93D-04 at cycle   2 NSaved=   2.
 NSaved= 2 IEnMin= 2 EnMin= -346.771255056764     IErMin= 2 ErrMin= 1.93D-04
 ErrMax= 1.93D-04 EMaxC= 1.00D-01 BMatC= 1.35D-05 BMatP= 4.03D-04
 IDIUse=3 WtCom= 9.98D-01 WtEn= 1.93D-03
 Coeff-Com: -0.227D-01 0.102D+01
 Coeff-En:   0.000D+00 0.100D+01
 Coeff:     -0.226D-01 0.102D+01
 Gap=     0.219 Goal=   None    Shift=    0.000
 RMSDP=5.98D-05 MaxDP=1.54D-03 DE=-7.43D-04 OVMax= 2.54D-03

 Cycle   3  Pass 0  IDiag  1:
 E= -346.771248394689     Delta-E=        0.000006662075 Rises=F Damp=F
 DIIS: error= 4.05D-04 at cycle   3 NSaved=   3.
 NSaved= 3 IEnMin= 2 EnMin= -346.771255056764     IErMin= 2 ErrMin= 1.93D-04
 ErrMax= 4.05D-04 EMaxC= 1.00D-01 BMatC= 2.33D-05 BMatP= 1.35D-05
 IDIUse=3 WtCom= 3.32D-01 WtEn= 6.68D-01
 Coeff-Com: -0.419D-01 0.606D+00 0.436D+00
 Coeff-En:   0.000D+00 0.592D+00 0.408D+00
 Coeff:     -0.139D-01 0.597D+00 0.417D+00
 Gap=     0.219 Goal=   None    Shift=    0.000
 RMSDP=3.79D-05 MaxDP=1.10D-03 DE= 6.66D-06 OVMax= 2.02D-03

 Cycle   4  Pass 0  IDiag  1:
 E= -346.771271123679     Delta-E=       -0.000022728990 Rises=F Damp=F
 DIIS: error= 7.89D-05 at cycle   4 NSaved=   4.
 NSaved= 4 IEnMin= 4 EnMin= -346.771271123679     IErMin= 4 ErrMin= 7.89D-05
 ErrMax= 7.89D-05 EMaxC= 1.00D-01 BMatC= 5.24D-07 BMatP= 1.35D-05
 IDIUse=1 WtCom= 1.00D+00 WtEn= 0.00D+00
 Coeff-Com: -0.168D-01 0.189D+00 0.190D+00 0.638D+00
 Coeff:     -0.168D-01 0.189D+00 0.190D+00 0.638D+00
 Gap=     0.219 Goal=   None    Shift=    0.000
 RMSDP=8.60D-06 MaxDP=1.89D-04 DE=-2.27D-05 OVMax= 4.74D-04

 Initial convergence to 1.0D-05 achieved.  Increase integral accuracy.
 Cycle   5  Pass 1  IDiag  1:
 E= -346.771261219804     Delta-E=        0.000009903875 Rises=F Damp=F
 DIIS: error= 3.08D-05 at cycle   1 NSaved=   1.
 NSaved= 1 IEnMin= 1 EnMin= -346.771261219804     IErMin= 1 ErrMin= 3.08D-05
 ErrMax= 3.08D-05 EMaxC= 1.00D-01 BMatC= 1.84D-07 BMatP= 1.84D-07
 IDIUse=1 WtCom= 1.00D+00 WtEn= 0.00D+00
 Coeff-Com:  0.100D+01
 Coeff:      0.100D+01
 Gap=     0.219 Goal=   None    Shift=    0.000
 RMSDP=8.60D-06 MaxDP=1.89D-04 DE= 9.90D-06 OVMax= 4.82D-04

 Cycle   6  Pass 1  IDiag  1:
 E= -346.771260858191     Delta-E=        0.000000361613 Rises=F Damp=F
 DIIS: error= 6.52D-05 at cycle   2 NSaved=   2.
 NSaved= 2 IEnMin= 1 EnMin= -346.771261219804     IErMin= 1 ErrMin= 3.08D-05
 ErrMax= 6.52D-05 EMaxC= 1.00D-01 BMatC= 5.06D-07 BMatP= 1.84D-07
 IDIUse=1 WtCom= 1.00D+00 WtEn= 0.00D+00
 Coeff-Com:  0.629D+00 0.371D+00
 Coeff:      0.629D+00 0.371D+00
 Gap=     0.219 Goal=   None    Shift=    0.000
 RMSDP=5.80D-06 MaxDP=1.36D-04 DE= 3.62D-07 OVMax= 3.40D-04

 Cycle   7  Pass 1  IDiag  1:
 E= -346.771261421149     Delta-E=       -0.000000562958 Rises=F Damp=F
 DIIS: error= 7.89D-06 at cycle   3 NSaved=   3.
 NSaved= 3 IEnMin= 3 EnMin= -346.771261421149     IErMin= 3 ErrMin= 7.89D-06
 ErrMax= 7.89D-06 EMaxC= 1.00D-01 BMatC= 5.36D-09 BMatP= 1.84D-07
 IDIUse=1 WtCom= 1.00D+00 WtEn= 0.00D+00
 Coeff-Com:  0.177D+00 0.139D+00 0.685D+00
 Coeff:      0.177D+00 0.139D+00 0.685D+00
 Gap=     0.219 Goal=   None    Shift=    0.000
 RMSDP=9.00D-07 MaxDP=2.77D-05 DE=-5.63D-07 OVMax= 5.16D-05

 Cycle   8  Pass 1  IDiag  1:
 E= -346.771261424853     Delta-E=       -0.000000003705 Rises=F Damp=F
 DIIS: error= 3.64D-06 at cycle   4 NSaved=   4.
 NSaved= 4 IEnMin= 4 EnMin= -346.771261424853     IErMin= 4 ErrMin= 3.64D-06
 ErrMax= 3.64D-06 EMaxC= 1.00D-01 BMatC= 2.35D-09 BMatP= 5.36D-09
 IDIUse=1 WtCom= 1.00D+00 WtEn= 0.00D+00
 Coeff-Com: -0.161D-01 0.121D-01 0.429D+00 0.575D+00
 Coeff:     -0.161D-01 0.121D-01 0.429D+00 0.575D+00
 Gap=     0.219 Goal=   None    Shift=    0.000
 RMSDP=3.46D-07 MaxDP=1.22D-05 DE=-3.70D-09 OVMax= 1.88D-05

 Cycle   9  Pass 1  IDiag  1:
 E= -346.771261427157     Delta-E=       -0.000000002303 Rises=F Damp=F
 DIIS: error= 3.81D-07 at cycle   5 NSaved=   5.
 NSaved= 5 IEnMin= 5 EnMin= -346.771261427157     IErMin= 5 ErrMin= 3.81D-07
 ErrMax= 3.81D-07 EMaxC= 1.00D-01 BMatC= 2.58D-11 BMatP= 2.35D-09
 IDIUse=1 WtCom= 1.00D+00 WtEn= 0.00D+00
 Coeff-Com: -0.102D-01 0.428D-02 0.205D+00 0.281D+00 0.521D+00
 Coeff:     -0.102D-01 0.428D-02 0.205D+00 0.281D+00 0.521D+00
 Gap=     0.219 Goal=   None    Shift=    0.000
 RMSDP=5.26D-08 MaxDP=1.27D-06 DE=-2.30D-09 OVMax= 2.77D-06

 Cycle  10  Pass 1  IDiag  1:
 E= -346.771261427187     Delta-E=       -0.000000000030 Rises=F Damp=F
 DIIS: error= 2.23D-07 at cycle   6 NSaved=   6.
 NSaved= 6 IEnMin= 6 EnMin= -346.771261427187     IErMin= 6 ErrMin= 2.23D-07
 ErrMax= 2.23D-07 EMaxC= 1.00D-01 BMatC= 3.81D-12 BMatP= 2.58D-11
 IDIUse=1 WtCom= 1.00D+00 WtEn= 0.00D+00
 Coeff-Com: -0.337D-02 0.912D-03 0.570D-01 0.772D-01 0.296D+00 0.573D+00
 Coeff:     -0.337D-02 0.912D-03 0.570D-01 0.772D-01 0.296D+00 0.573D+00
 Gap=     0.219 Goal=   None    Shift=    0.000
 RMSDP=2.11D-08 MaxDP=4.01D-07 DE=-3.02D-11 OVMax= 1.18D-06

 Cycle  11  Pass 1  IDiag  1:
 E= -346.771261427185     Delta-E=        0.000000000002 Rises=F Damp=F
 DIIS: error= 7.04D-08 at cycle   7 NSaved=   7.
 NSaved= 7 IEnMin= 6 EnMin= -346.771261427187     IErMin= 7 ErrMin= 7.04D-08
 ErrMax= 7.04D-08 EMaxC= 1.00D-01 BMatC= 5.93D-13 BMatP= 3.81D-12
 IDIUse=1 WtCom= 1.00D+00 WtEn= 0.00D+00
 Coeff-Com: -0.481D-03-0.223D-04 0.419D-02 0.438D-02 0.100D+00 0.338D+00
 Coeff-Com:  0.553D+00
 Coeff:     -0.481D-03-0.223D-04 0.419D-02 0.438D-02 0.100D+00 0.338D+00
 Coeff:      0.553D+00
 Gap=     0.219 Goal=   None    Shift=    0.000
 RMSDP=6.94D-09 MaxDP=1.68D-07 DE= 2.27D-12 OVMax= 4.10D-07

 SCF Done:  E(RB3LYP) =  -346.771261427     A.U. after   11 cycles
             Convg  =    0.6939D-08             -V/T =  2.0096
 KE= 3.434708398781D+02 PE=-1.495992835197D+03 EE= 4.605967729265D+02
 Leave Link  502 at Tue Sep 28 15:32:30 2021, MaxMem=  536870912 cpu:      55.4
 (Enter /sw/target/amd/app/gaussian/Gaussian09RevA.02_gcc-4.9.2/g09/l508.exe)
 QCSCF skips out because SCF is already converged.
 Leave Link  508 at Tue Sep 28 15:32:50 2021, MaxMem=  536870912 cpu:       0.0
 (Enter /sw/target/amd/app/gaussian/Gaussian09RevA.02_gcc-4.9.2/g09/l701.exe)
 Compute integral first derivatives.
 ... and contract with generalized density number  0.
 Leave Link  701 at Tue Sep 28 15:33:07 2021, MaxMem=  536870912 cpu:       0.6
 (Enter /sw/target/amd/app/gaussian/Gaussian09RevA.02_gcc-4.9.2/g09/l702.exe)
 L702 exits ... SP integral derivatives will be done elsewhere.
 Leave Link  702 at Tue Sep 28 15:33:08 2021, MaxMem=  536870912 cpu:       0.2
 (Enter /sw/target/amd/app/gaussian/Gaussian09RevA.02_gcc-4.9.2/g09/l703.exe)
 Compute integral first derivatives, UseDBF=F ICtDFT=           0.
 Integral derivatives from FoFDir, PRISM(SPDF).
 Calling FoFJK, ICntrl=      2127 FMM=F ISym2X=0 I1Cent= 0 IOpClX= 0 NMat=1 NMatS=1 NMatT=0.
 FoFCou: FMM=F IPFlag=           0 FMFlag=      100000 FMFlg1=         800
         NFxFlg=           0 DoJE=F BraDBF=F KetDBF=F FulRan=T
         Omega=  0.000000  0.000000  1.000000  0.000000  0.000000 ICntrl=    2127 IOpCl=  0
         NMat0=    1 NMatS0=    1 NMatT0=    0 NMatD0=    1 NMtDS0=    0 NMtDT0=    0
         I1Cent=           0 NGrid=           0.
 Symmetry not used in FoFCou.
 Leave Link  703 at Tue Sep 28 15:33:56 2021, MaxMem=  536870912 cpu:      29.7
 (Enter /sw/target/amd/app/gaussian/Gaussian09RevA.02_gcc-4.9.2/g09/l716.exe)
 Dipole        =-2.95299479D-01 4.22630807D-01 2.23417676D-02
 ***** Axes restored to original set *****
 -------------------------------------------------------------------
 Center     Atomic                   Forces (Hartrees/Bohr)
 Number     Number              X              Y              Z
 -------------------------------------------------------------------
      1        6          -0.002873172   -0.001184785   -0.001331064
      2        8           0.001418547    0.001156843    0.001062175
      3        6          -0.000735078   -0.000939172   -0.000626335
      4        6           0.000071862   -0.001803858    0.001334027
      5        6          -0.000583638    0.001375809   -0.001428265
      6        6           0.001089638    0.000595100    0.000381548
      7        6          -0.001076052   -0.001284052    0.000283019
      8        6           0.001450588    0.001231449    0.000310759
      9        1           0.000443250    0.000029200    0.000277343
     10        1           0.000685703    0.000304367    0.000548027
     11        1           0.000718024    0.000238233    0.000007344
     12        1          -0.000052019    0.000584015   -0.000537754
     13        1          -0.000054045   -0.000221640    0.000142275
     14        1          -0.000282661    0.000051582   -0.000345228
     15        1           0.000305292    0.000302148   -0.000006458
     16        1          -0.000526240   -0.000435239   -0.000071414
 -------------------------------------------------------------------
 Cartesian Forces:  Max     0.002873172 RMS     0.000896753
 Leave Link  716 at Tue Sep 28 15:33:56 2021, MaxMem=  536870912 cpu:       0.1
 (Enter /sw/target/amd/app/gaussian/Gaussian09RevA.02_gcc-4.9.2/g09/l103.exe)

 GradGradGradGradGradGradGradGradGradGradGradGradGradGradGradGradGradGrad
 Berny optimization.
 Using GEDIIS/GDIIS optimizer.
 Internal  Forces:  Max     0.002147353 RMS     0.000453375
 Search for a local minimum.
 Step number   2 out of a maximum of   80
 All quantities printed in internal units (Hartrees-Bohrs-Radians)
 RMS Force = .45338D-03 SwitMx=.10000D-02 MixMth= 2
 Mixed Optimization -- En-DIIS/RFO-DIIS
 Update second derivatives using D2CorX and points    1    2
 DE= -8.11D-04 DEPred=-7.35D-04 R= 1.10D+00
 SS=  1.41D+00  RLast= 9.60D-02 DXNew= 5.0454D-01 2.8805D-01
 Trust test= 1.10D+00 RLast= 9.60D-02 DXMaxT set to 3.00D-01
 Use linear search instead of GDIIS.
     Eigenvalues ---    0.01405   0.02089   0.02121   0.02127   0.02132
     Eigenvalues ---    0.02137   0.02139   0.02146   0.02164   0.02169
     Eigenvalues ---    0.02179   0.09385   0.10661   0.14837   0.16000
     Eigenvalues ---    0.16000   0.16000   0.16000   0.16000   0.16000
     Eigenvalues ---    0.16871   0.21458   0.22036   0.23174   0.24255
     Eigenvalues ---    0.26468   0.34126   0.34236   0.34324   0.35120
     Eigenvalues ---    0.35164   0.35212   0.35267   0.35550   0.41848
     Eigenvalues ---    0.42062   0.42317   0.45662   0.46191   0.46377
     Eigenvalues ---    0.46891   0.514651000.000001000.000001000.00000
     Eigenvalues --- 1000.000001000.000001000.000001000.000001000.00000
     Eigenvalues --- 1000.000001000.000001000.000001000.000001000.00000
     Eigenvalues --- 1000.000001000.000001000.000001000.000001000.00000
     Eigenvalues --- 1000.000001000.000001000.000001000.000001000.00000
     Eigenvalues --- 1000.000001000.000001000.000001000.000001000.00000
 RFO step:  Lambda=-7.26948564D-05 EMin= 1.40454378D-02
 Quartic linear search produced a step of  0.12234.
 Iteration  1 RMS(Cart)=  0.00655923 RMS(Int)=  0.00003875
 Iteration  2 RMS(Cart)=  0.00007518 RMS(Int)=  0.00000336
 Iteration  3 RMS(Cart)=  0.00000001 RMS(Int)=  0.00000336
 Variable       Old X    -DE/DX   Delta X   Delta X   Delta X     New X
                                 (Linear)    (Quad)   (Total)
    R1        2.68204  -0.00048  -0.00058  -0.00092  -0.00150   2.68054
    R2        2.06505  -0.00051  -0.00035  -0.00146  -0.00181   2.06324
    R3        2.07420   0.00030   0.00063   0.00062   0.00124   2.07544
    R4        2.07402   0.00022   0.00055   0.00038   0.00093   2.07495
    R5        2.58575  -0.00052   0.00010  -0.00118  -0.00109   2.58466
    R6        2.65015   0.00004   0.00114  -0.00054   0.00060   2.65075
    R7        2.64369   0.00068   0.00071   0.00132   0.00203   2.64571
    R8        2.63035  -0.00119  -0.00092  -0.00240  -0.00332   2.62703
    R9        2.05197  -0.00009  -0.00032  -0.00008  -0.00040   2.05157
   R10        2.64306   0.00048   0.00138   0.00021   0.00159   2.64466
   R11        2.05309   0.00027  -0.00001   0.00086   0.00086   2.05395
   R12        2.63388  -0.00078  -0.00001  -0.00192  -0.00193   2.63195
   R13        2.05379  -0.00044   0.00001  -0.00140  -0.00139   2.05240
   R14        2.64376  -0.00016   0.00007  -0.00037  -0.00030   2.64346
   R15        2.05302   0.00040  -0.00017   0.00137   0.00121   2.05422
   R16        2.05010  -0.00048   0.00010  -0.00158  -0.00148   2.04862
    A1        1.84534   0.00054  -0.00438   0.00813   0.00375   1.84910
    A2        1.95029  -0.00029   0.00136  -0.00377  -0.00241   1.94788
    A3        1.94700   0.00020   0.00079   0.00003   0.00080   1.94780
    A4        1.90147   0.00033   0.00267   0.00230   0.00498   1.90644
    A5        1.90382   0.00018   0.00300   0.00116   0.00416   1.90798
    A6        1.91389  -0.00088  -0.00331  -0.00709  -0.01041   1.90348
    A7        2.05508   0.00215   0.00204   0.00840   0.01044   2.06553
    A8        2.01848  -0.00045   0.00199  -0.00338  -0.00139   2.01710
    A9        2.17535   0.00016  -0.00301   0.00238  -0.00063   2.17473
   A10        2.08934   0.00029   0.00102   0.00101   0.00203   2.09136
   A11        2.09751  -0.00046  -0.00108  -0.00167  -0.00275   2.09476
   A12        2.07317  -0.00059  -0.00181  -0.00346  -0.00527   2.06790
   A13        2.11251   0.00105   0.00289   0.00513   0.00802   2.12053
   A14        2.10181   0.00054   0.00122   0.00167   0.00289   2.10470
   A15        2.08316  -0.00025  -0.00126  -0.00033  -0.00159   2.08156
   A16        2.09821  -0.00028   0.00004  -0.00134  -0.00130   2.09692
   A17        2.08075  -0.00013  -0.00127  -0.00019  -0.00146   2.07928
   A18        2.10255  -0.00004   0.00085  -0.00078   0.00007   2.10262
   A19        2.09989   0.00017   0.00042   0.00097   0.00139   2.10128
   A20        2.11047   0.00014   0.00136  -0.00005   0.00131   2.11178
   A21        2.09458   0.00008   0.00032   0.00046   0.00078   2.09536
   A22        2.07814  -0.00022  -0.00168  -0.00042  -0.00210   2.07604
   A23        2.08649  -0.00038  -0.00124  -0.00077  -0.00202   2.08448
   A24        2.11559  -0.00031  -0.00134  -0.00192  -0.00326   2.11233
   A25        2.08111   0.00069   0.00259   0.00269   0.00528   2.08638
    D1       -3.09889  -0.00018   0.00018  -0.01257  -0.01240  -3.11129
    D2        1.11799  -0.00075  -0.00114  -0.01824  -0.01937   1.09862
    D3       -1.03152   0.00047   0.00158  -0.00627  -0.00469  -1.03621
    D4        3.09666   0.00017   0.00346   0.00631   0.00978   3.10643
    D5       -0.05052   0.00024   0.00324   0.01003   0.01327  -0.03725
    D6        3.13583   0.00008  -0.00107   0.00481   0.00374   3.13957
    D7       -0.00477   0.00005  -0.00058   0.00284   0.00226  -0.00251
    D8       -0.00047   0.00001  -0.00085   0.00129   0.00044  -0.00004
    D9       -3.14107  -0.00002  -0.00036  -0.00068  -0.00104   3.14107
   D10       -3.13680  -0.00006   0.00078  -0.00378  -0.00301  -3.13981
   D11        0.00358  -0.00006   0.00097  -0.00387  -0.00290   0.00068
   D12       -0.00100   0.00001   0.00055   0.00006   0.00061  -0.00039
   D13        3.13939   0.00001   0.00074  -0.00003   0.00072   3.14010
   D14        0.00181  -0.00003   0.00059  -0.00214  -0.00156   0.00025
   D15        3.14155  -0.00001   0.00041  -0.00060  -0.00020   3.14136
   D16       -3.14080  -0.00000   0.00009  -0.00013  -0.00004  -3.14084
   D17       -0.00106   0.00003  -0.00008   0.00140   0.00132   0.00026
   D18       -0.00163   0.00003  -0.00001   0.00162   0.00161  -0.00002
   D19        3.13929   0.00004  -0.00023   0.00220   0.00196   3.14126
   D20       -3.14136   0.00000   0.00017   0.00007   0.00024  -3.14113
   D21       -0.00044   0.00001  -0.00005   0.00064   0.00059   0.00015
   D22        0.00014  -0.00001  -0.00030  -0.00026  -0.00056  -0.00042
   D23       -3.14064  -0.00001  -0.00026  -0.00038  -0.00064  -3.14128
   D24       -3.14079  -0.00002  -0.00007  -0.00084  -0.00091   3.14149
   D25        0.00161  -0.00002  -0.00003  -0.00096  -0.00099   0.00062
   D26        0.00117  -0.00001   0.00002  -0.00057  -0.00055   0.00063
   D27       -3.13924  -0.00001  -0.00016  -0.00048  -0.00065  -3.13988
   D28       -3.14122  -0.00001  -0.00002  -0.00045  -0.00047   3.14150
   D29        0.00155  -0.00001  -0.00020  -0.00037  -0.00057   0.00099
         Item               Value     Threshold  Converged?
 Maximum Force            0.002147     0.000450     NO 
 RMS     Force            0.000453     0.000300     NO 
 Maximum Displacement     0.025636     0.001800     NO 
 RMS     Displacement     0.006568     0.001200     NO 
[...]
 Alpha virt. eigenvalues --    0.19112   0.20209   0.25703   0.30467   0.30852
 Alpha virt. eigenvalues --    0.34393   0.36206   0.46882   0.50516   0.52362
 Alpha virt. eigenvalues --    0.52414   0.55503   0.55563   0.58112   0.59660
 Alpha virt. eigenvalues --    0.60393   0.60955   0.61829   0.61899   0.62393
 Alpha virt. eigenvalues --    0.64110   0.66933   0.68580   0.74548   0.76026
 Alpha virt. eigenvalues --    0.83655   0.84315   0.84733   0.85265   0.85878
 Alpha virt. eigenvalues --    0.87023   0.91317   0.92226   0.93971   0.94962
 Alpha virt. eigenvalues --    0.96944   1.02785   1.04871   1.04959   1.09972
 Alpha virt. eigenvalues --    1.10855   1.17740   1.20833   1.25603   1.29174
 Alpha virt. eigenvalues --    1.32737   1.36882   1.42590   1.44498   1.45899
 Alpha virt. eigenvalues --    1.46141   1.49604   1.51725   1.52867   1.68781
 Alpha virt. eigenvalues --    1.76673   1.82192   1.83212   1.87676   1.89769
 Alpha virt. eigenvalues --    1.96181   1.96991   1.98111   2.01806   2.07097
 Alpha virt. eigenvalues --    2.08892   2.10314   2.14154   2.15454   2.15741
 Alpha virt. eigenvalues --    2.23536   2.24325   2.27470   2.31369   2.35430
 Alpha virt. eigenvalues --    2.37011   2.51780   2.54620   2.59449   2.62626
 Alpha virt. eigenvalues --    2.66520   2.67294   2.73236   2.74645   2.78755
 Alpha virt. eigenvalues --    2.88898   2.98864   3.17243   3.42696   4.05285
 Alpha virt. eigenvalues --    4.09514   4.12020   4.20315   4.30696   4.34485
 Alpha virt. eigenvalues --    4.44007   4.74292
          Condensed to atoms (all electrons):
              1          2          3          4          5          6
     1  C    4.924197   0.232147  -0.042764   0.004611  -0.000135   0.000004
     2  O    0.232147   8.154088   0.252683  -0.046039   0.002931   0.000085
     3  C   -0.042764   0.252683   4.636537   0.497137  -0.012028  -0.033904
     4  C    0.004611  -0.046039   0.497137   5.140782   0.427772  -0.033309
     5  C   -0.000135   0.002931  -0.012028   0.427772   5.042029   0.498026
     6  C    0.000004   0.000085  -0.033904  -0.033309   0.498026   4.928984
     7  C    0.000220   0.003560  -0.003746  -0.015455  -0.057082   0.496535
     8  C   -0.006481  -0.053320   0.440232  -0.105522  -0.020510  -0.031145
     9  H    0.384239  -0.033015   0.003012  -0.000121   0.000003   0.000000
    10  H    0.362826  -0.030794  -0.002896  -0.000219   0.000008   0.000004
    11  H    0.362824  -0.030796  -0.002896  -0.000219   0.000008   0.000004
    12  H   -0.000166  -0.001347  -0.040974   0.348223  -0.042397   0.005431
    13  H    0.000003  -0.000061   0.004739  -0.040893   0.360910  -0.044633
    14  H   -0.000000   0.000002   0.000685   0.004518  -0.042470   0.358224
    15  H   -0.000008  -0.000052   0.003594   0.000793   0.004769  -0.042034
    16  H    0.006278  -0.007823  -0.048686   0.004536   0.000499   0.004731
              7          8          9         10         11         12
     1  C    0.000220  -0.006481   0.384239   0.362826   0.362824  -0.000166
     2  O    0.003560  -0.053320  -0.033015  -0.030794  -0.030796  -0.001347
     3  C   -0.003746   0.440232   0.003012  -0.002896  -0.002896  -0.040974
     4  C   -0.015455  -0.105522  -0.000121  -0.000219  -0.000219   0.348223
     5  C   -0.057082  -0.020510   0.000003   0.000008   0.000008  -0.042397
     6  C    0.496535  -0.031145   0.000000   0.000004   0.000004   0.005431
     7  C    5.052352   0.409043   0.000001  -0.000203  -0.000203   0.000031
     8  C    0.409043   5.231441   0.000350   0.003583   0.003584   0.007319
     9  H    0.000001   0.000350   0.528903  -0.030879  -0.030878  -0.000025
    10  H   -0.000203   0.003583  -0.030879   0.567838  -0.043540   0.000023
    11  H   -0.000203   0.003584  -0.030878  -0.043540   0.567843   0.000023
    12  H    0.000031   0.007319  -0.000025   0.000023   0.000023   0.605371
    13  H    0.005112   0.000526  -0.000000  -0.000000  -0.000000  -0.007004
    14  H   -0.043324   0.004980  -0.000000   0.000000   0.000000  -0.000155
    15  H    0.358727  -0.039640  -0.000000   0.000003   0.000003   0.000015
    16  H   -0.037898   0.352137  -0.000001   0.001259   0.001259  -0.000177
             13         14         15         16
     1  C    0.000003  -0.000000  -0.000008   0.006278
     2  O   -0.000061   0.000002  -0.000052  -0.007823
     3  C    0.004739   0.000685   0.003594  -0.048686
     4  C   -0.040893   0.004518   0.000793   0.004536
     5  C    0.360910  -0.042470   0.004769   0.000499
     6  C   -0.044633   0.358224  -0.042034   0.004731
     7  C    0.005112  -0.043324   0.358727  -0.037898
     8  C    0.000526   0.004980  -0.039640   0.352137
     9  H   -0.000000  -0.000000  -0.000000  -0.000001
    10  H   -0.000000   0.000000   0.000003   0.001259
    11  H   -0.000000   0.000000   0.000003   0.001259
    12  H   -0.007004  -0.000155   0.000015  -0.000177
    13  H    0.608128  -0.005769  -0.000208   0.000015
    14  H   -0.005769   0.597261  -0.005766  -0.000173
    15  H   -0.000208  -0.005766   0.606983  -0.006401
    16  H    0.000015  -0.000173  -0.006401   0.610026
 Mulliken atomic charges:
              1
     1  C   -0.227797
     2  O   -0.442249
     3  C    0.349273
     4  C   -0.186593
     5  C   -0.162334
     6  C   -0.107002
     7  C   -0.167671
     8  C   -0.196577
     9  H    0.178412
    10  H    0.172986
    11  H    0.172983
    12  H    0.125809
    13  H    0.119135
    14  H    0.131985
    15  H    0.119222
    16  H    0.120419
 Sum of Mulliken atomic charges =  -0.00000
 Mulliken charges with hydrogens summed into heavy atoms:
              1
     1  C    0.296585
     2  O   -0.442249
     3  C    0.349273
     4  C   -0.060784
     5  C   -0.043199
     6  C    0.024983
     7  C   -0.048449
     8  C   -0.076159
 Sum of Mulliken charges with hydrogens summed into heavy atoms =  -0.00000
 Electronic spatial extent (au):  <R**2>=            980.9250
 Charge=              0.0000 electrons
 Dipole moment (field-independent basis, Debye):
    X=              2.0954    Y=              1.1269    Z=             -0.0000  Tot=              2.3792
 Quadrupole moment (field-independent basis, Debye-Ang):
   XX=            -37.8979   YY=            -45.6947   ZZ=            -50.0969
   XY=              2.3993   XZ=             -0.0000   YZ=              0.0001
 Traceless Quadrupole moment (field-independent basis, Debye-Ang):
   XX=              6.6653   YY=             -1.1315   ZZ=             -5.5338
   XY=              2.3993   XZ=             -0.0000   YZ=              0.0001
 Octapole moment (field-independent basis, Debye-Ang**2):
  XXX=             26.0147  YYY=             -1.9531  ZZZ=              0.0002  XYY=              1.8005
  XXY=              5.3983  XXZ=             -0.0001  XZZ=              8.5871  YZZ=             -0.4088
  YYZ=              0.0004  XYZ=              0.0003
 Hexadecapole moment (field-independent basis, Debye-Ang**3):
 XXXX=           -797.8919 YYYY=           -313.4705 ZZZZ=            -57.0631 XXXY=              0.5772
 XXXZ=              0.0001 YYYX=             -1.2052 YYYZ=              0.0002 ZZZX=              0.0004
 ZZZY=              0.0001 XXYY=           -202.3451 XXZZ=           -169.5915 YYZZ=            -70.5521
 XXYZ=              0.0006 YYXZ=             -0.0000 ZZXY=              0.1797
 N-N= 3.451950565311D+02 E-N=-1.495937192119D+03  KE= 3.436767796386D+02
 No NMR shielding tensors so no spin-rotation constants.
 Leave Link  601 at Tue Sep 28 16:50:52 2021, MaxMem=  536870912 cpu:       0.5
 (Enter /sw/target/amd/app/gaussian/Gaussian09RevA.02_gcc-4.9.2/g09/l604.exe)
 Evaluate density.
 Using the total density.
 Monte-Carlo method of calculating molar volume:
 based on  0.001 e/bohr**3 density envelope.
 Number of points per bohr**3 =   20 CutOff= 1.00D-04
 Using the CI density.
 There are       348 points.  Will hold       348 in memory.
 LenV=   536803560 MDV=   536870912.
 Box volume = 5305.209 fraction occupied=0.178
 Integrated density= 6.1628901880468071D+01 error= 3.6289018804680708D+00
 Molar volume =  945.181 bohr**3/mol ( 84.347 cm**3/mol)
 Recommended a0 for SCRF calculation =  4.05 angstrom (  7.65 bohr)
 Leave Link  604 at Tue Sep 28 16:50:56 2021, MaxMem=  536870912 cpu:       0.1
 (Enter /sw/target/amd/app/gaussian/Gaussian09RevA.02_gcc-4.9.2/g09/l607.exe)
 ******************************Gaussian NBO Version 3.1******************************
             N A T U R A L   A T O M I C   O R B I T A L   A N D
          N A T U R A L   B O N D   O R B I T A L   A N A L Y S I S
 ******************************Gaussian NBO Version 3.1******************************
       /RESON  / : Allow strongly delocalized NBO set

 Analyzing the CI density

 Job title: COc1ccccc1_conf_0                                               

 Storage needed:     56408 in NPA ( 536869472 available)


 NATURAL POPULATIONS:  Natural atomic orbital occupancies 
                                                          
   NAO  Atom  No  lang   Type(AO)    Occupancy
 --------------------------------------------
     1    C    1  S      Cor( 1S)     1.99942
     2    C    1  S      Val( 2S)     1.10416
     3    C    1  S      Ryd( 3S)     0.00149
     4    C    1  S      Ryd( 4S)     0.00003
     5    C    1  px     Val( 2p)     0.97045
     6    C    1  px     Ryd( 3p)     0.00238
     7    C    1  py     Val( 2p)     1.00407
     8    C    1  py     Ryd( 3p)     0.00342
     9    C    1  pz     Val( 2p)     1.23386
    10    C    1  pz     Ryd( 3p)     0.00032
    11    C    1  dxy    Ryd( 3d)     0.00193
    12    C    1  dxz    Ryd( 3d)     0.00066
    13    C    1  dyz    Ryd( 3d)     0.00163
    14    C    1  dx2y2  Ryd( 3d)     0.00116
    15    C    1  dz2    Ryd( 3d)     0.00111

    16    O    2  S      Cor( 1S)     1.99975
    17    O    2  S      Val( 2S)     1.59866
    18    O    2  S      Ryd( 3S)     0.00077
    19    O    2  S      Ryd( 4S)     0.00007
    20    O    2  px     Val( 2p)     1.40129
    21    O    2  px     Ryd( 3p)     0.00090
    22    O    2  py     Val( 2p)     1.71138
    23    O    2  py     Ryd( 3p)     0.00225
    24    O    2  pz     Val( 2p)     1.69906
    25    O    2  pz     Ryd( 3p)     0.00221
    26    O    2  dxy    Ryd( 3d)     0.00134
    27    O    2  dxz    Ryd( 3d)     0.00051
    28    O    2  dyz    Ryd( 3d)     0.00154
    29    O    2  dx2y2  Ryd( 3d)     0.00133
    30    O    2  dz2    Ryd( 3d)     0.00076

    31    C    3  S      Cor( 1S)     1.99880
    32    C    3  S      Val( 2S)     0.84454
    33    C    3  S      Ryd( 3S)     0.00157
    34    C    3  S      Ryd( 4S)     0.00013
    35    C    3  px     Val( 2p)     0.76207
    36    C    3  px     Ryd( 3p)     0.00603
    37    C    3  py     Val( 2p)     1.06931
    38    C    3  py     Ryd( 3p)     0.00691
    39    C    3  pz     Val( 2p)     0.97831
    40    C    3  pz     Ryd( 3p)     0.00195
    41    C    3  dxy    Ryd( 3d)     0.00153
    42    C    3  dxz    Ryd( 3d)     0.00159
    43    C    3  dyz    Ryd( 3d)     0.00141
    44    C    3  dx2y2  Ryd( 3d)     0.00163
    45    C    3  dz2    Ryd( 3d)     0.00050

    46    C    4  S      Cor( 1S)     1.99907
    47    C    4  S      Val( 2S)     0.96167
    48    C    4  S      Ryd( 3S)     0.00084
    49    C    4  S      Ryd( 4S)     0.00004
    50    C    4  px     Val( 2p)     1.07152
    51    C    4  px     Ryd( 3p)     0.00551
    52    C    4  py     Val( 2p)     1.16815
    53    C    4  py     Ryd( 3p)     0.00435
    54    C    4  pz     Val( 2p)     1.09177
    55    C    4  pz     Ryd( 3p)     0.00682
    56    C    4  dxy    Ryd( 3d)     0.00083
    57    C    4  dxz    Ryd( 3d)     0.00065
    58    C    4  dyz    Ryd( 3d)     0.00039
    59    C    4  dx2y2  Ryd( 3d)     0.00055
    60    C    4  dz2    Ryd( 3d)     0.00047

    61    C    5  S      Cor( 1S)     1.99915
    62    C    5  S      Val( 2S)     0.96064
    63    C    5  S      Ryd( 3S)     0.00059
    64    C    5  S      Ryd( 4S)     0.00004
    65    C    5  px     Val( 2p)     1.11290
    66    C    5  px     Ryd( 3p)     0.00503
    67    C    5  py     Val( 2p)     1.12682
    68    C    5  py     Ryd( 3p)     0.00503
    69    C    5  pz     Val( 2p)     1.07313
    70    C    5  pz     Ryd( 3p)     0.00551
    71    C    5  dxy    Ryd( 3d)     0.00081
    72    C    5  dxz    Ryd( 3d)     0.00058
    73    C    5  dyz    Ryd( 3d)     0.00043
    74    C    5  dx2y2  Ryd( 3d)     0.00065
    75    C    5  dz2    Ryd( 3d)     0.00045

    76    C    6  S      Cor( 1S)     1.99912
    77    C    6  S      Val( 2S)     0.97409
    78    C    6  S      Ryd( 3S)     0.00053
    79    C    6  S      Ryd( 4S)     0.00003
    80    C    6  px     Val( 2p)     1.18307
    81    C    6  px     Ryd( 3p)     0.00467
    82    C    6  py     Val( 2p)     1.06573
    83    C    6  py     Ryd( 3p)     0.00472
    84    C    6  pz     Val( 2p)     0.92364
    85    C    6  pz     Ryd( 3p)     0.00256
    86    C    6  dxy    Ryd( 3d)     0.00072
    87    C    6  dxz    Ryd( 3d)     0.00034
    88    C    6  dyz    Ryd( 3d)     0.00097
    89    C    6  dx2y2  Ryd( 3d)     0.00087
    90    C    6  dz2    Ryd( 3d)     0.00044

    91    C    7  S      Cor( 1S)     1.99915
    92    C    7  S      Val( 2S)     0.95883
    93    C    7  S      Ryd( 3S)     0.00071
    94    C    7  S      Ryd( 4S)     0.00003
    95    C    7  px     Val( 2p)     1.05761
    96    C    7  px     Ryd( 3p)     0.00538
    97    C    7  py     Val( 2p)     1.17847
    98    C    7  py     Ryd( 3p)     0.00502
    99    C    7  pz     Val( 2p)     1.07626
   100    C    7  pz     Ryd( 3p)     0.00594
   101    C    7  dxy    Ryd( 3d)     0.00068
   102    C    7  dxz    Ryd( 3d)     0.00060
   103    C    7  dyz    Ryd( 3d)     0.00036
   104    C    7  dx2y2  Ryd( 3d)     0.00078
   105    C    7  dz2    Ryd( 3d)     0.00044

   106    C    8  S      Cor( 1S)     1.99905
   107    C    8  S      Val( 2S)     0.96096
   108    C    8  S      Ryd( 3S)     0.00061
   109    C    8  S      Ryd( 4S)     0.00005
   110    C    8  px     Val( 2p)     1.13164
   111    C    8  px     Ryd( 3p)     0.00377
   112    C    8  py     Val( 2p)     1.12381
   113    C    8  py     Ryd( 3p)     0.00409
   114    C    8  pz     Val( 2p)     1.10097
   115    C    8  pz     Ryd( 3p)     0.00583
   116    C    8  dxy    Ryd( 3d)     0.00079
   117    C    8  dxz    Ryd( 3d)     0.00057
   118    C    8  dyz    Ryd( 3d)     0.00049
   119    C    8  dx2y2  Ryd( 3d)     0.00059
   120    C    8  dz2    Ryd( 3d)     0.00047

   121    H    9  S      Val( 1S)     0.76756
   122    H    9  S      Ryd( 2S)     0.00054

   123    H   10  S      Val( 1S)     0.77994
   124    H   10  S      Ryd( 2S)     0.00204

   125    H   11  S      Val( 1S)     0.77994
   126    H   11  S      Ryd( 2S)     0.00204

   127    H   12  S      Val( 1S)     0.76341
   128    H   12  S      Ryd( 2S)     0.00125

   129    H   13  S      Val( 1S)     0.77064
   130    H   13  S      Ryd( 2S)     0.00083

   131    H   14  S      Val( 1S)     0.76981
   132    H   14  S      Ryd( 2S)     0.00086

   133    H   15  S      Val( 1S)     0.77148
   134    H   15  S      Ryd( 2S)     0.00087

   135    H   16  S      Val( 1S)     0.77376
   136    H   16  S      Ryd( 2S)     0.00100

 WARNING:  1 low occupancy (<1.9990e) core orbital  found on  C    3


 Summary of Natural Population Analysis:                  
                                                          
                                       Natural Population 
                Natural  -----------------------------------------------
    Atom  No    Charge         Core      Valence    Rydberg      Total
 -----------------------------------------------------------------------
      C    1   -0.32607      1.99942     4.31254    0.01412     6.32607
      O    2   -0.42182      1.99975     6.41038    0.01169     8.42182
      C    3    0.32372      1.99880     3.65423    0.02325     5.67628
      C    4   -0.31264      1.99907     4.29313    0.02044     6.31264
      C    5   -0.29174      1.99915     4.27348    0.01911     6.29174
      C    6   -0.16150      1.99912     4.14653    0.01586     6.16150
      C    7   -0.29028      1.99915     4.27117    0.01995     6.29028
      C    8   -0.33368      1.99905     4.31737    0.01726     6.33368
      H    9    0.23190      0.00000     0.76756    0.00054     0.76810
      H   10    0.21801      0.00000     0.77994    0.00204     0.78199
      H   11    0.21801      0.00000     0.77994    0.00204     0.78199
      H   12    0.23534      0.00000     0.76341    0.00125     0.76466
      H   13    0.22853      0.00000     0.77064    0.00083     0.77147
      H   14    0.22933      0.00000     0.76981    0.00086     0.77067
      H   15    0.22765      0.00000     0.77148    0.00087     0.77235
      H   16    0.22524      0.00000     0.77376    0.00100     0.77476
 =======================================================================
   * Total *   -0.00000     15.99351    41.85538    0.15111    58.00000

                                 Natural Population      
 --------------------------------------------------------
   Core                      15.99351 ( 99.9594% of  16)
   Valence                   41.85538 ( 99.6557% of  42)
   Natural Minimal Basis     57.84889 ( 99.7395% of  58)
   Natural Rydberg Basis      0.15111 (  0.2605% of  58)
 --------------------------------------------------------

    Atom  No          Natural Electron Configuration
 ----------------------------------------------------------------------------
      C    1      [core]2S( 1.10)2p( 3.21)3p( 0.01)3d( 0.01)
      O    2      [core]2S( 1.60)2p( 4.81)3p( 0.01)3d( 0.01)
      C    3      [core]2S( 0.84)2p( 2.81)3p( 0.01)3d( 0.01)
      C    4      [core]2S( 0.96)2p( 3.33)3p( 0.02)
      C    5      [core]2S( 0.96)2p( 3.31)3p( 0.02)
      C    6      [core]2S( 0.97)2p( 3.17)3p( 0.01)
      C    7      [core]2S( 0.96)2p( 3.31)3p( 0.02)
      C    8      [core]2S( 0.96)2p( 3.36)3p( 0.01)
      H    9            1S( 0.77)
      H   10            1S( 0.78)
      H   11            1S( 0.78)
      H   12            1S( 0.76)
      H   13            1S( 0.77)
      H   14            1S( 0.77)
      H   15            1S( 0.77)
      H   16            1S( 0.77)


 NBO analysis skipped by request.
 Leave Link  607 at Tue Sep 28 16:51:12 2021, MaxMem=  536870912 cpu:       5.9
 (Enter /sw/target/amd/app/gaussian/Gaussian09RevA.02_gcc-4.9.2/g09/l9999.exe)
 1\1\GINC-HERMITE\SP\RTD-B3LYP-FC\6-31G(d)\C7H8O1\JSCHLEINITZ\28-Sep-20
 21\0\\#p TD(NStates=10, Root=1) b3lyp/6-31G* volume pop=NPA density=cu
 rrent Geom=AllCheck Guess=Read\\COc1ccccc1_conf_0\\0,1\C,0,2.504266808
 9,1.4681646536,-0.3347195374\O,0,2.1868282119,0.2934543273,0.392198977
 1\C,0,3.0397419634,-0.1035290435,1.3838381633\C,0,2.6715293895,-1.2726
 505866,2.0666516379\C,0,3.4724468832,-1.7601851116,3.0928165404\C,0,4.
 648942358,-1.094174135,3.4548262655\C,0,5.0096397288,0.0657154125,2.77
 37407276\C,0,4.2145858709,0.5694799449,1.7386604707\H,0,1.7018341758,1
 .5959016934,-1.0638289774\H,0,3.461645918,1.3710793055,-0.8642575234\H
 ,0,2.5433916927,2.3507189486,0.3179538997\H,0,1.7557533617,-1.77625216
 29,1.7726042568\H,0,3.1769760207,-2.6667803162,3.6146092324\H,0,5.2727
 327105,-1.4774745018,4.2570638267\H,0,5.9205080458,0.5943903742,3.0431
 597053\H,0,4.5170910048,1.4743131184,1.2237093649\\Version=AM64L-G09Re
 vA.02\State=1-A\HF=-346.7713209\RMSD=1.891e-09\Dipole=-0.0183371,0.713
 5312,-0.6055733\Quadrupole=-1.7912224,0.8775271,0.9136953,-0.1535956,1
 .9317105,-4.2562596\PG=C01 [X(C7H8O1)]\\@


 TO ERR IS HUMAN - AND TO BLAME IT ON A COMPUTER IS EVEN MORE SO.
 Job cpu time:  0 days  0 hours 30 minutes 11.9 seconds.
 File lengths (MBytes):  RWF=     67 Int=      0 D2E=      0 Chk=      9 Scr=      1
 Normal termination of Gaussian 09 at Tue Sep 28 16:51:14 2021.
