 Entering Gaussian System, Link 0=g09
 Input=C7H9BO2_6d96_conf_0.com
 Output=C7H9BO2_6d96_conf_0.log
 Initial command:
 /sw/target/amd/app/gaussian/Gaussian09RevA.02_gcc-4.9.2/g09/l1.exe /home/jschleinitz/gaussian/Gau-893928.inp -scrdir=/home/jschleinitz/gaussian/
 Entering Link 1 = /sw/target/amd/app/gaussian/Gaussian09RevA.02_gcc-4.9.2/g09/l1.exe PID=    893930.
  
 Copyright (c) 1988,1990,1992,1993,1995,1998,2003,2009, Gaussian, Inc.
                  All Rights Reserved.
  
 This is part of the Gaussian(R) 09 program.  It is based on
 the Gaussian(R) 03 system (copyright 2003, Gaussian, Inc.),
 the Gaussian(R) 98 system (copyright 1998, Gaussian, Inc.),
 the Gaussian(R) 94 system (copyright 1995, Gaussian, Inc.),
 the Gaussian 92(TM) system (copyright 1992, Gaussian, Inc.),
 the Gaussian 90(TM) system (copyright 1990, Gaussian, Inc.),
 the Gaussian 88(TM) system (copyright 1988, Gaussian, Inc.),
 the Gaussian 86(TM) system (copyright 1986, Carnegie Mellon
 University), and the Gaussian 82(TM) system (copyright 1983,
 Carnegie Mellon University). Gaussian is a federally registered
 trademark of Gaussian, Inc.
  
 This software contains proprietary and confidential information,
 including trade secrets, belonging to Gaussian, Inc.
  
 This software is provided under written license and may be
 used, copied, transmitted, or stored only in accord with that
 written license.
  
 The following legend is applicable only to US Government
 contracts under FAR:
  
                    RESTRICTED RIGHTS LEGEND
  
 Use, reproduction and disclosure by the US Government is
 subject to restrictions as set forth in subparagraphs (a)
 and (c) of the Commercial Computer Software - Restricted
 Rights clause in FAR 52.227-19.
  
 Gaussian, Inc.
 340 Quinnipiac St., Bldg. 40, Wallingford CT 06492
  
  
 ---------------------------------------------------------------
 Warning -- This program may not be used in any manner that
 competes with the business of Gaussian, Inc. or will provide
 assistance to any competitor of Gaussian, Inc.  The licensee
 of this program is prohibited from giving any competitor of
 Gaussian, Inc. access to this program.  By using this program,
 the user acknowledges that Gaussian, Inc. is engaged in the
 business of creating and licensing software in the field of
 computational chemistry and represents and warrants to the
 licensee that it is not a competitor of Gaussian, Inc. and that
 it will not use this program in any manner prohibited above.
 ---------------------------------------------------------------
  

 Cite this work as:
 Gaussian 09, Revision A.02,
 M. J. Frisch, G. W. Trucks, H. B. Schlegel, G. E. Scuseria, 
 M. A. Robb, J. R. Cheeseman, G. Scalmani, V. Barone, B. Mennucci, 
 G. A. Petersson, H. Nakatsuji, M. Caricato, X. Li, H. P. Hratchian, 
 A. F. Izmaylov, J. Bloino, G. Zheng, J. L. Sonnenberg, M. Hada, 
 M. Ehara, K. Toyota, R. Fukuda, J. Hasegawa, M. Ishida, T. Nakajima, 
 Y. Honda, O. Kitao, H. Nakai, T. Vreven, J. A. Montgomery, Jr., 
 J. E. Peralta, F. Ogliaro, M. Bearpark, J. J. Heyd, E. Brothers, 
 K. N. Kudin, V. N. Staroverov, R. Kobayashi, J. Normand, 
 K. Raghavachari, A. Rendell, J. C. Burant, S. S. Iyengar, J. Tomasi, 
 M. Cossi, N. Rega, J. M. Millam, M. Klene, J. E. Knox, J. B. Cross, 
 V. Bakken, C. Adamo, J. Jaramillo, R. Gomperts, R. E. Stratmann, 
 O. Yazyev, A. J. Austin, R. Cammi, C. Pomelli, J. W. Ochterski, 
 R. L. Martin, K. Morokuma, V. G. Zakrzewski, G. A. Voth, 
 P. Salvador, J. J. Dannenberg, S. Dapprich, A. D. Daniels, 
 O. Farkas, J. B. Foresman, J. V. Ortiz, J. Cioslowski, 
 and D. J. Fox, Gaussian, Inc., Wallingford CT, 2009.
 
 ******************************************
 Gaussian 09:  AM64L-G09RevA.02 11-Jun-2009
                 3-Oct-2021 
 ******************************************
 %nproc=3
 Will use up to    3 processors via shared memory.
 %mem=6gb
 %chk=C7H9BO2_6d96_conf_0.chk
 -----------------------------------
 #p opt b3lyp/6-31G* scf=(xqc,tight)
 -----------------------------------
 1/14=-1,18=20,19=15,26=3,38=1/1,3;
 2/9=110,12=2,17=6,18=5,40=1/2;
 3/5=1,6=6,7=1,11=2,16=1,25=1,30=1,71=1,74=-5/1,2,3;
 4//1;
 5/5=2,8=3,13=1,32=2,38=5/2,8;
 6/7=2,8=2,9=2,10=2,28=1/1;
 7//1,2,3,16;
 1/14=-1,18=20,19=15/3(2);
 2/9=110/2;
 99//99;
 2/9=110/2;
 3/5=1,6=6,7=1,11=2,16=1,25=1,30=1,71=1,74=-5/1,2,3;
 4/5=5,16=3/1;
 5/5=2,8=3,13=1,32=2,38=5/2,8;
 7//1,2,3,16;
 1/14=-1,18=20,19=15/3(-5);
 2/9=110/2;
 6/7=2,8=2,9=2,10=2,19=2,28=1/1;
 99/9=1/99;
 Leave Link    1 at Sun Oct  3 14:05:43 2021, MaxMem=  805306368 cpu:       0.1
 (Enter /sw/target/amd/app/gaussian/Gaussian09RevA.02_gcc-4.9.2/g09/l101.exe)
 ---------------------
 OB(c1ccccc1C)O_conf_0
 ---------------------
 Symbolic Z-matrix:
 Charge =  0 Multiplicity = 1
 O                     1.2165   -0.61641   0.74385 
 B                     2.41539  -0.09466   0.09211 
 C                     3.26544   1.0944    0.72462 
 C                     4.40157   1.52653   0.01288 
 C                     5.20053   2.56178   0.4992 
 C                     4.88206   3.18421   1.70281 
 C                     3.76277   2.77456   2.42642 
 C                     2.9417    1.73265   1.95553 
 C                     1.74721   1.33651   2.78467 
 O                     2.83516  -0.69388  -1.17419 
 H                     0.46548  -0.14807   0.29906 
 H                     4.68027   1.06542  -0.92701 
 H                     6.07019   2.88192  -0.0602 
 H                     5.50428   3.98694   2.07717 
 H                     3.53773   3.27558   3.35999 
 H                     1.66495   1.94634   3.70958 
 H                     1.836     0.2732    3.09044 
 H                     0.8156    1.48784   2.20117 
 H                     3.42677  -1.44415  -0.91292 
 
 NAtoms=     19 NQM=     19 NQMF=      0 NMic=      0 NMicF=      0 NTot=     19.
                    Isotopes and Nuclear Properties:
 (Nuclear quadrupole moments (NQMom) in fm**2, nuclear magnetic moments (NMagM)
  in nuclear magnetons)

  Atom         1           2           3           4           5           6           7           8           9          10
 IAtWgt=          16          11          12          12          12          12          12          12          12          16
 AtmWgt=  15.9949146  11.0093053  12.0000000  12.0000000  12.0000000  12.0000000  12.0000000  12.0000000  12.0000000  15.9949146
 NucSpn=           0           3           0           0           0           0           0           0           0           0
 AtZEff=   0.0000000   0.0000000   0.0000000   0.0000000   0.0000000   0.0000000   0.0000000   0.0000000   0.0000000   0.0000000
 NQMom=    0.0000000   4.0590000   0.0000000   0.0000000   0.0000000   0.0000000   0.0000000   0.0000000   0.0000000   0.0000000
 NMagM=    0.0000000   2.6886370   0.0000000   0.0000000   0.0000000   0.0000000   0.0000000   0.0000000   0.0000000   0.0000000

  Atom        11          12          13          14          15          16          17          18          19
 IAtWgt=           1           1           1           1           1           1           1           1           1
 AtmWgt=   1.0078250   1.0078250   1.0078250   1.0078250   1.0078250   1.0078250   1.0078250   1.0078250   1.0078250
 NucSpn=           1           1           1           1           1           1           1           1           1
 AtZEff=   0.0000000   0.0000000   0.0000000   0.0000000   0.0000000   0.0000000   0.0000000   0.0000000   0.0000000
 NQMom=    0.0000000   0.0000000   0.0000000   0.0000000   0.0000000   0.0000000   0.0000000   0.0000000   0.0000000
 NMagM=    2.7928460   2.7928460   2.7928460   2.7928460   2.7928460   2.7928460   2.7928460   2.7928460   2.7928460
 Leave Link  101 at Sun Oct  3 14:05:45 2021, MaxMem=  805306368 cpu:       0.2
 (Enter /sw/target/amd/app/gaussian/Gaussian09RevA.02_gcc-4.9.2/g09/l103.exe)

 GradGradGradGradGradGradGradGradGradGradGradGradGradGradGradGradGradGrad
 Berny optimization.
 Initialization pass.
                           ----------------------------
                           !    Initial Parameters    !
                           ! (Angstroms and Degrees)  !
 --------------------------                            --------------------------
 ! Name  Definition              Value          Derivative Info.                !
 --------------------------------------------------------------------------------
 ! R1    R(1,2)                  1.4609         estimate D2E/DX2                !
 ! R2    R(1,11)                 0.9906         estimate D2E/DX2                !
 ! R3    R(2,3)                  1.5926         estimate D2E/DX2                !
 ! R4    R(2,10)                 1.4625         estimate D2E/DX2                !
 ! R5    R(3,4)                  1.4086         estimate D2E/DX2                !
 ! R6    R(3,8)                  1.4238         estimate D2E/DX2                !
 ! R7    R(4,5)                  1.3952         estimate D2E/DX2                !
 ! R8    R(4,12)                 1.0834         estimate D2E/DX2                !
 ! R9    R(5,6)                  1.3919         estimate D2E/DX2                !
 ! R10   R(5,13)                 1.0825         estimate D2E/DX2                !
 ! R11   R(6,7)                  1.3944         estimate D2E/DX2                !
 ! R12   R(6,14)                 1.0824         estimate D2E/DX2                !
 ! R13   R(7,8)                  1.4076         estimate D2E/DX2                !
 ! R14   R(7,15)                 1.0831         estimate D2E/DX2                !
 ! R15   R(8,9)                  1.5071         estimate D2E/DX2                !
 ! R16   R(9,16)                 1.1109         estimate D2E/DX2                !
 ! R17   R(9,17)                 1.11           estimate D2E/DX2                !
 ! R18   R(9,18)                 1.1096         estimate D2E/DX2                !
 ! R19   R(10,19)                0.9906         estimate D2E/DX2                !
 ! A1    A(2,1,11)             104.6557         estimate D2E/DX2                !
 ! A2    A(1,2,3)              121.8343         estimate D2E/DX2                !
 ! A3    A(1,2,10)             118.3911         estimate D2E/DX2                !
 ! A4    A(3,2,10)             119.7745         estimate D2E/DX2                !
 ! A5    A(2,3,4)              117.3138         estimate D2E/DX2                !
 ! A6    A(2,3,8)              123.8243         estimate D2E/DX2                !
 ! A7    A(4,3,8)              118.8619         estimate D2E/DX2                !
 ! A8    A(3,4,5)              120.8899         estimate D2E/DX2                !
 ! A9    A(3,4,12)             121.0172         estimate D2E/DX2                !
 ! A10   A(5,4,12)             118.0929         estimate D2E/DX2                !
 ! A11   A(4,5,6)              120.1445         estimate D2E/DX2                !
 ! A12   A(4,5,13)             119.9596         estimate D2E/DX2                !
 ! A13   A(6,5,13)             119.8959         estimate D2E/DX2                !
 ! A14   A(5,6,7)              120.0682         estimate D2E/DX2                !
 ! A15   A(5,6,14)             119.9434         estimate D2E/DX2                !
 ! A16   A(7,6,14)             119.9884         estimate D2E/DX2                !
 ! A17   A(6,7,8)              120.8021         estimate D2E/DX2                !
 ! A18   A(6,7,15)             118.566          estimate D2E/DX2                !
 ! A19   A(8,7,15)             120.6319         estimate D2E/DX2                !
 ! A20   A(3,8,7)              119.2334         estimate D2E/DX2                !
 ! A21   A(3,8,9)              122.5481         estimate D2E/DX2                !
 ! A22   A(7,8,9)              118.2185         estimate D2E/DX2                !
 ! A23   A(8,9,16)             111.8667         estimate D2E/DX2                !
 ! A24   A(8,9,17)             109.8748         estimate D2E/DX2                !
 ! A25   A(8,9,18)             109.8948         estimate D2E/DX2                !
 ! A26   A(16,9,17)            107.6044         estimate D2E/DX2                !
 ! A27   A(16,9,18)            107.504          estimate D2E/DX2                !
 ! A28   A(17,9,18)            110.0399         estimate D2E/DX2                !
 ! A29   A(2,10,19)            104.678          estimate D2E/DX2                !
 ! D1    D(11,1,2,3)            96.7463         estimate D2E/DX2                !
 ! D2    D(11,1,2,10)          -83.4039         estimate D2E/DX2                !
 ! D3    D(1,2,3,4)           -179.7534         estimate D2E/DX2                !
 ! D4    D(1,2,3,8)              0.3301         estimate D2E/DX2                !
 ! D5    D(10,2,3,4)             0.3988         estimate D2E/DX2                !
 ! D6    D(10,2,3,8)          -179.5176         estimate D2E/DX2                !
 ! D7    D(1,2,10,19)          -88.7524         estimate D2E/DX2                !
 ! D8    D(3,2,10,19)           91.1005         estimate D2E/DX2                !
 ! D9    D(2,3,4,5)           -179.938          estimate D2E/DX2                !
 ! D10   D(2,3,4,12)             0.0643         estimate D2E/DX2                !
 ! D11   D(8,3,4,5)             -0.0172         estimate D2E/DX2                !
 ! D12   D(8,3,4,12)           179.9851         estimate D2E/DX2                !
 ! D13   D(2,3,8,7)            179.914          estimate D2E/DX2                !
 ! D14   D(2,3,8,9)             -0.0346         estimate D2E/DX2                !
 ! D15   D(4,3,8,7)             -0.0013         estimate D2E/DX2                !
 ! D16   D(4,3,8,9)           -179.9498         estimate D2E/DX2                !
 ! D17   D(3,4,5,6)              0.0191         estimate D2E/DX2                !
 ! D18   D(3,4,5,13)          -179.9929         estimate D2E/DX2                !
 ! D19   D(12,4,5,6)          -179.9832         estimate D2E/DX2                !
 ! D20   D(12,4,5,13)            0.0048         estimate D2E/DX2                !
 ! D21   D(4,5,6,7)             -0.0021         estimate D2E/DX2                !
 ! D22   D(4,5,6,14)           179.9889         estimate D2E/DX2                !
 ! D23   D(13,5,6,7)          -179.99           estimate D2E/DX2                !
 ! D24   D(13,5,6,14)            0.001          estimate D2E/DX2                !
 ! D25   D(5,6,7,8)             -0.0166         estimate D2E/DX2                !
 ! D26   D(5,6,7,15)           179.9873         estimate D2E/DX2                !
 ! D27   D(14,6,7,8)           179.9924         estimate D2E/DX2                !
 ! D28   D(14,6,7,15)           -0.0037         estimate D2E/DX2                !
 ! D29   D(6,7,8,3)              0.0181         estimate D2E/DX2                !
 ! D30   D(6,7,8,9)            179.9689         estimate D2E/DX2                !
 ! D31   D(15,7,8,3)          -179.9858         estimate D2E/DX2                !
 ! D32   D(15,7,8,9)            -0.035          estimate D2E/DX2                !
 ! D33   D(3,8,9,16)           179.7799         estimate D2E/DX2                !
 ! D34   D(3,8,9,17)            60.3336         estimate D2E/DX2                !
 ! D35   D(3,8,9,18)           -60.8864         estimate D2E/DX2                !
 ! D36   D(7,8,9,16)            -0.1691         estimate D2E/DX2                !
 ! D37   D(7,8,9,17)          -119.6154         estimate D2E/DX2                !
 ! D38   D(7,8,9,18)           119.1645         estimate D2E/DX2                !
 --------------------------------------------------------------------------------
 Trust Radius=3.00D-01 FncErr=1.00D-07 GrdErr=1.00D-06
 Number of steps in this run=  96 maximum allowed number of steps= 114.
 GradGradGradGradGradGradGradGradGradGradGradGradGradGradGradGradGradGrad

 Leave Link  103 at Sun Oct  3 14:05:45 2021, MaxMem=  805306368 cpu:       0.0
 (Enter /sw/target/amd/app/gaussian/Gaussian09RevA.02_gcc-4.9.2/g09/l202.exe)
                          Input orientation:                          
 ---------------------------------------------------------------------
 Center     Atomic      Atomic             Coordinates (Angstroms)
 Number     Number       Type             X           Y           Z
 ---------------------------------------------------------------------
      1          8           0        1.216504   -0.616413    0.743851
      2          5           0        2.415390   -0.094657    0.092108
      3          6           0        3.265442    1.094401    0.724622
      4          6           0        4.401569    1.526527    0.012877
      5          6           0        5.200528    2.561780    0.499198
      6          6           0        4.882058    3.184206    1.702808
      7          6           0        3.762768    2.774557    2.426424
      8          6           0        2.941705    1.732651    1.955534
      9          6           0        1.747211    1.336510    2.784669
     10          8           0        2.835155   -0.693881   -1.174194
     11          1           0        0.465479   -0.148075    0.299055
     12          1           0        4.680273    1.065416   -0.927011
     13          1           0        6.070193    2.881923   -0.060202
     14          1           0        5.504284    3.986936    2.077167
     15          1           0        3.537729    3.275584    3.359989
     16          1           0        1.664953    1.946340    3.709579
     17          1           0        1.836005    0.273203    3.090439
     18          1           0        0.815596    1.487843    2.201173
     19          1           0        3.426775   -1.444154   -0.912916
 ---------------------------------------------------------------------
                    Distance matrix (angstroms):
                    1          2          3          4          5
     1  O    0.000000
     2  B    1.460933   0.000000
     3  C    2.669344   1.592646   0.000000
     4  C    3.907831   2.565038   1.408580   0.000000
     5  C    5.102276   3.870320   2.438971   1.395204   0.000000
     6  C    5.366618   4.407919   2.817371   2.415499   1.391946
     7  C    4.562148   3.936604   2.442619   2.791211   2.413842
     8  C    3.156358   2.662409   1.423838   2.438772   2.812589
     9  C    2.874107   3.121631   2.570493   3.842466   4.318572
    10  O    2.510962   1.462462   2.643597   2.965299   4.358275
    11  H    0.990567   1.961589   3.092676   4.287072   5.459310
    12  H    4.197383   2.741180   2.174967   1.083370   2.131630
    13  H    6.036816   4.716017   3.417282   2.150988   1.082468
    14  H    6.430677   5.490094   3.899814   3.395716   2.147865
    15  H    5.232581   4.826719   3.431743   3.874091   3.385047
    16  H    3.945168   4.220773   3.492468   4.618540   4.815144
    17  H    2.584893   3.075873   2.883530   4.198133   4.824120
    18  H    2.590832   3.084121   2.887342   4.201111   4.824696
    19  H    2.883631   1.963190   3.025198   3.260715   4.603018
                    6          7          8          9         10
     6  C    0.000000
     7  C    1.394361   0.000000
     8  C    2.436361   1.407640   0.000000
     9  C    3.796271   2.501757   1.507052   0.000000
    10  O    5.244665   5.084780   3.961643   4.580252   0.000000
    11  H    5.707958   4.892810   3.523173   3.166244   2.843191
    12  H    3.383185   3.874082   3.431748   4.738450   2.561383
    13  H    2.147380   3.393973   3.895056   5.400904   4.949023
    14  H    1.082444   2.150516   3.415173   4.651980   6.293302
    15  H    2.135842   1.083150   2.169880   2.701289   6.067049
    16  H    3.988636   2.594853   2.180007   1.110909   5.673745
    17  H    4.435978   3.226470   2.154198   1.109955   4.485604
    18  H    4.434200   3.223693   2.154207   1.109629   4.497960
    19  H    5.511948   5.390882   4.307597   4.921906   0.990550
                   11         12         13         14         15
    11  H    0.000000
    12  H    4.554150   0.000000
    13  H    6.381440   2.446004   0.000000
    14  H    6.756445   4.270757   2.471772   0.000000
    15  H    5.525349   4.956675   4.273880   2.453363   0.000000
    16  H    4.178155   5.600550   5.873050   4.644273   2.323015
    17  H    3.138094   4.985716   5.887301   5.317406   3.461621
    18  H    2.533152   4.989961   5.887960   5.314569   3.456716
    19  H    3.452241   2.805244   5.140985   6.538607   6.367571
                   16         17         18         19
    16  H    0.000000
    17  H    1.792200   0.000000
    18  H    1.790786   1.818620   0.000000
    19  H    5.997243   4.637533   5.011229   0.000000
 Stoichiometry    C7H9BO2
 Framework group  C1[X(C7H9BO2)]
 Deg. of freedom    51
 Full point group                 C1      NOp   1
 Largest Abelian subgroup         C1      NOp   1
 Largest concise Abelian subgroup C1      NOp   1
                         Standard orientation:                         
 ---------------------------------------------------------------------
 Center     Atomic      Atomic             Coordinates (Angstroms)
 Number     Number       Type             X           Y           Z
 ---------------------------------------------------------------------
      1          8           0       -2.556773    0.880705    0.014171
      2          5           0       -1.732618   -0.325390   -0.006498
      3          6           0       -0.141497   -0.255692   -0.006963
      4          6           0        0.558980   -1.477470   -0.033152
      5          6           0        1.953942   -1.503481   -0.034071
      6          6           0        2.675284   -0.313302   -0.008525
      7          6           0        2.005284    0.909252    0.018033
      8          6           0        0.598575    0.960420    0.019104
      9          6           0       -0.065260    2.313056    0.049211
     10          8           0       -2.402620   -1.625233   -0.023824
     11          1           0       -2.792075    1.039757   -0.934806
     12          1           0        0.031080   -2.423309   -0.053184
     13          1           0        2.476927   -2.451008   -0.054492
     14          1           0        3.757463   -0.337285   -0.009139
     15          1           0        2.590692    1.820361    0.037793
     16          1           0        0.678056    3.138367    0.070680
     17          1           0       -0.694623    2.404359    0.958918
     18          1           0       -0.688027    2.448344   -0.859159
     19          1           0       -2.533109   -1.853095    0.931290
 ---------------------------------------------------------------------
 Rotational constants (GHZ):      2.0932521      1.0879058      0.7230295
 Leave Link  202 at Sun Oct  3 14:05:45 2021, MaxMem=  805306368 cpu:       0.0
 (Enter /sw/target/amd/app/gaussian/Gaussian09RevA.02_gcc-4.9.2/g09/l301.exe)
 Standard basis: 6-31G(d) (6D, 7F)
 Ernie: Thresh=  0.10000D-02 Tol=  0.10000D-05 Strict=F.
 There are   168 symmetry adapted basis functions of A   symmetry.
 Integral buffers will be    131072 words long.
 Raffenetti 2 integral format.
 Two-electron integral symmetry is turned on.
   168 basis functions,   316 primitive gaussians,   168 cartesian basis functions
    36 alpha electrons       36 beta electrons
       nuclear repulsion energy       478.2631108494 Hartrees.
 IExCor=  402 DFT=T Ex+Corr=B3LYP ExCW=0 ScaHFX=  0.200000
 ScaDFX=  0.800000  0.720000  1.000000  0.810000 ScalE2=  1.000000  1.000000
 IRadAn=      0 IRanWt=     -1 IRanGd=            0 ICorTp=0
 NAtoms=   19 NActive=   19 NUniq=   19 SFac= 7.50D-01 NAtFMM=   80 NAOKFM=F Big=F
 Leave Link  301 at Sun Oct  3 14:05:46 2021, MaxMem=  805306368 cpu:       0.1
 (Enter /sw/target/amd/app/gaussian/Gaussian09RevA.02_gcc-4.9.2/g09/l302.exe)
 NPDir=0 NMtPBC=     1 NCelOv=     1 NCel=       1 NClECP=     1 NCelD=      1
         NCelK=      1 NCelE2=     1 NClLst=     1 CellRange=     0.0.
 One-electron integrals computed using PRISM.
 NBasis=   168 RedAO= T  NBF=   168
 NBsUse=   168 1.00D-06 NBFU=   168
 Precomputing XC quadrature grid using
 IXCGrd= 2 IRadAn=           0 IRanWt=          -1 IRanGd=           0 AccXCQ= 1.00D-10.
 NRdTot=    1187 NPtTot=      151052 NUsed=      159621 NTot=      159653
 NSgBfM=   167   168   168   168   168 NAtAll=    19    19.
 Leave Link  302 at Sun Oct  3 14:05:49 2021, MaxMem=  805306368 cpu:       1.2
 (Enter /sw/target/amd/app/gaussian/Gaussian09RevA.02_gcc-4.9.2/g09/l303.exe)
 DipDrv:  MaxL=1.
 Leave Link  303 at Sun Oct  3 14:05:49 2021, MaxMem=  805306368 cpu:       0.1
 (Enter /sw/target/amd/app/gaussian/Gaussian09RevA.02_gcc-4.9.2/g09/l401.exe)
 Harris functional with IExCor=  402 diagonalized for initial guess.
 ExpMin= 1.27D-01 ExpMax= 5.48D+03 ExpMxC= 8.25D+02 IAcc=1 IRadAn=         1 AccDes= 0.00D+00
 HarFok:  IExCor=  402 AccDes= 0.00D+00 IRadAn=         1 IDoV= 1
 ScaDFX=  1.000000  1.000000  1.000000  1.000000
 FoFCou: FMM=F IPFlag=           0 FMFlag=      100000 FMFlg1=           0
         NFxFlg=           0 DoJE=T BraDBF=F KetDBF=T FulRan=T
         Omega=  0.000000  0.000000  1.000000  0.000000  0.000000 ICntrl=     500 IOpCl=  0
         NMat0=    1 NMatS0=    1 NMatT0=    0 NMatD0=    1 NMtDS0=    0 NMtDT0=    0
         I1Cent=           4 NGrid=           0.
 Petite list used in FoFCou.
 Harris En= -447.650629621333    
 Initial guess orbital symmetries:
       Occupied  (A) (A) (A) (A) (A) (A) (A) (A) (A) (A) (A) (A)
                 (A) (A) (A) (A) (A) (A) (A) (A) (A) (A) (A) (A)
                 (A) (A) (A) (A) (A) (A) (A) (A) (A) (A) (A) (A)
       Virtual   (A) (A) (A) (A) (A) (A) (A) (A) (A) (A) (A) (A)
                 (A) (A) (A) (A) (A) (A) (A) (A) (A) (A) (A) (A)
                 (A) (A) (A) (A) (A) (A) (A) (A) (A) (A) (A) (A)
                 (A) (A) (A) (A) (A) (A) (A) (A) (A) (A) (A) (A)
                 (A) (A) (A) (A) (A) (A) (A) (A) (A) (A) (A) (A)
                 (A) (A) (A) (A) (A) (A) (A) (A) (A) (A) (A) (A)
                 (A) (A) (A) (A) (A) (A) (A) (A) (A) (A) (A) (A)
                 (A) (A) (A) (A) (A) (A) (A) (A) (A) (A) (A) (A)
                 (A) (A) (A) (A) (A) (A) (A) (A) (A) (A) (A) (A)
                 (A) (A) (A) (A) (A) (A) (A) (A) (A) (A) (A) (A)
                 (A) (A) (A) (A) (A) (A) (A) (A) (A) (A) (A) (A)
 The electronic state of the initial guess is 1-A.
 Leave Link  401 at Sun Oct  3 14:06:06 2021, MaxMem=  805306368 cpu:       5.3
 (Enter /sw/target/amd/app/gaussian/Gaussian09RevA.02_gcc-4.9.2/g09/l502.exe)
 Closed shell SCF:
 Requested convergence on RMS density matrix=1.00D-08 within  64 cycles.
 Requested convergence on MAX density matrix=1.00D-06.
 Requested convergence on             energy=1.00D-06.
 No special actions if energy rises.
 Using DIIS extrapolation, IDIIS=  1040.
 Integral symmetry usage will be decided dynamically.
       159437 words used for storage of precomputed grid.
 Keep R1 ints in memory in canonical form, NReq=103435567.
 IEnd=      251927 IEndB=      251927 NGot=   805306368 MDV=   704316724
 LenX=   704316724 LenY=   704288059
 Symmetry not used in FoFDir.
 MinBra= 0 MaxBra= 2 Meth= 1.
 IRaf=       0 NMat=   1 IRICut=       1 DoRegI=T DoRafI=F ISym2E= 0 JSym2E=0.
 Integral accuracy reduced to 1.0D-05 until final iterations.

 Cycle   1  Pass 0  IDiag  1:
 E= -447.208996258556    
 DIIS: error= 3.89D-02 at cycle   1 NSaved=   1.
 NSaved= 1 IEnMin= 1 EnMin= -447.208996258556     IErMin= 1 ErrMin= 3.89D-02
 ErrMax= 3.89D-02 EMaxC= 1.00D-01 BMatC= 3.45D-01 BMatP= 3.45D-01
 IDIUse=3 WtCom= 6.11D-01 WtEn= 3.89D-01
 Coeff-Com:  0.100D+01
 Coeff-En:   0.100D+01
 Coeff:      0.100D+01
 Gap=     0.181 Goal=   None    Shift=    0.000
 GapD=    0.181 DampG=1.000 DampE=0.500 DampFc=0.5000 IDamp=-1.
 Damping current iteration by 5.00D-01
 RMSDP=7.57D-03 MaxDP=1.59D-01              OVMax= 1.82D-01

 Cycle   2  Pass 0  IDiag  1:
 E= -447.341349938102     Delta-E=       -0.132353679546 Rises=F Damp=T
 DIIS: error= 6.99D-03 at cycle   2 NSaved=   2.
 NSaved= 2 IEnMin= 2 EnMin= -447.341349938102     IErMin= 2 ErrMin= 6.99D-03
 ErrMax= 6.99D-03 EMaxC= 1.00D-01 BMatC= 2.15D-02 BMatP= 3.45D-01
 IDIUse=3 WtCom= 9.30D-01 WtEn= 6.99D-02
 Coeff-Com:  0.129D+00 0.871D+00
 Coeff-En:   0.189D+00 0.811D+00
 Coeff:      0.133D+00 0.867D+00
 Gap=     0.248 Goal=   None    Shift=    0.000
 RMSDP=1.58D-03 MaxDP=2.97D-02 DE=-1.32D-01 OVMax= 1.39D-01

 Cycle   3  Pass 0  IDiag  1:
 E= -447.525854816360     Delta-E=       -0.184504878258 Rises=F Damp=F
 DIIS: error= 6.43D-03 at cycle   3 NSaved=   3.
 NSaved= 3 IEnMin= 3 EnMin= -447.525854816360     IErMin= 3 ErrMin= 6.43D-03
 ErrMax= 6.43D-03 EMaxC= 1.00D-01 BMatC= 8.14D-03 BMatP= 2.15D-02
 IDIUse=3 WtCom= 9.36D-01 WtEn= 6.43D-02
 Coeff-Com:  0.251D-01 0.372D+00 0.603D+00
 Coeff-En:   0.000D+00 0.000D+00 0.100D+01
 Coeff:      0.235D-01 0.348D+00 0.628D+00
 Gap=     0.194 Goal=   None    Shift=    0.000
 RMSDP=7.75D-04 MaxDP=1.75D-02 DE=-1.85D-01 OVMax= 2.84D-02

 Cycle   4  Pass 0  IDiag  1:
 E= -447.531285696584     Delta-E=       -0.005430880224 Rises=F Damp=F
 DIIS: error= 2.49D-03 at cycle   4 NSaved=   4.
 NSaved= 4 IEnMin= 4 EnMin= -447.531285696584     IErMin= 4 ErrMin= 2.49D-03
 ErrMax= 2.49D-03 EMaxC= 1.00D-01 BMatC= 1.97D-03 BMatP= 8.14D-03
 IDIUse=3 WtCom= 9.75D-01 WtEn= 2.49D-02
 Coeff-Com: -0.329D-03 0.678D-01 0.343D+00 0.590D+00
 Coeff-En:   0.000D+00 0.000D+00 0.207D+00 0.793D+00
 Coeff:     -0.321D-03 0.662D-01 0.340D+00 0.595D+00
 Gap=     0.194 Goal=   None    Shift=    0.000
 RMSDP=3.46D-04 MaxDP=9.97D-03 DE=-5.43D-03 OVMax= 1.79D-02

 Cycle   5  Pass 0  IDiag  1:
 E= -447.532981593747     Delta-E=       -0.001695897163 Rises=F Damp=F
 DIIS: error= 1.11D-03 at cycle   5 NSaved=   5.
 NSaved= 5 IEnMin= 5 EnMin= -447.532981593747     IErMin= 5 ErrMin= 1.11D-03
 ErrMax= 1.11D-03 EMaxC= 1.00D-01 BMatC= 1.87D-04 BMatP= 1.97D-03
 IDIUse=3 WtCom= 9.89D-01 WtEn= 1.11D-02
 Coeff-Com: -0.150D-02 0.156D-01 0.154D+00 0.337D+00 0.495D+00
 Coeff-En:   0.000D+00 0.000D+00 0.000D+00 0.197D-01 0.980D+00
 Coeff:     -0.149D-02 0.154D-01 0.152D+00 0.334D+00 0.500D+00
 Gap=     0.194 Goal=   None    Shift=    0.000
 RMSDP=1.10D-04 MaxDP=2.83D-03 DE=-1.70D-03 OVMax= 7.62D-03

 Cycle   6  Pass 0  IDiag  1:
 E= -447.533165238252     Delta-E=       -0.000183644505 Rises=F Damp=F
 DIIS: error= 4.57D-04 at cycle   6 NSaved=   6.
 NSaved= 6 IEnMin= 6 EnMin= -447.533165238252     IErMin= 6 ErrMin= 4.57D-04
 ErrMax= 4.57D-04 EMaxC= 1.00D-01 BMatC= 2.25D-05 BMatP= 1.87D-04
 IDIUse=3 WtCom= 9.95D-01 WtEn= 4.57D-03
 Coeff-Com: -0.766D-03 0.150D-02 0.510D-01 0.130D+00 0.302D+00 0.516D+00
 Coeff-En:   0.000D+00 0.000D+00 0.000D+00 0.000D+00 0.961D-01 0.904D+00
 Coeff:     -0.762D-03 0.149D-02 0.508D-01 0.129D+00 0.301D+00 0.518D+00
 Gap=     0.194 Goal=   None    Shift=    0.000
 RMSDP=3.37D-05 MaxDP=7.87D-04 DE=-1.84D-04 OVMax= 2.35D-03

 Cycle   7  Pass 0  IDiag  1:
 E= -447.533189797904     Delta-E=       -0.000024559652 Rises=F Damp=F
 DIIS: error= 5.36D-05 at cycle   7 NSaved=   7.
 NSaved= 7 IEnMin= 7 EnMin= -447.533189797904     IErMin= 7 ErrMin= 5.36D-05
 ErrMax= 5.36D-05 EMaxC= 1.00D-01 BMatC= 5.77D-07 BMatP= 2.25D-05
 IDIUse=1 WtCom= 1.00D+00 WtEn= 0.00D+00
 Coeff-Com: -0.267D-03-0.288D-03 0.153D-01 0.431D-01 0.115D+00 0.244D+00
 Coeff-Com:  0.584D+00
 Coeff:     -0.267D-03-0.288D-03 0.153D-01 0.431D-01 0.115D+00 0.244D+00
 Coeff:      0.584D+00
 Gap=     0.194 Goal=   None    Shift=    0.000
 RMSDP=5.77D-06 MaxDP=1.17D-04 DE=-2.46D-05 OVMax= 2.77D-04

 Initial convergence to 1.0D-05 achieved.  Increase integral accuracy.
 Cycle   8  Pass 1  IDiag  1:
 E= -447.533200623041     Delta-E=       -0.000010825137 Rises=F Damp=F
 DIIS: error= 5.05D-05 at cycle   1 NSaved=   1.
 NSaved= 1 IEnMin= 1 EnMin= -447.533200623041     IErMin= 1 ErrMin= 5.05D-05
 ErrMax= 5.05D-05 EMaxC= 1.00D-01 BMatC= 1.05D-07 BMatP= 1.05D-07
 IDIUse=1 WtCom= 1.00D+00 WtEn= 0.00D+00
 Coeff-Com:  0.100D+01
 Coeff:      0.100D+01
 Gap=     0.194 Goal=   None    Shift=    0.000
 RMSDP=5.77D-06 MaxDP=1.17D-04 DE=-1.08D-05 OVMax= 1.44D-04

 Cycle   9  Pass 1  IDiag  1:
 E= -447.533200692714     Delta-E=       -0.000000069673 Rises=F Damp=F
 DIIS: error= 2.02D-05 at cycle   2 NSaved=   2.
 NSaved= 2 IEnMin= 2 EnMin= -447.533200692714     IErMin= 2 ErrMin= 2.02D-05
 ErrMax= 2.02D-05 EMaxC= 1.00D-01 BMatC= 6.91D-08 BMatP= 1.05D-07
 IDIUse=1 WtCom= 1.00D+00 WtEn= 0.00D+00
 Coeff-Com:  0.429D+00 0.571D+00
 Coeff:      0.429D+00 0.571D+00
 Gap=     0.194 Goal=   None    Shift=    0.000
 RMSDP=2.43D-06 MaxDP=6.75D-05 DE=-6.97D-08 OVMax= 1.61D-04

 Cycle  10  Pass 1  IDiag  1:
 E= -447.533200739290     Delta-E=       -0.000000046577 Rises=F Damp=F
 DIIS: error= 1.28D-05 at cycle   3 NSaved=   3.
 NSaved= 3 IEnMin= 3 EnMin= -447.533200739290     IErMin= 3 ErrMin= 1.28D-05
 ErrMax= 1.28D-05 EMaxC= 1.00D-01 BMatC= 2.32D-08 BMatP= 6.91D-08
 IDIUse=1 WtCom= 1.00D+00 WtEn= 0.00D+00
 Coeff-Com:  0.149D-01 0.363D+00 0.622D+00
 Coeff:      0.149D-01 0.363D+00 0.622D+00
 Gap=     0.194 Goal=   None    Shift=    0.000
 RMSDP=1.14D-06 MaxDP=3.63D-05 DE=-4.66D-08 OVMax= 8.20D-05

 Cycle  11  Pass 1  IDiag  1:
 E= -447.533200761613     Delta-E=       -0.000000022322 Rises=F Damp=F
 DIIS: error= 3.06D-06 at cycle   4 NSaved=   4.
 NSaved= 4 IEnMin= 4 EnMin= -447.533200761613     IErMin= 4 ErrMin= 3.06D-06
 ErrMax= 3.06D-06 EMaxC= 1.00D-01 BMatC= 2.25D-09 BMatP= 2.32D-08
 IDIUse=1 WtCom= 1.00D+00 WtEn= 0.00D+00
 Coeff-Com: -0.150D-01 0.188D+00 0.378D+00 0.449D+00
 Coeff:     -0.150D-01 0.188D+00 0.378D+00 0.449D+00
 Gap=     0.194 Goal=   None    Shift=    0.000
 RMSDP=3.22D-07 MaxDP=7.67D-06 DE=-2.23D-08 OVMax= 2.00D-05

 Cycle  12  Pass 1  IDiag  1:
 E= -447.533200763960     Delta-E=       -0.000000002348 Rises=F Damp=F
 DIIS: error= 4.11D-07 at cycle   5 NSaved=   5.
 NSaved= 5 IEnMin= 5 EnMin= -447.533200763960     IErMin= 5 ErrMin= 4.11D-07
 ErrMax= 4.11D-07 EMaxC= 1.00D-01 BMatC= 5.36D-11 BMatP= 2.25D-09
 IDIUse=1 WtCom= 1.00D+00 WtEn= 0.00D+00
 Coeff-Com: -0.743D-02 0.649D-01 0.137D+00 0.211D+00 0.594D+00
 Coeff:     -0.743D-02 0.649D-01 0.137D+00 0.211D+00 0.594D+00
 Gap=     0.194 Goal=   None    Shift=    0.000
 RMSDP=5.80D-08 MaxDP=1.27D-06 DE=-2.35D-09 OVMax= 3.22D-06

 Cycle  13  Pass 1  IDiag  1:
 E= -447.533200764016     Delta-E=       -0.000000000056 Rises=F Damp=F
 DIIS: error= 1.39D-07 at cycle   6 NSaved=   6.
 NSaved= 6 IEnMin= 6 EnMin= -447.533200764016     IErMin= 6 ErrMin= 1.39D-07
 ErrMax= 1.39D-07 EMaxC= 1.00D-01 BMatC= 5.73D-12 BMatP= 5.36D-11
 IDIUse=1 WtCom= 1.00D+00 WtEn= 0.00D+00
 Coeff-Com: -0.305D-02 0.241D-01 0.528D-01 0.886D-01 0.322D+00 0.515D+00
 Coeff:     -0.305D-02 0.241D-01 0.528D-01 0.886D-01 0.322D+00 0.515D+00
 Gap=     0.194 Goal=   None    Shift=    0.000
 RMSDP=1.57D-08 MaxDP=4.17D-07 DE=-5.60D-11 OVMax= 8.51D-07

 Cycle  14  Pass 1  IDiag  1:
 E= -447.533200764023     Delta-E=       -0.000000000006 Rises=F Damp=F
 DIIS: error= 2.78D-08 at cycle   7 NSaved=   7.
 NSaved= 7 IEnMin= 7 EnMin= -447.533200764023     IErMin= 7 ErrMin= 2.78D-08
 ErrMax= 2.78D-08 EMaxC= 1.00D-01 BMatC= 3.17D-13 BMatP= 5.73D-12
 IDIUse=1 WtCom= 1.00D+00 WtEn= 0.00D+00
 Coeff-Com: -0.299D-03 0.102D-02 0.340D-02 0.823D-02 0.492D-01 0.211D+00
 Coeff-Com:  0.728D+00
 Coeff:     -0.299D-03 0.102D-02 0.340D-02 0.823D-02 0.492D-01 0.211D+00
 Coeff:      0.728D+00
 Gap=     0.194 Goal=   None    Shift=    0.000
 RMSDP=4.45D-09 MaxDP=1.14D-07 DE=-6.37D-12 OVMax= 2.33D-07

 SCF Done:  E(RB3LYP) =  -447.533200764     A.U. after   14 cycles
             Convg  =    0.4448D-08             -V/T =  2.0102
 KE= 4.430315731051D+02 PE=-1.999284304396D+03 EE= 6.304564196776D+02
 Leave Link  502 at Sun Oct  3 14:08:53 2021, MaxMem=  805306368 cpu:      86.7
 (Enter /sw/target/amd/app/gaussian/Gaussian09RevA.02_gcc-4.9.2/g09/l508.exe)
 QCSCF skips out because SCF is already converged.
 Leave Link  508 at Sun Oct  3 14:08:53 2021, MaxMem=  805306368 cpu:       0.0
 (Enter /sw/target/amd/app/gaussian/Gaussian09RevA.02_gcc-4.9.2/g09/l601.exe)
 Copying SCF densities to generalized density rwf, IOpCl= 0 IROHF=0.

 **********************************************************************

            Population analysis using the SCF density.

 **********************************************************************

 Orbital symmetries:
       Occupied  (A) (A) (A) (A) (A) (A) (A) (A) (A) (A) (A) (A)
                 (A) (A) (A) (A) (A) (A) (A) (A) (A) (A) (A) (A)
                 (A) (A) (A) (A) (A) (A) (A) (A) (A) (A) (A) (A)
       Virtual   (A) (A) (A) (A) (A) (A) (A) (A) (A) (A) (A) (A)
                 (A) (A) (A) (A) (A) (A) (A) (A) (A) (A) (A) (A)
                 (A) (A) (A) (A) (A) (A) (A) (A) (A) (A) (A) (A)
                 (A) (A) (A) (A) (A) (A) (A) (A) (A) (A) (A) (A)
                 (A) (A) (A) (A) (A) (A) (A) (A) (A) (A) (A) (A)
                 (A) (A) (A) (A) (A) (A) (A) (A) (A) (A) (A) (A)
                 (A) (A) (A) (A) (A) (A) (A) (A) (A) (A) (A) (A)
                 (A) (A) (A) (A) (A) (A) (A) (A) (A) (A) (A) (A)
                 (A) (A) (A) (A) (A) (A) (A) (A) (A) (A) (A) (A)
                 (A) (A) (A) (A) (A) (A) (A) (A) (A) (A) (A) (A)
                 (A) (A) (A) (A) (A) (A) (A) (A) (A) (A) (A) (A)
 The electronic state is 1-A.
 Alpha  occ. eigenvalues --  -19.14333 -19.14278 -10.20301 -10.19350 -10.18993
 Alpha  occ. eigenvalues --  -10.18637 -10.18525 -10.17966 -10.17452  -6.81429
 Alpha  occ. eigenvalues --   -0.99954  -0.97471  -0.84998  -0.76648  -0.74088
 Alpha  occ. eigenvalues --   -0.67666  -0.60180  -0.58029  -0.52673  -0.49804
 Alpha  occ. eigenvalues --   -0.49709  -0.45389  -0.44865  -0.41835  -0.41577
 Alpha  occ. eigenvalues --   -0.40187  -0.38710  -0.37784  -0.36378  -0.35103
 Alpha  occ. eigenvalues --   -0.34397  -0.33678  -0.28353  -0.27614  -0.25385
 Alpha  occ. eigenvalues --   -0.24010
 Alpha virt. eigenvalues --   -0.04607   0.00319   0.05213   0.05504   0.08729
 Alpha virt. eigenvalues --    0.10432   0.13306   0.14936   0.15698   0.16990
 Alpha virt. eigenvalues --    0.18033   0.20051   0.20245   0.23082   0.24310
 Alpha virt. eigenvalues --    0.27310   0.29969   0.31765   0.34917   0.35220
 Alpha virt. eigenvalues --    0.37663   0.45559   0.45978   0.48551   0.52193
 Alpha virt. eigenvalues --    0.52749   0.53146   0.55671   0.55920   0.57333
 Alpha virt. eigenvalues --    0.58196   0.61070   0.61502   0.62642   0.63074
 Alpha virt. eigenvalues --    0.66232   0.66885   0.67713   0.70979   0.72726
 Alpha virt. eigenvalues --    0.75741   0.78836   0.81780   0.83292   0.83666
 Alpha virt. eigenvalues --    0.84156   0.85309   0.86856   0.87529   0.90316
 Alpha virt. eigenvalues --    0.91965   0.93514   0.94661   0.95355   0.97129
 Alpha virt. eigenvalues --    1.02233   1.03687   1.06994   1.08343   1.10713
 Alpha virt. eigenvalues --    1.13314   1.15115   1.16857   1.20157   1.24363
 Alpha virt. eigenvalues --    1.25728   1.29920   1.32002   1.33727   1.37102
 Alpha virt. eigenvalues --    1.39412   1.43017   1.44353   1.45142   1.48951
 Alpha virt. eigenvalues --    1.50103   1.50291   1.56789   1.61631   1.65434
 Alpha virt. eigenvalues --    1.66970   1.71622   1.76026   1.78984   1.79232
 Alpha virt. eigenvalues --    1.82764   1.89160   1.89758   1.90921   1.92906
 Alpha virt. eigenvalues --    1.96061   2.01935   2.05020   2.05660   2.10446
 Alpha virt. eigenvalues --    2.13990   2.15357   2.20061   2.20698   2.21793
 Alpha virt. eigenvalues --    2.22944   2.24136   2.32071   2.32325   2.34499
 Alpha virt. eigenvalues --    2.36910   2.38819   2.39682   2.43986   2.53167
 Alpha virt. eigenvalues --    2.60540   2.62050   2.65393   2.69025   2.72821
 Alpha virt. eigenvalues --    2.76208   2.78900   2.81895   2.83695   2.92751
 Alpha virt. eigenvalues --    3.10597   3.39671   3.61554   3.81339   3.99373
 Alpha virt. eigenvalues --    4.09432   4.12455   4.17726   4.26720   4.38275
 Alpha virt. eigenvalues --    4.41712   4.72157
          Condensed to atoms (all electrons):
              1          2          3          4          5          6
     1  O    8.112521   0.356142  -0.048263   0.000695  -0.000023  -0.000001
     2  B    0.356142   3.633815   0.354381  -0.046360   0.008018  -0.000830
     3  C   -0.048263   0.354381   4.996624   0.442823  -0.025726  -0.041059
     4  C    0.000695  -0.046360   0.442823   5.061874   0.487009  -0.019282
     5  C   -0.000023   0.008018  -0.025726   0.487009   4.913454   0.542196
     6  C   -0.000001  -0.000830  -0.041059  -0.019282   0.542196   4.868427
     7  C   -0.000004   0.008199  -0.017441  -0.060980  -0.028842   0.513172
     8  C   -0.003790  -0.041870   0.479817  -0.010610  -0.044209  -0.018353
     9  C   -0.001954  -0.017893  -0.074141   0.008810  -0.000013   0.007964
    10  O   -0.040480   0.385608  -0.068082   0.004323   0.000475  -0.000003
    11  H    0.234209  -0.012107  -0.000790  -0.000158   0.000004  -0.000001
    12  H    0.000131  -0.009286  -0.046994   0.356363  -0.048635   0.004902
    13  H    0.000000  -0.000176   0.003800  -0.040822   0.358227  -0.044465
    14  H   -0.000000   0.000016   0.000800   0.004594  -0.043052   0.355026
    15  H    0.000001  -0.000114   0.005129   0.000495   0.004831  -0.048253
    16  H    0.000655   0.000365   0.003945  -0.000142  -0.000001   0.000373
    17  H    0.001665   0.001026  -0.003502  -0.000078   0.000035  -0.000238
    18  H    0.002993   0.002717  -0.004905  -0.000122   0.000035  -0.000258
    19  H    0.000397  -0.015363   0.000374  -0.001309  -0.000009  -0.000001
              7          8          9         10         11         12
     1  O   -0.000004  -0.003790  -0.001954  -0.040480   0.234209   0.000131
     2  B    0.008199  -0.041870  -0.017893   0.385608  -0.012107  -0.009286
     3  C   -0.017441   0.479817  -0.074141  -0.068082  -0.000790  -0.046994
     4  C   -0.060980  -0.010610   0.008810   0.004323  -0.000158   0.356363
     5  C   -0.028842  -0.044209  -0.000013   0.000475   0.000004  -0.048635
     6  C    0.513172  -0.018353   0.007964  -0.000003  -0.000001   0.004902
     7  C    5.001035   0.509939  -0.070978  -0.000031   0.000031   0.000368
     8  C    0.509939   4.786386   0.361069  -0.000400   0.000070   0.005536
     9  C   -0.070978   0.361069   5.212261   0.000050  -0.000627  -0.000115
    10  O   -0.000031  -0.000400   0.000050   8.082234   0.000178   0.013159
    11  H    0.000031   0.000070  -0.000627   0.000178   0.375949  -0.000019
    12  H    0.000368   0.005536  -0.000115   0.013159  -0.000019   0.587294
    13  H    0.004746   0.000840   0.000010  -0.000001  -0.000000  -0.005278
    14  H   -0.040091   0.003939  -0.000208   0.000000   0.000000  -0.000193
    15  H    0.354249  -0.037989  -0.010611   0.000000   0.000000   0.000019
    16  H   -0.005085  -0.031081   0.351752   0.000000  -0.000065   0.000002
    17  H    0.001247  -0.022562   0.362708  -0.000009  -0.000313  -0.000001
    18  H    0.001404  -0.024747   0.356442   0.000006   0.002499  -0.000001
    19  H    0.000008   0.000037  -0.000015   0.236751   0.000214  -0.000643
             13         14         15         16         17         18
     1  O    0.000000  -0.000000   0.000001   0.000655   0.001665   0.002993
     2  B   -0.000176   0.000016  -0.000114   0.000365   0.001026   0.002717
     3  C    0.003800   0.000800   0.005129   0.003945  -0.003502  -0.004905
     4  C   -0.040822   0.004594   0.000495  -0.000142  -0.000078  -0.000122
     5  C    0.358227  -0.043052   0.004831  -0.000001   0.000035   0.000035
     6  C   -0.044465   0.355026  -0.048253   0.000373  -0.000238  -0.000258
     7  C    0.004746  -0.040091   0.354249  -0.005085   0.001247   0.001404
     8  C    0.000840   0.003939  -0.037989  -0.031081  -0.022562  -0.024747
     9  C    0.000010  -0.000208  -0.010611   0.351752   0.362708   0.356442
    10  O   -0.000001   0.000000   0.000000   0.000000  -0.000009   0.000006
    11  H   -0.000000   0.000000   0.000000  -0.000065  -0.000313   0.002499
    12  H   -0.005278  -0.000193   0.000019   0.000002  -0.000001  -0.000001
    13  H    0.601971  -0.005742  -0.000195  -0.000000  -0.000000  -0.000000
    14  H   -0.005742   0.598163  -0.005572  -0.000015   0.000003   0.000003
    15  H   -0.000195  -0.005572   0.604412   0.007215   0.000194   0.000225
    16  H   -0.000000  -0.000015   0.007215   0.594409  -0.030246  -0.030753
    17  H   -0.000000   0.000003   0.000194  -0.030246   0.540214  -0.025786
    18  H   -0.000000   0.000003   0.000225  -0.030753  -0.025786   0.576139
    19  H   -0.000000  -0.000000  -0.000000  -0.000000   0.000001  -0.000000
             19
     1  O    0.000397
     2  B   -0.015363
     3  C    0.000374
     4  C   -0.001309
     5  C   -0.000009
     6  C   -0.000001
     7  C    0.000008
     8  C    0.000037
     9  C   -0.000015
    10  O    0.236751
    11  H    0.000214
    12  H   -0.000643
    13  H   -0.000000
    14  H   -0.000000
    15  H   -0.000000
    16  H   -0.000000
    17  H    0.000001
    18  H   -0.000000
    19  H    0.378237
 Mulliken atomic charges:
              1
     1  O   -0.614894
     2  B    0.393714
     3  C    0.043211
     4  C   -0.187122
     5  C   -0.123773
     6  C   -0.119314
     7  C   -0.170946
     8  C    0.087979
     9  C   -0.484511
    10  O   -0.613778
    11  H    0.400925
    12  H    0.143390
    13  H    0.127084
    14  H    0.132329
    15  H    0.125964
    16  H    0.138670
    17  H    0.175640
    18  H    0.144111
    19  H    0.401322
 Sum of Mulliken atomic charges =  -0.00000
 Mulliken charges with hydrogens summed into heavy atoms:
              1
     1  O   -0.213969
     2  B    0.393714
     3  C    0.043211
     4  C   -0.043733
     5  C    0.003311
     6  C    0.013015
     7  C   -0.044982
     8  C    0.087979
     9  C   -0.026090
    10  O   -0.212455
 Sum of Mulliken charges with hydrogens summed into heavy atoms =  -0.00000
 Electronic spatial extent (au):  <R**2>=           1530.1317
 Charge=             -0.0000 electrons
 Dipole moment (field-independent basis, Debye):
    X=              1.0688    Y=              0.2100    Z=              0.0838  Tot=              1.0925
 Quadrupole moment (field-independent basis, Debye-Ang):
   XX=            -57.2060   YY=            -55.7997   ZZ=            -56.3111
   XY=             -0.5413   XZ=              0.3782   YZ=             -4.7791
 Traceless Quadrupole moment (field-independent basis, Debye-Ang):
   XX=             -0.7671   YY=              0.6392   ZZ=              0.1278
   XY=             -0.5413   XZ=              0.3782   YZ=             -4.7791
 Octapole moment (field-independent basis, Debye-Ang**2):
  XXX=              8.9420  YYY=             -5.1665  ZZZ=              0.2668  XYY=              1.6361
  XXY=              0.3243  XXZ=             -2.5336  XZZ=            -21.8808  YZZ=             -0.4638
  YYZ=              4.6536  XYZ=             13.9750
 Hexadecapole moment (field-independent basis, Debye-Ang**3):
 XXXX=          -1170.1708 YYYY=           -690.4839 ZZZZ=            -66.8542 XXXY=             -6.1735
 XXXZ=             10.6091 YYYX=              3.0153 YYYZ=            -15.1347 ZZZX=              0.6823
 ZZZY=             -7.1791 XXYY=           -307.9050 XXZZ=           -193.7685 YYZZ=           -125.4955
 XXYZ=            -37.4596 YYXZ=            -11.0388 ZZXY=              5.1785
 N-N= 4.782631108494D+02 E-N=-1.999284305869D+03  KE= 4.430315731051D+02
 No NMR shielding tensors so no spin-rotation constants.
 Leave Link  601 at Sun Oct  3 14:08:54 2021, MaxMem=  805306368 cpu:       0.8
 (Enter /sw/target/amd/app/gaussian/Gaussian09RevA.02_gcc-4.9.2/g09/l701.exe)
 Compute integral first derivatives.
 ... and contract with generalized density number  0.
 Leave Link  701 at Sun Oct  3 14:08:56 2021, MaxMem=  805306368 cpu:       0.8
 (Enter /sw/target/amd/app/gaussian/Gaussian09RevA.02_gcc-4.9.2/g09/l702.exe)
 L702 exits ... SP integral derivatives will be done elsewhere.
 Leave Link  702 at Sun Oct  3 14:08:56 2021, MaxMem=  805306368 cpu:       0.1
 (Enter /sw/target/amd/app/gaussian/Gaussian09RevA.02_gcc-4.9.2/g09/l703.exe)
 Compute integral first derivatives, UseDBF=F ICtDFT=           0.
 Integral derivatives from FoFDir, PRISM(SPDF).
 Calling FoFJK, ICntrl=      2127 FMM=F ISym2X=0 I1Cent= 0 IOpClX= 0 NMat=1 NMatS=1 NMatT=0.
 FoFCou: FMM=F IPFlag=           0 FMFlag=      100000 FMFlg1=         800
         NFxFlg=           0 DoJE=F BraDBF=F KetDBF=F FulRan=T
         Omega=  0.000000  0.000000  1.000000  0.000000  0.000000 ICntrl=    2127 IOpCl=  0
         NMat0=    1 NMatS0=    1 NMatT0=    0 NMatD0=    1 NMtDS0=    0 NMtDT0=    0
         I1Cent=           0 NGrid=           0.
 Symmetry not used in FoFCou.
 Leave Link  703 at Sun Oct  3 14:10:37 2021, MaxMem=  805306368 cpu:      36.9
 (Enter /sw/target/amd/app/gaussian/Gaussian09RevA.02_gcc-4.9.2/g09/l716.exe)
 Dipole        = 4.20506721D-01 8.26368790D-02 3.29506407D-02
 ***** Axes restored to original set *****
 -------------------------------------------------------------------
 Center     Atomic                   Forces (Hartrees/Bohr)
 Number     Number              X              Y              Z
 -------------------------------------------------------------------
      1        8           0.022564831    0.027966289   -0.031673878
      2        5          -0.011445969   -0.016333141   -0.007879085
      3        6          -0.010107173   -0.014997312   -0.006596825
      4        6           0.003676290    0.007504830    0.006337829
      5        6           0.000052446   -0.001728067   -0.002458933
      6        6          -0.001859695   -0.002233586   -0.000816123
      7        6           0.000161031   -0.005432793   -0.007446412
      8        6           0.005640584    0.007829524    0.003269584
      9        6          -0.005814892   -0.001654274    0.007063276
     10        8           0.000661122    0.003499430    0.045841525
     11        1           0.008161015   -0.013657195    0.008565431
     12        1          -0.003719680   -0.003418457   -0.001246619
     13        1           0.002624756    0.000872535   -0.001879146
     14        1           0.001765835    0.002611265    0.001479793
     15        1          -0.003037986   -0.000563099    0.002724639
     16        1           0.002773588   -0.003720736   -0.008907268
     17        1          -0.007440318    0.009346484   -0.004317004
     18        1           0.006024445   -0.006351310    0.008090473
     19        1          -0.010680233    0.010459612   -0.010151256
 -------------------------------------------------------------------
 Cartesian Forces:  Max     0.045841525 RMS     0.010895977
 Leave Link  716 at Sun Oct  3 14:10:38 2021, MaxMem=  805306368 cpu:       0.1
 (Enter /sw/target/amd/app/gaussian/Gaussian09RevA.02_gcc-4.9.2/g09/l103.exe)

 GradGradGradGradGradGradGradGradGradGradGradGradGradGradGradGradGradGrad
 Berny optimization.
 Internal  Forces:  Max     0.040624761 RMS     0.007858923
 Search for a local minimum.
 Step number   1 out of a maximum of   96
 All quantities printed in internal units (Hartrees-Bohrs-Radians)
 RMS Force = .78589D-02 SwitMx=.10000D-02 MixMth= 1
 Mixed Optimization -- RFO/linear search
 Second derivative matrix not updated -- first step.
     Eigenvalues ---    0.00230   0.00673   0.00803   0.01355   0.01395
     Eigenvalues ---    0.01414   0.01415   0.01869   0.02054   0.02062
     Eigenvalues ---    0.02071   0.02163   0.02170   0.02181   0.07216
     Eigenvalues ---    0.07327   0.16000   0.16000   0.16000   0.16000
     Eigenvalues ---    0.16000   0.16000   0.16000   0.16000   0.16000
     Eigenvalues ---    0.22000   0.22483   0.24321   0.24469   0.25000
     Eigenvalues ---    0.25000   0.25000   0.25000   0.31649   0.32504
     Eigenvalues ---    0.32605   0.32639   0.35590   0.35616   0.35698
     Eigenvalues ---    0.35701   0.36658   0.36848   0.40000   0.41105
     Eigenvalues ---    0.43692   0.45585   0.45648   0.46699   0.49386
     Eigenvalues ---    0.493891000.000001000.000001000.000001000.00000
     Eigenvalues --- 1000.000001000.000001000.000001000.000001000.00000
     Eigenvalues --- 1000.000001000.000001000.000001000.000001000.00000
     Eigenvalues --- 1000.000001000.000001000.000001000.000001000.00000
     Eigenvalues --- 1000.000001000.000001000.000001000.000001000.00000
     Eigenvalues --- 1000.000001000.000001000.000001000.000001000.00000
     Eigenvalues --- 1000.000001000.000001000.000001000.000001000.00000
     Eigenvalues --- 1000.00000
 RFO step:  Lambda=-1.67657003D-02 EMin= 2.30000000D-03
 Linear search not attempted -- first point.
 Iteration  1 RMS(Cart)=  0.06236137 RMS(Int)=  0.00229981
 Iteration  2 RMS(Cart)=  0.00287764 RMS(Int)=  0.00008039
 Iteration  3 RMS(Cart)=  0.00000859 RMS(Int)=  0.00008018
 Iteration  4 RMS(Cart)=  0.00000000 RMS(Int)=  0.00008018
 Variable       Old X    -DE/DX   Delta X   Delta X   Delta X     New X
                                 (Linear)    (Quad)   (Total)
    R1        2.76076  -0.04062   0.00000  -0.10545  -0.10545   2.65531
    R2        1.87190  -0.01649   0.00000  -0.03229  -0.03229   1.83961
    R3        3.00967  -0.01572   0.00000  -0.06045  -0.06045   2.94921
    R4        2.76365  -0.03950   0.00000  -0.10305  -0.10305   2.66060
    R5        2.66183   0.00043   0.00000   0.00088   0.00088   2.66271
    R6        2.69066   0.00071   0.00000   0.00129   0.00128   2.69195
    R7        2.63655  -0.00231   0.00000  -0.00454  -0.00453   2.63202
    R8        2.04727   0.00158   0.00000   0.00424   0.00424   2.05152
    R9        2.63040   0.00061   0.00000   0.00155   0.00156   2.63196
   R10        2.04557   0.00334   0.00000   0.00894   0.00894   2.05450
   R11        2.63496   0.00200   0.00000   0.00419   0.00419   2.63915
   R12        2.04552   0.00346   0.00000   0.00926   0.00926   2.05479
   R13        2.66005  -0.00553   0.00000  -0.01227  -0.01228   2.64777
   R14        2.04686   0.00272   0.00000   0.00728   0.00728   2.05414
   R15        2.84792   0.00521   0.00000   0.01565   0.01565   2.86356
   R16        2.09931  -0.00966   0.00000  -0.02826  -0.02826   2.07105
   R17        2.09751  -0.01074   0.00000  -0.03132  -0.03132   2.06619
   R18        2.09689  -0.01018   0.00000  -0.02968  -0.02968   2.06722
   R19        1.87187  -0.01698   0.00000  -0.03326  -0.03326   1.83861
    A1        1.82659   0.01195   0.00000   0.06763   0.06763   1.89422
    A2        2.12641   0.00725   0.00000   0.02717   0.02717   2.15357
    A3        2.06631  -0.00453   0.00000  -0.01697  -0.01697   2.04934
    A4        2.09046  -0.00272   0.00000  -0.01020  -0.01020   2.08025
    A5        2.04751  -0.00689   0.00000  -0.02531  -0.02530   2.02221
    A6        2.16114   0.00821   0.00000   0.03128   0.03129   2.19243
    A7        2.07453  -0.00133   0.00000  -0.00598  -0.00599   2.06854
    A8        2.10993   0.00498   0.00000   0.02106   0.02107   2.13100
    A9        2.11215  -0.00755   0.00000  -0.03916  -0.03917   2.07298
   A10        2.06111   0.00257   0.00000   0.01810   0.01809   2.07920
   A11        2.09692  -0.00462   0.00000  -0.01873  -0.01871   2.07821
   A12        2.09369   0.00210   0.00000   0.00818   0.00817   2.10186
   A13        2.09258   0.00252   0.00000   0.01055   0.01054   2.10312
   A14        2.09558  -0.00049   0.00000  -0.00167  -0.00166   2.09392
   A15        2.09341   0.00061   0.00000   0.00289   0.00289   2.09629
   A16        2.09419  -0.00012   0.00000  -0.00122  -0.00123   2.09297
   A17        2.10840   0.00419   0.00000   0.01692   0.01690   2.12530
   A18        2.06937   0.00107   0.00000   0.00943   0.00943   2.07880
   A19        2.10542  -0.00526   0.00000  -0.02634  -0.02634   2.07909
   A20        2.08102  -0.00273   0.00000  -0.01161  -0.01163   2.06938
   A21        2.13887   0.00494   0.00000   0.01920   0.01921   2.15808
   A22        2.06330  -0.00221   0.00000  -0.00760  -0.00759   2.05572
   A23        1.95244  -0.00567   0.00000  -0.02939  -0.02914   1.92330
   A24        1.91768   0.00659   0.00000   0.03678   0.03670   1.95438
   A25        1.91803   0.00646   0.00000   0.03442   0.03435   1.95237
   A26        1.87805   0.00037   0.00000   0.00625   0.00648   1.88454
   A27        1.87630  -0.00028   0.00000  -0.00051  -0.00027   1.87603
   A28        1.92056  -0.00797   0.00000  -0.05033  -0.05069   1.86987
   A29        1.82697   0.01111   0.00000   0.06284   0.06284   1.88982
    D1        1.68854   0.00340   0.00000   0.11037   0.11038   1.79892
    D2       -1.45567   0.00332   0.00000   0.10701   0.10700  -1.34867
    D3       -3.13729   0.00024   0.00000   0.01330   0.01328  -3.12401
    D4        0.00576   0.00027   0.00000   0.01440   0.01440   0.02016
    D5        0.00696   0.00032   0.00000   0.01672   0.01672   0.02368
    D6       -3.13317   0.00036   0.00000   0.01781   0.01784  -3.11534
    D7       -1.54902   0.00161   0.00000   0.05301   0.05298  -1.49604
    D8        1.59000   0.00154   0.00000   0.04978   0.04981   1.63982
    D9       -3.14051   0.00013   0.00000   0.00404   0.00406  -3.13645
   D10        0.00112   0.00029   0.00000   0.00817   0.00812   0.00924
   D11       -0.00030   0.00011   0.00000   0.00303   0.00306   0.00276
   D12        3.14133   0.00027   0.00000   0.00717   0.00712  -3.13474
   D13        3.14009  -0.00025   0.00000  -0.00714  -0.00716   3.13294
   D14       -0.00060  -0.00017   0.00000  -0.00471  -0.00470  -0.00531
   D15       -0.00002  -0.00021   0.00000  -0.00602  -0.00600  -0.00602
   D16       -3.14072  -0.00013   0.00000  -0.00358  -0.00354   3.13892
   D17        0.00033   0.00005   0.00000   0.00143   0.00143   0.00176
   D18       -3.14147   0.00005   0.00000   0.00116   0.00117  -3.14030
   D19       -3.14130  -0.00010   0.00000  -0.00258  -0.00264   3.13924
   D20        0.00008  -0.00011   0.00000  -0.00286  -0.00290  -0.00282
   D21       -0.00004  -0.00011   0.00000  -0.00289  -0.00290  -0.00294
   D22        3.14140  -0.00003   0.00000  -0.00091  -0.00090   3.14050
   D23       -3.14142  -0.00010   0.00000  -0.00261  -0.00264   3.13913
   D24        0.00002  -0.00002   0.00000  -0.00064  -0.00064  -0.00062
   D25       -0.00029  -0.00000   0.00000  -0.00021  -0.00019  -0.00048
   D26        3.14137   0.00007   0.00000   0.00195   0.00199  -3.13982
   D27        3.14146  -0.00008   0.00000  -0.00218  -0.00219   3.13927
   D28       -0.00007  -0.00000   0.00000  -0.00003  -0.00001  -0.00007
   D29        0.00032   0.00016   0.00000   0.00468   0.00469   0.00500
   D30        3.14105   0.00009   0.00000   0.00236   0.00239  -3.13974
   D31       -3.14135   0.00008   0.00000   0.00248   0.00250  -3.13884
   D32       -0.00061   0.00001   0.00000   0.00017   0.00021  -0.00040
   D33        3.13775   0.00001   0.00000  -0.00830  -0.00830   3.12945
   D34        1.05302  -0.00119   0.00000  -0.02173  -0.02152   1.03150
   D35       -1.06267   0.00032   0.00000  -0.00493  -0.00517  -1.06784
   D36       -0.00295   0.00009   0.00000  -0.00588  -0.00587  -0.00882
   D37       -2.08768  -0.00111   0.00000  -0.01932  -0.01908  -2.10676
   D38        2.07981   0.00040   0.00000  -0.00251  -0.00274   2.07708
         Item               Value     Threshold  Converged?
 Maximum Force            0.040625     0.000450     NO 
 RMS     Force            0.007859     0.000300     NO 
 Maximum Displacement     0.251586     0.001800     NO 
 RMS     Displacement     0.061882     0.001200     NO 
 Predicted change in Energy=-9.084572D-03
 GradGradGradGradGradGradGradGradGradGradGradGradGradGradGradGradGradGrad

 Leave Link  103 at Sun Oct  3 14:10:47 2021, MaxMem=  805306368 cpu:       3.0
 (Enter /sw/target/amd/app/gaussian/Gaussian09RevA.02_gcc-4.9.2/g09/l202.exe)
                          Input orientation:                          
 ---------------------------------------------------------------------
 Center     Atomic      Atomic             Coordinates (Angstroms)
 Number     Number       Type             X           Y           Z
 ---------------------------------------------------------------------
      1          8           0        1.264931   -0.614660    0.654359
      2          5           0        2.432388   -0.075777    0.087758
      3          6           0        3.242667    1.089940    0.735985
      4          6           0        4.377178    1.522021    0.020720
      5          6           0        5.196697    2.548946    0.483022
      6          6           0        4.888404    3.168816    1.691546
      7          6           0        3.768626    2.760488    2.419419
      8          6           0        2.930348    1.732313    1.968487
      9          6           0        1.738729    1.363860    2.829020
     10          8           0        2.882488   -0.634219   -1.123779
     11          1           0        0.496522   -0.270221    0.165922
     12          1           0        4.615364    1.039699   -0.922251
     13          1           0        6.065008    2.861526   -0.091717
     14          1           0        5.517251    3.971660    2.068792
     15          1           0        3.540218    3.255111    3.360034
     16          1           0        1.715648    1.987110    3.730208
     17          1           0        1.769051    0.317082    3.143371
     18          1           0        0.792689    1.514498    2.300826
     19          1           0        3.435411   -1.407499   -0.916547
 ---------------------------------------------------------------------
                    Distance matrix (angstroms):
                    1          2          3          4          5
     1  O    0.000000
     2  B    1.405130   0.000000
     3  C    2.612234   1.560656   0.000000
     4  C    3.827922   2.517868   1.409046   0.000000
     5  C    5.049410   3.832337   2.451718   1.392806   0.000000
     6  C    5.340413   4.373961   2.818381   2.401030   1.392772
     7  C    4.558021   3.907246   2.429262   2.767289   2.415320
     8  C    3.163673   2.655992   1.424516   2.435433   2.830165
     9  C    2.977949   3.173048   2.591845   3.856549   4.343464
    10  O    2.403882   1.407931   2.561479   2.862403   4.250872
    11  H    0.973478   1.947176   3.117102   4.276997   5.489981
    12  H    4.055614   2.651375   2.153269   1.085616   2.142560
    13  H    5.973378   4.675028   3.433542   2.157704   1.087196
    14  H    6.412269   5.461009   3.905690   3.390442   2.154423
    15  H    5.241445   4.798947   3.414987   3.854234   3.394082
    16  H    4.053789   4.246959   3.478803   4.589155   4.793493
    17  H    2.705081   3.151369   2.926493   4.243248   4.879286
    18  H    2.732614   3.180449   2.937919   4.248234   4.875426
    19  H    2.794158   1.946321   3.000869   3.216751   4.551305
                    6          7          8          9         10
     6  C    0.000000
     7  C    1.396579   0.000000
     8  C    2.444223   1.401141   0.000000
     9  C    3.804230   2.497764   1.515332   0.000000
    10  O    5.139341   4.986334   3.894210   4.574399   0.000000
    11  H    5.783004   4.997010   3.630825   3.362349   2.736541
    12  H    3.382251   3.852900   3.416923   4.738369   2.417742
    13  H    2.158437   3.404318   3.917354   5.430506   4.838783
    14  H    1.087346   2.155822   3.422982   4.653579   6.192626
    15  H    2.146836   1.087005   2.151107   2.665365   5.971941
    16  H    3.952082   2.555582   2.155012   1.095953   5.638623
    17  H    4.468842   3.239234   2.175279   1.093380   4.511462
    18  H    4.459022   3.228429   2.174276   1.093925   4.551062
    19  H    5.464064   5.349001   4.293824   4.958672   0.972950
                   11         12         13         14         15
    11  H    0.000000
    12  H    4.457002   0.000000
    13  H    6.393923   2.471903   0.000000
    14  H    6.842674   4.284406   2.490027   0.000000
    15  H    5.647513   4.939833   4.294655   2.467672   0.000000
    16  H    4.391577   5.563390   5.855650   4.599013   2.252534
    17  H    3.290814   5.015273   5.949390   5.344124   3.437439
    18  H    2.798348   5.022599   5.944417   5.330382   3.420610
    19  H    3.331997   2.716818   5.081309   6.494741   6.327722
                   16         17         18         19
    16  H    0.000000
    17  H    1.770938   0.000000
    18  H    1.765885   1.759821   0.000000
    19  H    6.006104   4.715281   5.086603   0.000000
 Stoichiometry    C7H9BO2
 Framework group  C1[X(C7H9BO2)]
 Deg. of freedom    51
 Full point group                 C1      NOp   1
 Largest Abelian subgroup         C1      NOp   1
 Largest concise Abelian subgroup C1      NOp   1
                         Standard orientation:                         
 ---------------------------------------------------------------------
 Center     Atomic      Atomic             Coordinates (Angstroms)
 Number     Number       Type             X           Y           Z
 ---------------------------------------------------------------------
      1          8           0       -2.556843    0.820390    0.000787
      2          5           0       -1.722081   -0.309878   -0.006591
      3          6           0       -0.163649   -0.226645   -0.009431
      4          6           0        0.517704   -1.459641   -0.039294
      5          6           0        1.908365   -1.536910   -0.039176
      6          6           0        2.651599   -0.359479   -0.006455
      7          6           0        2.000790    0.875863    0.022072
      8          6           0        0.603069    0.973614    0.018296
      9          6           0       -0.008143    2.359885    0.048359
     10          8           0       -2.342201   -1.573885   -0.004104
     11          1           0       -2.910429    0.949728   -0.896937
     12          1           0       -0.062531   -2.376768   -0.067012
     13          1           0        2.406138   -2.503145   -0.063846
     14          1           0        3.738181   -0.400192   -0.004811
     15          1           0        2.594698    1.785968    0.045762
     16          1           0        0.780333    3.120470    0.078819
     17          1           0       -0.650776    2.504912    0.920981
     18          1           0       -0.619080    2.555025   -0.837840
     19          1           0       -2.532180   -1.818765    0.918161
 ---------------------------------------------------------------------
 Rotational constants (GHZ):      2.1018138      1.1100191      0.7333596
 Leave Link  202 at Sun Oct  3 14:10:47 2021, MaxMem=  805306368 cpu:       0.0
 (Enter /sw/target/amd/app/gaussian/Gaussian09RevA.02_gcc-4.9.2/g09/l301.exe)
 Standard basis: 6-31G(d) (6D, 7F)
 Ernie: Thresh=  0.10000D-02 Tol=  0.10000D-05 Strict=F.
 There are   168 symmetry adapted basis functions of A   symmetry.
 Integral buffers will be    131072 words long.
 Raffenetti 2 integral format.
 Two-electron integral symmetry is turned on.
   168 basis functions,   316 primitive gaussians,   168 cartesian basis functions
    36 alpha electrons       36 beta electrons
       nuclear repulsion energy       481.6526567342 Hartrees.
 IExCor=  402 DFT=T Ex+Corr=B3LYP ExCW=0 ScaHFX=  0.200000
 ScaDFX=  0.800000  0.720000  1.000000  0.810000 ScalE2=  1.000000  1.000000
 IRadAn=      0 IRanWt=     -1 IRanGd=            0 ICorTp=0
 NAtoms=   19 NActive=   19 NUniq=   19 SFac= 7.50D-01 NAtFMM=   80 NAOKFM=F Big=F
 Leave Link  301 at Sun Oct  3 14:10:48 2021, MaxMem=  805306368 cpu:       0.1
 (Enter /sw/target/amd/app/gaussian/Gaussian09RevA.02_gcc-4.9.2/g09/l302.exe)
 NPDir=0 NMtPBC=     1 NCelOv=     1 NCel=       1 NClECP=     1 NCelD=      1
         NCelK=      1 NCelE2=     1 NClLst=     1 CellRange=     0.0.
 One-electron integrals computed using PRISM.
 NBasis=   168 RedAO= T  NBF=   168
 NBsUse=   168 1.00D-06 NBFU=   168
 Precomputing XC quadrature grid using
 IXCGrd= 2 IRadAn=           0 IRanWt=          -1 IRanGd=           0 AccXCQ= 1.00D-10.
 NRdTot=    1187 NPtTot=      151052 NUsed=      159621 NTot=      159653
 NSgBfM=   168   168   168   168   168 NAtAll=    19    19.
 Leave Link  302 at Sun Oct  3 14:10:52 2021, MaxMem=  805306368 cpu:       1.2
 (Enter /sw/target/amd/app/gaussian/Gaussian09RevA.02_gcc-4.9.2/g09/l303.exe)
 DipDrv:  MaxL=1.
 Leave Link  303 at Sun Oct  3 14:10:53 2021, MaxMem=  805306368 cpu:       0.1
 (Enter /sw/target/amd/app/gaussian/Gaussian09RevA.02_gcc-4.9.2/g09/l401.exe)
 Initial guess read from the read-write file.
 B after Tr=     0.000000    0.000000    0.000000
         Rot=    1.000000    0.000000    0.000000    0.000000 Ang=   0.00 deg.
 Guess basis will be translated and rotated to current coordinates.
 Initial guess orbital symmetries:
       Occupied  (A) (A) (A) (A) (A) (A) (A) (A) (A) (A) (A) (A)
                 (A) (A) (A) (A) (A) (A) (A) (A) (A) (A) (A) (A)
                 (A) (A) (A) (A) (A) (A) (A) (A) (A) (A) (A) (A)
       Virtual   (A) (A) (A) (A) (A) (A) (A) (A) (A) (A) (A) (A)
                 (A) (A) (A) (A) (A) (A) (A) (A) (A) (A) (A) (A)
                 (A) (A) (A) (A) (A) (A) (A) (A) (A) (A) (A) (A)
                 (A) (A) (A) (A) (A) (A) (A) (A) (A) (A) (A) (A)
                 (A) (A) (A) (A) (A) (A) (A) (A) (A) (A) (A) (A)
                 (A) (A) (A) (A) (A) (A) (A) (A) (A) (A) (A) (A)
                 (A) (A) (A) (A) (A) (A) (A) (A) (A) (A) (A) (A)
                 (A) (A) (A) (A) (A) (A) (A) (A) (A) (A) (A) (A)
                 (A) (A) (A) (A) (A) (A) (A) (A) (A) (A) (A) (A)
                 (A) (A) (A) (A) (A) (A) (A) (A) (A) (A) (A) (A)
                 (A) (A) (A) (A) (A) (A) (A) (A) (A) (A) (A) (A)
 The electronic state of the initial guess is 1-A.
 Generating alternative initial guess.
 Harris functional with IExCor=  402 diagonalized for initial guess.
 ExpMin= 1.27D-01 ExpMax= 5.48D+03 ExpMxC= 8.25D+02 IAcc=1 IRadAn=         1 AccDes= 0.00D+00
 HarFok:  IExCor=  402 AccDes= 0.00D+00 IRadAn=         1 IDoV= 1
 ScaDFX=  1.000000  1.000000  1.000000  1.000000
 FoFCou: FMM=F IPFlag=           0 FMFlag=      100000 FMFlg1=           0
         NFxFlg=           0 DoJE=T BraDBF=F KetDBF=T FulRan=T
         Omega=  0.000000  0.000000  1.000000  0.000000  0.000000 ICntrl=     500 IOpCl=  0
         NMat0=    1 NMatS0=    1 NMatT0=    0 NMatD0=    1 NMtDS0=    0 NMtDT0=    0
         I1Cent=           4 NGrid=           0.
 Petite list used in FoFCou.
 Harris En= -447.667524222773    
 Leave Link  401 at Sun Oct  3 14:11:10 2021, MaxMem=  805306368 cpu:       5.5
 (Enter /sw/target/amd/app/gaussian/Gaussian09RevA.02_gcc-4.9.2/g09/l502.exe)
 Closed shell SCF:
 Requested convergence on RMS density matrix=1.00D-08 within  64 cycles.
 Requested convergence on MAX density matrix=1.00D-06.
 Requested convergence on             energy=1.00D-06.
 No special actions if energy rises.
 Using DIIS extrapolation, IDIIS=  1040.
 Integral symmetry usage will be decided dynamically.
       159437 words used for storage of precomputed grid.
 Keep R1 ints in memory in canonical form, NReq=103435567.
 IEnd=      251927 IEndB=      251927 NGot=   805306368 MDV=   704316724
 LenX=   704316724 LenY=   704288059
 Symmetry not used in FoFDir.
 MinBra= 0 MaxBra= 2 Meth= 1.
 IRaf=       0 NMat=   1 IRICut=       1 DoRegI=T DoRafI=F ISym2E= 0 JSym2E=0.
 Integral accuracy reduced to 1.0D-05 until final iterations.

 Cycle   1  Pass 0  IDiag  1:
 E= -447.535659698844    
 DIIS: error= 3.18D-03 at cycle   1 NSaved=   1.
 NSaved= 1 IEnMin= 1 EnMin= -447.535659698844     IErMin= 1 ErrMin= 3.18D-03
 ErrMax= 3.18D-03 EMaxC= 1.00D-01 BMatC= 4.74D-03 BMatP= 4.74D-03
 IDIUse=3 WtCom= 9.68D-01 WtEn= 3.18D-02
 Coeff-Com:  0.100D+01
 Coeff-En:   0.100D+01
 Coeff:      0.100D+01
 Gap=     0.200 Goal=   None    Shift=    0.000
 GapD=    0.200 DampG=1.000 DampE=1.000 DampFc=1.0000 IDamp=-1.
 RMSDP=8.17D-04 MaxDP=2.30D-02              OVMax= 2.57D-02

 Cycle   2  Pass 0  IDiag  1:
 E= -447.543165022287     Delta-E=       -0.007505323443 Rises=F Damp=F
 DIIS: error= 1.06D-03 at cycle   2 NSaved=   2.
 NSaved= 2 IEnMin= 2 EnMin= -447.543165022287     IErMin= 2 ErrMin= 1.06D-03
 ErrMax= 1.06D-03 EMaxC= 1.00D-01 BMatC= 4.76D-04 BMatP= 4.74D-03
 IDIUse=3 WtCom= 9.89D-01 WtEn= 1.06D-02
 Coeff-Com:  0.103D+00 0.897D+00
 Coeff-En:   0.000D+00 0.100D+01
 Coeff:      0.101D+00 0.899D+00
 Gap=     0.200 Goal=   None    Shift=    0.000
 RMSDP=2.49D-04 MaxDP=7.09D-03 DE=-7.51D-03 OVMax= 9.23D-03

 Cycle   3  Pass 0  IDiag  1:
 E= -447.543165080622     Delta-E=       -0.000000058335 Rises=F Damp=F
 DIIS: error= 1.17D-03 at cycle   3 NSaved=   3.
 NSaved= 3 IEnMin= 3 EnMin= -447.543165080622     IErMin= 2 ErrMin= 1.06D-03
 ErrMax= 1.17D-03 EMaxC= 1.00D-01 BMatC= 5.42D-04 BMatP= 4.76D-04
 IDIUse=3 WtCom= 2.27D-01 WtEn= 7.73D-01
 Coeff-Com: -0.293D-01 0.525D+00 0.504D+00
 Coeff-En:   0.000D+00 0.500D+00 0.500D+00
 Coeff:     -0.663D-02 0.506D+00 0.501D+00
 Gap=     0.199 Goal=   None    Shift=    0.000
 RMSDP=1.42D-04 MaxDP=4.15D-03 DE=-5.83D-08 OVMax= 5.37D-03

 Cycle   4  Pass 0  IDiag  1:
 E= -447.543588230886     Delta-E=       -0.000423150264 Rises=F Damp=F
 DIIS: error= 2.20D-04 at cycle   4 NSaved=   4.
 NSaved= 4 IEnMin= 4 EnMin= -447.543588230886     IErMin= 4 ErrMin= 2.20D-04
 ErrMax= 2.20D-04 EMaxC= 1.00D-01 BMatC= 1.61D-05 BMatP= 4.76D-04
 IDIUse=3 WtCom= 9.98D-01 WtEn= 2.20D-03
 Coeff-Com: -0.173D-01 0.184D+00 0.242D+00 0.591D+00
 Coeff-En:   0.000D+00 0.000D+00 0.000D+00 0.100D+01
 Coeff:     -0.172D-01 0.184D+00 0.241D+00 0.592D+00
 Gap=     0.198 Goal=   None    Shift=    0.000
 RMSDP=2.76D-05 MaxDP=6.62D-04 DE=-4.23D-04 OVMax= 1.44D-03

 Cycle   5  Pass 0  IDiag  1:
 E= -447.543601019240     Delta-E=       -0.000012788353 Rises=F Damp=F
 DIIS: error= 9.63D-05 at cycle   5 NSaved=   5.
 NSaved= 5 IEnMin= 5 EnMin= -447.543601019240     IErMin= 5 ErrMin= 9.63D-05
 ErrMax= 9.63D-05 EMaxC= 1.00D-01 BMatC= 1.57D-06 BMatP= 1.61D-05
 IDIUse=1 WtCom= 1.00D+00 WtEn= 0.00D+00
 Coeff-Com: -0.687D-02 0.576D-01 0.905D-01 0.322D+00 0.537D+00
 Coeff:     -0.687D-02 0.576D-01 0.905D-01 0.322D+00 0.537D+00
 Gap=     0.199 Goal=   None    Shift=    0.000
 RMSDP=1.11D-05 MaxDP=2.48D-04 DE=-1.28D-05 OVMax= 8.59D-04

 Cycle   6  Pass 0  IDiag  1:
 E= -447.543602566315     Delta-E=       -0.000001547075 Rises=F Damp=F
 DIIS: error= 3.59D-05 at cycle   6 NSaved=   6.
 NSaved= 6 IEnMin= 6 EnMin= -447.543602566315     IErMin= 6 ErrMin= 3.59D-05
 ErrMax= 3.59D-05 EMaxC= 1.00D-01 BMatC= 2.41D-07 BMatP= 1.57D-06
 IDIUse=1 WtCom= 1.00D+00 WtEn= 0.00D+00
 Coeff-Com: -0.142D-02 0.535D-02 0.158D-01 0.988D-01 0.317D+00 0.564D+00
 Coeff:     -0.142D-02 0.535D-02 0.158D-01 0.988D-01 0.317D+00 0.564D+00
 Gap=     0.199 Goal=   None    Shift=    0.000
 RMSDP=3.86D-06 MaxDP=8.36D-05 DE=-1.55D-06 OVMax= 2.44D-04

 Initial convergence to 1.0D-05 achieved.  Increase integral accuracy.
 Cycle   7  Pass 1  IDiag  1:
 E= -447.543642597863     Delta-E=       -0.000040031549 Rises=F Damp=F
 DIIS: error= 2.02D-05 at cycle   1 NSaved=   1.
 NSaved= 1 IEnMin= 1 EnMin= -447.543642597863     IErMin= 1 ErrMin= 2.02D-05
 ErrMax= 2.02D-05 EMaxC= 1.00D-01 BMatC= 5.38D-08 BMatP= 5.38D-08
 IDIUse=1 WtCom= 1.00D+00 WtEn= 0.00D+00
 Coeff-Com:  0.100D+01
 Coeff:      0.100D+01
 Gap=     0.199 Goal=   None    Shift=    0.000
 RMSDP=3.86D-06 MaxDP=8.36D-05 DE=-4.00D-05 OVMax= 1.16D-04

 Cycle   8  Pass 1  IDiag  1:
 E= -447.543642636211     Delta-E=       -0.000000038348 Rises=F Damp=F
 DIIS: error= 1.15D-05 at cycle   2 NSaved=   2.
 NSaved= 2 IEnMin= 2 EnMin= -447.543642636211     IErMin= 2 ErrMin= 1.15D-05
 ErrMax= 1.15D-05 EMaxC= 1.00D-01 BMatC= 3.60D-08 BMatP= 5.38D-08
 IDIUse=1 WtCom= 1.00D+00 WtEn= 0.00D+00
 Coeff-Com:  0.432D+00 0.568D+00
 Coeff:      0.432D+00 0.568D+00
 Gap=     0.199 Goal=   None    Shift=    0.000
 RMSDP=1.83D-06 MaxDP=3.95D-05 DE=-3.83D-08 OVMax= 1.17D-04

 Cycle   9  Pass 1  IDiag  1:
 E= -447.543642660409     Delta-E=       -0.000000024198 Rises=F Damp=F
 DIIS: error= 8.49D-06 at cycle   3 NSaved=   3.
 NSaved= 3 IEnMin= 3 EnMin= -447.543642660409     IErMin= 3 ErrMin= 8.49D-06
 ErrMax= 8.49D-06 EMaxC= 1.00D-01 BMatC= 1.18D-08 BMatP= 3.60D-08
 IDIUse=1 WtCom= 1.00D+00 WtEn= 0.00D+00
 Coeff-Com:  0.210D-01 0.358D+00 0.621D+00
 Coeff:      0.210D-01 0.358D+00 0.621D+00
 Gap=     0.199 Goal=   None    Shift=    0.000
 RMSDP=8.36D-07 MaxDP=2.13D-05 DE=-2.42D-08 OVMax= 6.28D-05

 Cycle  10  Pass 1  IDiag  1:
 E= -447.543642672132     Delta-E=       -0.000000011723 Rises=F Damp=F
 DIIS: error= 2.32D-06 at cycle   4 NSaved=   4.
 NSaved= 4 IEnMin= 4 EnMin= -447.543642672132     IErMin= 4 ErrMin= 2.32D-06
 ErrMax= 2.32D-06 EMaxC= 1.00D-01 BMatC= 1.26D-09 BMatP= 1.18D-08
 IDIUse=1 WtCom= 1.00D+00 WtEn= 0.00D+00
 Coeff-Com: -0.151D-01 0.176D+00 0.372D+00 0.467D+00
 Coeff:     -0.151D-01 0.176D+00 0.372D+00 0.467D+00
 Gap=     0.199 Goal=   None    Shift=    0.000
 RMSDP=2.29D-07 MaxDP=6.37D-06 DE=-1.17D-08 OVMax= 1.54D-05

 Cycle  11  Pass 1  IDiag  1:
 E= -447.543642673432     Delta-E=       -0.000000001300 Rises=F Damp=F
 DIIS: error= 2.16D-07 at cycle   5 NSaved=   5.
 NSaved= 5 IEnMin= 5 EnMin= -447.543642673432     IErMin= 5 ErrMin= 2.16D-07
 ErrMax= 2.16D-07 EMaxC= 1.00D-01 BMatC= 2.50D-11 BMatP= 1.26D-09
 IDIUse=1 WtCom= 1.00D+00 WtEn= 0.00D+00
 Coeff-Com: -0.704D-02 0.610D-01 0.134D+00 0.210D+00 0.602D+00
 Coeff:     -0.704D-02 0.610D-01 0.134D+00 0.210D+00 0.602D+00
 Gap=     0.199 Goal=   None    Shift=    0.000
 RMSDP=4.15D-08 MaxDP=9.09D-07 DE=-1.30D-09 OVMax= 1.70D-06

 Cycle  12  Pass 1  IDiag  1:
 E= -447.543642673457     Delta-E=       -0.000000000026 Rises=F Damp=F
 DIIS: error= 8.56D-08 at cycle   6 NSaved=   6.
 NSaved= 6 IEnMin= 6 EnMin= -447.543642673457     IErMin= 6 ErrMin= 8.56D-08
 ErrMax= 8.56D-08 EMaxC= 1.00D-01 BMatC= 3.07D-12 BMatP= 2.50D-11
 IDIUse=1 WtCom= 1.00D+00 WtEn= 0.00D+00
 Coeff-Com: -0.260D-02 0.177D-01 0.401D-01 0.724D-01 0.309D+00 0.563D+00
 Coeff:     -0.260D-02 0.177D-01 0.401D-01 0.724D-01 0.309D+00 0.563D+00
 Gap=     0.199 Goal=   None    Shift=    0.000
 RMSDP=1.23D-08 MaxDP=2.75D-07 DE=-2.56D-11 OVMax= 6.36D-07

 Cycle  13  Pass 1  IDiag  1:
 E= -447.543642673459     Delta-E=       -0.000000000002 Rises=F Damp=F
 DIIS: error= 3.42D-08 at cycle   7 NSaved=   7.
 NSaved= 7 IEnMin= 7 EnMin= -447.543642673459     IErMin= 7 ErrMin= 3.42D-08
 ErrMax= 3.42D-08 EMaxC= 1.00D-01 BMatC= 2.91D-13 BMatP= 3.07D-12
 IDIUse=1 WtCom= 1.00D+00 WtEn= 0.00D+00
 Coeff-Com: -0.303D-03 0.744D-03 0.195D-02 0.908D-02 0.783D-01 0.273D+00
 Coeff-Com:  0.637D+00
 Coeff:     -0.303D-03 0.744D-03 0.195D-02 0.908D-02 0.783D-01 0.273D+00
 Coeff:      0.637D+00
 Gap=     0.199 Goal=   None    Shift=    0.000
 RMSDP=4.64D-09 MaxDP=1.20D-07 DE=-1.59D-12 OVMax= 3.08D-07

 SCF Done:  E(RB3LYP) =  -447.543642673     A.U. after   13 cycles
             Convg  =    0.4635D-08             -V/T =  2.0095
 KE= 4.433500315891D+02 PE=-2.006421584812D+03 EE= 6.338752538157D+02
 Leave Link  502 at Sun Oct  3 14:19:02 2021, MaxMem=  805306368 cpu:      88.1
 (Enter /sw/target/amd/app/gaussian/Gaussian09RevA.02_gcc-4.9.2/g09/l508.exe)
 QCSCF skips out because SCF is already converged.
 Leave Link  508 at Sun Oct  3 14:19:37 2021, MaxMem=  805306368 cpu:       0.0
 (Enter /sw/target/amd/app/gaussian/Gaussian09RevA.02_gcc-4.9.2/g09/l701.exe)
 Compute integral first derivatives.
 ... and contract with generalized density number  0.
 Leave Link  701 at Sun Oct  3 14:21:27 2021, MaxMem=  805306368 cpu:       1.2
 (Enter /sw/target/amd/app/gaussian/Gaussian09RevA.02_gcc-4.9.2/g09/l702.exe)
 L702 exits ... SP integral derivatives will be done elsewhere.
 Leave Link  702 at Sun Oct  3 14:21:46 2021, MaxMem=  805306368 cpu:       0.1
 (Enter /sw/target/amd/app/gaussian/Gaussian09RevA.02_gcc-4.9.2/g09/l703.exe)
 Compute integral first derivatives, UseDBF=F ICtDFT=           0.
 Integral derivatives from FoFDir, PRISM(SPDF).
 Calling FoFJK, ICntrl=      2127 FMM=F ISym2X=0 I1Cent= 0 IOpClX= 0 NMat=1 NMatS=1 NMatT=0.
 FoFCou: FMM=F IPFlag=           0 FMFlag=      100000 FMFlg1=         800
[...]
     5  C   -0.018942  -0.042550  -0.000211   0.000300   0.000003  -0.055729
     6  C    0.453139  -0.031387   0.007782  -0.000000  -0.000000   0.004765
     7  C    5.113307   0.431494  -0.072161  -0.000042   0.000008   0.000257
     8  C    0.431494   4.928813   0.376048  -0.000541  -0.000178   0.006699
     9  C   -0.072161   0.376048   5.238183   0.000072   0.000063  -0.000114
    10  O   -0.000042  -0.000541   0.000072   8.007619  -0.003099   0.011149
    11  H    0.000008  -0.000178   0.000063  -0.003099   0.396650  -0.000021
    12  H    0.000257   0.006699  -0.000114   0.011149  -0.000021   0.572306
    13  H    0.004424   0.000883   0.000012  -0.000002  -0.000000  -0.004840
    14  H   -0.038885   0.004110  -0.000194   0.000000   0.000000  -0.000181
    15  H    0.352782  -0.039248  -0.011385   0.000000  -0.000000   0.000020
    16  H   -0.004343  -0.031920   0.353337   0.000000  -0.000014   0.000002
    17  H    0.001383  -0.023238   0.352313  -0.000010   0.000131  -0.000001
    18  H    0.001374  -0.023231   0.352328  -0.000009   0.000131  -0.000001
    19  H    0.000004   0.000019  -0.000014   0.242702   0.006762  -0.000496
             13         14         15         16         17         18
     1  O    0.000000  -0.000000   0.000001   0.000418   0.002230   0.002232
     2  B   -0.000238   0.000014  -0.000189   0.000298   0.004296   0.004279
     3  C    0.003204   0.000736   0.005069   0.003767  -0.001357  -0.001355
     4  C   -0.040266   0.004640   0.000492  -0.000189  -0.000249  -0.000250
     5  C    0.358458  -0.042585   0.004726   0.000004   0.000006   0.000006
     6  C   -0.041810   0.358635  -0.045340   0.000337  -0.000138  -0.000138
     7  C    0.004424  -0.038885   0.352782  -0.004343   0.001383   0.001374
     8  C    0.000883   0.004110  -0.039248  -0.031920  -0.023238  -0.023231
     9  C    0.000012  -0.000194  -0.011385   0.353337   0.352313   0.352328
    10  O   -0.000002   0.000000   0.000000   0.000000  -0.000010  -0.000009
    11  H   -0.000000   0.000000  -0.000000  -0.000014   0.000131   0.000131
    12  H   -0.004840  -0.000181   0.000020   0.000002  -0.000001  -0.000001
    13  H    0.585685  -0.005418  -0.000177  -0.000000  -0.000000  -0.000000
    14  H   -0.005418   0.599729  -0.005677  -0.000015   0.000003   0.000003
    15  H   -0.000177  -0.005677   0.596768   0.008083   0.000228   0.000229
    16  H   -0.000000  -0.000015   0.008083   0.587854  -0.029607  -0.029598
    17  H   -0.000000   0.000003   0.000228  -0.029607   0.544471  -0.033286
    18  H   -0.000000   0.000003   0.000229  -0.029598  -0.033286   0.544417
    19  H   -0.000000  -0.000000  -0.000000  -0.000000   0.000003   0.000003
             19
     1  O   -0.003020
     2  B   -0.028047
     3  C    0.005350
     4  C   -0.000385
     5  C    0.000004
     6  C   -0.000000
     7  C    0.000004
     8  C    0.000019
     9  C   -0.000014
    10  O    0.242702
    11  H    0.006762
    12  H   -0.000496
    13  H   -0.000000
    14  H   -0.000000
    15  H   -0.000000
    16  H   -0.000000
    17  H    0.000003
    18  H    0.000003
    19  H    0.395695
 Mulliken atomic charges:
              1
     1  O   -0.580608
     2  B    0.291383
     3  C    0.066377
     4  C   -0.202081
     5  C   -0.100468
     6  C   -0.153437
     7  C   -0.151676
     8  C    0.086666
     9  C   -0.504990
    10  O   -0.576435
    11  H    0.380687
    12  H    0.157090
    13  H    0.140087
    14  H    0.125086
    15  H    0.133619
    16  H    0.141585
    17  H    0.182824
    18  H    0.182868
    19  H    0.381421
 Sum of Mulliken atomic charges =  -0.00000
 Mulliken charges with hydrogens summed into heavy atoms:
              1
     1  O   -0.199921
     2  B    0.291383
     3  C    0.066377
     4  C   -0.044990
     5  C    0.039619
     6  C   -0.028351
     7  C   -0.018057
     8  C    0.086666
     9  C    0.002288
    10  O   -0.195014
 Sum of Mulliken charges with hydrogens summed into heavy atoms =  -0.00000
 Electronic spatial extent (au):  <R**2>=           1502.7401
 Charge=             -0.0000 electrons
 Dipole moment (field-independent basis, Debye):
    X=             -1.1878    Y=              0.3305    Z=              0.0000  Tot=              1.2329
 Quadrupole moment (field-independent basis, Debye-Ang):
   XX=            -41.3884   YY=            -55.9739   ZZ=            -60.6134
   XY=              1.0558   XZ=             -0.0012   YZ=              0.0056
 Traceless Quadrupole moment (field-independent basis, Debye-Ang):
   XX=             11.2701   YY=             -3.3153   ZZ=             -7.9548
   XY=              1.0558   XZ=             -0.0012   YZ=              0.0056
 Octapole moment (field-independent basis, Debye-Ang**2):
  XXX=            -78.6839  YYY=             -1.3615  ZZZ=             -0.0016  XYY=              3.0155
  XXY=            -10.3538  XXZ=              0.0013  XZZ=            -10.6724  YZZ=              1.4160
  YYZ=             -0.0053  XYZ=             -0.0045
 Hexadecapole moment (field-independent basis, Debye-Ang**3):
 XXXX=           -843.1698 YYYY=           -678.7603 ZZZZ=            -66.2146 XXXY=             39.5782
 XXXZ=             -0.0041 YYYX=             -1.0527 YYYZ=              0.0057 ZZZX=              0.0041
 ZZZY=             -0.0121 XXYY=           -287.6580 XXZZ=           -220.6941 YYZZ=           -130.8430
 XXYZ=              0.0143 YYXZ=              0.0043 ZZXY=              1.4957
 N-N= 4.835459799415D+02 E-N=-2.010422444222D+03  KE= 4.436405074823D+02
 No NMR shielding tensors so no spin-rotation constants.
 Leave Link  601 at Sun Oct  3 19:37:50 2021, MaxMem=  805306368 cpu:       0.8
 (Enter /sw/target/amd/app/gaussian/Gaussian09RevA.02_gcc-4.9.2/g09/l604.exe)
 Evaluate density.
 Using the total density.
 Monte-Carlo method of calculating molar volume:
 based on  0.001 e/bohr**3 density envelope.
 Number of points per bohr**3 =   20 CutOff= 1.00D-04
 Using the CI density.
 There are       371 points.  Will hold       371 in memory.
 LenV=   805214164 MDV=   805306368.
 Box volume = 6432.691 fraction occupied=0.213
 Integrated density= 4.6148951080781870D+01 error=-2.5851048919218130D+01
 Molar volume = 1369.764 bohr**3/mol (122.236 cm**3/mol)
 Recommended a0 for SCRF calculation =  4.51 angstrom (  8.53 bohr)
 Leave Link  604 at Sun Oct  3 19:37:51 2021, MaxMem=  805306368 cpu:       0.2
 (Enter /sw/target/amd/app/gaussian/Gaussian09RevA.02_gcc-4.9.2/g09/l607.exe)
 ******************************Gaussian NBO Version 3.1******************************
             N A T U R A L   A T O M I C   O R B I T A L   A N D
          N A T U R A L   B O N D   O R B I T A L   A N A L Y S I S
 ******************************Gaussian NBO Version 3.1******************************
       /RESON  / : Allow strongly delocalized NBO set

 Analyzing the CI density

 Job title: OB(c1ccccc1C)O_conf_0                                           

 Storage needed:     85942 in NPA ( 805304373 available)


 NATURAL POPULATIONS:  Natural atomic orbital occupancies 
                                                          
   NAO  Atom  No  lang   Type(AO)    Occupancy
 --------------------------------------------
     1    O    1  S      Cor( 1S)     1.99975
     2    O    1  S      Val( 2S)     1.68814
     3    O    1  S      Ryd( 3S)     0.00079
     4    O    1  S      Ryd( 4S)     0.00003
     5    O    1  px     Val( 2p)     1.52626
     6    O    1  px     Ryd( 3p)     0.00119
     7    O    1  py     Val( 2p)     1.83006
     8    O    1  py     Ryd( 3p)     0.00180
     9    O    1  pz     Val( 2p)     1.84540
    10    O    1  pz     Ryd( 3p)     0.00054
    11    O    1  dxy    Ryd( 3d)     0.00115
    12    O    1  dxz    Ryd( 3d)     0.00031
    13    O    1  dyz    Ryd( 3d)     0.00155
    14    O    1  dx2y2  Ryd( 3d)     0.00153
    15    O    1  dz2    Ryd( 3d)     0.00099

    16    B    2  S      Cor( 1S)     1.99926
    17    B    2  S      Val( 2S)     0.49984
    18    B    2  S      Ryd( 3S)     0.00166
    19    B    2  S      Ryd( 4S)     0.00069
    20    B    2  px     Val( 2p)     0.55217
    21    B    2  px     Ryd( 3p)     0.00170
    22    B    2  py     Val( 2p)     0.39113
    23    B    2  py     Ryd( 3p)     0.01136
    24    B    2  pz     Val( 2p)     0.51006
    25    B    2  pz     Ryd( 3p)     0.00226
    26    B    2  dxy    Ryd( 3d)     0.00253
    27    B    2  dxz    Ryd( 3d)     0.00137
    28    B    2  dyz    Ryd( 3d)     0.00213
    29    B    2  dx2y2  Ryd( 3d)     0.00253
    30    B    2  dz2    Ryd( 3d)     0.00052

    31    C    3  S      Cor( 1S)     1.99893
    32    C    3  S      Val( 2S)     0.98943
    33    C    3  S      Ryd( 3S)     0.00212
    34    C    3  S      Ryd( 4S)     0.00003
    35    C    3  px     Val( 2p)     1.30276
    36    C    3  px     Ryd( 3p)     0.00679
    37    C    3  py     Val( 2p)     1.07156
    38    C    3  py     Ryd( 3p)     0.00546
    39    C    3  pz     Val( 2p)     1.04243
    40    C    3  pz     Ryd( 3p)     0.00276
    41    C    3  dxy    Ryd( 3d)     0.00070
    42    C    3  dxz    Ryd( 3d)     0.00062
    43    C    3  dyz    Ryd( 3d)     0.00044
    44    C    3  dx2y2  Ryd( 3d)     0.00046
    45    C    3  dz2    Ryd( 3d)     0.00033

    46    C    4  S      Cor( 1S)     1.99915
    47    C    4  S      Val( 2S)     0.96490
    48    C    4  S      Ryd( 3S)     0.00062
    49    C    4  S      Ryd( 4S)     0.00005
    50    C    4  px     Val( 2p)     1.08404
    51    C    4  px     Ryd( 3p)     0.00423
    52    C    4  py     Val( 2p)     1.16490
    53    C    4  py     Ryd( 3p)     0.00521
    54    C    4  pz     Val( 2p)     0.93851
    55    C    4  pz     Ryd( 3p)     0.00366
    56    C    4  dxy    Ryd( 3d)     0.00087
    57    C    4  dxz    Ryd( 3d)     0.00060
    58    C    4  dyz    Ryd( 3d)     0.00037
    59    C    4  dx2y2  Ryd( 3d)     0.00084
    60    C    4  dz2    Ryd( 3d)     0.00043

    61    C    5  S      Cor( 1S)     1.99911
    62    C    5  S      Val( 2S)     0.97725
    63    C    5  S      Ryd( 3S)     0.00064
    64    C    5  S      Ryd( 4S)     0.00004
    65    C    5  px     Val( 2p)     1.09059
    66    C    5  px     Ryd( 3p)     0.00482
    67    C    5  py     Val( 2p)     1.16181
    68    C    5  py     Ryd( 3p)     0.00478
    69    C    5  pz     Val( 2p)     0.91591
    70    C    5  pz     Ryd( 3p)     0.00276
    71    C    5  dxy    Ryd( 3d)     0.00085
    72    C    5  dxz    Ryd( 3d)     0.00071
    73    C    5  dyz    Ryd( 3d)     0.00043
    74    C    5  dx2y2  Ryd( 3d)     0.00078
    75    C    5  dz2    Ryd( 3d)     0.00043

    76    C    6  S      Cor( 1S)     1.99915
    77    C    6  S      Val( 2S)     0.96449
    78    C    6  S      Ryd( 3S)     0.00066
    79    C    6  S      Ryd( 4S)     0.00003
    80    C    6  px     Val( 2p)     1.19302
    81    C    6  px     Ryd( 3p)     0.00500
    82    C    6  py     Val( 2p)     1.05379
    83    C    6  py     Ryd( 3p)     0.00533
    84    C    6  pz     Val( 2p)     1.07468
    85    C    6  pz     Ryd( 3p)     0.00427
    86    C    6  dxy    Ryd( 3d)     0.00065
    87    C    6  dxz    Ryd( 3d)     0.00038
    88    C    6  dyz    Ryd( 3d)     0.00050
    89    C    6  dx2y2  Ryd( 3d)     0.00082
    90    C    6  dz2    Ryd( 3d)     0.00043

    91    C    7  S      Cor( 1S)     1.99906
    92    C    7  S      Val( 2S)     0.96858
    93    C    7  S      Ryd( 3S)     0.00062
    94    C    7  S      Ryd( 4S)     0.00005
    95    C    7  px     Val( 2p)     1.09228
    96    C    7  px     Ryd( 3p)     0.00427
    97    C    7  py     Val( 2p)     1.15589
    98    C    7  py     Ryd( 3p)     0.00437
    99    C    7  pz     Val( 2p)     0.93837
   100    C    7  pz     Ryd( 3p)     0.00297
   101    C    7  dxy    Ryd( 3d)     0.00089
   102    C    7  dxz    Ryd( 3d)     0.00063
   103    C    7  dyz    Ryd( 3d)     0.00045
   104    C    7  dx2y2  Ryd( 3d)     0.00075
   105    C    7  dz2    Ryd( 3d)     0.00042

   106    C    8  S      Cor( 1S)     1.99907
   107    C    8  S      Val( 2S)     0.89494
   108    C    8  S      Ryd( 3S)     0.00060
   109    C    8  S      Ryd( 4S)     0.00006
   110    C    8  px     Val( 2p)     1.06454
   111    C    8  px     Ryd( 3p)     0.00378
   112    C    8  py     Val( 2p)     1.06499
   113    C    8  py     Ryd( 3p)     0.00499
   114    C    8  pz     Val( 2p)     0.89442
   115    C    8  pz     Ryd( 3p)     0.00318
   116    C    8  dxy    Ryd( 3d)     0.00076
   117    C    8  dxz    Ryd( 3d)     0.00076
   118    C    8  dyz    Ryd( 3d)     0.00054
   119    C    8  dx2y2  Ryd( 3d)     0.00096
   120    C    8  dz2    Ryd( 3d)     0.00033

   121    C    9  S      Cor( 1S)     1.99940
   122    C    9  S      Val( 2S)     1.10267
   123    C    9  S      Ryd( 3S)     0.00038
   124    C    9  S      Ryd( 4S)     0.00001
   125    C    9  px     Val( 2p)     1.23008
   126    C    9  px     Ryd( 3p)     0.00253
   127    C    9  py     Val( 2p)     1.10922
   128    C    9  py     Ryd( 3p)     0.00134
   129    C    9  pz     Val( 2p)     1.24832
   130    C    9  pz     Ryd( 3p)     0.00031
   131    C    9  dxy    Ryd( 3d)     0.00093
   132    C    9  dxz    Ryd( 3d)     0.00103
   133    C    9  dyz    Ryd( 3d)     0.00027
   134    C    9  dx2y2  Ryd( 3d)     0.00041
   135    C    9  dz2    Ryd( 3d)     0.00069

   136    O   10  S      Cor( 1S)     1.99975
   137    O   10  S      Val( 2S)     1.68694
   138    O   10  S      Ryd( 3S)     0.00071
   139    O   10  S      Ryd( 4S)     0.00003
   140    O   10  px     Val( 2p)     1.54475
   141    O   10  px     Ryd( 3p)     0.00094
   142    O   10  py     Val( 2p)     1.81262
   143    O   10  py     Ryd( 3p)     0.00184
   144    O   10  pz     Val( 2p)     1.84639
   145    O   10  pz     Ryd( 3p)     0.00069
   146    O   10  dxy    Ryd( 3d)     0.00122
   147    O   10  dxz    Ryd( 3d)     0.00053
   148    O   10  dyz    Ryd( 3d)     0.00132
   149    O   10  dx2y2  Ryd( 3d)     0.00144
   150    O   10  dz2    Ryd( 3d)     0.00099

   151    H   11  S      Val( 1S)     0.52216
   152    H   11  S      Ryd( 2S)     0.00232

   153    H   12  S      Val( 1S)     0.75525
   154    H   12  S      Ryd( 2S)     0.00141

   155    H   13  S      Val( 1S)     0.76846
   156    H   13  S      Ryd( 2S)     0.00091

   157    H   14  S      Val( 1S)     0.76832
   158    H   14  S      Ryd( 2S)     0.00087

   159    H   15  S      Val( 1S)     0.77209
   160    H   15  S      Ryd( 2S)     0.00112

   161    H   16  S      Val( 1S)     0.77151
   162    H   16  S      Ryd( 2S)     0.00097

   163    H   17  S      Val( 1S)     0.73539
   164    H   17  S      Ryd( 2S)     0.00164

   165    H   18  S      Val( 1S)     0.73537
   166    H   18  S      Ryd( 2S)     0.00164

   167    H   19  S      Val( 1S)     0.52115
   168    H   19  S      Ryd( 2S)     0.00216

 WARNING:  1 low occupancy (<1.9990e) core orbital  found on  C    3


 Summary of Natural Population Analysis:                  
                                                          
                                       Natural Population 
                Natural  -----------------------------------------------
    Atom  No    Charge         Core      Valence    Rydberg      Total
 -----------------------------------------------------------------------
      O    1   -0.89949      1.99975     6.88986    0.00988     8.89949
      B    2    1.02080      1.99926     1.95319    0.02675     3.97920
      C    3   -0.42481      1.99893     4.40618    0.01970     6.42481
      C    4   -0.16839      1.99915     4.15235    0.01689     6.16839
      C    5   -0.16092      1.99911     4.14556    0.01624     6.16092
      C    6   -0.30320      1.99915     4.28598    0.01807     6.30320
      C    7   -0.16962      1.99906     4.15512    0.01544     6.16962
      C    8    0.06610      1.99907     3.91889    0.01595     5.93390
      C    9   -0.69757      1.99940     4.69029    0.00789     6.69757
      O   10   -0.90016      1.99975     6.89071    0.00971     8.90016
      H   11    0.47552      0.00000     0.52216    0.00232     0.52448
      H   12    0.24334      0.00000     0.75525    0.00141     0.75666
      H   13    0.23063      0.00000     0.76846    0.00091     0.76937
      H   14    0.23081      0.00000     0.76832    0.00087     0.76919
      H   15    0.22679      0.00000     0.77209    0.00112     0.77321
      H   16    0.22751      0.00000     0.77151    0.00097     0.77249
      H   17    0.26297      0.00000     0.73539    0.00164     0.73703
      H   18    0.26299      0.00000     0.73537    0.00164     0.73701
      H   19    0.47669      0.00000     0.52115    0.00216     0.52331
 =======================================================================
   * Total *   -0.00000     19.99263    51.83782    0.16955    72.00000

                                 Natural Population      
 --------------------------------------------------------
   Core                      19.99263 ( 99.9631% of  20)
   Valence                   51.83782 ( 99.6881% of  52)
   Natural Minimal Basis     71.83045 ( 99.7645% of  72)
   Natural Rydberg Basis      0.16955 (  0.2355% of  72)
 --------------------------------------------------------

    Atom  No          Natural Electron Configuration
 ----------------------------------------------------------------------------
      O    1      [core]2S( 1.69)2p( 5.20)3d( 0.01)
      B    2      [core]2S( 0.50)2p( 1.45)3p( 0.02)3d( 0.01)
      C    3      [core]2S( 0.99)2p( 3.42)3p( 0.02)
      C    4      [core]2S( 0.96)2p( 3.19)3p( 0.01)
      C    5      [core]2S( 0.98)2p( 3.17)3p( 0.01)
      C    6      [core]2S( 0.96)2p( 3.32)3p( 0.01)
      C    7      [core]2S( 0.97)2p( 3.19)3p( 0.01)
      C    8      [core]2S( 0.89)2p( 3.02)3p( 0.01)
      C    9      [core]2S( 1.10)2p( 3.59)
      O   10      [core]2S( 1.69)2p( 5.20)3d( 0.01)
      H   11            1S( 0.52)
      H   12            1S( 0.76)
      H   13            1S( 0.77)
      H   14            1S( 0.77)
      H   15            1S( 0.77)
      H   16            1S( 0.77)
      H   17            1S( 0.74)
      H   18            1S( 0.74)
      H   19            1S( 0.52)


 NBO analysis skipped by request.
 Leave Link  607 at Sun Oct  3 19:38:17 2021, MaxMem=  805306368 cpu:      12.2
 (Enter /sw/target/amd/app/gaussian/Gaussian09RevA.02_gcc-4.9.2/g09/l9999.exe)
 1\1\GINC-HERMITE\SP\RTD-B3LYP-FC\6-31G(d)\C7H9B1O2\JSCHLEINITZ\03-Oct-
 2021\0\\#p TD(NStates=10, Root=1) b3lyp/6-31G* volume pop=NPA density=
 current Geom=AllCheck Guess=Read\\OB(c1ccccc1C)O_conf_0\\0,1\O,0,1.327
 1493794,-0.5054488325,0.7228310619\B,0,2.4786303633,-0.0451438603,0.12
 42293754\C,0,3.2980677129,1.1260992026,0.7659837965\C,0,4.4623493187,1
 .5358092361,0.0871130651\C,0,5.2735082088,2.5656925571,0.5579097736\C,
 0,4.9261335626,3.2163854308,1.7404130444\C,0,3.7779810893,2.8289250458
 ,2.4309444642\C,0,2.9527568114,1.7949472367,1.9693416053\C,0,1.7263182
 102,1.4413619366,2.7831462965\O,0,2.9615778773,-0.581565561,-1.0506274
 955\H,0,0.8969883247,-1.230503702,0.2469320034\H,0,4.7302316585,1.0266
 620979,-0.8339786377\H,0,6.1653002974,2.8565388789,0.0087053026\H,0,5.
 5440939187,4.0232295273,2.1273030548\H,0,3.5127054732,3.341033572,3.35
 33141934\H,0,1.6555707134,2.0813310286,3.6688415625\H,0,1.7469628583,0
 .3981442063,3.1149832296\H,0,0.8062154231,1.5584478567,2.2013205505\H,
 0,2.4270760553,-1.3012495144,-1.4135343989\\Version=AM64L-G09RevA.02\S
 tate=1-A\HF=-447.5732358\RMSD=9.245e-09\Dipole=-0.34219,-0.3357989,-0.
 0736229\Quadrupole=-0.6679363,2.1297495,-1.4618132,5.3816011,1.4188483
 ,4.6597456\PG=C01 [X(C7H9B1O2)]\\@


 PICNIC:  A SNACK IN THE GRASS.
 Job cpu time:  0 days  1 hours 20 minutes  4.3 seconds.
 File lengths (MBytes):  RWF=     98 Int=      0 D2E=      0 Chk=     14 Scr=      1
 Normal termination of Gaussian 09 at Sun Oct  3 19:38:23 2021.
