 Entering Gaussian System, Link 0=g09
 Input=C7H9NO_cfdf_conf_0.com
 Output=C7H9NO_cfdf_conf_0.log
 Initial command:
 /sw/target/amd/app/gaussian/Gaussian09RevA.02_gcc-4.9.2/g09/l1.exe /home/jschleinitz/gaussian/Gau-921203.inp -scrdir=/home/jschleinitz/gaussian/
 Entering Link 1 = /sw/target/amd/app/gaussian/Gaussian09RevA.02_gcc-4.9.2/g09/l1.exe PID=    921205.
  
 Copyright (c) 1988,1990,1992,1993,1995,1998,2003,2009, Gaussian, Inc.
                  All Rights Reserved.
  
 This is part of the Gaussian(R) 09 program.  It is based on
 the Gaussian(R) 03 system (copyright 2003, Gaussian, Inc.),
 the Gaussian(R) 98 system (copyright 1998, Gaussian, Inc.),
 the Gaussian(R) 94 system (copyright 1995, Gaussian, Inc.),
 the Gaussian 92(TM) system (copyright 1992, Gaussian, Inc.),
 the Gaussian 90(TM) system (copyright 1990, Gaussian, Inc.),
 the Gaussian 88(TM) system (copyright 1988, Gaussian, Inc.),
 the Gaussian 86(TM) system (copyright 1986, Carnegie Mellon
 University), and the Gaussian 82(TM) system (copyright 1983,
 Carnegie Mellon University). Gaussian is a federally registered
 trademark of Gaussian, Inc.
  
 This software contains proprietary and confidential information,
 including trade secrets, belonging to Gaussian, Inc.
  
 This software is provided under written license and may be
 used, copied, transmitted, or stored only in accord with that
 written license.
  
 The following legend is applicable only to US Government
 contracts under FAR:
  
                    RESTRICTED RIGHTS LEGEND
  
 Use, reproduction and disclosure by the US Government is
 subject to restrictions as set forth in subparagraphs (a)
 and (c) of the Commercial Computer Software - Restricted
 Rights clause in FAR 52.227-19.
  
 Gaussian, Inc.
 340 Quinnipiac St., Bldg. 40, Wallingford CT 06492
  
  
 ---------------------------------------------------------------
 Warning -- This program may not be used in any manner that
 competes with the business of Gaussian, Inc. or will provide
 assistance to any competitor of Gaussian, Inc.  The licensee
 of this program is prohibited from giving any competitor of
 Gaussian, Inc. access to this program.  By using this program,
 the user acknowledges that Gaussian, Inc. is engaged in the
 business of creating and licensing software in the field of
 computational chemistry and represents and warrants to the
 licensee that it is not a competitor of Gaussian, Inc. and that
 it will not use this program in any manner prohibited above.
 ---------------------------------------------------------------
  

 Cite this work as:
 Gaussian 09, Revision A.02,
 M. J. Frisch, G. W. Trucks, H. B. Schlegel, G. E. Scuseria, 
 M. A. Robb, J. R. Cheeseman, G. Scalmani, V. Barone, B. Mennucci, 
 G. A. Petersson, H. Nakatsuji, M. Caricato, X. Li, H. P. Hratchian, 
 A. F. Izmaylov, J. Bloino, G. Zheng, J. L. Sonnenberg, M. Hada, 
 M. Ehara, K. Toyota, R. Fukuda, J. Hasegawa, M. Ishida, T. Nakajima, 
 Y. Honda, O. Kitao, H. Nakai, T. Vreven, J. A. Montgomery, Jr., 
 J. E. Peralta, F. Ogliaro, M. Bearpark, J. J. Heyd, E. Brothers, 
 K. N. Kudin, V. N. Staroverov, R. Kobayashi, J. Normand, 
 K. Raghavachari, A. Rendell, J. C. Burant, S. S. Iyengar, J. Tomasi, 
 M. Cossi, N. Rega, J. M. Millam, M. Klene, J. E. Knox, J. B. Cross, 
 V. Bakken, C. Adamo, J. Jaramillo, R. Gomperts, R. E. Stratmann, 
 O. Yazyev, A. J. Austin, R. Cammi, C. Pomelli, J. W. Ochterski, 
 R. L. Martin, K. Morokuma, V. G. Zakrzewski, G. A. Voth, 
 P. Salvador, J. J. Dannenberg, S. Dapprich, A. D. Daniels, 
 O. Farkas, J. B. Foresman, J. V. Ortiz, J. Cioslowski, 
 and D. J. Fox, Gaussian, Inc., Wallingford CT, 2009.
 
 ******************************************
 Gaussian 09:  AM64L-G09RevA.02 11-Jun-2009
                 4-Oct-2021 
 ******************************************
 %nproc=3
 Will use up to    3 processors via shared memory.
 %mem=6gb
 %chk=C7H9NO_cfdf_conf_0.chk
 -----------------------------------
 #p opt b3lyp/6-31G* scf=(xqc,tight)
 -----------------------------------
 1/14=-1,18=20,19=15,26=3,38=1/1,3;
 2/9=110,12=2,17=6,18=5,40=1/2;
 3/5=1,6=6,7=1,11=2,16=1,25=1,30=1,71=1,74=-5/1,2,3;
 4//1;
 5/5=2,8=3,13=1,32=2,38=5/2,8;
 6/7=2,8=2,9=2,10=2,28=1/1;
 7//1,2,3,16;
 1/14=-1,18=20,19=15/3(2);
 2/9=110/2;
 99//99;
 2/9=110/2;
 3/5=1,6=6,7=1,11=2,16=1,25=1,30=1,71=1,74=-5/1,2,3;
 4/5=5,16=3/1;
 5/5=2,8=3,13=1,32=2,38=5/2,8;
 7//1,2,3,16;
 1/14=-1,18=20,19=15/3(-5);
 2/9=110/2;
 6/7=2,8=2,9=2,10=2,19=2,28=1/1;
 99/9=1/99;
 Leave Link    1 at Mon Oct  4 08:11:25 2021, MaxMem=  805306368 cpu:       0.1
 (Enter /sw/target/amd/app/gaussian/Gaussian09RevA.02_gcc-4.9.2/g09/l101.exe)
 -----------------------
 Cn1ccc(c1)C(=O)C_conf_0
 -----------------------
 Symbolic Z-matrix:
 Charge =  0 Multiplicity = 1
 C                     2.13374   0.02383  -0.14815 
 N                     0.69332  -0.01498  -0.04302 
 C                    -0.07333  -1.14465   0.02723 
 C                    -1.39023  -0.753     0.14491 
 C                    -1.42714   0.67264   0.14947 
 C                    -0.11242   1.08858   0.01465 
 C                    -2.57269   1.57466   0.27376 
 O                    -2.44713   2.79498   0.1535 
 C                    -3.93436   0.97739   0.52464 
 H                     2.53164  -0.99313  -0.10603 
 H                     2.52415   0.60977   0.6881 
 H                     2.39645   0.49057  -1.10065 
 H                     0.36976  -2.13168  -0.00739 
 H                    -2.23113  -1.43011   0.22329 
 H                     0.29959   2.08967  -0.03047 
 H                    -3.87086   0.1373    1.22108 
 H                    -4.37161   0.64902  -0.42146 
 H                    -4.58136   1.73434   0.9785 
 
 NAtoms=     18 NQM=     18 NQMF=      0 NMic=      0 NMicF=      0 NTot=     18.
                    Isotopes and Nuclear Properties:
 (Nuclear quadrupole moments (NQMom) in fm**2, nuclear magnetic moments (NMagM)
  in nuclear magnetons)

  Atom         1           2           3           4           5           6           7           8           9          10
 IAtWgt=          12          14          12          12          12          12          12          16          12           1
 AtmWgt=  12.0000000  14.0030740  12.0000000  12.0000000  12.0000000  12.0000000  12.0000000  15.9949146  12.0000000   1.0078250
 NucSpn=           0           2           0           0           0           0           0           0           0           1
 AtZEff=   0.0000000   0.0000000   0.0000000   0.0000000   0.0000000   0.0000000   0.0000000   0.0000000   0.0000000   0.0000000
 NQMom=    0.0000000   2.0440000   0.0000000   0.0000000   0.0000000   0.0000000   0.0000000   0.0000000   0.0000000   0.0000000
 NMagM=    0.0000000   0.4037610   0.0000000   0.0000000   0.0000000   0.0000000   0.0000000   0.0000000   0.0000000   2.7928460

  Atom        11          12          13          14          15          16          17          18
 IAtWgt=           1           1           1           1           1           1           1           1
 AtmWgt=   1.0078250   1.0078250   1.0078250   1.0078250   1.0078250   1.0078250   1.0078250   1.0078250
 NucSpn=           1           1           1           1           1           1           1           1
 AtZEff=   0.0000000   0.0000000   0.0000000   0.0000000   0.0000000   0.0000000   0.0000000   0.0000000
 NQMom=    0.0000000   0.0000000   0.0000000   0.0000000   0.0000000   0.0000000   0.0000000   0.0000000
 NMagM=    2.7928460   2.7928460   2.7928460   2.7928460   2.7928460   2.7928460   2.7928460   2.7928460
 Leave Link  101 at Mon Oct  4 08:11:27 2021, MaxMem=  805306368 cpu:       0.2
 (Enter /sw/target/amd/app/gaussian/Gaussian09RevA.02_gcc-4.9.2/g09/l103.exe)

 GradGradGradGradGradGradGradGradGradGradGradGradGradGradGradGradGradGrad
 Berny optimization.
 Initialization pass.
                           ----------------------------
                           !    Initial Parameters    !
                           ! (Angstroms and Degrees)  !
 --------------------------                            --------------------------
 ! Name  Definition              Value          Derivative Info.                !
 --------------------------------------------------------------------------------
 ! R1    R(1,2)                  1.4448         estimate D2E/DX2                !
 ! R2    R(1,10)                 1.0928         estimate D2E/DX2                !
 ! R3    R(1,11)                 1.0932         estimate D2E/DX2                !
 ! R4    R(1,12)                 1.0928         estimate D2E/DX2                !
 ! R5    R(2,3)                  1.3671         estimate D2E/DX2                !
 ! R6    R(2,6)                  1.3676         estimate D2E/DX2                !
 ! R7    R(3,4)                  1.3789         estimate D2E/DX2                !
 ! R8    R(3,13)                 1.0825         estimate D2E/DX2                !
 ! R9    R(4,5)                  1.4261         estimate D2E/DX2                !
 ! R10   R(4,14)                 1.0825         estimate D2E/DX2                !
 ! R11   R(5,6)                  1.3855         estimate D2E/DX2                !
 ! R12   R(5,7)                  1.4633         estimate D2E/DX2                !
 ! R13   R(6,15)                 1.0835         estimate D2E/DX2                !
 ! R14   R(7,8)                  1.2326         estimate D2E/DX2                !
 ! R15   R(7,9)                  1.5079         estimate D2E/DX2                !
 ! R16   R(9,16)                 1.0931         estimate D2E/DX2                !
 ! R17   R(9,17)                 1.0928         estimate D2E/DX2                !
 ! R18   R(9,18)                 1.0943         estimate D2E/DX2                !
 ! A1    A(2,1,10)             109.5844         estimate D2E/DX2                !
 ! A2    A(2,1,11)             108.348          estimate D2E/DX2                !
 ! A3    A(2,1,12)             108.3359         estimate D2E/DX2                !
 ! A4    A(10,1,11)            109.8318         estimate D2E/DX2                !
 ! A5    A(10,1,12)            110.0922         estimate D2E/DX2                !
 ! A6    A(11,1,12)            110.6088         estimate D2E/DX2                !
 ! A7    A(1,2,3)              125.8066         estimate D2E/DX2                !
 ! A8    A(1,2,6)              124.6646         estimate D2E/DX2                !
 ! A9    A(3,2,6)              109.526          estimate D2E/DX2                !
 ! A10   A(2,3,4)              107.7734         estimate D2E/DX2                !
 ! A11   A(2,3,13)             121.4857         estimate D2E/DX2                !
 ! A12   A(4,3,13)             130.7403         estimate D2E/DX2                !
 ! A13   A(3,4,5)              107.9942         estimate D2E/DX2                !
 ! A14   A(3,4,14)             124.7781         estimate D2E/DX2                !
 ! A15   A(5,4,14)             127.2272         estimate D2E/DX2                !
 ! A16   A(4,5,6)              105.9759         estimate D2E/DX2                !
 ! A17   A(4,5,7)              129.5489         estimate D2E/DX2                !
 ! A18   A(6,5,7)              124.4745         estimate D2E/DX2                !
 ! A19   A(2,6,5)              108.7178         estimate D2E/DX2                !
 ! A20   A(2,6,15)             121.3166         estimate D2E/DX2                !
 ! A21   A(5,6,15)             129.9595         estimate D2E/DX2                !
 ! A22   A(5,7,8)              121.4815         estimate D2E/DX2                !
 ! A23   A(5,7,9)              118.4819         estimate D2E/DX2                !
 ! A24   A(8,7,9)              120.0228         estimate D2E/DX2                !
 ! A25   A(7,9,16)             110.9746         estimate D2E/DX2                !
 ! A26   A(7,9,17)             109.6521         estimate D2E/DX2                !
 ! A27   A(7,9,18)             109.2022         estimate D2E/DX2                !
 ! A28   A(16,9,17)            110.1167         estimate D2E/DX2                !
 ! A29   A(16,9,18)            107.5605         estimate D2E/DX2                !
 ! A30   A(17,9,18)            109.2908         estimate D2E/DX2                !
 ! D1    D(10,1,2,3)            -3.2163         estimate D2E/DX2                !
 ! D2    D(10,1,2,6)           176.1054         estimate D2E/DX2                !
 ! D3    D(11,1,2,3)          -123.0427         estimate D2E/DX2                !
 ! D4    D(11,1,2,6)            56.279          estimate D2E/DX2                !
 ! D5    D(12,1,2,3)           116.9186         estimate D2E/DX2                !
 ! D6    D(12,1,2,6)           -63.7597         estimate D2E/DX2                !
 ! D7    D(1,2,3,4)            178.822          estimate D2E/DX2                !
 ! D8    D(1,2,3,13)            -0.9378         estimate D2E/DX2                !
 ! D9    D(6,2,3,4)             -0.586          estimate D2E/DX2                !
 ! D10   D(6,2,3,13)           179.6541         estimate D2E/DX2                !
 ! D11   D(1,2,6,5)           -178.3243         estimate D2E/DX2                !
 ! D12   D(1,2,6,15)             0.8668         estimate D2E/DX2                !
 ! D13   D(3,2,6,5)              1.092          estimate D2E/DX2                !
 ! D14   D(3,2,6,15)          -179.7169         estimate D2E/DX2                !
 ! D15   D(2,3,4,5)             -0.129          estimate D2E/DX2                !
 ! D16   D(2,3,4,14)          -179.8683         estimate D2E/DX2                !
 ! D17   D(13,3,4,5)           179.6007         estimate D2E/DX2                !
 ! D18   D(13,3,4,14)           -0.1386         estimate D2E/DX2                !
 ! D19   D(3,4,5,6)              0.7734         estimate D2E/DX2                !
 ! D20   D(3,4,5,7)           -178.9163         estimate D2E/DX2                !
 ! D21   D(14,4,5,6)          -179.4955         estimate D2E/DX2                !
 ! D22   D(14,4,5,7)             0.8148         estimate D2E/DX2                !
 ! D23   D(4,5,6,2)             -1.1306         estimate D2E/DX2                !
 ! D24   D(4,5,6,15)           179.771          estimate D2E/DX2                !
 ! D25   D(7,5,6,2)            178.5792         estimate D2E/DX2                !
 ! D26   D(7,5,6,15)            -0.5192         estimate D2E/DX2                !
 ! D27   D(4,5,7,8)           -174.1831         estimate D2E/DX2                !
 ! D28   D(4,5,7,9)              4.4652         estimate D2E/DX2                !
 ! D29   D(6,5,7,8)              6.1788         estimate D2E/DX2                !
 ! D30   D(6,5,7,9)           -175.1729         estimate D2E/DX2                !
 ! D31   D(5,7,9,16)            39.2228         estimate D2E/DX2                !
 ! D32   D(5,7,9,17)           -82.6489         estimate D2E/DX2                !
 ! D33   D(5,7,9,18)           157.6262         estimate D2E/DX2                !
 ! D34   D(8,7,9,16)          -142.1085         estimate D2E/DX2                !
 ! D35   D(8,7,9,17)            96.0197         estimate D2E/DX2                !
 ! D36   D(8,7,9,18)           -23.7052         estimate D2E/DX2                !
 --------------------------------------------------------------------------------
 Trust Radius=3.00D-01 FncErr=1.00D-07 GrdErr=1.00D-06
 Number of steps in this run=  94 maximum allowed number of steps= 108.
 GradGradGradGradGradGradGradGradGradGradGradGradGradGradGradGradGradGrad

 Leave Link  103 at Mon Oct  4 08:11:28 2021, MaxMem=  805306368 cpu:       0.0
 (Enter /sw/target/amd/app/gaussian/Gaussian09RevA.02_gcc-4.9.2/g09/l202.exe)
                          Input orientation:                          
 ---------------------------------------------------------------------
 Center     Atomic      Atomic             Coordinates (Angstroms)
 Number     Number       Type             X           Y           Z
 ---------------------------------------------------------------------
      1          6           0        2.133744    0.023832   -0.148149
      2          7           0        0.693319   -0.014978   -0.043016
      3          6           0       -0.073334   -1.144650    0.027227
      4          6           0       -1.390230   -0.752997    0.144910
      5          6           0       -1.427141    0.672635    0.149468
      6          6           0       -0.112416    1.088578    0.014648
      7          6           0       -2.572689    1.574662    0.273763
      8          8           0       -2.447128    2.794984    0.153500
      9          6           0       -3.934365    0.977390    0.524638
     10          1           0        2.531641   -0.993126   -0.106026
     11          1           0        2.524154    0.609771    0.688098
     12          1           0        2.396453    0.490574   -1.100645
     13          1           0        0.369765   -2.131680   -0.007393
     14          1           0       -2.231127   -1.430110    0.223291
     15          1           0        0.299586    2.089667   -0.030470
     16          1           0       -3.870859    0.137303    1.221084
     17          1           0       -4.371612    0.649022   -0.421456
     18          1           0       -4.581355    1.734345    0.978498
 ---------------------------------------------------------------------
                    Distance matrix (angstroms):
                    1          2          3          4          5
     1  C    0.000000
     2  N    1.444778   0.000000
     3  C    2.503458   1.367059   0.000000
     4  C    3.620461   2.218369   1.378933   0.000000
     5  C    3.631724   2.237457   2.269419   1.426118   0.000000
     6  C    2.491068   1.367615   2.233606   2.245256   1.385527
     7  C    4.973288   3.646109   3.701650   2.613964   1.463346
     8  O    5.362338   4.218639   4.601257   3.702064   2.354730
     9  C    6.179309   4.766810   4.433738   3.100170   2.553390
    10  H    1.092840   2.083308   2.612778   3.937220   4.302556
    11  H    1.093185   2.068042   3.203387   4.180262   3.988334
    12  H    1.092755   2.067566   3.169528   4.175745   4.026885
    13  H    2.788847   2.141584   1.082480   2.240880   3.334316
    14  H    4.615627   3.259740   2.185406   1.082467   2.252417
    15  H    2.765078   2.141194   3.256256   3.311642   2.240968
    16  H    6.159783   4.738445   4.182092   2.846806   2.721525
    17  H    6.541041   5.122269   4.679078   3.342913   2.999404
    18  H    7.020523   5.650293   5.432843   4.130983   3.429808
                    6          7          8          9         10
     6  C    0.000000
     7  C    2.521183   0.000000
     8  O    2.895166   1.232646   0.000000
     9  C    3.857427   1.507923   2.377659   0.000000
    10  H    3.367357   5.726427   6.261412   6.788954   0.000000
    11  H    2.763023   5.203893   5.456611   6.471038   1.788845
    12  H    2.809966   5.268455   5.508490   6.554219   1.791343
    13  H    3.256232   4.740681   5.677393   5.336189   2.445351
    14  H    3.297917   3.024543   4.231187   2.964436   4.794097
    15  H    1.083494   2.933897   2.841788   4.412668   3.806756
    16  H    4.060333   2.156075   3.198439   1.093076   6.635593
    17  H    4.303969   2.139220   2.939279   1.092751   7.102890
    18  H    4.617081   2.134687   2.522003   1.094333   7.694804
                   11         12         13         14         15
    11  H    0.000000
    12  H    1.797253   0.000000
    13  H    3.555370   3.489826   0.000000
    14  H    5.195177   5.182310   2.703712   0.000000
    15  H    2.766792   2.845913   4.221993   4.342549   0.000000
    16  H    6.434554   6.692864   4.963903   2.478123   4.771867
    17  H    6.984572   6.803904   5.512206   3.052894   4.903918
    18  H    7.199810   7.386448   6.358594   4.013437   4.996784
                   16         17         18
    16  H    0.000000
    17  H    1.791800   0.000000
    18  H    1.764708   1.783757   0.000000
 Stoichiometry    C7H9NO
 Framework group  C1[X(C7H9NO)]
 Deg. of freedom    48
 Full point group                 C1      NOp   1
 Largest Abelian subgroup         C1      NOp   1
 Largest concise Abelian subgroup C1      NOp   1
                         Standard orientation:                         
 ---------------------------------------------------------------------
 Center     Atomic      Atomic             Coordinates (Angstroms)
 Number     Number       Type             X           Y           Z
 ---------------------------------------------------------------------
      1          6           0       -3.126164   -0.645540    0.055600
      2          7           0       -1.798664   -0.077894    0.001697
      3          6           0       -1.500126    1.255454   -0.041989
      4          6           0       -0.126839    1.378996   -0.058597
      5          6           0        0.433900    0.068295   -0.020571
      6          6           0       -0.640880   -0.805838    0.000029
      7          6           0        1.837699   -0.344310    0.001546
      8          8           0        2.160930   -1.531538   -0.072116
      9          6           0        2.899639    0.722892    0.086363
     10          1           0       -3.865632    0.156993    0.114151
     11          1           0       -3.194123   -1.278054    0.944623
     12          1           0       -3.284387   -1.236460   -0.849880
     13          1           0       -2.277404    2.008752   -0.053971
     14          1           0        0.408145    2.319482   -0.090394
     15          1           0       -0.656572   -1.888894    0.026557
     16          1           0        2.594839    1.525249    0.763221
     17          1           0        3.095887    1.126078   -0.910147
     18          1           0        3.819091    0.284733    0.486599
 ---------------------------------------------------------------------
 Rotational constants (GHZ):      4.1121015      1.0308474      0.8339856
 Leave Link  202 at Mon Oct  4 08:11:28 2021, MaxMem=  805306368 cpu:       0.0
 (Enter /sw/target/amd/app/gaussian/Gaussian09RevA.02_gcc-4.9.2/g09/l301.exe)
 Standard basis: 6-31G(d) (6D, 7F)
 Ernie: Thresh=  0.10000D-02 Tol=  0.10000D-05 Strict=F.
 There are   153 symmetry adapted basis functions of A   symmetry.
 Integral buffers will be    131072 words long.
 Raffenetti 2 integral format.
 Two-electron integral symmetry is turned on.
   153 basis functions,   288 primitive gaussians,   153 cartesian basis functions
    33 alpha electrons       33 beta electrons
       nuclear repulsion energy       423.7905698867 Hartrees.
 IExCor=  402 DFT=T Ex+Corr=B3LYP ExCW=0 ScaHFX=  0.200000
 ScaDFX=  0.800000  0.720000  1.000000  0.810000 ScalE2=  1.000000  1.000000
 IRadAn=      0 IRanWt=     -1 IRanGd=            0 ICorTp=0
 NAtoms=   18 NActive=   18 NUniq=   18 SFac= 7.50D-01 NAtFMM=   80 NAOKFM=F Big=F
 Leave Link  301 at Mon Oct  4 08:11:28 2021, MaxMem=  805306368 cpu:       0.1
 (Enter /sw/target/amd/app/gaussian/Gaussian09RevA.02_gcc-4.9.2/g09/l302.exe)
 NPDir=0 NMtPBC=     1 NCelOv=     1 NCel=       1 NClECP=     1 NCelD=      1
         NCelK=      1 NCelE2=     1 NClLst=     1 CellRange=     0.0.
 One-electron integrals computed using PRISM.
 NBasis=   153 RedAO= T  NBF=   153
 NBsUse=   153 1.00D-06 NBFU=   153
 Precomputing XC quadrature grid using
 IXCGrd= 2 IRadAn=           0 IRanWt=          -1 IRanGd=           0 AccXCQ= 1.00D-10.
 NRdTot=    1129 NPtTot=      143590 NUsed=      151740 NTot=      151772
 NSgBfM=   153   153   153   153   153 NAtAll=    18    18.
 Leave Link  302 at Mon Oct  4 08:11:32 2021, MaxMem=  805306368 cpu:       1.0
 (Enter /sw/target/amd/app/gaussian/Gaussian09RevA.02_gcc-4.9.2/g09/l303.exe)
 DipDrv:  MaxL=1.
 Leave Link  303 at Mon Oct  4 08:11:34 2021, MaxMem=  805306368 cpu:       0.1
 (Enter /sw/target/amd/app/gaussian/Gaussian09RevA.02_gcc-4.9.2/g09/l401.exe)
 Harris functional with IExCor=  402 diagonalized for initial guess.
 ExpMin= 1.61D-01 ExpMax= 5.48D+03 ExpMxC= 8.25D+02 IAcc=1 IRadAn=         1 AccDes= 0.00D+00
 HarFok:  IExCor=  402 AccDes= 0.00D+00 IRadAn=         1 IDoV= 1
 ScaDFX=  1.000000  1.000000  1.000000  1.000000
 FoFCou: FMM=F IPFlag=           0 FMFlag=      100000 FMFlg1=           0
         NFxFlg=           0 DoJE=T BraDBF=F KetDBF=T FulRan=T
         Omega=  0.000000  0.000000  1.000000  0.000000  0.000000 ICntrl=     500 IOpCl=  0
         NMat0=    1 NMatS0=    1 NMatT0=    0 NMatD0=    1 NMtDS0=    0 NMtDT0=    0
         I1Cent=           4 NGrid=           0.
 Petite list used in FoFCou.
 Harris En= -402.202025074644    
 Initial guess orbital symmetries:
       Occupied  (A) (A) (A) (A) (A) (A) (A) (A) (A) (A) (A) (A)
                 (A) (A) (A) (A) (A) (A) (A) (A) (A) (A) (A) (A)
                 (A) (A) (A) (A) (A) (A) (A) (A) (A)
       Virtual   (A) (A) (A) (A) (A) (A) (A) (A) (A) (A) (A) (A)
                 (A) (A) (A) (A) (A) (A) (A) (A) (A) (A) (A) (A)
                 (A) (A) (A) (A) (A) (A) (A) (A) (A) (A) (A) (A)
                 (A) (A) (A) (A) (A) (A) (A) (A) (A) (A) (A) (A)
                 (A) (A) (A) (A) (A) (A) (A) (A) (A) (A) (A) (A)
                 (A) (A) (A) (A) (A) (A) (A) (A) (A) (A) (A) (A)
                 (A) (A) (A) (A) (A) (A) (A) (A) (A) (A) (A) (A)
                 (A) (A) (A) (A) (A) (A) (A) (A) (A) (A) (A) (A)
                 (A) (A) (A) (A) (A) (A) (A) (A) (A) (A) (A) (A)
                 (A) (A) (A) (A) (A) (A) (A) (A) (A) (A) (A) (A)
 The electronic state of the initial guess is 1-A.
 Leave Link  401 at Mon Oct  4 08:11:47 2021, MaxMem=  805306368 cpu:       4.9
 (Enter /sw/target/amd/app/gaussian/Gaussian09RevA.02_gcc-4.9.2/g09/l502.exe)
 Closed shell SCF:
 Requested convergence on RMS density matrix=1.00D-08 within  64 cycles.
 Requested convergence on MAX density matrix=1.00D-06.
 Requested convergence on             energy=1.00D-06.
 No special actions if energy rises.
 Using DIIS extrapolation, IDIIS=  1040.
 Integral symmetry usage will be decided dynamically.
       151565 words used for storage of precomputed grid.
 Keep R1 ints in memory in canonical form, NReq=71457349.
 IEnd=      229409 IEndB=      229409 NGot=   805306368 MDV=   735702847
 LenX=   735702847 LenY=   735678997
 Symmetry not used in FoFDir.
 MinBra= 0 MaxBra= 2 Meth= 1.
 IRaf=       0 NMat=   1 IRICut=       1 DoRegI=T DoRafI=F ISym2E= 0 JSym2E=0.
 Integral accuracy reduced to 1.0D-05 until final iterations.

 Cycle   1  Pass 0  IDiag  1:
 E= -401.868471016935    
 DIIS: error= 3.97D-02 at cycle   1 NSaved=   1.
 NSaved= 1 IEnMin= 1 EnMin= -401.868471016935     IErMin= 1 ErrMin= 3.97D-02
 ErrMax= 3.97D-02 EMaxC= 1.00D-01 BMatC= 2.60D-01 BMatP= 2.60D-01
 IDIUse=3 WtCom= 6.03D-01 WtEn= 3.97D-01
 Coeff-Com:  0.100D+01
 Coeff-En:   0.100D+01
 Coeff:      0.100D+01
 Gap=     0.177 Goal=   None    Shift=    0.000
 GapD=    0.177 DampG=1.000 DampE=0.500 DampFc=0.5000 IDamp=-1.
 Damping current iteration by 5.00D-01
 RMSDP=8.53D-03 MaxDP=2.00D-01              OVMax= 2.56D-01

 Cycle   2  Pass 0  IDiag  1:
 E= -401.971709337845     Delta-E=       -0.103238320910 Rises=F Damp=T
 DIIS: error= 1.12D-02 at cycle   2 NSaved=   2.
 NSaved= 2 IEnMin= 2 EnMin= -401.971709337845     IErMin= 2 ErrMin= 1.12D-02
 ErrMax= 1.12D-02 EMaxC= 1.00D-01 BMatC= 2.56D-02 BMatP= 2.60D-01
 IDIUse=3 WtCom= 8.88D-01 WtEn= 1.12D-01
 Coeff-Com:  0.142D+00 0.858D+00
 Coeff-En:   0.195D+00 0.805D+00
 Coeff:      0.148D+00 0.852D+00
 Gap=     0.227 Goal=   None    Shift=    0.000
 RMSDP=2.42D-03 MaxDP=6.21D-02 DE=-1.03D-01 OVMax= 2.06D-01

 Cycle   3  Pass 0  IDiag  1:
 E= -402.099909185723     Delta-E=       -0.128199847878 Rises=F Damp=F
 DIIS: error= 1.64D-02 at cycle   3 NSaved=   3.
 NSaved= 3 IEnMin= 3 EnMin= -402.099909185723     IErMin= 2 ErrMin= 1.12D-02
 ErrMax= 1.64D-02 EMaxC= 1.00D-01 BMatC= 3.34D-02 BMatP= 2.56D-02
 IDIUse=2 WtCom= 0.00D+00 WtEn= 1.00D+00
 Coeff-En:   0.000D+00 0.000D+00 0.100D+01
 Coeff:      0.000D+00 0.000D+00 0.100D+01
 Gap=     0.216 Goal=   None    Shift=    0.000
 RMSDP=3.88D-03 MaxDP=1.38D-01 DE=-1.28D-01 OVMax= 2.14D-01

 Cycle   4  Pass 0  IDiag  1:
 E= -401.981140870248     Delta-E=        0.118768315475 Rises=F Damp=F
 DIIS: error= 4.16D-02 at cycle   4 NSaved=   4.
 NSaved= 4 IEnMin= 3 EnMin= -402.099909185723     IErMin= 2 ErrMin= 1.12D-02
 ErrMax= 4.16D-02 EMaxC= 1.00D-01 BMatC= 1.80D-01 BMatP= 2.56D-02
 IDIUse=2 WtCom= 0.00D+00 WtEn= 1.00D+00
 Coeff-En:   0.000D+00 0.000D+00 0.785D+00 0.215D+00
 Coeff:      0.000D+00 0.000D+00 0.785D+00 0.215D+00
 Gap=     0.192 Goal=   None    Shift=    0.000
 RMSDP=2.22D-03 MaxDP=7.26D-02 DE= 1.19D-01 OVMax= 1.00D-01

 Cycle   5  Pass 0  IDiag  1:
 E= -402.118568457049     Delta-E=       -0.137427586801 Rises=F Damp=F
 DIIS: error= 9.78D-03 at cycle   5 NSaved=   5.
 NSaved= 5 IEnMin= 5 EnMin= -402.118568457049     IErMin= 5 ErrMin= 9.78D-03
 ErrMax= 9.78D-03 EMaxC= 1.00D-01 BMatC= 1.18D-02 BMatP= 2.56D-02
 IDIUse=3 WtCom= 9.02D-01 WtEn= 9.78D-02
 Coeff-Com:  0.280D-02 0.120D-01 0.360D+00-0.112D-01 0.637D+00
 Coeff-En:   0.000D+00 0.000D+00 0.306D+00 0.000D+00 0.694D+00
 Coeff:      0.252D-02 0.109D-01 0.354D+00-0.101D-01 0.642D+00
 Gap=     0.206 Goal=   None    Shift=    0.000
 RMSDP=7.09D-04 MaxDP=2.39D-02 DE=-1.37D-01 OVMax= 2.98D-02

 Cycle   6  Pass 0  IDiag  1:
 E= -402.128464668035     Delta-E=       -0.009896210986 Rises=F Damp=F
 DIIS: error= 1.06D-03 at cycle   6 NSaved=   6.
 NSaved= 6 IEnMin= 6 EnMin= -402.128464668035     IErMin= 6 ErrMin= 1.06D-03
 ErrMax= 1.06D-03 EMaxC= 1.00D-01 BMatC= 1.37D-04 BMatP= 1.18D-02
 IDIUse=3 WtCom= 9.89D-01 WtEn= 1.06D-02
 Coeff-Com: -0.428D-02 0.125D-01 0.139D+00-0.502D-01 0.423D+00 0.481D+00
 Coeff-En:   0.000D+00 0.000D+00 0.000D+00 0.000D+00 0.000D+00 0.100D+01
 Coeff:     -0.423D-02 0.123D-01 0.137D+00-0.497D-01 0.418D+00 0.486D+00
 Gap=     0.195 Goal=   None    Shift=    0.000
 RMSDP=8.95D-05 MaxDP=2.73D-03 DE=-9.90D-03 OVMax= 5.21D-03

 Cycle   7  Pass 0  IDiag  1:
 E= -402.128600790195     Delta-E=       -0.000136122160 Rises=F Damp=F
 DIIS: error= 1.77D-04 at cycle   7 NSaved=   7.
 NSaved= 7 IEnMin= 7 EnMin= -402.128600790195     IErMin= 7 ErrMin= 1.77D-04
 ErrMax= 1.77D-04 EMaxC= 1.00D-01 BMatC= 5.34D-06 BMatP= 1.37D-04
 IDIUse=3 WtCom= 9.98D-01 WtEn= 1.77D-03
 Coeff-Com: -0.211D-02 0.532D-02 0.534D-01-0.259D-01 0.183D+00 0.254D+00
 Coeff-Com:  0.532D+00
 Coeff-En:   0.000D+00 0.000D+00 0.000D+00 0.000D+00 0.000D+00 0.000D+00
 Coeff-En:   0.100D+01
 Coeff:     -0.210D-02 0.531D-02 0.533D-01-0.258D-01 0.182D+00 0.254D+00
 Coeff:      0.533D+00
 Gap=     0.195 Goal=   None    Shift=    0.000
 RMSDP=1.63D-05 MaxDP=5.06D-04 DE=-1.36D-04 OVMax= 8.81D-04

 Cycle   8  Pass 0  IDiag  1:
 E= -402.128605113388     Delta-E=       -0.000004323193 Rises=F Damp=F
 DIIS: error= 4.10D-05 at cycle   8 NSaved=   8.
 NSaved= 8 IEnMin= 8 EnMin= -402.128605113388     IErMin= 8 ErrMin= 4.10D-05
 ErrMax= 4.10D-05 EMaxC= 1.00D-01 BMatC= 4.98D-07 BMatP= 5.34D-06
 IDIUse=1 WtCom= 1.00D+00 WtEn= 0.00D+00
 Coeff-Com: -0.213D-03 0.307D-03 0.998D-02-0.551D-02 0.339D-01 0.659D-01
 Coeff-Com:  0.242D+00 0.653D+00
 Coeff:     -0.213D-03 0.307D-03 0.998D-02-0.551D-02 0.339D-01 0.659D-01
 Coeff:      0.242D+00 0.653D+00
 Gap=     0.195 Goal=   None    Shift=    0.000
 RMSDP=5.31D-06 MaxDP=1.37D-04 DE=-4.32D-06 OVMax= 2.42D-04

 Initial convergence to 1.0D-05 achieved.  Increase integral accuracy.
 Cycle   9  Pass 1  IDiag  1:
 E= -402.128617366544     Delta-E=       -0.000012253156 Rises=F Damp=F
 DIIS: error= 1.22D-05 at cycle   1 NSaved=   1.
 NSaved= 1 IEnMin= 1 EnMin= -402.128617366544     IErMin= 1 ErrMin= 1.22D-05
 ErrMax= 1.22D-05 EMaxC= 1.00D-01 BMatC= 5.22D-08 BMatP= 5.22D-08
 IDIUse=1 WtCom= 1.00D+00 WtEn= 0.00D+00
 Coeff-Com:  0.100D+01
 Coeff:      0.100D+01
 Gap=     0.195 Goal=   None    Shift=    0.000
 RMSDP=5.31D-06 MaxDP=1.37D-04 DE=-1.23D-05 OVMax= 1.52D-04

 Cycle  10  Pass 1  IDiag  1:
 E= -402.128617348280     Delta-E=        0.000000018264 Rises=F Damp=F
 DIIS: error= 2.15D-05 at cycle   2 NSaved=   2.
 NSaved= 2 IEnMin= 1 EnMin= -402.128617366544     IErMin= 1 ErrMin= 1.22D-05
 ErrMax= 2.15D-05 EMaxC= 1.00D-01 BMatC= 8.68D-08 BMatP= 5.22D-08
 IDIUse=1 WtCom= 1.00D+00 WtEn= 0.00D+00
 Coeff-Com:  0.575D+00 0.425D+00
 Coeff:      0.575D+00 0.425D+00
 Gap=     0.195 Goal=   None    Shift=    0.000
 RMSDP=2.14D-06 MaxDP=6.46D-05 DE= 1.83D-08 OVMax= 1.13D-04

 Cycle  11  Pass 1  IDiag  1:
 E= -402.128617422254     Delta-E=       -0.000000073974 Rises=F Damp=F
 DIIS: error= 5.17D-06 at cycle   3 NSaved=   3.
 NSaved= 3 IEnMin= 3 EnMin= -402.128617422254     IErMin= 3 ErrMin= 5.17D-06
 ErrMax= 5.17D-06 EMaxC= 1.00D-01 BMatC= 5.72D-09 BMatP= 5.22D-08
 IDIUse=1 WtCom= 1.00D+00 WtEn= 0.00D+00
 Coeff-Com:  0.791D-01 0.206D+00 0.715D+00
 Coeff:      0.791D-01 0.206D+00 0.715D+00
 Gap=     0.195 Goal=   None    Shift=    0.000
 RMSDP=7.37D-07 MaxDP=1.92D-05 DE=-7.40D-08 OVMax= 3.15D-05

 Cycle  12  Pass 1  IDiag  1:
 E= -402.128617425903     Delta-E=       -0.000000003649 Rises=F Damp=F
 DIIS: error= 3.14D-06 at cycle   4 NSaved=   4.
 NSaved= 4 IEnMin= 4 EnMin= -402.128617425903     IErMin= 4 ErrMin= 3.14D-06
 ErrMax= 3.14D-06 EMaxC= 1.00D-01 BMatC= 1.61D-09 BMatP= 5.72D-09
 IDIUse=1 WtCom= 1.00D+00 WtEn= 0.00D+00
 Coeff-Com: -0.122D-01 0.810D-01 0.445D+00 0.486D+00
 Coeff:     -0.122D-01 0.810D-01 0.445D+00 0.486D+00
 Gap=     0.195 Goal=   None    Shift=    0.000
 RMSDP=3.06D-07 MaxDP=9.43D-06 DE=-3.65D-09 OVMax= 1.55D-05

 Cycle  13  Pass 1  IDiag  1:
 E= -402.128617427272     Delta-E=       -0.000000001369 Rises=F Damp=F
 DIIS: error= 8.43D-07 at cycle   5 NSaved=   5.
 NSaved= 5 IEnMin= 5 EnMin= -402.128617427272     IErMin= 5 ErrMin= 8.43D-07
 ErrMax= 8.43D-07 EMaxC= 1.00D-01 BMatC= 9.50D-11 BMatP= 1.61D-09
 IDIUse=1 WtCom= 1.00D+00 WtEn= 0.00D+00
 Coeff-Com: -0.108D-01 0.415D-01 0.244D+00 0.305D+00 0.420D+00
 Coeff:     -0.108D-01 0.415D-01 0.244D+00 0.305D+00 0.420D+00
 Gap=     0.195 Goal=   None    Shift=    0.000
 RMSDP=6.66D-08 MaxDP=2.01D-06 DE=-1.37D-09 OVMax= 3.40D-06

 Cycle  14  Pass 1  IDiag  1:
 E= -402.128617427339     Delta-E=       -0.000000000068 Rises=F Damp=F
 DIIS: error= 1.45D-07 at cycle   6 NSaved=   6.
 NSaved= 6 IEnMin= 6 EnMin= -402.128617427339     IErMin= 6 ErrMin= 1.45D-07
 ErrMax= 1.45D-07 EMaxC= 1.00D-01 BMatC= 4.41D-12 BMatP= 9.50D-11
 IDIUse=1 WtCom= 1.00D+00 WtEn= 0.00D+00
 Coeff-Com: -0.433D-02 0.132D-01 0.804D-01 0.114D+00 0.217D+00 0.580D+00
 Coeff:     -0.433D-02 0.132D-01 0.804D-01 0.114D+00 0.217D+00 0.580D+00
 Gap=     0.195 Goal=   None    Shift=    0.000
 RMSDP=2.00D-08 MaxDP=4.83D-07 DE=-6.75D-11 OVMax= 8.92D-07

 Cycle  15  Pass 1  IDiag  1:
 E= -402.128617427347     Delta-E=       -0.000000000007 Rises=F Damp=F
 DIIS: error= 6.96D-08 at cycle   7 NSaved=   7.
 NSaved= 7 IEnMin= 7 EnMin= -402.128617427347     IErMin= 7 ErrMin= 6.96D-08
 ErrMax= 6.96D-08 EMaxC= 1.00D-01 BMatC= 8.78D-13 BMatP= 4.41D-12
 IDIUse=1 WtCom= 1.00D+00 WtEn= 0.00D+00
 Coeff-Com: -0.129D-02 0.327D-02 0.208D-01 0.347D-01 0.741D-01 0.347D+00
 Coeff-Com:  0.521D+00
 Coeff:     -0.129D-02 0.327D-02 0.208D-01 0.347D-01 0.741D-01 0.347D+00
 Coeff:      0.521D+00
 Gap=     0.195 Goal=   None    Shift=    0.000
 RMSDP=8.01D-09 MaxDP=1.82D-07 DE=-7.16D-12 OVMax= 4.66D-07

 SCF Done:  E(RB3LYP) =  -402.128617427     A.U. after   15 cycles
             Convg  =    0.8011D-08             -V/T =  2.0093
 KE= 3.984123810080D+02 PE=-1.782538845908D+03 EE= 5.582072775864D+02
 Leave Link  502 at Mon Oct  4 08:15:49 2021, MaxMem=  805306368 cpu:      78.9
 (Enter /sw/target/amd/app/gaussian/Gaussian09RevA.02_gcc-4.9.2/g09/l508.exe)
 QCSCF skips out because SCF is already converged.
 Leave Link  508 at Mon Oct  4 08:15:49 2021, MaxMem=  805306368 cpu:       0.0
 (Enter /sw/target/amd/app/gaussian/Gaussian09RevA.02_gcc-4.9.2/g09/l601.exe)
 Copying SCF densities to generalized density rwf, IOpCl= 0 IROHF=0.

 **********************************************************************

            Population analysis using the SCF density.

 **********************************************************************

 Orbital symmetries:
       Occupied  (A) (A) (A) (A) (A) (A) (A) (A) (A) (A) (A) (A)
                 (A) (A) (A) (A) (A) (A) (A) (A) (A) (A) (A) (A)
                 (A) (A) (A) (A) (A) (A) (A) (A) (A)
       Virtual   (A) (A) (A) (A) (A) (A) (A) (A) (A) (A) (A) (A)
                 (A) (A) (A) (A) (A) (A) (A) (A) (A) (A) (A) (A)
                 (A) (A) (A) (A) (A) (A) (A) (A) (A) (A) (A) (A)
                 (A) (A) (A) (A) (A) (A) (A) (A) (A) (A) (A) (A)
                 (A) (A) (A) (A) (A) (A) (A) (A) (A) (A) (A) (A)
                 (A) (A) (A) (A) (A) (A) (A) (A) (A) (A) (A) (A)
                 (A) (A) (A) (A) (A) (A) (A) (A) (A) (A) (A) (A)
                 (A) (A) (A) (A) (A) (A) (A) (A) (A) (A) (A) (A)
                 (A) (A) (A) (A) (A) (A) (A) (A) (A) (A) (A) (A)
                 (A) (A) (A) (A) (A) (A) (A) (A) (A) (A) (A) (A)
 The electronic state is 1-A.
 Alpha  occ. eigenvalues --  -19.10932 -14.39637 -10.25604 -10.24101 -10.21179
 Alpha  occ. eigenvalues --  -10.21115 -10.17682 -10.17492 -10.17363  -1.00699
 Alpha  occ. eigenvalues --   -0.99605  -0.81559  -0.74286  -0.72824  -0.69702
 Alpha  occ. eigenvalues --   -0.60810  -0.56276  -0.54645  -0.49507  -0.47977
 Alpha  occ. eigenvalues --   -0.44877  -0.43855  -0.43123  -0.42189  -0.41450
 Alpha  occ. eigenvalues --   -0.39715  -0.38416  -0.36994  -0.36552  -0.33607
 Alpha  occ. eigenvalues --   -0.24175  -0.22751  -0.21699
 Alpha virt. eigenvalues --   -0.02199   0.03924   0.08452   0.10963   0.11729
 Alpha virt. eigenvalues --    0.12366   0.13685   0.15767   0.16072   0.16298
 Alpha virt. eigenvalues --    0.16810   0.18001   0.19762   0.23051   0.25187
 Alpha virt. eigenvalues --    0.27059   0.32099   0.35829   0.37244   0.39079
 Alpha virt. eigenvalues --    0.45898   0.48935   0.49164   0.53628   0.54356
 Alpha virt. eigenvalues --    0.54444   0.57385   0.58454   0.59653   0.60937
 Alpha virt. eigenvalues --    0.62466   0.64833   0.67178   0.69108   0.69583
 Alpha virt. eigenvalues --    0.71233   0.74410   0.75949   0.76690   0.81678
 Alpha virt. eigenvalues --    0.81847   0.82507   0.84702   0.85721   0.87012
 Alpha virt. eigenvalues --    0.87325   0.89043   0.91993   0.92248   0.94681
 Alpha virt. eigenvalues --    0.96244   0.99894   1.01817   1.03501   1.04686
 Alpha virt. eigenvalues --    1.08862   1.13032   1.17718   1.24044   1.27674
 Alpha virt. eigenvalues --    1.28750   1.32995   1.34508   1.35256   1.37173
 Alpha virt. eigenvalues --    1.40152   1.45198   1.47378   1.52405   1.53636
 Alpha virt. eigenvalues --    1.58502   1.69722   1.75667   1.78143   1.83412
 Alpha virt. eigenvalues --    1.85891   1.87398   1.90121   1.91839   1.94084
 Alpha virt. eigenvalues --    1.94821   1.95805   2.01904   2.04087   2.09068
 Alpha virt. eigenvalues --    2.12268   2.13546   2.15544   2.21655   2.21849
 Alpha virt. eigenvalues --    2.24494   2.25630   2.28647   2.28889   2.30645
 Alpha virt. eigenvalues --    2.34904   2.43944   2.45061   2.47374   2.54591
 Alpha virt. eigenvalues --    2.56627   2.65968   2.68635   2.74666   2.77746
 Alpha virt. eigenvalues --    2.81887   2.91107   2.97429   3.08116   3.14177
 Alpha virt. eigenvalues --    3.23022   3.96582   3.98527   4.12731   4.15329
 Alpha virt. eigenvalues --    4.22165   4.25881   4.41710   4.44243   4.64871
          Condensed to atoms (all electrons):
              1          2          3          4          5          6
     1  C    4.984489   0.287421  -0.041691   0.007222   0.005122  -0.049840
     2  N    0.287421   6.636868   0.388269  -0.059656  -0.034061   0.356918
     3  C   -0.041691   0.388269   4.892899   0.554371  -0.029451  -0.122836
     4  C    0.007222  -0.059656   0.554371   5.044635   0.500568  -0.090218
     5  C    0.005122  -0.034061  -0.029451   0.500568   5.029452   0.479617
     6  C   -0.049840   0.356918  -0.122836  -0.090218   0.479617   5.054223
     7  C   -0.000070   0.005847   0.006711  -0.046260   0.293690  -0.043862
     8  O    0.000003   0.000382  -0.000095   0.003981  -0.088982   0.003373
     9  C    0.000003  -0.000060  -0.000261  -0.008570  -0.136113   0.010620
    10  H    0.377613  -0.030667  -0.001609  -0.000146  -0.000041   0.003168
    11  H    0.377384  -0.040864   0.001293  -0.000080   0.000115  -0.000986
    12  H    0.377537  -0.042493   0.001006  -0.000096  -0.000104  -0.000755
    13  H   -0.003374  -0.048343   0.365329  -0.030870   0.001084   0.006534
    14  H   -0.000148   0.003678  -0.046641   0.358954  -0.032509   0.009100
    15  H   -0.000878  -0.053082   0.005155   0.005753  -0.032322   0.367456
    16  H   -0.000000  -0.000014   0.000068   0.002065   0.005200  -0.000294
    17  H   -0.000000   0.000003   0.000005   0.000572   0.001621  -0.000250
    18  H   -0.000000   0.000001   0.000004   0.000021   0.005433  -0.000169
              7          8          9         10         11         12
     1  C   -0.000070   0.000003   0.000003   0.377613   0.377384   0.377537
     2  N    0.005847   0.000382  -0.000060  -0.030667  -0.040864  -0.042493
     3  C    0.006711  -0.000095  -0.000261  -0.001609   0.001293   0.001006
     4  C   -0.046260   0.003981  -0.008570  -0.000146  -0.000080  -0.000096
     5  C    0.293690  -0.088982  -0.136113  -0.000041   0.000115  -0.000104
     6  C   -0.043862   0.003373   0.010620   0.003168  -0.000986  -0.000755
     7  C    4.554903   0.584149   0.322851   0.000003   0.000005  -0.000002
     8  O    0.584149   8.066720  -0.098498   0.000000  -0.000000  -0.000000
     9  C    0.322851  -0.098498   5.395814  -0.000000  -0.000000   0.000000
    10  H    0.000003   0.000000  -0.000000   0.525207  -0.025519  -0.026191
    11  H    0.000005  -0.000000  -0.000000  -0.025519   0.541483  -0.035062
    12  H   -0.000002  -0.000000   0.000000  -0.026191  -0.035062   0.543726
    13  H   -0.000103   0.000001   0.000003   0.004643   0.000013   0.000047
    14  H   -0.008211  -0.000019   0.003769  -0.000013   0.000004   0.000005
    15  H   -0.004657   0.005624   0.000189  -0.000017   0.001425   0.001171
    16  H   -0.020223   0.003016   0.338263   0.000000   0.000000  -0.000000
    17  H   -0.017077   0.000162   0.354011   0.000000   0.000000  -0.000000
    18  H   -0.019515   0.005095   0.351500   0.000000  -0.000000   0.000000
             13         14         15         16         17         18
     1  C   -0.003374  -0.000148  -0.000878  -0.000000  -0.000000  -0.000000
     2  N   -0.048343   0.003678  -0.053082  -0.000014   0.000003   0.000001
     3  C    0.365329  -0.046641   0.005155   0.000068   0.000005   0.000004
     4  C   -0.030870   0.358954   0.005753   0.002065   0.000572   0.000021
     5  C    0.001084  -0.032509  -0.032322   0.005200   0.001621   0.005433
     6  C    0.006534   0.009100   0.367456  -0.000294  -0.000250  -0.000169
     7  C   -0.000103  -0.008211  -0.004657  -0.020223  -0.017077  -0.019515
     8  O    0.000001  -0.000019   0.005624   0.003016   0.000162   0.005095
     9  C    0.000003   0.003769   0.000189   0.338263   0.354011   0.351500
    10  H    0.004643  -0.000013  -0.000017   0.000000   0.000000   0.000000
    11  H    0.000013   0.000004   0.001425   0.000000   0.000000  -0.000000
    12  H    0.000047   0.000005   0.001171  -0.000000  -0.000000   0.000000
    13  H    0.557918  -0.000933  -0.000109  -0.000003  -0.000000  -0.000000
    14  H   -0.000933   0.582718  -0.000115   0.002204   0.000201  -0.000066
    15  H   -0.000109  -0.000115   0.538339  -0.000011  -0.000005  -0.000001
    16  H   -0.000003   0.002204  -0.000011   0.565738  -0.024967  -0.026747
    17  H   -0.000000   0.000201  -0.000005  -0.024967   0.531136  -0.019652
    18  H   -0.000000  -0.000066  -0.000001  -0.026747  -0.019652   0.529444
 Mulliken atomic charges:
              1
     1  C   -0.320793
     2  N   -0.370145
     3  C    0.027475
     4  C   -0.242247
     5  C    0.031681
     6  C    0.018200
     7  C    0.391822
     8  O   -0.484912
     9  C   -0.533521
    10  H    0.173571
    11  H    0.180789
    12  H    0.181212
    13  H    0.148164
    14  H    0.128021
    15  H    0.166083
    16  H    0.155705
    17  H    0.174241
    18  H    0.174653
 Sum of Mulliken atomic charges =  -0.00000
 Mulliken charges with hydrogens summed into heavy atoms:
              1
     1  C    0.214779
     2  N   -0.370145
     3  C    0.175639
     4  C   -0.114225
     5  C    0.031681
     6  C    0.184283
     7  C    0.391822
     8  O   -0.484912
     9  C   -0.028923
 Sum of Mulliken charges with hydrogens summed into heavy atoms =  -0.00000
 Electronic spatial extent (au):  <R**2>=           1371.9934
 Charge=             -0.0000 electrons
 Dipole moment (field-independent basis, Debye):
    X=             -4.0482    Y=              1.9268    Z=              0.1852  Tot=              4.4872
 Quadrupole moment (field-independent basis, Debye-Ang):
   XX=            -45.1009   YY=            -53.5402   ZZ=            -54.1817
   XY=              7.8134   XZ=              0.0337   YZ=             -0.5202
 Traceless Quadrupole moment (field-independent basis, Debye-Ang):
   XX=              5.8400   YY=             -2.5993   ZZ=             -3.2407
   XY=              7.8134   XZ=              0.0337   YZ=             -0.5202
 Octapole moment (field-independent basis, Debye-Ang**2):
  XXX=            -32.6467  YYY=              2.5031  ZZZ=             -0.3572  XYY=            -15.1540
  XXY=             11.5450  XXZ=              1.1990  XZZ=              3.3015  YZZ=             -4.4796
  YYZ=              0.3274  XYZ=             -0.9331
 Hexadecapole moment (field-independent basis, Debye-Ang**3):
 XXXX=          -1257.7156 YYYY=           -364.2489 ZZZZ=            -67.0296 XXXY=             20.7419
 XXXZ=              0.8810 YYYX=              7.8388 YYYZ=             -1.0157 ZZZX=             -2.4981
 ZZZY=              0.0703 XXYY=           -298.2591 XXZZ=           -232.0561 YYZZ=            -75.0125
 XXYZ=             -3.3770 YYXZ=              0.2487 ZZXY=              2.4627
 N-N= 4.237905698867D+02 E-N=-1.782538849701D+03  KE= 3.984123810080D+02
 No NMR shielding tensors so no spin-rotation constants.
 Leave Link  601 at Mon Oct  4 08:15:52 2021, MaxMem=  805306368 cpu:       0.8
 (Enter /sw/target/amd/app/gaussian/Gaussian09RevA.02_gcc-4.9.2/g09/l701.exe)
 Compute integral first derivatives.
 ... and contract with generalized density number  0.
 Leave Link  701 at Mon Oct  4 08:15:53 2021, MaxMem=  805306368 cpu:       0.9
 (Enter /sw/target/amd/app/gaussian/Gaussian09RevA.02_gcc-4.9.2/g09/l702.exe)
 L702 exits ... SP integral derivatives will be done elsewhere.
 Leave Link  702 at Mon Oct  4 08:15:54 2021, MaxMem=  805306368 cpu:       0.1
 (Enter /sw/target/amd/app/gaussian/Gaussian09RevA.02_gcc-4.9.2/g09/l703.exe)
 Compute integral first derivatives, UseDBF=F ICtDFT=           0.
 Integral derivatives from FoFDir, PRISM(SPDF).
 Calling FoFJK, ICntrl=      2127 FMM=F ISym2X=0 I1Cent= 0 IOpClX= 0 NMat=1 NMatS=1 NMatT=0.
 FoFCou: FMM=F IPFlag=           0 FMFlag=      100000 FMFlg1=         800
         NFxFlg=           0 DoJE=F BraDBF=F KetDBF=F FulRan=T
         Omega=  0.000000  0.000000  1.000000  0.000000  0.000000 ICntrl=    2127 IOpCl=  0
         NMat0=    1 NMatS0=    1 NMatT0=    0 NMatD0=    1 NMtDS0=    0 NMtDT0=    0
         I1Cent=           0 NGrid=           0.
 Symmetry not used in FoFCou.
 Leave Link  703 at Mon Oct  4 08:17:05 2021, MaxMem=  805306368 cpu:      26.6
 (Enter /sw/target/amd/app/gaussian/Gaussian09RevA.02_gcc-4.9.2/g09/l716.exe)
 Dipole        =-1.59268418D+00 7.58058486D-01 7.28709730D-02
 ***** Axes restored to original set *****
 -------------------------------------------------------------------
 Center     Atomic                   Forces (Hartrees/Bohr)
 Number     Number              X              Y              Z
 -------------------------------------------------------------------
      1        6          -0.001074210    0.002685647   -0.000559804
      2        7          -0.002585132    0.008835333   -0.000099557
      3        6          -0.012886295   -0.005095933    0.001300955
      4        6          -0.001081055   -0.010666960    0.001890457
      5        6           0.002307595   -0.003677147   -0.001506629
      6        6           0.007785323    0.002493616    0.000456088
      7        6           0.001803204    0.016421982   -0.004397410
      8        8           0.001586588   -0.007224473    0.001984055
      9        6          -0.002879721    0.000586807    0.009369460
     10        1           0.000262607    0.001482305   -0.000334098
     11        1           0.005383005   -0.000205243   -0.001520737
     12        1           0.006380244   -0.000003520    0.000258365
     13        1           0.000212358    0.001483998   -0.000106054
     14        1          -0.000187585    0.001007449    0.000027249
     15        1          -0.001560364   -0.001784799    0.000567656
     16        1          -0.001530244   -0.004281838   -0.002607159
     17        1          -0.002160336   -0.002984671   -0.000842864
     18        1           0.000224020    0.000927449   -0.003879973
 -------------------------------------------------------------------
 Cartesian Forces:  Max     0.016421982 RMS     0.004477585
 Leave Link  716 at Mon Oct  4 08:17:06 2021, MaxMem=  805306368 cpu:       0.1
 (Enter /sw/target/amd/app/gaussian/Gaussian09RevA.02_gcc-4.9.2/g09/l103.exe)

 GradGradGradGradGradGradGradGradGradGradGradGradGradGradGradGradGradGrad
 Berny optimization.
 Internal  Forces:  Max     0.013407365 RMS     0.003260942
 Search for a local minimum.
 Step number   1 out of a maximum of   94
 All quantities printed in internal units (Hartrees-Bohrs-Radians)
 RMS Force = .32609D-02 SwitMx=.10000D-02 MixMth= 1
 Mixed Optimization -- RFO/linear search
 Second derivative matrix not updated -- first step.
     Eigenvalues ---    0.00661   0.00903   0.01099   0.01251   0.01643
     Eigenvalues ---    0.01748   0.01986   0.02085   0.02177   0.02216
     Eigenvalues ---    0.02271   0.07266   0.07498   0.07802   0.07912
     Eigenvalues ---    0.15997   0.16000   0.16000   0.16000   0.16000
     Eigenvalues ---    0.16000   0.16000   0.16000   0.16000   0.22801
     Eigenvalues ---    0.23558   0.24994   0.24998   0.24999   0.25000
     Eigenvalues ---    0.31560   0.34317   0.34447   0.34460   0.34486
     Eigenvalues ---    0.34496   0.34497   0.35575   0.35696   0.35698
     Eigenvalues ---    0.36549   0.38937   0.39138   0.43052   0.47652
     Eigenvalues ---    0.49499   0.50923   0.899931000.000001000.00000
     Eigenvalues --- 1000.000001000.000001000.000001000.000001000.00000
     Eigenvalues --- 1000.000001000.000001000.000001000.000001000.00000
     Eigenvalues --- 1000.000001000.000001000.000001000.000001000.00000
     Eigenvalues --- 1000.000001000.000001000.000001000.000001000.00000
     Eigenvalues --- 1000.000001000.000001000.000001000.000001000.00000
     Eigenvalues --- 1000.000001000.000001000.000001000.000001000.00000
     Eigenvalues --- 1000.000001000.000001000.000001000.00000
 RFO step:  Lambda=-3.74581598D-03 EMin= 6.61142569D-03
 Linear search not attempted -- first point.
 Iteration  1 RMS(Cart)=  0.04601845 RMS(Int)=  0.00088335
 Iteration  2 RMS(Cart)=  0.00126034 RMS(Int)=  0.00027539
 Iteration  3 RMS(Cart)=  0.00000053 RMS(Int)=  0.00027539
 Variable       Old X    -DE/DX   Delta X   Delta X   Delta X     New X
                                 (Linear)    (Quad)   (Total)
    R1        2.73023   0.01118   0.00000   0.02845   0.02845   2.75868
    R2        2.06517  -0.00130   0.00000  -0.00372  -0.00372   2.06145
    R3        2.06582   0.00065   0.00000   0.00187   0.00187   2.06769
    R4        2.06501   0.00130   0.00000   0.00374   0.00374   2.06875
    R5        2.58337   0.01341   0.00000   0.02600   0.02604   2.60940
    R6        2.58442  -0.00433   0.00000  -0.00831  -0.00832   2.57610
    R7        2.60581  -0.00354   0.00000  -0.00705  -0.00702   2.59879
    R8        2.04559  -0.00126   0.00000  -0.00350  -0.00350   2.04209
    R9        2.69497   0.00419   0.00000   0.00984   0.00983   2.70480
   R10        2.04557  -0.00048   0.00000  -0.00134  -0.00134   2.04423
   R11        2.61827   0.00518   0.00000   0.01053   0.01048   2.62875
   R12        2.76532   0.00440   0.00000   0.01193   0.01193   2.77725
   R13        2.04751  -0.00227   0.00000  -0.00630  -0.00630   2.04120
   R14        2.32936  -0.00718   0.00000  -0.00795  -0.00795   2.32141
   R15        2.84956   0.00835   0.00000   0.02615   0.02615   2.87571
   R16        2.06561   0.00154   0.00000   0.00442   0.00442   2.07003
   R17        2.06500   0.00249   0.00000   0.00715   0.00715   2.07215
   R18        2.06799  -0.00110   0.00000  -0.00318  -0.00318   2.06481
    A1        1.91261  -0.00177   0.00000  -0.01379  -0.01368   1.89893
    A2        1.89103   0.00699   0.00000   0.04407   0.04333   1.93436
    A3        1.89082   0.00816   0.00000   0.05140   0.05066   1.94148
    A4        1.91693  -0.00328   0.00000  -0.02329  -0.02317   1.89375
    A5        1.92147  -0.00381   0.00000  -0.02620  -0.02608   1.89539
    A6        1.93049  -0.00596   0.00000  -0.03006  -0.03154   1.89895
    A7        2.19574   0.00112   0.00000   0.00406   0.00412   2.19986
    A8        2.17581   0.00124   0.00000   0.00456   0.00461   2.18042
    A9        1.91159  -0.00236   0.00000  -0.00862  -0.00873   1.90286
   A10        1.88100   0.00354   0.00000   0.01666   0.01658   1.89758
   A11        2.12033  -0.00260   0.00000  -0.01339  -0.01336   2.10696
   A12        2.28185  -0.00094   0.00000  -0.00324  -0.00321   2.27864
   A13        1.88485  -0.00431   0.00000  -0.01903  -0.01923   1.86563
   A14        2.17779   0.00308   0.00000   0.01522   0.01520   2.19298
   A15        2.22053   0.00123   0.00000   0.00391   0.00389   2.22443
   A16        1.84963   0.00399   0.00000   0.01547   0.01526   1.86489
   A17        2.26105  -0.00034   0.00000  -0.00123  -0.00113   2.25993
   A18        2.17249  -0.00365   0.00000  -0.01426  -0.01416   2.15833
   A19        1.89748  -0.00084   0.00000  -0.00358  -0.00393   1.89356
   A20        2.11737   0.00125   0.00000   0.00702   0.00696   2.12433
   A21        2.26822  -0.00039   0.00000  -0.00300  -0.00305   2.26517
   A22        2.12025  -0.00188   0.00000  -0.00721  -0.00733   2.11292
   A23        2.06790  -0.00113   0.00000  -0.00425  -0.00437   2.06353
   A24        2.09479   0.00301   0.00000   0.01205   0.01193   2.10672
   A25        1.93687   0.00341   0.00000   0.02420   0.02405   1.96092
   A26        1.91379   0.00165   0.00000   0.00157   0.00157   1.91536
   A27        1.90594  -0.00147   0.00000  -0.00393  -0.00414   1.90180
   A28        1.92190  -0.00439   0.00000  -0.03620  -0.03616   1.88574
   A29        1.87729   0.00220   0.00000   0.03031   0.02997   1.90726
   A30        1.90748  -0.00145   0.00000  -0.01590  -0.01594   1.89155
    D1       -0.05614   0.00001   0.00000   0.00087   0.00081  -0.05533
    D2        3.07362  -0.00003   0.00000   0.00043   0.00049   3.07411
    D3       -2.14750   0.00082   0.00000   0.01074   0.01131  -2.13619
    D4        0.98225   0.00079   0.00000   0.01031   0.01099   0.99325
    D5        2.04062  -0.00073   0.00000  -0.00805  -0.00873   2.03188
    D6       -1.11282  -0.00077   0.00000  -0.00848  -0.00905  -1.12186
    D7        3.12103   0.00034   0.00000   0.01403   0.01420   3.13524
    D8       -0.01637   0.00016   0.00000   0.00736   0.00743  -0.00894
    D9       -0.01023   0.00036   0.00000   0.01435   0.01441   0.00418
   D10        3.13556   0.00017   0.00000   0.00768   0.00764  -3.13999
   D11       -3.11235  -0.00093   0.00000  -0.03573  -0.03558   3.13526
   D12        0.01513  -0.00021   0.00000  -0.00629  -0.00600   0.00913
   D13        0.01906  -0.00094   0.00000  -0.03604  -0.03578  -0.01672
   D14       -3.13665  -0.00022   0.00000  -0.00660  -0.00620   3.14033
   D15       -0.00225   0.00029   0.00000   0.01200   0.01184   0.00959
   D16       -3.13929  -0.00028   0.00000  -0.00997  -0.01010   3.13379
   D17        3.13462   0.00049   0.00000   0.01949   0.01948  -3.12908
   D18       -0.00242  -0.00007   0.00000  -0.00249  -0.00246  -0.00488
   D19        0.01350  -0.00082   0.00000  -0.03306  -0.03297  -0.01947
   D20       -3.12268  -0.00073   0.00000  -0.02888  -0.02864   3.13187
   D21       -3.13279  -0.00023   0.00000  -0.01036  -0.01048   3.13991
   D22        0.01422  -0.00014   0.00000  -0.00618  -0.00615   0.00807
   D23       -0.01973   0.00099   0.00000   0.04168   0.04197   0.02224
   D24        3.13760   0.00017   0.00000   0.00876   0.00912  -3.13647
   D25        3.11679   0.00092   0.00000   0.03781   0.03800  -3.12839
   D26       -0.00906   0.00010   0.00000   0.00489   0.00515  -0.00392
   D27       -3.04007  -0.00092   0.00000  -0.05857  -0.05853  -3.09860
   D28        0.07793  -0.00052   0.00000  -0.02969  -0.02985   0.04809
   D29        0.10784  -0.00084   0.00000  -0.05379  -0.05364   0.05420
   D30       -3.05734  -0.00043   0.00000  -0.02491  -0.02495  -3.08229
   D31        0.68457  -0.00185   0.00000  -0.00909  -0.00931   0.67525
   D32       -1.44250   0.00032   0.00000   0.01943   0.01940  -1.42310
   D33        2.75110   0.00199   0.00000   0.04031   0.04036   2.79146
   D34       -2.48026  -0.00152   0.00000   0.01909   0.01900  -2.46126
   D35        1.67586   0.00065   0.00000   0.04761   0.04771   1.72357
   D36       -0.41373   0.00233   0.00000   0.06849   0.06868  -0.34506
         Item               Value     Threshold  Converged?
 Maximum Force            0.013407     0.000450     NO 
 RMS     Force            0.003261     0.000300     NO 
 Maximum Displacement     0.158012     0.001800     NO 
 RMS     Displacement     0.046036     0.001200     NO 
 Predicted change in Energy=-1.955843D-03
 GradGradGradGradGradGradGradGradGradGradGradGradGradGradGradGradGradGrad

 Leave Link  103 at Mon Oct  4 08:17:13 2021, MaxMem=  805306368 cpu:       2.5
 (Enter /sw/target/amd/app/gaussian/Gaussian09RevA.02_gcc-4.9.2/g09/l202.exe)
                          Input orientation:                          
 ---------------------------------------------------------------------
 Center     Atomic      Atomic             Coordinates (Angstroms)
 Number     Number       Type             X           Y           Z
 ---------------------------------------------------------------------
      1          6           0        2.146178    0.033064   -0.184185
      2          7           0        0.694629   -0.004300   -0.033468
      3          6           0       -0.084033   -1.141221    0.054890
      4          6           0       -1.399282   -0.765530    0.197027
      5          6           0       -1.426987    0.665444    0.182409
      6          6           0       -0.109281    1.092992    0.056145
      7          6           0       -2.573316    1.579058    0.287937
      8          8           0       -2.423040    2.795924    0.212350
      9          6           0       -3.955272    0.978482    0.500680
     10          1           0        2.528597   -0.988283   -0.159549
     11          1           0        2.607771    0.596492    0.632332
     12          1           0        2.434411    0.490933   -1.135880
     13          1           0        0.364979   -2.122960    0.006595
     14          1           0       -2.241438   -1.438892    0.283970
     15          1           0        0.290930    2.095285    0.011604
     16          1           0       -3.936233    0.120057    1.180885
     17          1           0       -4.364765    0.642156   -0.459315
     18          1           0       -4.617441    1.746520    0.907545
 ---------------------------------------------------------------------
                    Distance matrix (angstroms):
                    1          2          3          4          5
     1  C    0.000000
     2  N    1.459831   0.000000
     3  C    2.531787   1.380837   0.000000
     4  C    3.654225   2.239880   1.375218   0.000000
     5  C    3.647164   2.235266   2.254733   1.431317   0.000000
     6  C    2.503657   1.363213   2.234356   2.266728   1.391075
     7  C    4.988649   3.645516   3.694693   2.623683   1.469659
     8  O    5.354287   4.197802   4.582233   3.705708   2.352013
     9  C    6.212129   4.782546   4.436029   3.109159   2.567394
    10  H    1.090871   2.085080   2.625873   3.950316   4.300975
    11  H    1.094176   2.112901   3.255594   4.254535   4.060351
    12  H    1.094735   2.118350   3.228687   4.248828   4.083960
    13  H    2.803124   2.144527   1.080628   2.234166   3.319224
    14  H    4.651559   3.283186   2.189859   1.081758   2.258733
    15  H    2.780833   2.138518   3.258441   3.327982   2.241619
    16  H    6.234317   4.789050   4.206915   2.861531   2.755126
    17  H    6.545157   5.118273   4.665781   3.347605   3.007141
    18  H    7.062178   5.671769   5.442229   4.143885   3.445802
                    6          7          8          9         10
     6  C    0.000000
     7  C    2.522193   0.000000
     8  O    2.877127   1.228438   0.000000
     9  C    3.873290   1.521759   2.394570   0.000000
    10  H    3.366991   5.728961   6.243175   6.807688   0.000000
    11  H    2.821502   5.284667   5.506627   6.575468   1.773374
    12  H    2.872936   5.318703   5.543062   6.613930   1.774873
    13  H    3.251111   4.734730   5.657809   5.341126   2.448742
    14  H    3.317896   3.036145   4.239313   2.971176   4.811755
    15  H    1.080159   2.923484   2.810129   4.417768   3.813769
    16  H    4.105753   2.187140   3.223055   1.095415   6.694715
    17  H    4.310232   2.155333   2.976600   1.096536   7.089897
    18  H    4.634166   2.142523   2.529811   1.092653   7.725522
                   11         12         13         14         15
    11  H    0.000000
    12  H    1.779824   0.000000
    13  H    3.580095   3.524234   0.000000
    14  H    5.270576   5.253928   2.708929   0.000000
    15  H    2.828327   2.912932   4.218897   4.356314   0.000000
    16  H    6.584215   6.788965   4.991043   2.471257   4.810161
    17  H    7.057623   6.834428   5.498493   3.064597   4.899882
    18  H    7.321338   7.448537   6.372527   4.022573   5.001645
                   16         17         18
    16  H    0.000000
    17  H    1.773833   0.000000
    18  H    1.784417   1.775323   0.000000
 Stoichiometry    C7H9NO
 Framework group  C1[X(C7H9NO)]
 Deg. of freedom    48
 Full point group                 C1      NOp   1
 Largest Abelian subgroup         C1      NOp   1
 Largest concise Abelian subgroup C1      NOp   1
                         Standard orientation:                         
 ---------------------------------------------------------------------
 Center     Atomic      Atomic             Coordinates (Angstroms)
 Number     Number       Type             X           Y           Z
 ---------------------------------------------------------------------
      1          6           0        3.142933   -0.640293   -0.012941
      2          7           0        1.796786   -0.075614   -0.001427
      3          6           0        1.479558    1.268101    0.021088
      4          6           0        0.110551    1.398607    0.017258
      5          6           0       -0.433409    0.074746    0.004356
      6          6           0        0.644655   -0.803893   -0.024972
      7          6           0       -1.837719   -0.358620    0.006767
      8          8           0       -2.133152   -1.550559    0.039332
      9          6           0       -2.920740    0.709425   -0.039044
     10          1           0        3.865938    0.175328   -0.057938
     11          1           0        3.288294   -1.281839   -0.887304
     12          1           0        3.334526   -1.227219    0.891081
     13          1           0        2.256854    2.018565    0.040352
     14          1           0       -0.433737    2.333223    0.038320
     15          1           0        0.655836   -1.883783   -0.046316
     16          1           0       -2.656194    1.542944   -0.698738
     17          1           0       -3.086610    1.112140    0.967285
     18          1           0       -3.852173    0.255982   -0.386480
 ---------------------------------------------------------------------
 Rotational constants (GHZ):      4.0630133      1.0285825      0.8295490
 Leave Link  202 at Mon Oct  4 08:17:13 2021, MaxMem=  805306368 cpu:       0.0
 (Enter /sw/target/amd/app/gaussian/Gaussian09RevA.02_gcc-4.9.2/g09/l301.exe)
 Standard basis: 6-31G(d) (6D, 7F)
 Ernie: Thresh=  0.10000D-02 Tol=  0.10000D-05 Strict=F.
 There are   153 symmetry adapted basis functions of A   symmetry.
 Integral buffers will be    131072 words long.
 Raffenetti 2 integral format.
 Two-electron integral symmetry is turned on.
   153 basis functions,   288 primitive gaussians,   153 cartesian basis functions
    33 alpha electrons       33 beta electrons
       nuclear repulsion energy       422.5195300322 Hartrees.
 IExCor=  402 DFT=T Ex+Corr=B3LYP ExCW=0 ScaHFX=  0.200000
 ScaDFX=  0.800000  0.720000  1.000000  0.810000 ScalE2=  1.000000  1.000000
 IRadAn=      0 IRanWt=     -1 IRanGd=            0 ICorTp=0
 NAtoms=   18 NActive=   18 NUniq=   18 SFac= 7.50D-01 NAtFMM=   80 NAOKFM=F Big=F
 Leave Link  301 at Mon Oct  4 08:17:13 2021, MaxMem=  805306368 cpu:       0.1
 (Enter /sw/target/amd/app/gaussian/Gaussian09RevA.02_gcc-4.9.2/g09/l302.exe)
 NPDir=0 NMtPBC=     1 NCelOv=     1 NCel=       1 NClECP=     1 NCelD=      1
         NCelK=      1 NCelE2=     1 NClLst=     1 CellRange=     0.0.
 One-electron integrals computed using PRISM.
 NBasis=   153 RedAO= T  NBF=   153
 NBsUse=   153 1.00D-06 NBFU=   153
 Precomputing XC quadrature grid using
 IXCGrd= 2 IRadAn=           0 IRanWt=          -1 IRanGd=           0 AccXCQ= 1.00D-10.
 NRdTot=    1129 NPtTot=      143590 NUsed=      151740 NTot=      151772
 NSgBfM=   152   153   153   153   153 NAtAll=    18    18.
 Leave Link  302 at Mon Oct  4 08:17:16 2021, MaxMem=  805306368 cpu:       1.1
 (Enter /sw/target/amd/app/gaussian/Gaussian09RevA.02_gcc-4.9.2/g09/l303.exe)
 DipDrv:  MaxL=1.
 Leave Link  303 at Mon Oct  4 08:17:17 2021, MaxMem=  805306368 cpu:       0.1
 (Enter /sw/target/amd/app/gaussian/Gaussian09RevA.02_gcc-4.9.2/g09/l401.exe)
 Initial guess read from the read-write file.
 B after Tr=     0.000000    0.000000    0.000000
         Rot=    1.000000    0.000000    0.000000    0.000000 Ang=   0.00 deg.
 Guess basis will be translated and rotated to current coordinates.
 Initial guess orbital symmetries:
       Occupied  (A) (A) (A) (A) (A) (A) (A) (A) (A) (A) (A) (A)
                 (A) (A) (A) (A) (A) (A) (A) (A) (A) (A) (A) (A)
                 (A) (A) (A) (A) (A) (A) (A) (A) (A)
       Virtual   (A) (A) (A) (A) (A) (A) (A) (A) (A) (A) (A) (A)
                 (A) (A) (A) (A) (A) (A) (A) (A) (A) (A) (A) (A)
                 (A) (A) (A) (A) (A) (A) (A) (A) (A) (A) (A) (A)
                 (A) (A) (A) (A) (A) (A) (A) (A) (A) (A) (A) (A)
                 (A) (A) (A) (A) (A) (A) (A) (A) (A) (A) (A) (A)
                 (A) (A) (A) (A) (A) (A) (A) (A) (A) (A) (A) (A)
                 (A) (A) (A) (A) (A) (A) (A) (A) (A) (A) (A) (A)
                 (A) (A) (A) (A) (A) (A) (A) (A) (A) (A) (A) (A)
                 (A) (A) (A) (A) (A) (A) (A) (A) (A) (A) (A) (A)
                 (A) (A) (A) (A) (A) (A) (A) (A) (A) (A) (A) (A)
 The electronic state of the initial guess is 1-A.
 Generating alternative initial guess.
 Harris functional with IExCor=  402 diagonalized for initial guess.
 ExpMin= 1.61D-01 ExpMax= 5.48D+03 ExpMxC= 8.25D+02 IAcc=1 IRadAn=         1 AccDes= 0.00D+00
 HarFok:  IExCor=  402 AccDes= 0.00D+00 IRadAn=         1 IDoV= 1
 ScaDFX=  1.000000  1.000000  1.000000  1.000000
 FoFCou: FMM=F IPFlag=           0 FMFlag=      100000 FMFlg1=           0
         NFxFlg=           0 DoJE=T BraDBF=F KetDBF=T FulRan=T
         Omega=  0.000000  0.000000  1.000000  0.000000  0.000000 ICntrl=     500 IOpCl=  0
         NMat0=    1 NMatS0=    1 NMatT0=    0 NMatD0=    1 NMtDS0=    0 NMtDT0=    0
         I1Cent=           4 NGrid=           0.
 Petite list used in FoFCou.
 Harris En= -402.202150743946    
 Leave Link  401 at Mon Oct  4 08:17:28 2021, MaxMem=  805306368 cpu:       4.7
 (Enter /sw/target/amd/app/gaussian/Gaussian09RevA.02_gcc-4.9.2/g09/l502.exe)
 Closed shell SCF:
 Requested convergence on RMS density matrix=1.00D-08 within  64 cycles.
 Requested convergence on MAX density matrix=1.00D-06.
 Requested convergence on             energy=1.00D-06.
 No special actions if energy rises.
 Using DIIS extrapolation, IDIIS=  1040.
 Integral symmetry usage will be decided dynamically.
       151565 words used for storage of precomputed grid.
 Keep R1 ints in memory in canonical form, NReq=71457349.
 IEnd=      229409 IEndB=      229409 NGot=   805306368 MDV=   735702847
 LenX=   735702847 LenY=   735678997
 Symmetry not used in FoFDir.
 MinBra= 0 MaxBra= 2 Meth= 1.
 IRaf=       0 NMat=   1 IRICut=       1 DoRegI=T DoRafI=F ISym2E= 0 JSym2E=0.
 Integral accuracy reduced to 1.0D-05 until final iterations.

 Cycle   1  Pass 0  IDiag  1:
 E= -392.998534842274    
 DIIS: error= 6.55D-02 at cycle   1 NSaved=   1.
 NSaved= 1 IEnMin= 1 EnMin= -392.998534842274     IErMin= 1 ErrMin= 6.55D-02
 ErrMax= 6.55D-02 EMaxC= 1.00D-01 BMatC= 2.25D+00 BMatP= 2.25D+00
 IDIUse=3 WtCom= 3.45D-01 WtEn= 6.55D-01
 Coeff-Com:  0.100D+01
 Coeff-En:   0.100D+01
 Coeff:      0.100D+01
 Recover alternate guess density for next cycle.
 RMSDP=3.06D-02 MaxDP=6.15D-01              OVMax= 0.00D+00

 Cycle   2  Pass 0  IDiag  1:
 E= -401.872274409652     Delta-E=       -8.873739567378 Rises=F Damp=F
 DIIS: error= 4.20D-02 at cycle   2 NSaved=   2.
 NSaved= 2 IEnMin= 2 EnMin= -401.872274409652     IErMin= 2 ErrMin= 4.20D-02
 ErrMax= 4.20D-02 EMaxC= 1.00D-01 BMatC= 2.58D-01 BMatP= 2.25D+00
 IDIUse=3 WtCom= 5.80D-01 WtEn= 4.20D-01
 Coeff-Com:  0.967D-01 0.903D+00
 Coeff-En:   0.000D+00 0.100D+01
 Coeff:      0.560D-01 0.944D+00
 Gap=     0.179 Goal=   None    Shift=    0.000
 RMSDP=8.07D-03 MaxDP=1.88D-01 DE=-8.87D+00 OVMax= 2.36D-01

 Cycle   3  Pass 0  IDiag  1:
 E= -401.787810438181     Delta-E=        0.084463971470 Rises=F Damp=F
 DIIS: error= 5.01D-02 at cycle   3 NSaved=   3.
 NSaved= 3 IEnMin= 2 EnMin= -401.872274409652     IErMin= 2 ErrMin= 4.20D-02
 ErrMax= 5.01D-02 EMaxC= 1.00D-01 BMatC= 3.79D-01 BMatP= 2.58D-01
 IDIUse=2 WtCom= 0.00D+00 WtEn= 1.00D+00
 Coeff-En:   0.000D+00 0.568D+00 0.432D+00
 Coeff:      0.000D+00 0.568D+00 0.432D+00
 Gap=     0.220 Goal=   None    Shift=    0.000
 RMSDP=5.04D-03 MaxDP=1.33D-01 DE= 8.45D-02 OVMax= 1.78D-01

 Cycle   4  Pass 0  IDiag  1:
 E= -402.115552695330     Delta-E=       -0.327742257149 Rises=F Damp=F
 DIIS: error= 1.20D-02 at cycle   4 NSaved=   4.
 NSaved= 4 IEnMin= 4 EnMin= -402.115552695330     IErMin= 4 ErrMin= 1.20D-02
 ErrMax= 1.20D-02 EMaxC= 1.00D-01 BMatC= 1.67D-02 BMatP= 2.58D-01
 IDIUse=3 WtCom= 8.80D-01 WtEn= 1.20D-01
 Coeff-Com:  0.275D-02 0.263D+00 0.236D+00 0.499D+00
 Coeff-En:   0.000D+00 0.000D+00 0.000D+00 0.100D+01
 Coeff:      0.242D-02 0.231D+00 0.207D+00 0.559D+00
 Gap=     0.201 Goal=   None    Shift=    0.000
 RMSDP=1.29D-03 MaxDP=4.62D-02 DE=-3.28D-01 OVMax= 5.92D-02

 Cycle   5  Pass 0  IDiag  1:
 E= -402.124975507535     Delta-E=       -0.009422812204 Rises=F Damp=F
 DIIS: error= 7.64D-03 at cycle   5 NSaved=   5.
 NSaved= 5 IEnMin= 5 EnMin= -402.124975507535     IErMin= 5 ErrMin= 7.64D-03
 ErrMax= 7.64D-03 EMaxC= 1.00D-01 BMatC= 6.39D-03 BMatP= 1.67D-02
 IDIUse=3 WtCom= 9.24D-01 WtEn= 7.64D-02
 Coeff-Com:  0.390D-03 0.381D-01 0.258D-01 0.373D+00 0.563D+00
 Coeff-En:   0.000D+00 0.000D+00 0.000D+00 0.304D+00 0.696D+00
 Coeff:      0.361D-03 0.351D-01 0.239D-01 0.368D+00 0.573D+00
 Gap=     0.207 Goal=   None    Shift=    0.000
 RMSDP=6.03D-04 MaxDP=1.92D-02 DE=-9.42D-03 OVMax= 2.63D-02

 Cycle   6  Pass 0  IDiag  1:
 E= -402.129873701055     Delta-E=       -0.004898193521 Rises=F Damp=F
 DIIS: error= 1.38D-03 at cycle   6 NSaved=   6.
 NSaved= 6 IEnMin= 6 EnMin= -402.129873701055     IErMin= 6 ErrMin= 1.38D-03
 ErrMax= 1.38D-03 EMaxC= 1.00D-01 BMatC= 3.61D-04 BMatP= 6.39D-03
 IDIUse=3 WtCom= 9.86D-01 WtEn= 1.38D-02
 Coeff-Com: -0.146D-03 0.839D-02 0.180D-02 0.192D+00 0.345D+00 0.453D+00
 Coeff-En:   0.000D+00 0.000D+00 0.000D+00 0.000D+00 0.000D+00 0.100D+01
 Coeff:     -0.144D-03 0.828D-02 0.177D-02 0.190D+00 0.340D+00 0.460D+00
 Gap=     0.195 Goal=   None    Shift=    0.000
 RMSDP=1.58D-04 MaxDP=3.75D-03 DE=-4.90D-03 OVMax= 8.34D-03

 Cycle   7  Pass 0  IDiag  1:
 E= -402.130197216646     Delta-E=       -0.000323515590 Rises=F Damp=F
 DIIS: error= 4.46D-04 at cycle   7 NSaved=   7.
 NSaved= 7 IEnMin= 7 EnMin= -402.130197216646     IErMin= 7 ErrMin= 4.46D-04
 ErrMax= 4.46D-04 EMaxC= 1.00D-01 BMatC= 3.21D-05 BMatP= 3.61D-04
 IDIUse=3 WtCom= 9.96D-01 WtEn= 4.46D-03
 Coeff-Com:  0.166D-04 0.552D-03-0.202D-02 0.640D-01 0.124D+00 0.272D+00
 Coeff-Com:  0.542D+00
 Coeff-En:   0.000D+00 0.000D+00 0.000D+00 0.000D+00 0.000D+00 0.649D-01
 Coeff-En:   0.935D+00
 Coeff:      0.165D-04 0.550D-03-0.201D-02 0.637D-01 0.123D+00 0.271D+00
 Coeff:      0.544D+00
 Gap=     0.196 Goal=   None    Shift=    0.000
 RMSDP=4.43D-05 MaxDP=1.13D-03 DE=-3.24D-04 OVMax= 2.51D-03

 Cycle   8  Pass 0  IDiag  1:
 E= -402.130227970730     Delta-E=       -0.000030754085 Rises=F Damp=F
 DIIS: error= 1.03D-04 at cycle   8 NSaved=   8.
 NSaved= 8 IEnMin= 8 EnMin= -402.130227970730     IErMin= 8 ErrMin= 1.03D-04
 ErrMax= 1.03D-04 EMaxC= 1.00D-01 BMatC= 2.20D-06 BMatP= 3.21D-05
 IDIUse=3 WtCom= 9.99D-01 WtEn= 1.03D-03
 Coeff-Com: -0.201D-04-0.315D-03-0.143D-02 0.217D-01 0.429D-01 0.117D+00
 Coeff-Com:  0.307D+00 0.513D+00
 Coeff-En:   0.000D+00 0.000D+00 0.000D+00 0.000D+00 0.000D+00 0.000D+00
 Coeff-En:   0.000D+00 0.100D+01
 Coeff:     -0.201D-04-0.314D-03-0.143D-02 0.216D-01 0.428D-01 0.117D+00
 Coeff:      0.306D+00 0.514D+00
 Gap=     0.196 Goal=   None    Shift=    0.000
 RMSDP=1.10D-05 MaxDP=3.06D-04 DE=-3.08D-05 OVMax= 4.92D-04

 Cycle   9  Pass 0  IDiag  1:
 E= -402.130229935443     Delta-E=       -0.000001964713 Rises=F Damp=F
 DIIS: error= 1.71D-05 at cycle   9 NSaved=   9.
 NSaved= 9 IEnMin= 9 EnMin= -402.130229935443     IErMin= 9 ErrMin= 1.71D-05
 ErrMax= 1.71D-05 EMaxC= 1.00D-01 BMatC= 6.97D-08 BMatP= 2.20D-06
 IDIUse=1 WtCom= 1.00D+00 WtEn= 0.00D+00
 Coeff-Com:  0.386D-05-0.136D-03-0.502D-03 0.500D-02 0.937D-02 0.306D-01
 Coeff-Com:  0.977D-01 0.200D+00 0.658D+00
 Coeff:      0.386D-05-0.136D-03-0.502D-03 0.500D-02 0.937D-02 0.306D-01
 Coeff:      0.977D-01 0.200D+00 0.658D+00
 Gap=     0.196 Goal=   None    Shift=    0.000
 RMSDP=2.24D-06 MaxDP=6.96D-05 DE=-1.96D-06 OVMax= 9.80D-05

 Initial convergence to 1.0D-05 achieved.  Increase integral accuracy.
 Cycle  10  Pass 1  IDiag  1:
 E= -402.130261460982     Delta-E=       -0.000031525539 Rises=F Damp=F
 DIIS: error= 1.01D-05 at cycle   1 NSaved=   1.
 NSaved= 1 IEnMin= 1 EnMin= -402.130261460982     IErMin= 1 ErrMin= 1.01D-05
 ErrMax= 1.01D-05 EMaxC= 1.00D-01 BMatC= 4.15D-08 BMatP= 4.15D-08
 IDIUse=1 WtCom= 1.00D+00 WtEn= 0.00D+00
 Coeff-Com:  0.100D+01
 Coeff:      0.100D+01
 Gap=     0.196 Goal=   None    Shift=    0.000
 RMSDP=2.24D-06 MaxDP=6.96D-05 DE=-3.15D-05 OVMax= 1.26D-04

 Cycle  11  Pass 1  IDiag  1:
 E= -402.130261471765     Delta-E=       -0.000000010783 Rises=F Damp=F
 DIIS: error= 1.66D-05 at cycle   2 NSaved=   2.
 NSaved= 2 IEnMin= 2 EnMin= -402.130261471765     IErMin= 1 ErrMin= 1.01D-05
 ErrMax= 1.66D-05 EMaxC= 1.00D-01 BMatC= 4.51D-08 BMatP= 4.15D-08
 IDIUse=1 WtCom= 1.00D+00 WtEn= 0.00D+00
 Coeff-Com:  0.513D+00 0.487D+00
 Coeff:      0.513D+00 0.487D+00
 Gap=     0.196 Goal=   None    Shift=    0.000
 RMSDP=1.69D-06 MaxDP=6.05D-05 DE=-1.08D-08 OVMax= 1.02D-04

 Cycle  12  Pass 1  IDiag  1:
 E= -402.130261504204     Delta-E=       -0.000000032439 Rises=F Damp=F
 DIIS: error= 6.19D-06 at cycle   3 NSaved=   3.
 NSaved= 3 IEnMin= 3 EnMin= -402.130261504204     IErMin= 3 ErrMin= 6.19D-06
 ErrMax= 6.19D-06 EMaxC= 1.00D-01 BMatC= 7.75D-09 BMatP= 4.15D-08
 IDIUse=1 WtCom= 1.00D+00 WtEn= 0.00D+00
 Coeff-Com:  0.470D-01 0.288D+00 0.665D+00
 Coeff:      0.470D-01 0.288D+00 0.665D+00
 Gap=     0.196 Goal=   None    Shift=    0.000
 RMSDP=7.58D-07 MaxDP=2.38D-05 DE=-3.24D-08 OVMax= 3.22D-05

 Cycle  13  Pass 1  IDiag  1:
 E= -402.130261509237     Delta-E=       -0.000000005032 Rises=F Damp=F
 DIIS: error= 2.57D-06 at cycle   4 NSaved=   4.
 NSaved= 4 IEnMin= 4 EnMin= -402.130261509237     IErMin= 4 ErrMin= 2.57D-06
 ErrMax= 2.57D-06 EMaxC= 1.00D-01 BMatC= 1.55D-09 BMatP= 7.75D-09
 IDIUse=1 WtCom= 1.00D+00 WtEn= 0.00D+00
 Coeff-Com: -0.151D-01 0.144D+00 0.427D+00 0.444D+00
 Coeff:     -0.151D-01 0.144D+00 0.427D+00 0.444D+00
 Gap=     0.196 Goal=   None    Shift=    0.000
 RMSDP=2.65D-07 MaxDP=9.12D-06 DE=-5.03D-09 OVMax= 1.20D-05

 Cycle  14  Pass 1  IDiag  1:
 E= -402.130261510542     Delta-E=       -0.000000001305 Rises=F Damp=F
 DIIS: error= 6.74D-07 at cycle   5 NSaved=   5.
 NSaved= 5 IEnMin= 5 EnMin= -402.130261510542     IErMin= 5 ErrMin= 6.74D-07
 ErrMax= 6.74D-07 EMaxC= 1.00D-01 BMatC= 5.02D-11 BMatP= 1.55D-09
 IDIUse=1 WtCom= 1.00D+00 WtEn= 0.00D+00
 Coeff-Com: -0.984D-02 0.691D-01 0.209D+00 0.256D+00 0.476D+00
 Coeff:     -0.984D-02 0.691D-01 0.209D+00 0.256D+00 0.476D+00
 Gap=     0.196 Goal=   None    Shift=    0.000
 RMSDP=4.53D-08 MaxDP=1.29D-06 DE=-1.31D-09 OVMax= 2.21D-06

 Cycle  15  Pass 1  IDiag  1:
 E= -402.130261510576     Delta-E=       -0.000000000034 Rises=F Damp=F
 DIIS: error= 1.57D-07 at cycle   6 NSaved=   6.
 NSaved= 6 IEnMin= 6 EnMin= -402.130261510576     IErMin= 6 ErrMin= 1.57D-07
 ErrMax= 1.57D-07 EMaxC= 1.00D-01 BMatC= 4.18D-12 BMatP= 5.02D-11
 IDIUse=1 WtCom= 1.00D+00 WtEn= 0.00D+00
 Coeff-Com: -0.360D-02 0.217D-01 0.646D-01 0.942D-01 0.262D+00 0.561D+00
 Coeff:     -0.360D-02 0.217D-01 0.646D-01 0.942D-01 0.262D+00 0.561D+00
 Gap=     0.196 Goal=   None    Shift=    0.000
 RMSDP=2.04D-08 MaxDP=4.84D-07 DE=-3.43D-11 OVMax= 1.10D-06

 Cycle  16  Pass 1  IDiag  1:
 E= -402.130261510571     Delta-E=        0.000000000005 Rises=F Damp=F
 DIIS: error= 7.48D-08 at cycle   7 NSaved=   7.
 NSaved= 7 IEnMin= 6 EnMin= -402.130261510576     IErMin= 7 ErrMin= 7.48D-08
 ErrMax= 7.48D-08 EMaxC= 1.00D-01 BMatC= 9.32D-13 BMatP= 4.18D-12
 IDIUse=1 WtCom= 1.00D+00 WtEn= 0.00D+00
 Coeff-Com: -0.913D-03 0.433D-02 0.122D-01 0.250D-01 0.904D-01 0.362D+00
 Coeff-Com:  0.507D+00
 Coeff:     -0.913D-03 0.433D-02 0.122D-01 0.250D-01 0.904D-01 0.362D+00
 Coeff:      0.507D+00
 Gap=     0.196 Goal=   None    Shift=    0.000
 RMSDP=7.28D-09 MaxDP=1.72D-07 DE= 4.89D-12 OVMax= 3.72D-07

 SCF Done:  E(RB3LYP) =  -402.130261511     A.U. after   16 cycles
             Convg  =    0.7277D-08             -V/T =  2.0096
 KE= 3.983119014328D+02 PE=-1.779927709095D+03 EE= 5.569660161193D+02
 Leave Link  502 at Mon Oct  4 08:20:45 2021, MaxMem=  805306368 cpu:      76.0
 (Enter /sw/target/amd/app/gaussian/Gaussian09RevA.02_gcc-4.9.2/g09/l508.exe)
 QCSCF skips out because SCF is already converged.
 Leave Link  508 at Mon Oct  4 08:20:46 2021, MaxMem=  805306368 cpu:       0.0
 (Enter /sw/target/amd/app/gaussian/Gaussian09RevA.02_gcc-4.9.2/g09/l701.exe)
 Compute integral first derivatives.
 ... and contract with generalized density number  0.
 Leave Link  701 at Mon Oct  4 08:20:47 2021, MaxMem=  805306368 cpu:       0.8
 (Enter /sw/target/amd/app/gaussian/Gaussian09RevA.02_gcc-4.9.2/g09/l702.exe)
 L702 exits ... SP integral derivatives will be done elsewhere.
 Leave Link  702 at Mon Oct  4 08:20:48 2021, MaxMem=  805306368 cpu:       0.1
 (Enter /sw/target/amd/app/gaussian/Gaussian09RevA.02_gcc-4.9.2/g09/l703.exe)
 Compute integral first derivatives, UseDBF=F ICtDFT=           0.
 Integral derivatives from FoFDir, PRISM(SPDF).
[...]
     6  C   -0.042510   0.336408  -0.122797  -0.065229   0.475556   5.129843
     7  C   -0.000112   0.005288   0.007906  -0.060198   0.472864  -0.075666
     8  O   -0.000001   0.000178  -0.000064   0.003972  -0.036744  -0.004650
     9  C    0.000002  -0.000100  -0.000105  -0.012532  -0.043432   0.006217
    10  H    0.375565  -0.036968  -0.000891  -0.000065  -0.000030   0.001930
    11  H    0.375948  -0.033120   0.002945  -0.000057  -0.000208  -0.000721
    12  H    0.372208  -0.043451  -0.000389   0.000078  -0.000003   0.000940
    13  H   -0.001560  -0.050102   0.366828  -0.034564   0.001443   0.006887
    14  H   -0.000139   0.003761  -0.048267   0.359643  -0.035150   0.008999
    15  H   -0.003300  -0.051611   0.005699   0.005443  -0.033286   0.369103
    16  H    0.000000  -0.000004  -0.000023   0.003050  -0.005840   0.000086
    17  H   -0.000000  -0.000008  -0.000036   0.003158  -0.005495   0.000149
    18  H   -0.000000   0.000001   0.000002   0.000192   0.003712  -0.000100
              7          8          9         10         11         12
     1  C   -0.000112  -0.000001   0.000002   0.375565   0.375948   0.372208
     2  N    0.005288   0.000178  -0.000100  -0.036968  -0.033120  -0.043451
     3  C    0.007906  -0.000064  -0.000105  -0.000891   0.002945  -0.000389
     4  C   -0.060198   0.003972  -0.012532  -0.000065  -0.000057   0.000078
     5  C    0.472864  -0.036744  -0.043432  -0.000030  -0.000208  -0.000003
     6  C   -0.075666  -0.004650   0.006217   0.001930  -0.000721   0.000940
     7  C    4.822769   0.297322   0.348623   0.000004  -0.000013   0.000002
     8  O    0.297322   8.123204  -0.056581   0.000000   0.000000   0.000000
     9  C    0.348623  -0.056581   5.173783  -0.000000   0.000000  -0.000000
    10  H    0.000004   0.000000  -0.000000   0.553728  -0.024600  -0.039272
    11  H   -0.000013   0.000000   0.000000  -0.024600   0.538063  -0.033634
    12  H    0.000002   0.000000  -0.000000  -0.039272  -0.033634   0.573066
    13  H   -0.000140   0.000000  -0.000002   0.002587  -0.000037   0.000498
    14  H   -0.008765  -0.000018   0.004016  -0.000006   0.000004  -0.000000
    15  H   -0.007366   0.002209   0.000009  -0.000000   0.004314   0.000106
    16  H   -0.032411   0.001820   0.361708   0.000000   0.000000  -0.000000
    17  H   -0.033026   0.001796   0.362343  -0.000000  -0.000000   0.000000
    18  H   -0.025286  -0.000638   0.362058   0.000000   0.000000   0.000000
             13         14         15         16         17         18
     1  C   -0.001560  -0.000139  -0.003300   0.000000  -0.000000  -0.000000
     2  N   -0.050102   0.003761  -0.051611  -0.000004  -0.000008   0.000001
     3  C    0.366828  -0.048267   0.005699  -0.000023  -0.000036   0.000002
     4  C   -0.034564   0.359643   0.005443   0.003050   0.003158   0.000192
     5  C    0.001443  -0.035150  -0.033286  -0.005840  -0.005495   0.003712
     6  C    0.006887   0.008999   0.369103   0.000086   0.000149  -0.000100
     7  C   -0.000140  -0.008765  -0.007366  -0.032411  -0.033026  -0.025286
     8  O    0.000000  -0.000018   0.002209   0.001820   0.001796  -0.000638
     9  C   -0.000002   0.004016   0.000009   0.361708   0.362343   0.362058
    10  H    0.002587  -0.000006  -0.000000   0.000000  -0.000000   0.000000
    11  H   -0.000037   0.000004   0.004314   0.000000  -0.000000   0.000000
    12  H    0.000498  -0.000000   0.000106  -0.000000   0.000000   0.000000
    13  H    0.570207  -0.001191  -0.000134   0.000000  -0.000000   0.000000
    14  H   -0.001191   0.598780  -0.000118   0.000758   0.000751  -0.000052
    15  H   -0.000134  -0.000118   0.565341  -0.000002  -0.000003   0.000003
    16  H    0.000000   0.000758  -0.000002   0.560643  -0.045493  -0.024881
    17  H   -0.000000   0.000751  -0.000003  -0.045493   0.559842  -0.024726
    18  H    0.000000  -0.000052   0.000003  -0.024881  -0.024726   0.537465
 Mulliken atomic charges:
              1
     1  C   -0.317173
     2  N   -0.378288
     3  C    0.026490
     4  C   -0.249764
     5  C    0.050345
     6  C   -0.024444
     7  C    0.288205
     8  O   -0.331808
     9  C   -0.506006
    10  H    0.168017
    11  H    0.171116
    12  H    0.169853
    13  H    0.139281
    14  H    0.116994
    15  H    0.143593
    16  H    0.180588
    17  H    0.180749
    18  H    0.172252
 Sum of Mulliken atomic charges =  -0.00000
 Mulliken charges with hydrogens summed into heavy atoms:
              1
     1  C    0.191812
     2  N   -0.378288
     3  C    0.165771
     4  C   -0.132770
     5  C    0.050345
     6  C    0.119149
     7  C    0.288205
     8  O   -0.331808
     9  C    0.027583
 Sum of Mulliken charges with hydrogens summed into heavy atoms =  -0.00000
 Electronic spatial extent (au):  <R**2>=           1374.7937
 Charge=             -0.0000 electrons
 Dipole moment (field-independent basis, Debye):
    X=              1.7693    Y=              1.0519    Z=              0.0189  Tot=              2.0584
 Quadrupole moment (field-independent basis, Debye-Ang):
   XX=            -41.5338   YY=            -51.8002   ZZ=            -55.7377
   XY=             -5.5274   XZ=             -0.0889   YZ=              0.0220
 Traceless Quadrupole moment (field-independent basis, Debye-Ang):
   XX=              8.1567   YY=             -2.1096   ZZ=             -6.0471
   XY=             -5.5274   XZ=             -0.0889   YZ=              0.0220
 Octapole moment (field-independent basis, Debye-Ang**2):
  XXX=             10.6132  YYY=             -1.4299  ZZZ=              0.4772  XYY=              8.1721
  XXY=              5.9018  XXZ=             -0.3127  XZZ=             -2.0276  YZZ=             -2.8649
  YYZ=             -0.4870  XYZ=             -0.0728
 Hexadecapole moment (field-independent basis, Debye-Ang**3):
 XXXX=          -1222.7966 YYYY=           -361.6556 ZZZZ=            -68.1966 XXXY=             -9.3651
 XXXZ=             -2.9992 YYYX=             -5.2285 YYYZ=              1.0879 ZZZX=              1.5700
 ZZZY=             -0.2525 XXYY=           -287.0061 XXZZ=           -237.3296 YYZZ=            -78.0167
 XXYZ=             -0.8421 YYXZ=             -1.4577 ZZXY=             -0.3647
 N-N= 4.227499671208D+02 E-N=-1.780256658321D+03  KE= 3.984312626098D+02
 No NMR shielding tensors so no spin-rotation constants.
 Leave Link  601 at Mon Oct  4 13:10:09 2021, MaxMem=  805306368 cpu:       0.6
 (Enter /sw/target/amd/app/gaussian/Gaussian09RevA.02_gcc-4.9.2/g09/l604.exe)
 Evaluate density.
 Using the total density.
 Monte-Carlo method of calculating molar volume:
 based on  0.001 e/bohr**3 density envelope.
 Number of points per bohr**3 =   20 CutOff= 1.00D-04
 Using the CI density.
 There are       353 points.  Will hold       353 in memory.
 LenV=   805227385 MDV=   805306368.
 Box volume = 5506.632 fraction occupied=0.229
 Integrated density= 5.2888145761563088D+01 error=-1.3111854238436912D+01
 Molar volume = 1263.561 bohr**3/mol (112.759 cm**3/mol)
 Recommended a0 for SCRF calculation =  4.41 angstrom (  8.33 bohr)
 Leave Link  604 at Mon Oct  4 13:10:37 2021, MaxMem=  805306368 cpu:       0.2
 (Enter /sw/target/amd/app/gaussian/Gaussian09RevA.02_gcc-4.9.2/g09/l607.exe)
 ******************************Gaussian NBO Version 3.1******************************
             N A T U R A L   A T O M I C   O R B I T A L   A N D
          N A T U R A L   B O N D   O R B I T A L   A N A L Y S I S
 ******************************Gaussian NBO Version 3.1******************************
       /RESON  / : Allow strongly delocalized NBO set

 Analyzing the CI density

 Job title: Cn1ccc(c1)C(=O)C_conf_0                                         

 Storage needed:     71370 in NPA ( 805304568 available)


 NATURAL POPULATIONS:  Natural atomic orbital occupancies 
                                                          
   NAO  Atom  No  lang   Type(AO)    Occupancy
 --------------------------------------------
     1    C    1  S      Cor( 1S)     1.99948
     2    C    1  S      Val( 2S)     1.08298
     3    C    1  S      Ryd( 3S)     0.00106
     4    C    1  S      Ryd( 4S)     0.00001
     5    C    1  px     Val( 2p)     0.92425
     6    C    1  px     Ryd( 3p)     0.00187
     7    C    1  py     Val( 2p)     1.19722
     8    C    1  py     Ryd( 3p)     0.00308
     9    C    1  pz     Val( 2p)     1.24279
    10    C    1  pz     Ryd( 3p)     0.00077
    11    C    1  dxy    Ryd( 3d)     0.00080
    12    C    1  dxz    Ryd( 3d)     0.00136
    13    C    1  dyz    Ryd( 3d)     0.00058
    14    C    1  dx2y2  Ryd( 3d)     0.00107
    15    C    1  dz2    Ryd( 3d)     0.00091

    16    N    2  S      Cor( 1S)     1.99933
    17    N    2  S      Val( 2S)     1.18043
    18    N    2  S      Ryd( 3S)     0.00061
    19    N    2  S      Ryd( 4S)     0.00002
    20    N    2  px     Val( 2p)     1.29948
    21    N    2  px     Ryd( 3p)     0.00198
    22    N    2  py     Val( 2p)     1.31665
    23    N    2  py     Ryd( 3p)     0.00187
    24    N    2  pz     Val( 2p)     1.56467
    25    N    2  pz     Ryd( 3p)     0.00286
    26    N    2  dxy    Ryd( 3d)     0.00072
    27    N    2  dxz    Ryd( 3d)     0.00081
    28    N    2  dyz    Ryd( 3d)     0.00099
    29    N    2  dx2y2  Ryd( 3d)     0.00074
    30    N    2  dz2    Ryd( 3d)     0.00053

    31    C    3  S      Cor( 1S)     1.99914
    32    C    3  S      Val( 2S)     0.92620
    33    C    3  S      Ryd( 3S)     0.00133
    34    C    3  S      Ryd( 4S)     0.00007
    35    C    3  px     Val( 2p)     1.11791
    36    C    3  px     Ryd( 3p)     0.00498
    37    C    3  py     Val( 2p)     0.90329
    38    C    3  py     Ryd( 3p)     0.00460
    39    C    3  pz     Val( 2p)     1.09800
    40    C    3  pz     Ryd( 3p)     0.00255
    41    C    3  dxy    Ryd( 3d)     0.00117
    42    C    3  dxz    Ryd( 3d)     0.00081
    43    C    3  dyz    Ryd( 3d)     0.00092
    44    C    3  dx2y2  Ryd( 3d)     0.00102
    45    C    3  dz2    Ryd( 3d)     0.00051

    46    C    4  S      Cor( 1S)     1.99902
    47    C    4  S      Val( 2S)     0.95308
    48    C    4  S      Ryd( 3S)     0.00056
    49    C    4  S      Ryd( 4S)     0.00003
    50    C    4  px     Val( 2p)     1.08760
    51    C    4  px     Ryd( 3p)     0.00363
    52    C    4  py     Val( 2p)     1.14472
    53    C    4  py     Ryd( 3p)     0.00364
    54    C    4  pz     Val( 2p)     1.11810
    55    C    4  pz     Ryd( 3p)     0.00171
    56    C    4  dxy    Ryd( 3d)     0.00071
    57    C    4  dxz    Ryd( 3d)     0.00067
    58    C    4  dyz    Ryd( 3d)     0.00045
    59    C    4  dx2y2  Ryd( 3d)     0.00070
    60    C    4  dz2    Ryd( 3d)     0.00046

    61    C    5  S      Cor( 1S)     1.99891
    62    C    5  S      Val( 2S)     0.88566
    63    C    5  S      Ryd( 3S)     0.00075
    64    C    5  S      Ryd( 4S)     0.00004
    65    C    5  px     Val( 2p)     1.05457
    66    C    5  px     Ryd( 3p)     0.00479
    67    C    5  py     Val( 2p)     1.08668
    68    C    5  py     Ryd( 3p)     0.00587
    69    C    5  pz     Val( 2p)     1.15992
    70    C    5  pz     Ryd( 3p)     0.00083
    71    C    5  dxy    Ryd( 3d)     0.00070
    72    C    5  dxz    Ryd( 3d)     0.00115
    73    C    5  dyz    Ryd( 3d)     0.00066
    74    C    5  dx2y2  Ryd( 3d)     0.00055
    75    C    5  dz2    Ryd( 3d)     0.00040

    76    C    6  S      Cor( 1S)     1.99907
    77    C    6  S      Val( 2S)     0.90665
    78    C    6  S      Ryd( 3S)     0.00145
    79    C    6  S      Ryd( 4S)     0.00008
    80    C    6  px     Val( 2p)     0.87228
    81    C    6  px     Ryd( 3p)     0.00553
    82    C    6  py     Val( 2p)     1.14254
    83    C    6  py     Ryd( 3p)     0.00368
    84    C    6  pz     Val( 2p)     1.13430
    85    C    6  pz     Ryd( 3p)     0.00560
    86    C    6  dxy    Ryd( 3d)     0.00103
    87    C    6  dxz    Ryd( 3d)     0.00103
    88    C    6  dyz    Ryd( 3d)     0.00054
    89    C    6  dx2y2  Ryd( 3d)     0.00110
    90    C    6  dz2    Ryd( 3d)     0.00049

    91    C    7  S      Cor( 1S)     1.99924
    92    C    7  S      Val( 2S)     0.82254
    93    C    7  S      Ryd( 3S)     0.00426
    94    C    7  S      Ryd( 4S)     0.00018
    95    C    7  px     Val( 2p)     0.99559
    96    C    7  px     Ryd( 3p)     0.00255
    97    C    7  py     Val( 2p)     0.79099
    98    C    7  py     Ryd( 3p)     0.01539
    99    C    7  pz     Val( 2p)     1.04613
   100    C    7  pz     Ryd( 3p)     0.00415
   101    C    7  dxy    Ryd( 3d)     0.00118
   102    C    7  dxz    Ryd( 3d)     0.00075
   103    C    7  dyz    Ryd( 3d)     0.00197
   104    C    7  dx2y2  Ryd( 3d)     0.00126
   105    C    7  dz2    Ryd( 3d)     0.00033

   106    O    8  S      Cor( 1S)     1.99982
   107    O    8  S      Val( 2S)     1.70414
   108    O    8  S      Ryd( 3S)     0.00012
   109    O    8  S      Ryd( 4S)     0.00002
   110    O    8  px     Val( 2p)     1.15314
   111    O    8  px     Ryd( 3p)     0.00155
   112    O    8  py     Val( 2p)     1.57217
   113    O    8  py     Ryd( 3p)     0.00030
   114    O    8  pz     Val( 2p)     1.82435
   115    O    8  pz     Ryd( 3p)     0.00387
   116    O    8  dxy    Ryd( 3d)     0.00283
   117    O    8  dxz    Ryd( 3d)     0.00032
   118    O    8  dyz    Ryd( 3d)     0.00408
   119    O    8  dx2y2  Ryd( 3d)     0.00358
   120    O    8  dz2    Ryd( 3d)     0.00125

   121    C    9  S      Cor( 1S)     1.99934
   122    C    9  S      Val( 2S)     1.12692
   123    C    9  S      Ryd( 3S)     0.00012
   124    C    9  S      Ryd( 4S)     0.00001
   125    C    9  px     Val( 2p)     1.15624
   126    C    9  px     Ryd( 3p)     0.00123
   127    C    9  py     Val( 2p)     1.15284
   128    C    9  py     Ryd( 3p)     0.00148
   129    C    9  pz     Val( 2p)     1.25631
   130    C    9  pz     Ryd( 3p)     0.00007
   131    C    9  dxy    Ryd( 3d)     0.00085
   132    C    9  dxz    Ryd( 3d)     0.00036
   133    C    9  dyz    Ryd( 3d)     0.00128
   134    C    9  dx2y2  Ryd( 3d)     0.00042
   135    C    9  dz2    Ryd( 3d)     0.00069

   136    H   10  S      Val( 1S)     0.76628
   137    H   10  S      Ryd( 2S)     0.00106

   138    H   11  S      Val( 1S)     0.76193
   139    H   11  S      Ryd( 2S)     0.00094

   140    H   12  S      Val( 1S)     0.77066
   141    H   12  S      Ryd( 2S)     0.00166

   142    H   13  S      Val( 1S)     0.77109
   143    H   13  S      Ryd( 2S)     0.00049

   144    H   14  S      Val( 1S)     0.76274
   145    H   14  S      Ryd( 2S)     0.00049

   146    H   15  S      Val( 1S)     0.76944
   147    H   15  S      Ryd( 2S)     0.00053

   148    H   16  S      Val( 1S)     0.74948
   149    H   16  S      Ryd( 2S)     0.00166

   150    H   17  S      Val( 1S)     0.74930
   151    H   17  S      Ryd( 2S)     0.00164

   152    H   18  S      Val( 1S)     0.74894
   153    H   18  S      Ryd( 2S)     0.00110

 WARNING:  1 low occupancy (<1.9990e) core orbital  found on  C    5


 Summary of Natural Population Analysis:                  
                                                          
                                       Natural Population 
                Natural  -----------------------------------------------
    Atom  No    Charge         Core      Valence    Rydberg      Total
 -----------------------------------------------------------------------
      C    1   -0.45823      1.99948     4.44723    0.01152     6.45823
      N    2   -0.37169      1.99933     5.36123    0.01113     7.37169
      C    3   -0.06249      1.99914     4.04539    0.01796     6.06249
      C    4   -0.31508      1.99902     4.30349    0.01257     6.31508
      C    5   -0.20148      1.99891     4.18684    0.01573     6.20148
      C    6   -0.07538      1.99907     4.05578    0.02053     6.07538
      C    7    0.31348      1.99924     3.65526    0.03203     5.68652
      O    8   -0.27153      1.99982     6.25380    0.01791     8.27153
      C    9   -0.69815      1.99934     4.69231    0.00650     6.69815
      H   10    0.23266      0.00000     0.76628    0.00106     0.76734
      H   11    0.23712      0.00000     0.76193    0.00094     0.76288
      H   12    0.22768      0.00000     0.77066    0.00166     0.77232
      H   13    0.22841      0.00000     0.77109    0.00049     0.77159
      H   14    0.23677      0.00000     0.76274    0.00049     0.76323
      H   15    0.23002      0.00000     0.76944    0.00053     0.76998
      H   16    0.24886      0.00000     0.74948    0.00166     0.75114
      H   17    0.24907      0.00000     0.74930    0.00164     0.75093
      H   18    0.24996      0.00000     0.74894    0.00110     0.75004
 =======================================================================
   * Total *   -0.00000     17.99335    47.85120    0.15545    66.00000

                                 Natural Population      
 --------------------------------------------------------
   Core                      17.99335 ( 99.9630% of  18)
   Valence                   47.85120 ( 99.6900% of  48)
   Natural Minimal Basis     65.84455 ( 99.7645% of  66)
   Natural Rydberg Basis      0.15545 (  0.2355% of  66)
 --------------------------------------------------------

    Atom  No          Natural Electron Configuration
 ----------------------------------------------------------------------------
      C    1      [core]2S( 1.08)2p( 3.36)3p( 0.01)
      N    2      [core]2S( 1.18)2p( 4.18)3p( 0.01)
      C    3      [core]2S( 0.93)2p( 3.12)3p( 0.01)
      C    4      [core]2S( 0.95)2p( 3.35)3p( 0.01)
      C    5      [core]2S( 0.89)2p( 3.30)3p( 0.01)
      C    6      [core]2S( 0.91)2p( 3.15)3p( 0.01)
      C    7      [core]2S( 0.82)2p( 2.83)3p( 0.02)3d( 0.01)
      O    8      [core]2S( 1.70)2p( 4.55)3p( 0.01)3d( 0.01)
      C    9      [core]2S( 1.13)2p( 3.57)
      H   10            1S( 0.77)
      H   11            1S( 0.76)
      H   12            1S( 0.77)
      H   13            1S( 0.77)
      H   14            1S( 0.76)
      H   15            1S( 0.77)
      H   16            1S( 0.75)
      H   17            1S( 0.75)
      H   18            1S( 0.75)


 NBO analysis skipped by request.
 Leave Link  607 at Mon Oct  4 13:11:58 2021, MaxMem=  805306368 cpu:      12.4
 (Enter /sw/target/amd/app/gaussian/Gaussian09RevA.02_gcc-4.9.2/g09/l9999.exe)
 1\1\GINC-HERMITE\SP\RTD-B3LYP-FC\6-31G(d)\C7H9N1O1\JSCHLEINITZ\04-Oct-
 2021\0\\#p TD(NStates=10, Root=1) b3lyp/6-31G* volume pop=NPA density=
 current Geom=AllCheck Guess=Read\\Cn1ccc(c1)C(=O)C_conf_0\\0,1\C,0,2.1
 356960985,0.0199638849,-0.2050251827\N,0,0.6949045189,-0.0015420405,-0
 .0160494585\C,0,-0.0972529419,-1.135899653,-0.0620050509\C,0,-1.407594
 4792,-0.7537971911,0.0882448885\C,0,-1.4227845627,0.6720053065,0.22919
 14267\C,0,-0.1007323006,1.0909897206,0.154944258\C,0,-2.5573590316,1.5
 876432898,0.4256301805\O,0,-2.3922581245,2.7976803506,0.5333696658\C,0
 ,-3.9508489662,0.9794748193,0.4894486408\H,0,2.5967821735,-0.800852659
 2,0.3518085015\H,0,2.5331367873,0.9640696211,0.1734654574\H,0,2.399865
 2699,-0.0767558194,-1.2643996631\H,0,0.3492759607,-2.1114256679,-0.194
 5552989\H,0,-2.2608872629,-1.4180415817,0.1069794554\H,0,0.3047535839,
 2.090246653,0.2159520954\H,0,-4.024841907,0.2631838355,1.3170899651\H,
 0,-4.1795337305,0.4324879209,-0.4335828566\H,0,-4.6839141321,1.7757901
 743,0.6314627122\\Version=AM64L-G09RevA.02\State=1-A\HF=-402.1311878\R
 MSD=9.856e-09\Dipole=0.4861116,-0.6372453,-0.1160435\Quadrupole=7.7486
 405,-3.3558552,-4.3927853,0.3856401,-1.0792199,0.0636223\PG=C01 [X(C7H
 9N1O1)]\\@


      SCIENCE SANS CONSCIENCE N'EST QUE RUINE DE L'AME.

                                                  -- RABELAIS
 Job cpu time:  0 days  0 hours 55 minutes 51.7 seconds.
 File lengths (MBytes):  RWF=     83 Int=      0 D2E=      0 Chk=     12 Scr=      1
 Normal termination of Gaussian 09 at Mon Oct  4 13:13:05 2021.
