 Entering Gaussian System, Link 0=g09
 Input=C8H10O2_8f9c_conf_0.com
 Output=C8H10O2_8f9c_conf_0.log
 Initial command:
 /sw/target/amd/app/gaussian/Gaussian09RevA.02_gcc-4.9.2/g09/l1.exe /home/jschleinitz/gaussian/Gau-3087113.inp -scrdir=/home/jschleinitz/gaussian/
 Entering Link 1 = /sw/target/amd/app/gaussian/Gaussian09RevA.02_gcc-4.9.2/g09/l1.exe PID=   3087115.
  
 Copyright (c) 1988,1990,1992,1993,1995,1998,2003,2009, Gaussian, Inc.
                  All Rights Reserved.
  
 This is part of the Gaussian(R) 09 program.  It is based on
 the Gaussian(R) 03 system (copyright 2003, Gaussian, Inc.),
 the Gaussian(R) 98 system (copyright 1998, Gaussian, Inc.),
 the Gaussian(R) 94 system (copyright 1995, Gaussian, Inc.),
 the Gaussian 92(TM) system (copyright 1992, Gaussian, Inc.),
 the Gaussian 90(TM) system (copyright 1990, Gaussian, Inc.),
 the Gaussian 88(TM) system (copyright 1988, Gaussian, Inc.),
 the Gaussian 86(TM) system (copyright 1986, Carnegie Mellon
 University), and the Gaussian 82(TM) system (copyright 1983,
 Carnegie Mellon University). Gaussian is a federally registered
 trademark of Gaussian, Inc.
  
 This software contains proprietary and confidential information,
 including trade secrets, belonging to Gaussian, Inc.
  
 This software is provided under written license and may be
 used, copied, transmitted, or stored only in accord with that
 written license.
  
 The following legend is applicable only to US Government
 contracts under FAR:
  
                    RESTRICTED RIGHTS LEGEND
  
 Use, reproduction and disclosure by the US Government is
 subject to restrictions as set forth in subparagraphs (a)
 and (c) of the Commercial Computer Software - Restricted
 Rights clause in FAR 52.227-19.
  
 Gaussian, Inc.
 340 Quinnipiac St., Bldg. 40, Wallingford CT 06492
  
  
 ---------------------------------------------------------------
 Warning -- This program may not be used in any manner that
 competes with the business of Gaussian, Inc. or will provide
 assistance to any competitor of Gaussian, Inc.  The licensee
 of this program is prohibited from giving any competitor of
 Gaussian, Inc. access to this program.  By using this program,
 the user acknowledges that Gaussian, Inc. is engaged in the
 business of creating and licensing software in the field of
 computational chemistry and represents and warrants to the
 licensee that it is not a competitor of Gaussian, Inc. and that
 it will not use this program in any manner prohibited above.
 ---------------------------------------------------------------
  

 Cite this work as:
 Gaussian 09, Revision A.02,
 M. J. Frisch, G. W. Trucks, H. B. Schlegel, G. E. Scuseria, 
 M. A. Robb, J. R. Cheeseman, G. Scalmani, V. Barone, B. Mennucci, 
 G. A. Petersson, H. Nakatsuji, M. Caricato, X. Li, H. P. Hratchian, 
 A. F. Izmaylov, J. Bloino, G. Zheng, J. L. Sonnenberg, M. Hada, 
 M. Ehara, K. Toyota, R. Fukuda, J. Hasegawa, M. Ishida, T. Nakajima, 
 Y. Honda, O. Kitao, H. Nakai, T. Vreven, J. A. Montgomery, Jr., 
 J. E. Peralta, F. Ogliaro, M. Bearpark, J. J. Heyd, E. Brothers, 
 K. N. Kudin, V. N. Staroverov, R. Kobayashi, J. Normand, 
 K. Raghavachari, A. Rendell, J. C. Burant, S. S. Iyengar, J. Tomasi, 
 M. Cossi, N. Rega, J. M. Millam, M. Klene, J. E. Knox, J. B. Cross, 
 V. Bakken, C. Adamo, J. Jaramillo, R. Gomperts, R. E. Stratmann, 
 O. Yazyev, A. J. Austin, R. Cammi, C. Pomelli, J. W. Ochterski, 
 R. L. Martin, K. Morokuma, V. G. Zakrzewski, G. A. Voth, 
 P. Salvador, J. J. Dannenberg, S. Dapprich, A. D. Daniels, 
 O. Farkas, J. B. Foresman, J. V. Ortiz, J. Cioslowski, 
 and D. J. Fox, Gaussian, Inc., Wallingford CT, 2009.
 
 ******************************************
 Gaussian 09:  AM64L-G09RevA.02 11-Jun-2009
                28-Sep-2021 
 ******************************************
 %nproc=3
 Will use up to    3 processors via shared memory.
 %mem=6gb
 %chk=C8H10O2_8f9c_conf_0.chk
 -----------------------------------
 #p opt b3lyp/6-31G* scf=(xqc,tight)
 -----------------------------------
 1/14=-1,18=20,19=15,26=3,38=1/1,3;
 2/9=110,12=2,17=6,18=5,40=1/2;
 3/5=1,6=6,7=1,11=2,16=1,25=1,30=1,71=1,74=-5/1,2,3;
 4//1;
 5/5=2,8=3,13=1,32=2,38=5/2,8;
 6/7=2,8=2,9=2,10=2,28=1/1;
 7//1,2,3,16;
 1/14=-1,18=20,19=15/3(2);
 2/9=110/2;
 99//99;
 2/9=110/2;
 3/5=1,6=6,7=1,11=2,16=1,25=1,30=1,71=1,74=-5/1,2,3;
 4/5=5,16=3/1;
 5/5=2,8=3,13=1,32=2,38=5/2,8;
 7//1,2,3,16;
 1/14=-1,18=20,19=15/3(-5);
 2/9=110/2;
 6/7=2,8=2,9=2,10=2,19=2,28=1/1;
 99/9=1/99;
 Leave Link    1 at Tue Sep 28 14:14:19 2021, MaxMem=  805306368 cpu:       0.0
 (Enter /sw/target/amd/app/gaussian/Gaussian09RevA.02_gcc-4.9.2/g09/l101.exe)
 ---------------------
 OCc1ccc(cc1)OC_conf_0
 ---------------------
 Symbolic Z-matrix:
 Charge =  0 Multiplicity = 1
 O                     3.26608   1.16338  -0.26272 
 C                     2.21779   0.21372  -0.11349 
 C                     2.77043  -1.16644   0.12474 
 C                     3.98893  -1.35776   0.78962 
 C                     4.47603  -2.64353   1.04569 
 C                     3.7437   -3.76224   0.65288 
 C                     2.52248  -3.58056  -0.00018 
 C                     2.03535  -2.29512  -0.25875 
 O                     4.1043   -5.06656   0.85071 
 C                     5.33483  -5.28922   1.52924 
 H                     2.8421    2.02805  -0.39095 
 H                     1.61587   0.23366  -1.0281 
 H                     1.59466   0.50874   0.73677 
 H                     4.57389  -0.49712   1.10804 
 H                     5.42997  -2.72989   1.55416 
 H                     1.94396  -4.44798  -0.30827 
 H                     1.07842  -2.18616  -0.76322 
 H                     5.46764  -6.36953   1.63901 
 H                     5.31808  -4.85361   2.53401 
 H                     6.1794   -4.90689   0.94656 
 
 NAtoms=     20 NQM=     20 NQMF=      0 NMic=      0 NMicF=      0 NTot=     20.
                    Isotopes and Nuclear Properties:
 (Nuclear quadrupole moments (NQMom) in fm**2, nuclear magnetic moments (NMagM)
  in nuclear magnetons)

  Atom         1           2           3           4           5           6           7           8           9          10
 IAtWgt=          16          12          12          12          12          12          12          12          16          12
 AtmWgt=  15.9949146  12.0000000  12.0000000  12.0000000  12.0000000  12.0000000  12.0000000  12.0000000  15.9949146  12.0000000
 NucSpn=           0           0           0           0           0           0           0           0           0           0
 AtZEff=   0.0000000   0.0000000   0.0000000   0.0000000   0.0000000   0.0000000   0.0000000   0.0000000   0.0000000   0.0000000
 NQMom=    0.0000000   0.0000000   0.0000000   0.0000000   0.0000000   0.0000000   0.0000000   0.0000000   0.0000000   0.0000000
 NMagM=    0.0000000   0.0000000   0.0000000   0.0000000   0.0000000   0.0000000   0.0000000   0.0000000   0.0000000   0.0000000

  Atom        11          12          13          14          15          16          17          18          19          20
 IAtWgt=           1           1           1           1           1           1           1           1           1           1
 AtmWgt=   1.0078250   1.0078250   1.0078250   1.0078250   1.0078250   1.0078250   1.0078250   1.0078250   1.0078250   1.0078250
 NucSpn=           1           1           1           1           1           1           1           1           1           1
 AtZEff=   0.0000000   0.0000000   0.0000000   0.0000000   0.0000000   0.0000000   0.0000000   0.0000000   0.0000000   0.0000000
 NQMom=    0.0000000   0.0000000   0.0000000   0.0000000   0.0000000   0.0000000   0.0000000   0.0000000   0.0000000   0.0000000
 NMagM=    2.7928460   2.7928460   2.7928460   2.7928460   2.7928460   2.7928460   2.7928460   2.7928460   2.7928460   2.7928460
 Leave Link  101 at Tue Sep 28 14:14:19 2021, MaxMem=  805306368 cpu:       0.2
 (Enter /sw/target/amd/app/gaussian/Gaussian09RevA.02_gcc-4.9.2/g09/l103.exe)

 GradGradGradGradGradGradGradGradGradGradGradGradGradGradGradGradGradGrad
 Berny optimization.
 Initialization pass.
                           ----------------------------
                           !    Initial Parameters    !
                           ! (Angstroms and Degrees)  !
 --------------------------                            --------------------------
 ! Name  Definition              Value          Derivative Info.                !
 --------------------------------------------------------------------------------
 ! R1    R(1,2)                  1.4223         estimate D2E/DX2                !
 ! R2    R(1,11)                 0.9715         estimate D2E/DX2                !
 ! R3    R(2,3)                  1.5057         estimate D2E/DX2                !
 ! R4    R(2,12)                 1.0951         estimate D2E/DX2                !
 ! R5    R(2,13)                 1.0947         estimate D2E/DX2                !
 ! R6    R(3,4)                  1.4012         estimate D2E/DX2                !
 ! R7    R(3,8)                  1.4005         estimate D2E/DX2                !
 ! R8    R(4,5)                  1.3986         estimate D2E/DX2                !
 ! R9    R(4,14)                 1.0882         estimate D2E/DX2                !
 ! R10   R(5,6)                  1.3936         estimate D2E/DX2                !
 ! R11   R(5,15)                 1.0844         estimate D2E/DX2                !
 ! R12   R(6,7)                  1.3967         estimate D2E/DX2                !
 ! R13   R(6,9)                  1.3676         estimate D2E/DX2                !
 ! R14   R(7,8)                  1.3988         estimate D2E/DX2                !
 ! R15   R(7,16)                 1.0872         estimate D2E/DX2                !
 ! R16   R(8,17)                 1.0872         estimate D2E/DX2                !
 ! R17   R(9,10)                 1.4227         estimate D2E/DX2                !
 ! R18   R(10,18)                1.094          estimate D2E/DX2                !
 ! R19   R(10,19)                1.0953         estimate D2E/DX2                !
 ! R20   R(10,20)                1.095          estimate D2E/DX2                !
 ! A1    A(2,1,11)             106.6455         estimate D2E/DX2                !
 ! A2    A(1,2,3)              110.9842         estimate D2E/DX2                !
 ! A3    A(1,2,12)             107.7774         estimate D2E/DX2                !
 ! A4    A(1,2,13)             108.7294         estimate D2E/DX2                !
 ! A5    A(3,2,12)             110.5232         estimate D2E/DX2                !
 ! A6    A(3,2,13)             109.4558         estimate D2E/DX2                !
 ! A7    A(12,2,13)            109.3252         estimate D2E/DX2                !
 ! A8    A(2,3,4)              121.2929         estimate D2E/DX2                !
 ! A9    A(2,3,8)              120.1836         estimate D2E/DX2                !
 ! A10   A(4,3,8)              118.4461         estimate D2E/DX2                !
 ! A11   A(3,4,5)              121.0151         estimate D2E/DX2                !
 ! A12   A(3,4,14)             119.8873         estimate D2E/DX2                !
 ! A13   A(5,4,14)             119.0961         estimate D2E/DX2                !
 ! A14   A(4,5,6)              120.2234         estimate D2E/DX2                !
 ! A15   A(4,5,15)             117.7381         estimate D2E/DX2                !
 ! A16   A(6,5,15)             122.0385         estimate D2E/DX2                !
 ! A17   A(5,6,7)              119.1325         estimate D2E/DX2                !
 ! A18   A(5,6,9)              125.8923         estimate D2E/DX2                !
 ! A19   A(7,6,9)              114.9747         estimate D2E/DX2                !
 ! A20   A(6,7,8)              120.6948         estimate D2E/DX2                !
 ! A21   A(6,7,16)             119.6017         estimate D2E/DX2                !
 ! A22   A(8,7,16)             119.7033         estimate D2E/DX2                !
 ! A23   A(3,8,7)              120.4791         estimate D2E/DX2                !
 ! A24   A(3,8,17)             120.5487         estimate D2E/DX2                !
 ! A25   A(7,8,17)             118.9721         estimate D2E/DX2                !
 ! A26   A(6,9,10)             116.5059         estimate D2E/DX2                !
 ! A27   A(9,10,18)            107.9029         estimate D2E/DX2                !
 ! A28   A(9,10,19)            111.2255         estimate D2E/DX2                !
 ! A29   A(9,10,20)            111.0187         estimate D2E/DX2                !
 ! A30   A(18,10,19)           107.6116         estimate D2E/DX2                !
 ! A31   A(18,10,20)           107.7327         estimate D2E/DX2                !
 ! A32   A(19,10,20)           111.1672         estimate D2E/DX2                !
 ! D1    D(11,1,2,3)          -178.6754         estimate D2E/DX2                !
 ! D2    D(11,1,2,12)           60.1736         estimate D2E/DX2                !
 ! D3    D(11,1,2,13)          -58.2291         estimate D2E/DX2                !
 ! D4    D(1,2,3,4)             30.7084         estimate D2E/DX2                !
 ! D5    D(1,2,3,8)           -152.5416         estimate D2E/DX2                !
 ! D6    D(12,2,3,4)           150.2299         estimate D2E/DX2                !
 ! D7    D(12,2,3,8)           -33.0202         estimate D2E/DX2                !
 ! D8    D(13,2,3,4)           -89.3063         estimate D2E/DX2                !
 ! D9    D(13,2,3,8)            87.4436         estimate D2E/DX2                !
 ! D10   D(2,3,4,5)            177.9317         estimate D2E/DX2                !
 ! D11   D(2,3,4,14)            -2.5167         estimate D2E/DX2                !
 ! D12   D(8,3,4,5)              1.1268         estimate D2E/DX2                !
 ! D13   D(8,3,4,14)          -179.3216         estimate D2E/DX2                !
 ! D14   D(2,3,8,7)           -177.858          estimate D2E/DX2                !
 ! D15   D(2,3,8,17)             2.239          estimate D2E/DX2                !
 ! D16   D(4,3,8,7)             -1.0165         estimate D2E/DX2                !
 ! D17   D(4,3,8,17)           179.0805         estimate D2E/DX2                !
 ! D18   D(3,4,5,6)             -0.6972         estimate D2E/DX2                !
 ! D19   D(3,4,5,15)           179.3422         estimate D2E/DX2                !
 ! D20   D(14,4,5,6)           179.7478         estimate D2E/DX2                !
 ! D21   D(14,4,5,15)           -0.2129         estimate D2E/DX2                !
 ! D22   D(4,5,6,7)              0.1353         estimate D2E/DX2                !
 ! D23   D(4,5,6,9)           -179.5818         estimate D2E/DX2                !
 ! D24   D(15,5,6,7)          -179.9058         estimate D2E/DX2                !
 ! D25   D(15,5,6,9)             0.3771         estimate D2E/DX2                !
 ! D26   D(5,6,7,8)             -0.0316         estimate D2E/DX2                !
 ! D27   D(5,6,7,16)          -179.8822         estimate D2E/DX2                !
 ! D28   D(9,6,7,8)            179.7156         estimate D2E/DX2                !
 ! D29   D(9,6,7,16)            -0.135          estimate D2E/DX2                !
 ! D30   D(5,6,9,10)             0.5343         estimate D2E/DX2                !
 ! D31   D(7,6,9,10)          -179.1931         estimate D2E/DX2                !
 ! D32   D(6,7,8,3)              0.4842         estimate D2E/DX2                !
 ! D33   D(6,7,8,17)          -179.6113         estimate D2E/DX2                !
 ! D34   D(16,7,8,3)          -179.6654         estimate D2E/DX2                !
 ! D35   D(16,7,8,17)            0.2391         estimate D2E/DX2                !
 ! D36   D(6,9,10,18)          178.1969         estimate D2E/DX2                !
 ! D37   D(6,9,10,19)           60.3854         estimate D2E/DX2                !
 ! D38   D(6,9,10,20)          -63.9623         estimate D2E/DX2                !
 --------------------------------------------------------------------------------
 Trust Radius=3.00D-01 FncErr=1.00D-07 GrdErr=1.00D-06
 Number of steps in this run= 100 maximum allowed number of steps= 120.
 GradGradGradGradGradGradGradGradGradGradGradGradGradGradGradGradGradGrad

 Leave Link  103 at Tue Sep 28 14:14:19 2021, MaxMem=  805306368 cpu:       0.0
 (Enter /sw/target/amd/app/gaussian/Gaussian09RevA.02_gcc-4.9.2/g09/l202.exe)
                          Input orientation:                          
 ---------------------------------------------------------------------
 Center     Atomic      Atomic             Coordinates (Angstroms)
 Number     Number       Type             X           Y           Z
 ---------------------------------------------------------------------
      1          8           0        3.266081    1.163384   -0.262724
      2          6           0        2.217793    0.213721   -0.113493
      3          6           0        2.770433   -1.166442    0.124739
      4          6           0        3.988933   -1.357759    0.789618
      5          6           0        4.476029   -2.643526    1.045690
      6          6           0        3.743705   -3.762238    0.652883
      7          6           0        2.522484   -3.580559   -0.000180
      8          6           0        2.035355   -2.295115   -0.258752
      9          8           0        4.104303   -5.066560    0.850711
     10          6           0        5.334832   -5.289223    1.529237
     11          1           0        2.842099    2.028051   -0.390954
     12          1           0        1.615874    0.233663   -1.028099
     13          1           0        1.594660    0.508738    0.736773
     14          1           0        4.573892   -0.497124    1.108038
     15          1           0        5.429969   -2.729888    1.554160
     16          1           0        1.943958   -4.447983   -0.308272
     17          1           0        1.078415   -2.186165   -0.763223
     18          1           0        5.467636   -6.369529    1.639013
     19          1           0        5.318082   -4.853608    2.534007
     20          1           0        6.179399   -4.906886    0.946555
 ---------------------------------------------------------------------
                    Distance matrix (angstroms):
                    1          2          3          4          5
     1  O    0.000000
     2  C    1.422335   0.000000
     3  C    2.413272   1.505662   0.000000
     4  C    2.825969   2.534186   1.401217   0.000000
     5  C    4.203390   3.821937   2.437003   1.398582   0.000000
     6  C    5.032714   4.327123   2.822118   2.420817   1.393597
     7  C    4.809039   3.808181   2.430030   2.777606   2.405871
     8  C    3.670956   2.519652   1.400467   2.407111   2.789239
     9  O    6.383929   5.689462   4.185351   3.711098   2.459124
    10  C    7.009065   6.534286   5.054313   4.220770   2.823309
    11  H    0.971521   1.938695   3.236644   3.764663   5.153378
    12  H    2.042881   1.095084   2.149962   3.386462   4.556238
    13  H    2.054557   1.094661   2.136178   3.036304   4.281879
    14  H    2.519255   2.747479   2.160400   1.088237   2.149536
    15  H    4.810514   4.665188   3.400109   2.131630   1.084436
    16  H    5.765199   4.673800   3.411608   3.864811   3.391263
    17  H    4.031855   2.734919   2.165926   3.401277   3.876226
    18  H    8.075161   7.547976   6.053101   5.293947   3.901078
    19  H    6.945258   6.503758   5.088249   4.126802   2.794388
    20  H    6.840903   6.560385   5.127119   4.173617   2.834448
                    6          7          8          9         10
     6  C    0.000000
     7  C    1.396739   0.000000
     8  C    2.429401   1.398756   0.000000
     9  O    1.367634   2.331173   3.632129   0.000000
    10  C    2.373050   3.628767   4.800848   1.422736   0.000000
    11  H    5.952305   5.631285   4.399782   7.312209   7.965134
    12  H    4.829139   4.053005   2.676299   6.149355   7.132523
    13  H    4.781911   4.257500   3.007803   6.115165   6.945016
    14  H    3.399610   3.865746   3.397802   4.600704   4.870385
    15  H    2.172910   3.404862   3.872865   2.777098   2.561225
    16  H    2.152476   1.087215   2.155375   2.528432   3.947423
    17  H    3.404868   2.147534   1.087241   4.478555   5.744687
    18  H    3.277553   4.374840   5.655343   2.043972   1.093959
    19  H    2.684843   3.982226   5.012154   2.086168   1.095265
    20  H    2.707226   4.003559   5.044523   2.083437   1.094986
                   11         12         13         14         15
    11  H    0.000000
    12  H    2.264821   0.000000
    13  H    2.266315   1.786307   0.000000
    14  H    3.409193   3.721156   3.166294   0.000000
    15  H    5.754869   5.477045   5.085903   2.432514   0.000000
    16  H    6.538540   4.748010   5.077717   4.952955   4.309614
    17  H    4.583534   2.492907   3.127139   4.309621   4.960032
    18  H    9.029593   8.096400   7.945095   5.963711   3.640825
    19  H    7.876745   7.230164   6.771165   4.643938   2.341539
    20  H    7.811521   7.151941   7.098790   4.695714   2.381208
                   16         17         18         19         20
    16  H    0.000000
    17  H    2.464136   0.000000
    18  H    4.461004   6.522003   0.000000
    19  H    4.430326   5.996812   1.766748   0.000000
    20  H    4.441187   6.028740   1.767889   1.806851   0.000000
 Stoichiometry    C8H10O2
 Framework group  C1[X(C8H10O2)]
 Deg. of freedom    54
 Full point group                 C1      NOp   1
 Largest Abelian subgroup         C1      NOp   1
 Largest concise Abelian subgroup C1      NOp   1
                         Standard orientation:                         
 ---------------------------------------------------------------------
 Center     Atomic      Atomic             Coordinates (Angstroms)
 Number     Number       Type             X           Y           Z
 ---------------------------------------------------------------------
      1          8           0        3.450425   -0.931317   -0.331777
      2          6           0        2.892037    0.264151    0.199349
      3          6           0        1.390512    0.253657    0.088313
      4          6           0        0.664909   -0.943736    0.144506
      5          6           0       -0.732355   -0.943174    0.083790
      6          6           0       -1.429528    0.259043   -0.019834
      7          6           0       -0.714498    1.458037   -0.064820
      8          6           0        0.683036    1.458574   -0.006357
      9          8           0       -2.789104    0.394942   -0.079061
     10          6           0       -3.550470   -0.805368   -0.017762
     11          1           0        4.412113   -0.867537   -0.209538
     12          1           0        3.312469    1.106709   -0.359703
     13          1           0        3.179196    0.348674    1.252287
     14          1           0        1.190519   -1.892832    0.229434
     15          1           0       -1.239558   -1.900969    0.120859
     16          1           0       -1.250756    2.400504   -0.143681
     17          1           0        1.211062    2.408488   -0.037137
     18          1           0       -4.609764   -0.533360   -0.043337
     19          1           0       -3.368845   -1.342733    0.919178
     20          1           0       -3.348860   -1.443047   -0.884776
 ---------------------------------------------------------------------
 Rotational constants (GHZ):      3.8813265      0.6873118      0.5925325
 Leave Link  202 at Tue Sep 28 14:14:19 2021, MaxMem=  805306368 cpu:       0.0
 (Enter /sw/target/amd/app/gaussian/Gaussian09RevA.02_gcc-4.9.2/g09/l301.exe)
 Standard basis: 6-31G(d) (6D, 7F)
 Ernie: Thresh=  0.10000D-02 Tol=  0.10000D-05 Strict=F.
 There are   170 symmetry adapted basis functions of A   symmetry.
 Integral buffers will be    131072 words long.
 Raffenetti 2 integral format.
 Two-electron integral symmetry is turned on.
   170 basis functions,   320 primitive gaussians,   170 cartesian basis functions
    37 alpha electrons       37 beta electrons
       nuclear repulsion energy       502.4549841561 Hartrees.
 IExCor=  402 DFT=T Ex+Corr=B3LYP ExCW=0 ScaHFX=  0.200000
 ScaDFX=  0.800000  0.720000  1.000000  0.810000 ScalE2=  1.000000  1.000000
 IRadAn=      0 IRanWt=     -1 IRanGd=            0 ICorTp=0
 NAtoms=   20 NActive=   20 NUniq=   20 SFac= 7.50D-01 NAtFMM=   80 NAOKFM=F Big=F
 Leave Link  301 at Tue Sep 28 14:14:19 2021, MaxMem=  805306368 cpu:       0.1
 (Enter /sw/target/amd/app/gaussian/Gaussian09RevA.02_gcc-4.9.2/g09/l302.exe)
 NPDir=0 NMtPBC=     1 NCelOv=     1 NCel=       1 NClECP=     1 NCelD=      1
         NCelK=      1 NCelE2=     1 NClLst=     1 CellRange=     0.0.
 One-electron integrals computed using PRISM.
 NBasis=   170 RedAO= T  NBF=   170
 NBsUse=   170 1.00D-06 NBFU=   170
 Precomputing XC quadrature grid using
 IXCGrd= 2 IRadAn=           0 IRanWt=          -1 IRanGd=           0 AccXCQ= 1.00D-10.
 NRdTot=    1262 NPtTot=      160534 NUsed=      169641 NTot=      169673
 NSgBfM=   169   169   169   169   169 NAtAll=    20    20.
 Leave Link  302 at Tue Sep 28 14:14:19 2021, MaxMem=  805306368 cpu:       1.1
 (Enter /sw/target/amd/app/gaussian/Gaussian09RevA.02_gcc-4.9.2/g09/l303.exe)
 DipDrv:  MaxL=1.
 Leave Link  303 at Tue Sep 28 14:14:19 2021, MaxMem=  805306368 cpu:       0.1
 (Enter /sw/target/amd/app/gaussian/Gaussian09RevA.02_gcc-4.9.2/g09/l401.exe)
 Harris functional with IExCor=  402 diagonalized for initial guess.
 ExpMin= 1.61D-01 ExpMax= 5.48D+03 ExpMxC= 8.25D+02 IAcc=1 IRadAn=         1 AccDes= 0.00D+00
 HarFok:  IExCor=  402 AccDes= 0.00D+00 IRadAn=         1 IDoV= 1
 ScaDFX=  1.000000  1.000000  1.000000  1.000000
 FoFCou: FMM=F IPFlag=           0 FMFlag=      100000 FMFlg1=           0
         NFxFlg=           0 DoJE=T BraDBF=F KetDBF=T FulRan=T
         Omega=  0.000000  0.000000  1.000000  0.000000  0.000000 ICntrl=     500 IOpCl=  0
         NMat0=    1 NMatS0=    1 NMatT0=    0 NMatD0=    1 NMtDS0=    0 NMtDT0=    0
         I1Cent=           4 NGrid=           0.
 Petite list used in FoFCou.
 Harris En= -461.349163678441    
 Initial guess orbital symmetries:
       Occupied  (A) (A) (A) (A) (A) (A) (A) (A) (A) (A) (A) (A)
                 (A) (A) (A) (A) (A) (A) (A) (A) (A) (A) (A) (A)
                 (A) (A) (A) (A) (A) (A) (A) (A) (A) (A) (A) (A)
                 (A)
       Virtual   (A) (A) (A) (A) (A) (A) (A) (A) (A) (A) (A) (A)
                 (A) (A) (A) (A) (A) (A) (A) (A) (A) (A) (A) (A)
                 (A) (A) (A) (A) (A) (A) (A) (A) (A) (A) (A) (A)
                 (A) (A) (A) (A) (A) (A) (A) (A) (A) (A) (A) (A)
                 (A) (A) (A) (A) (A) (A) (A) (A) (A) (A) (A) (A)
                 (A) (A) (A) (A) (A) (A) (A) (A) (A) (A) (A) (A)
                 (A) (A) (A) (A) (A) (A) (A) (A) (A) (A) (A) (A)
                 (A) (A) (A) (A) (A) (A) (A) (A) (A) (A) (A) (A)
                 (A) (A) (A) (A) (A) (A) (A) (A) (A) (A) (A) (A)
                 (A) (A) (A) (A) (A) (A) (A) (A) (A) (A) (A) (A)
                 (A) (A) (A) (A) (A) (A) (A) (A) (A) (A) (A) (A)
                 (A)
 The electronic state of the initial guess is 1-A.
 Leave Link  401 at Tue Sep 28 14:14:21 2021, MaxMem=  805306368 cpu:       3.9
 (Enter /sw/target/amd/app/gaussian/Gaussian09RevA.02_gcc-4.9.2/g09/l502.exe)
 Closed shell SCF:
 Requested convergence on RMS density matrix=1.00D-08 within  64 cycles.
 Requested convergence on MAX density matrix=1.00D-06.
 Requested convergence on             energy=1.00D-06.
 No special actions if energy rises.
 Using DIIS extrapolation, IDIIS=  1040.
 Integral symmetry usage will be decided dynamically.
       169448 words used for storage of precomputed grid.
 Keep R1 ints in memory in canonical form, NReq=108404410.
 IEnd=      263996 IEndB=      263996 NGot=   805306368 MDV=   699435259
 LenX=   699435259 LenY=   699405918
 Symmetry not used in FoFDir.
 MinBra= 0 MaxBra= 2 Meth= 1.
 IRaf=       0 NMat=   1 IRICut=       1 DoRegI=T DoRafI=F ISym2E= 0 JSym2E=0.
 Integral accuracy reduced to 1.0D-05 until final iterations.

 Cycle   1  Pass 0  IDiag  1:
 E= -461.047943770631    
 DIIS: error= 3.90D-02 at cycle   1 NSaved=   1.
 NSaved= 1 IEnMin= 1 EnMin= -461.047943770631     IErMin= 1 ErrMin= 3.90D-02
 ErrMax= 3.90D-02 EMaxC= 1.00D-01 BMatC= 2.37D-01 BMatP= 2.37D-01
 IDIUse=3 WtCom= 6.10D-01 WtEn= 3.90D-01
 Coeff-Com:  0.100D+01
 Coeff-En:   0.100D+01
 Coeff:      0.100D+01
 Gap=     0.242 Goal=   None    Shift=    0.000
 GapD=    0.242 DampG=1.000 DampE=0.500 DampFc=0.5000 IDamp=-1.
 Damping current iteration by 5.00D-01
 RMSDP=6.67D-03 MaxDP=1.34D-01              OVMax= 1.67D-01

 Cycle   2  Pass 0  IDiag  1:
 E= -461.156478049269     Delta-E=       -0.108534278637 Rises=F Damp=T
 DIIS: error= 7.31D-03 at cycle   2 NSaved=   2.
 NSaved= 2 IEnMin= 2 EnMin= -461.156478049269     IErMin= 2 ErrMin= 7.31D-03
 ErrMax= 7.31D-03 EMaxC= 1.00D-01 BMatC= 1.39D-02 BMatP= 2.37D-01
 IDIUse=3 WtCom= 9.27D-01 WtEn= 7.31D-02
 Coeff-Com:  0.609D-01 0.939D+00
 Coeff-En:   0.810D-01 0.919D+00
 Coeff:      0.623D-01 0.938D+00
 Gap=     0.249 Goal=   None    Shift=    0.000
 RMSDP=1.60D-03 MaxDP=3.10D-02 DE=-1.09D-01 OVMax= 1.22D-01

 Cycle   3  Pass 0  IDiag  1:
 E= -461.280165203407     Delta-E=       -0.123687154138 Rises=F Damp=F
 DIIS: error= 6.35D-03 at cycle   3 NSaved=   3.
 NSaved= 3 IEnMin= 3 EnMin= -461.280165203407     IErMin= 3 ErrMin= 6.35D-03
 ErrMax= 6.35D-03 EMaxC= 1.00D-01 BMatC= 8.80D-03 BMatP= 1.39D-02
 IDIUse=3 WtCom= 9.37D-01 WtEn= 6.35D-02
 Coeff-Com: -0.127D-01 0.432D+00 0.580D+00
 Coeff-En:   0.000D+00 0.000D+00 0.100D+01
 Coeff:     -0.119D-01 0.405D+00 0.607D+00
 Gap=     0.217 Goal=   None    Shift=    0.000
 RMSDP=8.68D-04 MaxDP=2.18D-02 DE=-1.24D-01 OVMax= 5.24D-02

 Cycle   4  Pass 0  IDiag  1:
 E= -461.285394727283     Delta-E=       -0.005229523876 Rises=F Damp=F
 DIIS: error= 4.56D-03 at cycle   4 NSaved=   4.
 NSaved= 4 IEnMin= 4 EnMin= -461.285394727283     IErMin= 4 ErrMin= 4.56D-03
 ErrMax= 4.56D-03 EMaxC= 1.00D-01 BMatC= 2.80D-03 BMatP= 8.80D-03
 IDIUse=3 WtCom= 9.54D-01 WtEn= 4.56D-02
 Coeff-Com: -0.125D-01 0.102D+00 0.374D+00 0.536D+00
 Coeff-En:   0.000D+00 0.000D+00 0.292D+00 0.708D+00
 Coeff:     -0.119D-01 0.977D-01 0.370D+00 0.544D+00
 Gap=     0.214 Goal=   None    Shift=    0.000
 RMSDP=4.08D-04 MaxDP=8.55D-03 DE=-5.23D-03 OVMax= 2.64D-02

 Cycle   5  Pass 0  IDiag  1:
 E= -461.288092340106     Delta-E=       -0.002697612823 Rises=F Damp=F
 DIIS: error= 1.12D-03 at cycle   5 NSaved=   5.
 NSaved= 5 IEnMin= 5 EnMin= -461.288092340106     IErMin= 5 ErrMin= 1.12D-03
 ErrMax= 1.12D-03 EMaxC= 1.00D-01 BMatC= 2.33D-04 BMatP= 2.80D-03
 IDIUse=3 WtCom= 9.89D-01 WtEn= 1.12D-02
 Coeff-Com: -0.536D-02 0.296D-01 0.177D+00 0.322D+00 0.477D+00
 Coeff-En:   0.000D+00 0.000D+00 0.000D+00 0.118D-01 0.988D+00
 Coeff:     -0.530D-02 0.293D-01 0.175D+00 0.319D+00 0.482D+00
 Gap=     0.214 Goal=   None    Shift=    0.000
 RMSDP=1.12D-04 MaxDP=2.41D-03 DE=-2.70D-03 OVMax= 6.60D-03

 Cycle   6  Pass 0  IDiag  1:
 E= -461.288314225988     Delta-E=       -0.000221885882 Rises=F Damp=F
 DIIS: error= 2.21D-04 at cycle   6 NSaved=   6.
 NSaved= 6 IEnMin= 6 EnMin= -461.288314225988     IErMin= 6 ErrMin= 2.21D-04
 ErrMax= 2.21D-04 EMaxC= 1.00D-01 BMatC= 1.57D-05 BMatP= 2.33D-04
 IDIUse=3 WtCom= 9.98D-01 WtEn= 2.21D-03
 Coeff-Com: -0.108D-02 0.179D-02 0.424D-01 0.958D-01 0.255D+00 0.606D+00
 Coeff-En:   0.000D+00 0.000D+00 0.000D+00 0.000D+00 0.438D-02 0.996D+00
 Coeff:     -0.108D-02 0.179D-02 0.423D-01 0.956D-01 0.255D+00 0.607D+00
 Gap=     0.214 Goal=   None    Shift=    0.000
 RMSDP=2.54D-05 MaxDP=5.86D-04 DE=-2.22D-04 OVMax= 1.11D-03

 Cycle   7  Pass 0  IDiag  1:
 E= -461.288328235384     Delta-E=       -0.000014009396 Rises=F Damp=F
 DIIS: error= 2.02D-05 at cycle   7 NSaved=   7.
 NSaved= 7 IEnMin= 7 EnMin= -461.288328235384     IErMin= 7 ErrMin= 2.02D-05
 ErrMax= 2.02D-05 EMaxC= 1.00D-01 BMatC= 1.81D-07 BMatP= 1.57D-05
 IDIUse=1 WtCom= 1.00D+00 WtEn= 0.00D+00
 Coeff-Com: -0.249D-03-0.135D-03 0.121D-01 0.292D-01 0.865D-01 0.227D+00
 Coeff-Com:  0.646D+00
 Coeff:     -0.249D-03-0.135D-03 0.121D-01 0.292D-01 0.865D-01 0.227D+00
 Coeff:      0.646D+00
 Gap=     0.214 Goal=   None    Shift=    0.000
 RMSDP=3.07D-06 MaxDP=9.90D-05 DE=-1.40D-05 OVMax= 1.93D-04

 Initial convergence to 1.0D-05 achieved.  Increase integral accuracy.
 Cycle   8  Pass 1  IDiag  1:
 E= -461.288269541168     Delta-E=        0.000058694216 Rises=F Damp=F
 DIIS: error= 5.33D-05 at cycle   1 NSaved=   1.
 NSaved= 1 IEnMin= 1 EnMin= -461.288269541168     IErMin= 1 ErrMin= 5.33D-05
 ErrMax= 5.33D-05 EMaxC= 1.00D-01 BMatC= 1.30D-07 BMatP= 1.30D-07
 IDIUse=1 WtCom= 1.00D+00 WtEn= 0.00D+00
 Coeff-Com:  0.100D+01
 Coeff:      0.100D+01
 Gap=     0.214 Goal=   None    Shift=    0.000
 RMSDP=3.07D-06 MaxDP=9.90D-05 DE= 5.87D-05 OVMax= 1.97D-04

 Cycle   9  Pass 1  IDiag  1:
 E= -461.288269623611     Delta-E=       -0.000000082442 Rises=F Damp=F
 DIIS: error= 1.26D-05 at cycle   2 NSaved=   2.
 NSaved= 2 IEnMin= 2 EnMin= -461.288269623611     IErMin= 2 ErrMin= 1.26D-05
 ErrMax= 1.26D-05 EMaxC= 1.00D-01 BMatC= 8.50D-08 BMatP= 1.30D-07
 IDIUse=1 WtCom= 1.00D+00 WtEn= 0.00D+00
 Coeff-Com:  0.429D+00 0.571D+00
 Coeff:      0.429D+00 0.571D+00
 Gap=     0.214 Goal=   None    Shift=    0.000
 RMSDP=2.35D-06 MaxDP=8.63D-05 DE=-8.24D-08 OVMax= 1.86D-04

 Cycle  10  Pass 1  IDiag  1:
 E= -461.288269687716     Delta-E=       -0.000000064106 Rises=F Damp=F
 DIIS: error= 7.33D-06 at cycle   3 NSaved=   3.
 NSaved= 3 IEnMin= 3 EnMin= -461.288269687716     IErMin= 3 ErrMin= 7.33D-06
 ErrMax= 7.33D-06 EMaxC= 1.00D-01 BMatC= 1.84D-08 BMatP= 8.50D-08
 IDIUse=1 WtCom= 1.00D+00 WtEn= 0.00D+00
 Coeff-Com:  0.901D-02 0.312D+00 0.679D+00
 Coeff:      0.901D-02 0.312D+00 0.679D+00
 Gap=     0.214 Goal=   None    Shift=    0.000
 RMSDP=1.06D-06 MaxDP=3.17D-05 DE=-6.41D-08 OVMax= 8.19D-05

 Cycle  11  Pass 1  IDiag  1:
 E= -461.288269703260     Delta-E=       -0.000000015544 Rises=F Damp=F
 DIIS: error= 4.42D-06 at cycle   4 NSaved=   4.
 NSaved= 4 IEnMin= 4 EnMin= -461.288269703260     IErMin= 4 ErrMin= 4.42D-06
 ErrMax= 4.42D-06 EMaxC= 1.00D-01 BMatC= 3.18D-09 BMatP= 1.84D-08
 IDIUse=1 WtCom= 1.00D+00 WtEn= 0.00D+00
 Coeff-Com: -0.150D-01 0.174D+00 0.437D+00 0.403D+00
 Coeff:     -0.150D-01 0.174D+00 0.437D+00 0.403D+00
 Gap=     0.214 Goal=   None    Shift=    0.000
 RMSDP=3.68D-07 MaxDP=1.06D-05 DE=-1.55D-08 OVMax= 2.70D-05

 Cycle  12  Pass 1  IDiag  1:
 E= -461.288269706583     Delta-E=       -0.000000003323 Rises=F Damp=F
 DIIS: error= 4.66D-07 at cycle   5 NSaved=   5.
 NSaved= 5 IEnMin= 5 EnMin= -461.288269706583     IErMin= 5 ErrMin= 4.66D-07
 ErrMax= 4.66D-07 EMaxC= 1.00D-01 BMatC= 3.56D-11 BMatP= 3.18D-09
 IDIUse=1 WtCom= 1.00D+00 WtEn= 0.00D+00
 Coeff-Com: -0.618D-02 0.558D-01 0.143D+00 0.167D+00 0.640D+00
 Coeff:     -0.618D-02 0.558D-01 0.143D+00 0.167D+00 0.640D+00
 Gap=     0.214 Goal=   None    Shift=    0.000
 RMSDP=4.88D-08 MaxDP=1.21D-06 DE=-3.32D-09 OVMax= 3.49D-06

 Cycle  13  Pass 1  IDiag  1:
 E= -461.288269706616     Delta-E=       -0.000000000033 Rises=F Damp=F
 DIIS: error= 1.88D-07 at cycle   6 NSaved=   6.
 NSaved= 6 IEnMin= 6 EnMin= -461.288269706616     IErMin= 6 ErrMin= 1.88D-07
 ErrMax= 1.88D-07 EMaxC= 1.00D-01 BMatC= 6.03D-12 BMatP= 3.56D-11
 IDIUse=1 WtCom= 1.00D+00 WtEn= 0.00D+00
 Coeff-Com: -0.244D-02 0.197D-01 0.508D-01 0.659D-01 0.355D+00 0.511D+00
 Coeff:     -0.244D-02 0.197D-01 0.508D-01 0.659D-01 0.355D+00 0.511D+00
 Gap=     0.214 Goal=   None    Shift=    0.000
 RMSDP=1.81D-08 MaxDP=5.63D-07 DE=-3.31D-11 OVMax= 1.21D-06

 Cycle  14  Pass 1  IDiag  1:
 E= -461.288269706628     Delta-E=       -0.000000000012 Rises=F Damp=F
 DIIS: error= 6.00D-08 at cycle   7 NSaved=   7.
 NSaved= 7 IEnMin= 7 EnMin= -461.288269706628     IErMin= 7 ErrMin= 6.00D-08
 ErrMax= 6.00D-08 EMaxC= 1.00D-01 BMatC= 4.93D-13 BMatP= 6.03D-12
 IDIUse=1 WtCom= 1.00D+00 WtEn= 0.00D+00
 Coeff-Com: -0.466D-03 0.297D-02 0.755D-02 0.120D-01 0.941D-01 0.256D+00
 Coeff-Com:  0.628D+00
 Coeff:     -0.466D-03 0.297D-02 0.755D-02 0.120D-01 0.941D-01 0.256D+00
 Coeff:      0.628D+00
 Gap=     0.214 Goal=   None    Shift=    0.000
 RMSDP=6.29D-09 MaxDP=1.50D-07 DE=-1.21D-11 OVMax= 4.69D-07

 SCF Done:  E(RB3LYP) =  -461.288269707     A.U. after   14 cycles
             Convg  =    0.6290D-08             -V/T =  2.0093
 KE= 4.570576276751D+02 PE=-2.079559490676D+03 EE= 6.587586091379D+02
 Leave Link  502 at Tue Sep 28 14:14:44 2021, MaxMem=  805306368 cpu:      58.4
 (Enter /sw/target/amd/app/gaussian/Gaussian09RevA.02_gcc-4.9.2/g09/l508.exe)
 QCSCF skips out because SCF is already converged.
 Leave Link  508 at Tue Sep 28 14:14:44 2021, MaxMem=  805306368 cpu:       0.0
 (Enter /sw/target/amd/app/gaussian/Gaussian09RevA.02_gcc-4.9.2/g09/l601.exe)
 Copying SCF densities to generalized density rwf, IOpCl= 0 IROHF=0.

 **********************************************************************

            Population analysis using the SCF density.

 **********************************************************************

 Orbital symmetries:
       Occupied  (A) (A) (A) (A) (A) (A) (A) (A) (A) (A) (A) (A)
                 (A) (A) (A) (A) (A) (A) (A) (A) (A) (A) (A) (A)
                 (A) (A) (A) (A) (A) (A) (A) (A) (A) (A) (A) (A)
                 (A)
       Virtual   (A) (A) (A) (A) (A) (A) (A) (A) (A) (A) (A) (A)
                 (A) (A) (A) (A) (A) (A) (A) (A) (A) (A) (A) (A)
                 (A) (A) (A) (A) (A) (A) (A) (A) (A) (A) (A) (A)
                 (A) (A) (A) (A) (A) (A) (A) (A) (A) (A) (A) (A)
                 (A) (A) (A) (A) (A) (A) (A) (A) (A) (A) (A) (A)
                 (A) (A) (A) (A) (A) (A) (A) (A) (A) (A) (A) (A)
                 (A) (A) (A) (A) (A) (A) (A) (A) (A) (A) (A) (A)
                 (A) (A) (A) (A) (A) (A) (A) (A) (A) (A) (A) (A)
                 (A) (A) (A) (A) (A) (A) (A) (A) (A) (A) (A) (A)
                 (A) (A) (A) (A) (A) (A) (A) (A) (A) (A) (A) (A)
                 (A) (A) (A) (A) (A) (A) (A) (A) (A) (A) (A) (A)
                 (A)
 The electronic state is 1-A.
 Alpha  occ. eigenvalues --  -19.17281 -19.14070 -10.23930 -10.23668 -10.23101
 Alpha  occ. eigenvalues --  -10.18487 -10.18340 -10.18156 -10.18095 -10.17824
 Alpha  occ. eigenvalues --   -1.05745  -1.01485  -0.84447  -0.76191  -0.74030
 Alpha  occ. eigenvalues --   -0.70516  -0.65376  -0.60434  -0.57084  -0.52597
 Alpha  occ. eigenvalues --   -0.51044  -0.47205  -0.46587  -0.46143  -0.44698
 Alpha  occ. eigenvalues --   -0.43846  -0.41516  -0.40067  -0.36954  -0.36719
 Alpha  occ. eigenvalues --   -0.35463  -0.32837  -0.32004  -0.31061  -0.26591
 Alpha  occ. eigenvalues --   -0.24245  -0.20911
 Alpha virt. eigenvalues --    0.00477   0.01725   0.07454   0.09950   0.11125
 Alpha virt. eigenvalues --    0.13415   0.14367   0.15302   0.15574   0.16552
 Alpha virt. eigenvalues --    0.17240   0.18277   0.18846   0.20784   0.23238
 Alpha virt. eigenvalues --    0.25984   0.26220   0.32294   0.33914   0.35590
 Alpha virt. eigenvalues --    0.37311   0.47748   0.50457   0.51565   0.52843
 Alpha virt. eigenvalues --    0.53681   0.55563   0.56016   0.58003   0.59387
 Alpha virt. eigenvalues --    0.60247   0.60505   0.61213   0.62758   0.64787
 Alpha virt. eigenvalues --    0.66650   0.67705   0.70419   0.73368   0.74920
 Alpha virt. eigenvalues --    0.75885   0.79383   0.81217   0.83148   0.84187
 Alpha virt. eigenvalues --    0.85250   0.85783   0.86771   0.87539   0.90682
 Alpha virt. eigenvalues --    0.91255   0.92147   0.93875   0.96230   0.99374
 Alpha virt. eigenvalues --    1.00186   1.02512   1.03097   1.05712   1.07917
 Alpha virt. eigenvalues --    1.12441   1.16695   1.18025   1.18388   1.23473
 Alpha virt. eigenvalues --    1.25552   1.26994   1.30384   1.37445   1.39400
 Alpha virt. eigenvalues --    1.40280   1.43082   1.45920   1.46472   1.49276
 Alpha virt. eigenvalues --    1.51792   1.53005   1.67079   1.67792   1.69730
 Alpha virt. eigenvalues --    1.76050   1.79321   1.81725   1.82702   1.84576
 Alpha virt. eigenvalues --    1.88993   1.91131   1.94149   1.97485   1.99001
 Alpha virt. eigenvalues --    2.01061   2.05201   2.06224   2.08301   2.10363
 Alpha virt. eigenvalues --    2.12415   2.14065   2.15836   2.16250   2.25167
 Alpha virt. eigenvalues --    2.25802   2.27038   2.31420   2.34385   2.36179
 Alpha virt. eigenvalues --    2.37497   2.39363   2.45495   2.47034   2.54066
 Alpha virt. eigenvalues --    2.54922   2.64506   2.66095   2.67967   2.71072
 Alpha virt. eigenvalues --    2.76680   2.77949   2.87754   2.92021   2.97102
 Alpha virt. eigenvalues --    2.99645   3.18977   3.43420   3.78399   4.05820
 Alpha virt. eigenvalues --    4.10959   4.12176   4.20739   4.28239   4.32872
 Alpha virt. eigenvalues --    4.36545   4.50935   4.76960
          Condensed to atoms (all electrons):
              1          2          3          4          5          6
     1  O    8.267737   0.233684  -0.044949   0.003291   0.000358   0.000000
     2  C    0.233684   4.949787   0.350122  -0.061796   0.007533   0.000287
     3  C   -0.044949   0.350122   4.732040   0.536853  -0.023132  -0.033145
     4  C    0.003291  -0.061796   0.536853   4.972189   0.463847  -0.001104
     5  C    0.000358   0.007533  -0.023132   0.463847   5.137948   0.465498
     6  C    0.000000   0.000287  -0.033145  -0.001104   0.465498   4.507902
     7  C   -0.000060   0.006544  -0.022045  -0.043535  -0.063804   0.545150
     8  C    0.001264  -0.060605   0.524526  -0.027867  -0.047297  -0.017528
     9  O   -0.000000   0.000001   0.000183   0.003573  -0.063042   0.279726
    10  C    0.000000  -0.000000  -0.000007   0.000340  -0.006576  -0.044156
    11  H    0.230816  -0.020980   0.006553   0.000009  -0.000002   0.000000
    12  H   -0.039909   0.361114  -0.043858   0.006375  -0.000072   0.000008
    13  H   -0.041875   0.350139  -0.032686  -0.006523  -0.000122   0.000034
    14  H    0.010767  -0.011565  -0.038509   0.356944  -0.043414   0.003123
    15  H   -0.000001  -0.000196   0.003451  -0.037719   0.352660  -0.047193
    16  H    0.000000  -0.000159   0.004055   0.000263   0.007456  -0.036442
    17  H    0.000035  -0.009894  -0.048217   0.006681   0.000193   0.004398
    18  H    0.000000  -0.000000  -0.000000   0.000000   0.000191   0.003239
    19  H   -0.000000  -0.000000  -0.000010  -0.000116   0.005394  -0.005069
    20  H    0.000000   0.000000   0.000001  -0.000155   0.004816  -0.004643
              7          8          9         10         11         12
     1  O   -0.000060   0.001264  -0.000000   0.000000   0.230816  -0.039909
     2  C    0.006544  -0.060605   0.000001  -0.000000  -0.020980   0.361114
     3  C   -0.022045   0.524526   0.000183  -0.000007   0.006553  -0.043858
     4  C   -0.043535  -0.027867   0.003573   0.000340   0.000009   0.006375
     5  C   -0.063804  -0.047297  -0.063042  -0.006576  -0.000002  -0.000072
     6  C    0.545150  -0.017528   0.279726  -0.044156   0.000000   0.000008
     7  C    4.989479   0.512593  -0.055042   0.004267   0.000004   0.000160
     8  C    0.512593   4.973116   0.003169  -0.000128  -0.000186  -0.002920
     9  O   -0.055042   0.003169   8.202128   0.249813  -0.000000  -0.000000
    10  C    0.004267  -0.000128   0.249813   4.895271  -0.000000   0.000000
    11  H    0.000004  -0.000186  -0.000000  -0.000000   0.400823  -0.004906
    12  H    0.000160  -0.002920  -0.000000   0.000000  -0.004906   0.644710
    13  H   -0.000294   0.000730  -0.000000  -0.000000  -0.004106  -0.054743
    14  H    0.000489   0.006104  -0.000044  -0.000007  -0.000429   0.000401
    15  H    0.004356   0.000912  -0.007336   0.005828  -0.000000   0.000002
    16  H    0.343817  -0.040975  -0.000282  -0.000182  -0.000000  -0.000007
    17  H   -0.043251   0.355358  -0.000060   0.000003  -0.000011   0.005965
    18  H   -0.000110   0.000004  -0.031101   0.383299  -0.000000   0.000000
    19  H    0.000100   0.000001  -0.035803   0.363315   0.000000  -0.000000
    20  H    0.000045  -0.000002  -0.036340   0.365099  -0.000000   0.000000
             13         14         15         16         17         18
     1  O   -0.041875   0.010767  -0.000001   0.000000   0.000035   0.000000
     2  C    0.350139  -0.011565  -0.000196  -0.000159  -0.009894  -0.000000
     3  C   -0.032686  -0.038509   0.003451   0.004055  -0.048217  -0.000000
     4  C   -0.006523   0.356944  -0.037719   0.000263   0.006681   0.000000
     5  C   -0.000122  -0.043414   0.352660   0.007456   0.000193   0.000191
     6  C    0.000034   0.003123  -0.047193  -0.036442   0.004398   0.003239
     7  C   -0.000294   0.000489   0.004356   0.343817  -0.043251  -0.000110
     8  C    0.000730   0.006104   0.000912  -0.040975   0.355358   0.000004
     9  O   -0.000000  -0.000044  -0.007336  -0.000282  -0.000060  -0.031101
    10  C   -0.000000  -0.000007   0.005828  -0.000182   0.000003   0.383299
    11  H   -0.004106  -0.000429  -0.000000  -0.000000  -0.000011  -0.000000
    12  H   -0.054743   0.000401   0.000002  -0.000007   0.005965   0.000000
    13  H    0.652860   0.000438   0.000003   0.000003   0.000503   0.000000
    14  H    0.000438   0.572725  -0.005294   0.000015  -0.000165  -0.000000
    15  H    0.000003  -0.005294   0.597261  -0.000167   0.000017  -0.000107
    16  H    0.000003   0.000015  -0.000167   0.594606  -0.006339  -0.000026
    17  H    0.000503  -0.000165   0.000017  -0.006339   0.613347  -0.000000
    18  H    0.000000  -0.000000  -0.000107  -0.000026  -0.000000   0.546743
    19  H    0.000000   0.000002   0.001706   0.000030  -0.000000  -0.033971
    20  H   -0.000000   0.000001   0.001787   0.000028  -0.000000  -0.034418
             19         20
     1  O   -0.000000   0.000000
     2  C   -0.000000   0.000000
     3  C   -0.000010   0.000001
     4  C   -0.000116  -0.000155
     5  C    0.005394   0.004816
     6  C   -0.005069  -0.004643
     7  C    0.000100   0.000045
     8  C    0.000001  -0.000002
     9  O   -0.035803  -0.036340
    10  C    0.363315   0.365099
    11  H    0.000000  -0.000000
    12  H   -0.000000   0.000000
    13  H    0.000000  -0.000000
    14  H    0.000002   0.000001
    15  H    0.001706   0.001787
    16  H    0.000030   0.000028
    17  H   -0.000000  -0.000000
    18  H   -0.033971  -0.034418
    19  H    0.599092  -0.046682
    20  H   -0.046682   0.597328
 Mulliken atomic charges:
              1
     1  O   -0.621159
     2  C   -0.094017
     3  C    0.128775
     4  C   -0.171552
     5  C   -0.198432
     6  C    0.379916
     7  C   -0.178864
     8  C   -0.180268
     9  O   -0.509541
    10  C   -0.216180
    11  H    0.392416
    12  H    0.127679
    13  H    0.135637
    14  H    0.148419
    15  H    0.130030
    16  H    0.134305
    17  H    0.121435
    18  H    0.166256
    19  H    0.152010
    20  H    0.153137
 Sum of Mulliken atomic charges =  -0.00000
 Mulliken charges with hydrogens summed into heavy atoms:
              1
     1  O   -0.228743
     2  C    0.169299
     3  C    0.128775
     4  C   -0.023134
     5  C   -0.068402
     6  C    0.379916
     7  C   -0.044559
     8  C   -0.058833
     9  O   -0.509541
    10  C    0.255222
 Sum of Mulliken charges with hydrogens summed into heavy atoms =  -0.00000
 Electronic spatial extent (au):  <R**2>=           1864.2988
 Charge=              0.0000 electrons
 Dipole moment (field-independent basis, Debye):
    X=              0.5803    Y=             -0.2586    Z=              0.7773  Tot=              1.0039
 Quadrupole moment (field-independent basis, Debye-Ang):
   XX=            -42.9792   YY=            -55.9902   ZZ=            -61.6157
   XY=              7.1314   XZ=              2.0232   YZ=             -1.0018
 Traceless Quadrupole moment (field-independent basis, Debye-Ang):
   XX=             10.5492   YY=             -2.4618   ZZ=             -8.0873
   XY=              7.1314   XZ=              2.0232   YZ=             -1.0018
 Octapole moment (field-independent basis, Debye-Ang**2):
  XXX=             44.1879  YYY=              0.7117  ZZZ=             -1.0281  XYY=             -3.1393
  XXY=            -14.0268  XXZ=              5.3203  XZZ=             -0.4072  YZZ=             -1.9483
  YYZ=             -0.3180  XYZ=             -2.3332
 Hexadecapole moment (field-independent basis, Debye-Ang**3):
 XXXX=          -1388.6816 YYYY=           -383.4201 ZZZZ=            -81.1231 XXXY=             13.9960
 XXXZ=              5.0771 YYYX=            -11.4283 YYYZ=             -2.1995 ZZZX=             -1.0045
 ZZZY=              1.1844 XXYY=           -376.3158 XXZZ=           -330.8992 YYZZ=            -86.1957
 XXYZ=             -5.1363 YYXZ=              0.2796 ZZXY=             -1.8685
 N-N= 5.024549841561D+02 E-N=-2.079559492477D+03  KE= 4.570576276751D+02
 No NMR shielding tensors so no spin-rotation constants.
 Leave Link  601 at Tue Sep 28 14:14:44 2021, MaxMem=  805306368 cpu:       0.5
 (Enter /sw/target/amd/app/gaussian/Gaussian09RevA.02_gcc-4.9.2/g09/l701.exe)
 Compute integral first derivatives.
 ... and contract with generalized density number  0.
 Leave Link  701 at Tue Sep 28 14:14:45 2021, MaxMem=  805306368 cpu:       0.5
 (Enter /sw/target/amd/app/gaussian/Gaussian09RevA.02_gcc-4.9.2/g09/l702.exe)
 L702 exits ... SP integral derivatives will be done elsewhere.
 Leave Link  702 at Tue Sep 28 14:14:45 2021, MaxMem=  805306368 cpu:       0.0
 (Enter /sw/target/amd/app/gaussian/Gaussian09RevA.02_gcc-4.9.2/g09/l703.exe)
 Compute integral first derivatives, UseDBF=F ICtDFT=           0.
 Integral derivatives from FoFDir, PRISM(SPDF).
 Calling FoFJK, ICntrl=      2127 FMM=F ISym2X=0 I1Cent= 0 IOpClX= 0 NMat=1 NMatS=1 NMatT=0.
 FoFCou: FMM=F IPFlag=           0 FMFlag=      100000 FMFlg1=         800
         NFxFlg=           0 DoJE=F BraDBF=F KetDBF=F FulRan=T
         Omega=  0.000000  0.000000  1.000000  0.000000  0.000000 ICntrl=    2127 IOpCl=  0
         NMat0=    1 NMatS0=    1 NMatT0=    0 NMatD0=    1 NMtDS0=    0 NMtDT0=    0
         I1Cent=           0 NGrid=           0.
 Symmetry not used in FoFCou.
 Leave Link  703 at Tue Sep 28 14:14:54 2021, MaxMem=  805306368 cpu:      27.5
 (Enter /sw/target/amd/app/gaussian/Gaussian09RevA.02_gcc-4.9.2/g09/l716.exe)
 Dipole        = 2.28289251D-01-1.01756784D-01 3.05797324D-01
 ***** Axes restored to original set *****
 -------------------------------------------------------------------
 Center     Atomic                   Forces (Hartrees/Bohr)
 Number     Number              X              Y              Z
 -------------------------------------------------------------------
      1        8           0.006354687    0.003409509    0.001023720
      2        6           0.004272567    0.005070120   -0.003530475
      3        6           0.003509796    0.000853412    0.002424367
      4        6          -0.003601333   -0.000764271   -0.002502457
      5        6           0.005164394    0.006280159    0.002819646
      6        6          -0.004922977   -0.004012260   -0.002425866
      7        6          -0.010974368    0.007185406   -0.004736677
      8        6           0.007288189   -0.007710073    0.002527783
      9        8           0.006786158   -0.001040376    0.003962901
     10        6          -0.001465567   -0.005485810   -0.000817725
     11        1           0.002326003   -0.001915390    0.001062246
     12        1          -0.007509591   -0.004952402    0.000201123
     13        1          -0.007113128   -0.000086081    0.002241745
     14        1          -0.001834830   -0.000979858   -0.001886324
     15        1          -0.000170542   -0.002448239   -0.000032490
     16        1           0.002299123   -0.000677326    0.001188756
     17        1           0.000190917    0.000805178   -0.000712607
     18        1          -0.004233497   -0.000020620   -0.002514566
     19        1           0.001931121    0.003155209    0.000207767
     20        1           0.001702878    0.003333715    0.001499133
 -------------------------------------------------------------------
 Cartesian Forces:  Max     0.010974368 RMS     0.003875129
 Leave Link  716 at Tue Sep 28 14:14:54 2021, MaxMem=  805306368 cpu:       0.0
 (Enter /sw/target/amd/app/gaussian/Gaussian09RevA.02_gcc-4.9.2/g09/l103.exe)

 GradGradGradGradGradGradGradGradGradGradGradGradGradGradGradGradGradGrad
 Berny optimization.
 Internal  Forces:  Max     0.008729878 RMS     0.002715429
 Search for a local minimum.
 Step number   1 out of a maximum of  100
 All quantities printed in internal units (Hartrees-Bohrs-Radians)
 RMS Force = .27154D-02 SwitMx=.10000D-02 MixMth= 1
 Mixed Optimization -- RFO/linear search
 Second derivative matrix not updated -- first step.
     Eigenvalues ---    0.00691   0.01391   0.01396   0.01518   0.02082
     Eigenvalues ---    0.02091   0.02094   0.02108   0.02119   0.02120
     Eigenvalues ---    0.02138   0.02140   0.02155   0.06274   0.07340
     Eigenvalues ---    0.09987   0.10527   0.11647   0.14022   0.16000
     Eigenvalues ---    0.16000   0.16000   0.16000   0.16000   0.16000
     Eigenvalues ---    0.16000   0.16000   0.21998   0.22129   0.22966
     Eigenvalues ---    0.23990   0.24958   0.25000   0.25000   0.31791
     Eigenvalues ---    0.34211   0.34232   0.34243   0.34280   0.34359
     Eigenvalues ---    0.35017   0.35133   0.35136   0.35464   0.41540
     Eigenvalues ---    0.42051   0.42111   0.42131   0.45549   0.45842
     Eigenvalues ---    0.45921   0.46428   0.51434   0.530671000.00000
     Eigenvalues --- 1000.000001000.000001000.000001000.000001000.00000
     Eigenvalues --- 1000.000001000.000001000.000001000.000001000.00000
     Eigenvalues --- 1000.000001000.000001000.000001000.000001000.00000
     Eigenvalues --- 1000.000001000.000001000.000001000.000001000.00000
     Eigenvalues --- 1000.000001000.000001000.000001000.000001000.00000
     Eigenvalues --- 1000.000001000.000001000.000001000.000001000.00000
     Eigenvalues --- 1000.000001000.000001000.000001000.000001000.00000
 RFO step:  Lambda=-3.35734448D-03 EMin= 6.91056034D-03
 Linear search not attempted -- first point.
 Iteration  1 RMS(Cart)=  0.02783799 RMS(Int)=  0.00051920
 Iteration  2 RMS(Cart)=  0.00059948 RMS(Int)=  0.00018012
 Iteration  3 RMS(Cart)=  0.00000021 RMS(Int)=  0.00018012
 Variable       Old X    -DE/DX   Delta X   Delta X   Delta X     New X
                                 (Linear)    (Quad)   (Total)
    R1        2.68782   0.00717   0.00000   0.01690   0.01690   2.70472
    R2        1.83591  -0.00286   0.00000  -0.00535  -0.00535   1.83055
    R3        2.84529   0.00185   0.00000   0.00577   0.00577   2.85106
    R4        2.06941   0.00387   0.00000   0.01120   0.01120   2.08061
    R5        2.06861   0.00577   0.00000   0.01666   0.01666   2.08527
    R6        2.64792  -0.00481   0.00000  -0.01109  -0.01110   2.63681
    R7        2.64650   0.00066   0.00000   0.00060   0.00058   2.64708
    R8        2.64294  -0.00054   0.00000  -0.00090  -0.00089   2.64205
    R9        2.05647  -0.00231   0.00000  -0.00654  -0.00654   2.04993
   R10        2.63352   0.00417   0.00000   0.00969   0.00970   2.64322
   R11        2.04929   0.00003   0.00000   0.00008   0.00008   2.04937
   R12        2.63945   0.00372   0.00000   0.00858   0.00858   2.64804
   R13        2.58445   0.00163   0.00000   0.00316   0.00316   2.58761
   R14        2.64327  -0.00674   0.00000  -0.01486  -0.01487   2.62840
   R15        2.05454  -0.00102   0.00000  -0.00287  -0.00287   2.05166
   R16        2.05459   0.00024   0.00000   0.00069   0.00069   2.05527
   R17        2.68858  -0.00271   0.00000  -0.00639  -0.00639   2.68219
   R18        2.06728  -0.00075   0.00000  -0.00215  -0.00215   2.06513
   R19        2.06975   0.00142   0.00000   0.00411   0.00411   2.07386
   R20        2.06922   0.00168   0.00000   0.00486   0.00486   2.07408
    A1        1.86131   0.00219   0.00000   0.01339   0.01339   1.87470
    A2        1.93704  -0.00841   0.00000  -0.03038  -0.03013   1.90691
    A3        1.88107   0.00873   0.00000   0.06892   0.06873   1.94981
    A4        1.89769   0.00397   0.00000   0.02672   0.02642   1.92410
    A5        1.92899  -0.00224   0.00000  -0.02301  -0.02288   1.90612
    A6        1.91036   0.00155   0.00000  -0.00391  -0.00395   1.90642
    A7        1.90809  -0.00343   0.00000  -0.03717  -0.03828   1.86980
    A8        2.11696  -0.00115   0.00000  -0.00291  -0.00294   2.11402
    A9        2.09760   0.00141   0.00000   0.00721   0.00717   2.10477
   A10        2.06727  -0.00024   0.00000  -0.00329  -0.00341   2.06387
   A11        2.11211   0.00140   0.00000   0.00556   0.00552   2.11764
   A12        2.09243  -0.00213   0.00000  -0.01154  -0.01153   2.08089
   A13        2.07862   0.00073   0.00000   0.00593   0.00594   2.08456
   A14        2.09829  -0.00207   0.00000  -0.00693  -0.00695   2.09135
   A15        2.05492   0.00355   0.00000   0.01885   0.01885   2.07377
   A16        2.12997  -0.00148   0.00000  -0.01191  -0.01191   2.11806
   A17        2.07925   0.00000   0.00000   0.00269   0.00264   2.08190
   A18        2.19724  -0.00354   0.00000  -0.01528  -0.01531   2.18193
   A19        2.00669   0.00354   0.00000   0.01265   0.01262   2.01931
   A20        2.10652  -0.00197   0.00000  -0.00815  -0.00821   2.09831
   A21        2.08744  -0.00156   0.00000  -0.01147  -0.01148   2.07596
   A22        2.08922   0.00353   0.00000   0.01965   0.01964   2.10886
   A23        2.10276   0.00288   0.00000   0.01053   0.01047   2.11323
   A24        2.10397  -0.00224   0.00000  -0.01020  -0.01017   2.09380
   A25        2.07646  -0.00063   0.00000  -0.00033  -0.00030   2.07615
   A26        2.03341   0.00589   0.00000   0.02326   0.02326   2.05667
   A27        1.88326  -0.00663   0.00000  -0.03810  -0.03802   1.84524
   A28        1.94125   0.00137   0.00000   0.00704   0.00709   1.94834
   A29        1.93764   0.00194   0.00000   0.01063   0.01069   1.94833
   A30        1.87818   0.00352   0.00000   0.02391   0.02398   1.90216
   A31        1.88029   0.00332   0.00000   0.02289   0.02298   1.90327
   A32        1.94023  -0.00350   0.00000  -0.02581  -0.02578   1.91445
    D1       -3.11847  -0.00005   0.00000   0.02759   0.02746  -3.09101
    D2        1.05023   0.00220   0.00000   0.03009   0.03090   1.08113
    D3       -1.01629  -0.00078   0.00000   0.02116   0.02047  -0.99582
    D4        0.53596  -0.00137   0.00000  -0.02903  -0.02905   0.50692
    D5       -2.66235  -0.00098   0.00000  -0.00802  -0.00800  -2.67035
    D6        2.62201   0.00265   0.00000   0.02253   0.02234   2.64435
    D7       -0.57631   0.00304   0.00000   0.04354   0.04339  -0.53292
    D8       -1.55869  -0.00202   0.00000  -0.04056  -0.04042  -1.59911
    D9        1.52618  -0.00163   0.00000  -0.01956  -0.01937   1.50681
   D10        3.10549  -0.00006   0.00000  -0.00124  -0.00125   3.10425
   D11       -0.04393  -0.00024   0.00000  -0.00841  -0.00838  -0.05231
   D12        0.01967  -0.00049   0.00000  -0.02222  -0.02215  -0.00249
   D13       -3.12975  -0.00068   0.00000  -0.02939  -0.02929   3.12415
   D14       -3.10421   0.00031   0.00000   0.00900   0.00903  -3.09518
   D15        0.03908   0.00024   0.00000   0.00641   0.00645   0.04553
   D16       -0.01774   0.00065   0.00000   0.02942   0.02949   0.01174
   D17        3.12554   0.00059   0.00000   0.02683   0.02691  -3.13073
   D18       -0.01217   0.00009   0.00000   0.00468   0.00472  -0.00745
   D19        3.13011  -0.00001   0.00000   0.00063   0.00064   3.13076
   D20        3.13719   0.00029   0.00000   0.01187   0.01195  -3.13405
   D21       -0.00372   0.00019   0.00000   0.00782   0.00787   0.00415
   D22        0.00236   0.00013   0.00000   0.00583   0.00585   0.00821
   D23       -3.13429  -0.00028   0.00000  -0.01067  -0.01054   3.13835
   D24       -3.13995   0.00023   0.00000   0.01008   0.01005  -3.12990
   D25        0.00658  -0.00017   0.00000  -0.00643  -0.00634   0.00024
   D26       -0.00055   0.00004   0.00000   0.00150   0.00143   0.00087
   D27       -3.13954  -0.00029   0.00000  -0.01269  -0.01264   3.13101
   D28        3.13663   0.00038   0.00000   0.01618   0.01625  -3.13031
   D29       -0.00236   0.00005   0.00000   0.00198   0.00218  -0.00017
   D30        0.00933   0.00018   0.00000   0.00771   0.00769   0.01702
   D31       -3.12751  -0.00020   0.00000  -0.00817  -0.00815  -3.13566
   D32        0.00845  -0.00045   0.00000  -0.01950  -0.01950  -0.01105
   D33       -3.13481  -0.00039   0.00000  -0.01695  -0.01695   3.13142
   D34       -3.13575  -0.00012   0.00000  -0.00533  -0.00521  -3.14096
   D35        0.00417  -0.00006   0.00000  -0.00279  -0.00267   0.00151
   D36        3.11012   0.00019   0.00000   0.01280   0.01282   3.12295
   D37        1.05392  -0.00082   0.00000   0.00296   0.00299   1.05692
   D38       -1.11635   0.00130   0.00000   0.02354   0.02348  -1.09287
         Item               Value     Threshold  Converged?
 Maximum Force            0.008730     0.000450     NO 
 RMS     Force            0.002715     0.000300     NO 
 Maximum Displacement     0.133630     0.001800     NO 
 RMS     Displacement     0.027794     0.001200     NO 
 Predicted change in Energy=-1.725333D-03
 GradGradGradGradGradGradGradGradGradGradGradGradGradGradGradGradGradGrad

 Leave Link  103 at Tue Sep 28 14:14:54 2021, MaxMem=  805306368 cpu:       0.4
 (Enter /sw/target/amd/app/gaussian/Gaussian09RevA.02_gcc-4.9.2/g09/l202.exe)
                          Input orientation:                          
 ---------------------------------------------------------------------
 Center     Atomic      Atomic             Coordinates (Angstroms)
 Number     Number       Type             X           Y           Z
 ---------------------------------------------------------------------
      1          8           0        3.295441    1.143550   -0.241956
      2          6           0        2.210012    0.218684   -0.119376
      3          6           0        2.760233   -1.164866    0.124064
      4          6           0        3.979396   -1.351711    0.776529
      5          6           0        4.472200   -2.632530    1.043663
      6          6           0        3.732298   -3.756311    0.661420
      7          6           0        2.507205   -3.579403    0.004580
      8          6           0        2.035221   -2.298889   -0.263912
      9          8           0        4.114104   -5.055271    0.866175
     10          6           0        5.344698   -5.286935    1.534411
     11          1           0        2.912813    2.026779   -0.350851
     12          1           0        1.582344    0.205011   -1.023849
     13          1           0        1.558446    0.504302    0.724153
     14          1           0        4.561728   -0.484625    1.069423
     15          1           0        5.429321   -2.730528    1.544076
     16          1           0        1.942197   -4.455552   -0.298503
     17          1           0        1.086390   -2.185607   -0.783306
     18          1           0        5.442198   -6.372944    1.607439
     19          1           0        5.342753   -4.859862    2.545339
     20          1           0        6.194931   -4.888338    0.966209
 ---------------------------------------------------------------------
                    Distance matrix (angstroms):
                    1          2          3          4          5
     1  O    0.000000
     2  C    1.431279   0.000000
     3  C    2.397750   1.508714   0.000000
     4  C    2.780546   2.529724   1.395342   0.000000
     5  C    4.158890   3.820940   2.435269   1.398111   0.000000
     6  C    5.001557   4.327538   2.819442   2.420002   1.398731
     7  C    4.794621   3.811713   2.430698   2.779543   2.416085
     8  C    3.665928   2.527770   1.400777   2.399891   2.785666
     9  O    6.350083   5.693108   4.185564   3.707093   2.455485
    10  C    6.978974   6.547756   5.065569   4.233724   2.836891
    11  H    0.968688   1.953642   3.230391   3.717900   5.107399
    12  H    2.104023   1.101011   2.140487   3.377958   4.547253
    13  H    2.087859   1.103475   2.142550   3.050987   4.293223
    14  H    2.444208   2.727353   2.145184   1.084775   2.149924
    15  H    4.769889   4.672139   3.404668   2.143023   1.084480
    16  H    5.760592   4.685328   3.417069   3.865191   3.394958
    17  H    4.031905   2.735680   2.160320   3.390862   3.873146
    18  H    8.032840   7.541783   6.042965   5.295563   3.905053
    19  H    6.928309   6.535014   5.117126   4.158672   2.823809
    20  H    6.800763   6.568086   5.135231   4.177595   2.839449
                    6          7          8          9         10
     6  C    0.000000
     7  C    1.401281   0.000000
     8  C    2.420824   1.390889   0.000000
     9  O    1.369305   2.345774   3.632697   0.000000
    10  C    2.388463   3.647932   4.807808   1.419355   0.000000
    11  H    5.927933   5.632063   4.414650   7.285581   7.934651
    12  H    4.811913   4.029246   2.655582   6.136168   7.131722
    13  H    4.783555   4.253772   3.010227   6.120491   6.966394
    14  H    3.399757   3.864273   3.384165   4.597008   4.887887
    15  H    2.170530   3.410190   3.869760   2.755680   2.557825
    16  H    2.148221   1.085694   2.158945   2.536399   3.953199
    17  H    3.399290   2.140595   1.087604   4.485845   5.755278
    18  H    3.265804   4.357432   5.630930   2.012354   1.092820
    19  H    2.713031   4.016884   5.038872   2.089822   1.097439
    20  H    2.727442   4.029561   5.051893   2.089908   1.097556
                   11         12         13         14         15
    11  H    0.000000
    12  H    2.354127   0.000000
    13  H    2.303884   1.773600   0.000000
    14  H    3.323138   3.705956   3.180705   0.000000
    15  H    5.705746   5.478217   5.110780   2.453996   0.000000
    16  H    6.554804   4.730377   5.078705   4.949891   4.304747
    17  H    4.611620   2.453342   3.119436   4.289978   4.957287
    18  H    8.988217   8.067939   7.947342   5.978043   3.642990
    19  H    7.856103   7.247945   6.812631   4.683057   2.354588
    20  H    7.766968   7.153914   7.115908   4.697946   2.361405
                   16         17         18         19         20
    16  H    0.000000
    17  H    2.473881   0.000000
    18  H    4.422558   6.497885   0.000000
    19  H    4.451369   6.028941   1.782965   0.000000
    20  H    4.457863   6.038438   1.783771   1.794623   0.000000
 Stoichiometry    C8H10O2
 Framework group  C1[X(C8H10O2)]
 Deg. of freedom    54
 Full point group                 C1      NOp   1
 Largest Abelian subgroup         C1      NOp   1
 Largest concise Abelian subgroup C1      NOp   1
                         Standard orientation:                         
 ---------------------------------------------------------------------
 Center     Atomic      Atomic             Coordinates (Angstroms)
 Number     Number       Type             X           Y           Z
 ---------------------------------------------------------------------
      1          8           0        3.417066   -0.957890   -0.324320
      2          6           0        2.900312    0.271677    0.194997
      3          6           0        1.395347    0.263164    0.089060
      4          6           0        0.675538   -0.931136    0.139087
      5          6           0       -0.721522   -0.940741    0.085751
      6          6           0       -1.422322    0.265903   -0.010890
      7          6           0       -0.708690    1.470731   -0.062930
      8          6           0        0.681511    1.463482   -0.019810
      9          8           0       -2.785420    0.379983   -0.073692
     10          6           0       -3.553627   -0.812176   -0.017245
     11          1           0        4.377802   -0.943514   -0.201302
     12          1           0        3.296929    1.142549   -0.349523
     13          1           0        3.189490    0.390697    1.253235
     14          1           0        1.212933   -1.871000    0.206889
     15          1           0       -1.239334   -1.893086    0.117487
     16          1           0       -1.257850    2.403429   -0.147946
     17          1           0        1.214832    2.409953   -0.071231
     18          1           0       -4.598090   -0.493902   -0.062561
     19          1           0       -3.386765   -1.356940    0.920711
     20          1           0       -3.342390   -1.470355   -0.869775
 ---------------------------------------------------------------------
 Rotational constants (GHZ):      3.8441515      0.6909119      0.5940982
 Leave Link  202 at Tue Sep 28 14:14:54 2021, MaxMem=  805306368 cpu:       0.0
 (Enter /sw/target/amd/app/gaussian/Gaussian09RevA.02_gcc-4.9.2/g09/l301.exe)
 Standard basis: 6-31G(d) (6D, 7F)
 Ernie: Thresh=  0.10000D-02 Tol=  0.10000D-05 Strict=F.
 There are   170 symmetry adapted basis functions of A   symmetry.
 Integral buffers will be    131072 words long.
 Raffenetti 2 integral format.
 Two-electron integral symmetry is turned on.
   170 basis functions,   320 primitive gaussians,   170 cartesian basis functions
    37 alpha electrons       37 beta electrons
       nuclear repulsion energy       502.5418195438 Hartrees.
 IExCor=  402 DFT=T Ex+Corr=B3LYP ExCW=0 ScaHFX=  0.200000
 ScaDFX=  0.800000  0.720000  1.000000  0.810000 ScalE2=  1.000000  1.000000
 IRadAn=      0 IRanWt=     -1 IRanGd=            0 ICorTp=0
 NAtoms=   20 NActive=   20 NUniq=   20 SFac= 7.50D-01 NAtFMM=   80 NAOKFM=F Big=F
 Leave Link  301 at Tue Sep 28 14:14:54 2021, MaxMem=  805306368 cpu:       0.1
 (Enter /sw/target/amd/app/gaussian/Gaussian09RevA.02_gcc-4.9.2/g09/l302.exe)
 NPDir=0 NMtPBC=     1 NCelOv=     1 NCel=       1 NClECP=     1 NCelD=      1
         NCelK=      1 NCelE2=     1 NClLst=     1 CellRange=     0.0.
 One-electron integrals computed using PRISM.
 NBasis=   170 RedAO= T  NBF=   170
 NBsUse=   170 1.00D-06 NBFU=   170
 Precomputing XC quadrature grid using
 IXCGrd= 2 IRadAn=           0 IRanWt=          -1 IRanGd=           0 AccXCQ= 1.00D-10.
 NRdTot=    1262 NPtTot=      160534 NUsed=      169641 NTot=      169673
 NSgBfM=   169   169   169   169   169 NAtAll=    20    20.
 Leave Link  302 at Tue Sep 28 14:14:55 2021, MaxMem=  805306368 cpu:       0.9
 (Enter /sw/target/amd/app/gaussian/Gaussian09RevA.02_gcc-4.9.2/g09/l303.exe)
 DipDrv:  MaxL=1.
 Leave Link  303 at Tue Sep 28 14:14:55 2021, MaxMem=  805306368 cpu:       0.1
 (Enter /sw/target/amd/app/gaussian/Gaussian09RevA.02_gcc-4.9.2/g09/l401.exe)
 Initial guess read from the read-write file.
 B after Tr=     0.000000    0.000000    0.000000
         Rot=    1.000000    0.000000    0.000000    0.000000 Ang=   0.00 deg.
 Guess basis will be translated and rotated to current coordinates.
 Initial guess orbital symmetries:
       Occupied  (A) (A) (A) (A) (A) (A) (A) (A) (A) (A) (A) (A)
                 (A) (A) (A) (A) (A) (A) (A) (A) (A) (A) (A) (A)
                 (A) (A) (A) (A) (A) (A) (A) (A) (A) (A) (A) (A)
                 (A)
       Virtual   (A) (A) (A) (A) (A) (A) (A) (A) (A) (A) (A) (A)
                 (A) (A) (A) (A) (A) (A) (A) (A) (A) (A) (A) (A)
                 (A) (A) (A) (A) (A) (A) (A) (A) (A) (A) (A) (A)
                 (A) (A) (A) (A) (A) (A) (A) (A) (A) (A) (A) (A)
                 (A) (A) (A) (A) (A) (A) (A) (A) (A) (A) (A) (A)
                 (A) (A) (A) (A) (A) (A) (A) (A) (A) (A) (A) (A)
                 (A) (A) (A) (A) (A) (A) (A) (A) (A) (A) (A) (A)
                 (A) (A) (A) (A) (A) (A) (A) (A) (A) (A) (A) (A)
                 (A) (A) (A) (A) (A) (A) (A) (A) (A) (A) (A) (A)
                 (A) (A) (A) (A) (A) (A) (A) (A) (A) (A) (A) (A)
                 (A) (A) (A) (A) (A) (A) (A) (A) (A) (A) (A) (A)
                 (A)
 The electronic state of the initial guess is 1-A.
 Generating alternative initial guess.
 Harris functional with IExCor=  402 diagonalized for initial guess.
 ExpMin= 1.61D-01 ExpMax= 5.48D+03 ExpMxC= 8.25D+02 IAcc=1 IRadAn=         1 AccDes= 0.00D+00
 HarFok:  IExCor=  402 AccDes= 0.00D+00 IRadAn=         1 IDoV= 1
 ScaDFX=  1.000000  1.000000  1.000000  1.000000
 FoFCou: FMM=F IPFlag=           0 FMFlag=      100000 FMFlg1=           0
         NFxFlg=           0 DoJE=T BraDBF=F KetDBF=T FulRan=T
         Omega=  0.000000  0.000000  1.000000  0.000000  0.000000 ICntrl=     500 IOpCl=  0
         NMat0=    1 NMatS0=    1 NMatT0=    0 NMatD0=    1 NMtDS0=    0 NMtDT0=    0
         I1Cent=           4 NGrid=           0.
 Petite list used in FoFCou.
 Harris En= -461.350250384611    
 Leave Link  401 at Tue Sep 28 14:14:56 2021, MaxMem=  805306368 cpu:       3.9
 (Enter /sw/target/amd/app/gaussian/Gaussian09RevA.02_gcc-4.9.2/g09/l502.exe)
 Closed shell SCF:
 Requested convergence on RMS density matrix=1.00D-08 within  64 cycles.
 Requested convergence on MAX density matrix=1.00D-06.
 Requested convergence on             energy=1.00D-06.
 No special actions if energy rises.
 Using DIIS extrapolation, IDIIS=  1040.
 Integral symmetry usage will be decided dynamically.
       169448 words used for storage of precomputed grid.
 Keep R1 ints in memory in canonical form, NReq=108404410.
 IEnd=      263996 IEndB=      263996 NGot=   805306368 MDV=   699435259
 LenX=   699435259 LenY=   699405918
 Symmetry not used in FoFDir.
 MinBra= 0 MaxBra= 2 Meth= 1.
 IRaf=       0 NMat=   1 IRICut=       1 DoRegI=T DoRafI=F ISym2E= 0 JSym2E=0.
 Integral accuracy reduced to 1.0D-05 until final iterations.

 Cycle   1  Pass 0  IDiag  1:
 E= -461.288500618757    
 DIIS: error= 1.86D-03 at cycle   1 NSaved=   1.
 NSaved= 1 IEnMin= 1 EnMin= -461.288500618757     IErMin= 1 ErrMin= 1.86D-03
 ErrMax= 1.86D-03 EMaxC= 1.00D-01 BMatC= 8.30D-04 BMatP= 8.30D-04
 IDIUse=3 WtCom= 9.81D-01 WtEn= 1.86D-02
 Coeff-Com:  0.100D+01
 Coeff-En:   0.100D+01
 Coeff:      0.100D+01
 Gap=     0.217 Goal=   None    Shift=    0.000
 GapD=    0.217 DampG=1.000 DampE=1.000 DampFc=1.0000 IDamp=-1.
 RMSDP=3.37D-04 MaxDP=7.90D-03              OVMax= 9.21D-03

 Cycle   2  Pass 0  IDiag  1:
 E= -461.289879331037     Delta-E=       -0.001378712280 Rises=F Damp=F
 DIIS: error= 4.46D-04 at cycle   2 NSaved=   2.
 NSaved= 2 IEnMin= 2 EnMin= -461.289879331037     IErMin= 2 ErrMin= 4.46D-04
 ErrMax= 4.46D-04 EMaxC= 1.00D-01 BMatC= 6.43D-05 BMatP= 8.30D-04
 IDIUse=3 WtCom= 9.96D-01 WtEn= 4.46D-03
 Coeff-Com:  0.701D-01 0.930D+00
 Coeff-En:   0.000D+00 0.100D+01
 Coeff:      0.698D-01 0.930D+00
 Gap=     0.215 Goal=   None    Shift=    0.000
 RMSDP=9.57D-05 MaxDP=2.43D-03 DE=-1.38D-03 OVMax= 4.28D-03

 Cycle   3  Pass 0  IDiag  1:
 E= -461.289853160959     Delta-E=        0.000026170078 Rises=F Damp=F
 DIIS: error= 5.72D-04 at cycle   3 NSaved=   3.
 NSaved= 3 IEnMin= 2 EnMin= -461.289879331037     IErMin= 2 ErrMin= 4.46D-04
 ErrMax= 5.72D-04 EMaxC= 1.00D-01 BMatC= 1.00D-04 BMatP= 6.43D-05
 IDIUse=3 WtCom= 2.95D-01 WtEn= 7.05D-01
 Coeff-Com: -0.340D-01 0.570D+00 0.464D+00
 Coeff-En:   0.000D+00 0.578D+00 0.422D+00
 Coeff:     -0.100D-01 0.575D+00 0.435D+00
 Gap=     0.214 Goal=   None    Shift=    0.000
 RMSDP=5.68D-05 MaxDP=1.30D-03 DE= 2.62D-05 OVMax= 3.15D-03

 Cycle   4  Pass 0  IDiag  1:
 E= -461.289944964603     Delta-E=       -0.000091803644 Rises=F Damp=F
 DIIS: error= 7.90D-05 at cycle   4 NSaved=   4.
 NSaved= 4 IEnMin= 4 EnMin= -461.289944964603     IErMin= 4 ErrMin= 7.90D-05
 ErrMax= 7.90D-05 EMaxC= 1.00D-01 BMatC= 1.71D-06 BMatP= 6.43D-05
 IDIUse=1 WtCom= 1.00D+00 WtEn= 0.00D+00
 Coeff-Com: -0.199D-01 0.226D+00 0.201D+00 0.593D+00
 Coeff:     -0.199D-01 0.226D+00 0.201D+00 0.593D+00
 Gap=     0.214 Goal=   None    Shift=    0.000
 RMSDP=1.17D-05 MaxDP=3.05D-04 DE=-9.18D-05 OVMax= 7.08D-04

 Cycle   5  Pass 0  IDiag  1:
 E= -461.289946356977     Delta-E=       -0.000001392374 Rises=F Damp=F
 DIIS: error= 5.44D-05 at cycle   5 NSaved=   5.
 NSaved= 5 IEnMin= 5 EnMin= -461.289946356977     IErMin= 5 ErrMin= 5.44D-05
 ErrMax= 5.44D-05 EMaxC= 1.00D-01 BMatC= 4.19D-07 BMatP= 1.71D-06
 IDIUse=1 WtCom= 1.00D+00 WtEn= 0.00D+00
 Coeff-Com: -0.698D-02 0.584D-01 0.577D-01 0.347D+00 0.544D+00
 Coeff:     -0.698D-02 0.584D-01 0.577D-01 0.347D+00 0.544D+00
 Gap=     0.214 Goal=   None    Shift=    0.000
 RMSDP=4.93D-06 MaxDP=1.08D-04 DE=-1.39D-06 OVMax= 2.78D-04

 Initial convergence to 1.0D-05 achieved.  Increase integral accuracy.
 Cycle   6  Pass 1  IDiag  1:
 E= -461.289893844946     Delta-E=        0.000052512031 Rises=F Damp=F
 DIIS: error= 5.35D-05 at cycle   1 NSaved=   1.
 NSaved= 1 IEnMin= 1 EnMin= -461.289893844946     IErMin= 1 ErrMin= 5.35D-05
 ErrMax= 5.35D-05 EMaxC= 1.00D-01 BMatC= 1.21D-07 BMatP= 1.21D-07
 IDIUse=1 WtCom= 1.00D+00 WtEn= 0.00D+00
 Coeff-Com:  0.100D+01
 Coeff:      0.100D+01
 Gap=     0.214 Goal=   None    Shift=    0.000
 RMSDP=4.93D-06 MaxDP=1.08D-04 DE= 5.25D-05 OVMax= 1.54D-04

 Cycle   7  Pass 1  IDiag  1:
 E= -461.289893915682     Delta-E=       -0.000000070736 Rises=F Damp=F
 DIIS: error= 1.96D-05 at cycle   2 NSaved=   2.
 NSaved= 2 IEnMin= 2 EnMin= -461.289893915682     IErMin= 2 ErrMin= 1.96D-05
 ErrMax= 1.96D-05 EMaxC= 1.00D-01 BMatC= 8.81D-08 BMatP= 1.21D-07
 IDIUse=1 WtCom= 1.00D+00 WtEn= 0.00D+00
 Coeff-Com:  0.446D+00 0.554D+00
 Coeff:      0.446D+00 0.554D+00
 Gap=     0.214 Goal=   None    Shift=    0.000
 RMSDP=2.76D-06 MaxDP=6.97D-05 DE=-7.07D-08 OVMax= 1.69D-04

 Cycle   8  Pass 1  IDiag  1:
 E= -461.289893970860     Delta-E=       -0.000000055178 Rises=F Damp=F
 DIIS: error= 1.05D-05 at cycle   3 NSaved=   3.
 NSaved= 3 IEnMin= 3 EnMin= -461.289893970860     IErMin= 3 ErrMin= 1.05D-05
 ErrMax= 1.05D-05 EMaxC= 1.00D-01 BMatC= 2.76D-08 BMatP= 8.81D-08
 IDIUse=1 WtCom= 1.00D+00 WtEn= 0.00D+00
 Coeff-Com: -0.267D-02 0.356D+00 0.646D+00
 Coeff:     -0.267D-02 0.356D+00 0.646D+00
 Gap=     0.214 Goal=   None    Shift=    0.000
 RMSDP=1.18D-06 MaxDP=2.77D-05 DE=-5.52D-08 OVMax= 8.01D-05

 Cycle   9  Pass 1  IDiag  1:
 E= -461.289893997226     Delta-E=       -0.000000026367 Rises=F Damp=F
 DIIS: error= 3.62D-06 at cycle   4 NSaved=   4.
 NSaved= 4 IEnMin= 4 EnMin= -461.289893997226     IErMin= 4 ErrMin= 3.62D-06
 ErrMax= 3.62D-06 EMaxC= 1.00D-01 BMatC= 1.75D-09 BMatP= 2.76D-08
 IDIUse=1 WtCom= 1.00D+00 WtEn= 0.00D+00
 Coeff-Com: -0.151D-01 0.195D+00 0.387D+00 0.433D+00
 Coeff:     -0.151D-01 0.195D+00 0.387D+00 0.433D+00
 Gap=     0.214 Goal=   None    Shift=    0.000
 RMSDP=2.84D-07 MaxDP=7.26D-06 DE=-2.64D-08 OVMax= 1.75D-05

 Cycle  10  Pass 1  IDiag  1:
 E= -461.289893999021     Delta-E=       -0.000000001795 Rises=F Damp=F
 DIIS: error= 4.75D-07 at cycle   5 NSaved=   5.
 NSaved= 5 IEnMin= 5 EnMin= -461.289893999021     IErMin= 5 ErrMin= 4.75D-07
 ErrMax= 4.75D-07 EMaxC= 1.00D-01 BMatC= 4.08D-11 BMatP= 1.75D-09
 IDIUse=1 WtCom= 1.00D+00 WtEn= 0.00D+00
 Coeff-Com: -0.666D-02 0.677D-01 0.137D+00 0.196D+00 0.606D+00
 Coeff:     -0.666D-02 0.677D-01 0.137D+00 0.196D+00 0.606D+00
 Gap=     0.214 Goal=   None    Shift=    0.000
 RMSDP=4.69D-08 MaxDP=1.32D-06 DE=-1.79D-09 OVMax= 2.78D-06

 Cycle  11  Pass 1  IDiag  1:
 E= -461.289893999046     Delta-E=       -0.000000000026 Rises=F Damp=F
 DIIS: error= 1.44D-07 at cycle   6 NSaved=   6.
 NSaved= 6 IEnMin= 6 EnMin= -461.289893999046     IErMin= 6 ErrMin= 1.44D-07
 ErrMax= 1.44D-07 EMaxC= 1.00D-01 BMatC= 6.54D-12 BMatP= 4.08D-11
 IDIUse=1 WtCom= 1.00D+00 WtEn= 0.00D+00
 Coeff-Com: -0.208D-02 0.179D-01 0.366D-01 0.623D-01 0.333D+00 0.552D+00
 Coeff:     -0.208D-02 0.179D-01 0.366D-01 0.623D-01 0.333D+00 0.552D+00
 Gap=     0.214 Goal=   None    Shift=    0.000
 RMSDP=1.85D-08 MaxDP=4.14D-07 DE=-2.56D-11 OVMax= 1.21D-06

 Cycle  12  Pass 1  IDiag  1:
 E= -461.289893999061     Delta-E=       -0.000000000015 Rises=F Damp=F
 DIIS: error= 8.07D-08 at cycle   7 NSaved=   7.
 NSaved= 7 IEnMin= 7 EnMin= -461.289893999061     IErMin= 7 ErrMin= 8.07D-08
 ErrMax= 8.07D-08 EMaxC= 1.00D-01 BMatC= 5.94D-13 BMatP= 6.54D-12
 IDIUse=1 WtCom= 1.00D+00 WtEn= 0.00D+00
[...]
    15  H    0.004323   0.000887  -0.007687   0.006132  -0.000000   0.000002
    16  H    0.346434  -0.039801  -0.001157  -0.000176  -0.000000  -0.000005
    17  H   -0.044140   0.355833  -0.000061   0.000003  -0.000010   0.007162
    18  H   -0.000114   0.000004  -0.033193   0.384104  -0.000000   0.000000
    19  H   -0.000230   0.000009  -0.031238   0.362609   0.000000  -0.000000
    20  H   -0.000190   0.000007  -0.031148   0.363332   0.000000   0.000000
             13         14         15         16         17         18
     1  O   -0.038424   0.011575  -0.000001   0.000000   0.000057   0.000000
     2  C    0.339816  -0.012002  -0.000191  -0.000149  -0.011351  -0.000000
     3  C   -0.029777  -0.040590   0.003499   0.004392  -0.048129  -0.000000
     4  C   -0.003523   0.358067  -0.034881   0.000240   0.007064   0.000002
     5  C   -0.000216  -0.043488   0.350879   0.007230   0.000245   0.000323
     6  C    0.000008   0.003468  -0.048280  -0.039793   0.004830   0.003014
     7  C   -0.000283   0.000543   0.004323   0.346434  -0.044140  -0.000114
     8  C    0.000831   0.006381   0.000887  -0.039801   0.355833   0.000004
     9  O    0.000000  -0.000047  -0.007687  -0.001157  -0.000061  -0.033193
    10  C    0.000000  -0.000007   0.006132  -0.000176   0.000003   0.384104
    11  H   -0.005249  -0.000497  -0.000000  -0.000000  -0.000010  -0.000000
    12  H   -0.053223   0.000410   0.000002  -0.000005   0.007162   0.000000
    13  H    0.643717   0.000503   0.000002   0.000003   0.000381  -0.000000
    14  H    0.000503   0.585310  -0.005592   0.000016  -0.000187  -0.000000
    15  H    0.000002  -0.005592   0.609143  -0.000185   0.000017  -0.000008
    16  H    0.000003   0.000016  -0.000185   0.605990  -0.006844  -0.000024
    17  H    0.000381  -0.000187   0.000017  -0.006844   0.625701  -0.000000
    18  H   -0.000000  -0.000000  -0.000008  -0.000024  -0.000000   0.532280
    19  H   -0.000000   0.000002   0.001461   0.000022  -0.000000  -0.031149
    20  H    0.000000   0.000002   0.001200   0.000025  -0.000000  -0.031098
             19         20
     1  O    0.000000  -0.000000
     2  C   -0.000000   0.000000
     3  C    0.000004   0.000007
     4  C   -0.000193  -0.000217
     5  C    0.003941   0.003740
     6  C   -0.003138  -0.002953
     7  C   -0.000230  -0.000190
     8  C    0.000009   0.000007
     9  O   -0.031238  -0.031148
    10  C    0.362609   0.363332
    11  H    0.000000   0.000000
    12  H   -0.000000   0.000000
    13  H   -0.000000   0.000000
    14  H    0.000002   0.000002
    15  H    0.001461   0.001200
    16  H    0.000022   0.000025
    17  H   -0.000000  -0.000000
    18  H   -0.031149  -0.031098
    19  H    0.571832  -0.044074
    20  H   -0.044074   0.569905
 Mulliken atomic charges:
              1
     1  O   -0.605848
     2  C   -0.110828
     3  C    0.162692
     4  C   -0.201308
     5  C   -0.202153
     6  C    0.355634
     7  C   -0.191039
     8  C   -0.212002
     9  O   -0.450640
    10  C   -0.225437
    11  H    0.392794
    12  H    0.136608
    13  H    0.145434
    14  H    0.136136
    15  H    0.119279
    16  H    0.123784
    17  H    0.109430
    18  H    0.175860
    19  H    0.170142
    20  H    0.171463
 Sum of Mulliken atomic charges =  -0.00000
 Mulliken charges with hydrogens summed into heavy atoms:
              1
     1  O   -0.213054
     2  C    0.171214
     3  C    0.162692
     4  C   -0.065172
     5  C   -0.082874
     6  C    0.355634
     7  C   -0.067255
     8  C   -0.102572
     9  O   -0.450640
    10  C    0.292028
 Sum of Mulliken charges with hydrogens summed into heavy atoms =  -0.00000
 Electronic spatial extent (au):  <R**2>=           1858.1330
 Charge=              0.0000 electrons
 Dipole moment (field-independent basis, Debye):
    X=             -0.2979    Y=             -0.7586    Z=              0.9717  Tot=              1.2683
 Quadrupole moment (field-independent basis, Debye-Ang):
   XX=            -38.1717   YY=            -57.4502   ZZ=            -61.9364
   XY=              6.4510   XZ=              3.3432   YZ=             -1.0480
 Traceless Quadrupole moment (field-independent basis, Debye-Ang):
   XX=             14.3477   YY=             -4.9308   ZZ=             -9.4170
   XY=              6.4510   XZ=              3.3432   YZ=             -1.0480
 Octapole moment (field-independent basis, Debye-Ang**2):
  XXX=             31.3212  YYY=             -2.9895  ZZZ=             -1.0435  XYY=             -2.8283
  XXY=            -19.4044  XXZ=              9.6368  XZZ=             -1.5191  YZZ=             -2.3405
  YYZ=             -0.5335  XYZ=             -2.7444
 Hexadecapole moment (field-independent basis, Debye-Ang**3):
 XXXX=          -1335.6028 YYYY=           -393.5658 ZZZZ=            -83.1489 XXXY=             -0.7557
 XXXZ=             27.6708 YYYX=            -11.6658 YYYZ=             -2.3539 ZZZX=             -0.5441
 ZZZY=              1.8355 XXYY=           -362.8369 XXZZ=           -329.0636 YYZZ=            -88.3143
 XXYZ=             -7.3133 YYXZ=              0.7585 ZZXY=             -1.0018
 N-N= 5.025589575534D+02 E-N=-2.079636464701D+03  KE= 4.572056806951D+02
 No NMR shielding tensors so no spin-rotation constants.
 Leave Link  601 at Tue Sep 28 14:33:37 2021, MaxMem=  805306368 cpu:       0.5
 (Enter /sw/target/amd/app/gaussian/Gaussian09RevA.02_gcc-4.9.2/g09/l604.exe)
 Evaluate density.
 Using the total density.
 Monte-Carlo method of calculating molar volume:
 based on  0.001 e/bohr**3 density envelope.
 Number of points per bohr**3 =   20 CutOff= 1.00D-04
 Using the CI density.
 There are       363 points.  Will hold       363 in memory.
 LenV=   805214136 MDV=   805306368.
 Box volume = 6014.835 fraction occupied=0.201
 Integrated density= 7.0189610059288853D+01 error=-3.8103899407111470D+00
 Molar volume = 1209.595 bohr**3/mol (107.943 cm**3/mol)
 Recommended a0 for SCRF calculation =  4.35 angstrom (  8.22 bohr)
 Leave Link  604 at Tue Sep 28 14:33:37 2021, MaxMem=  805306368 cpu:       0.1
 (Enter /sw/target/amd/app/gaussian/Gaussian09RevA.02_gcc-4.9.2/g09/l607.exe)
 ******************************Gaussian NBO Version 3.1******************************
             N A T U R A L   A T O M I C   O R B I T A L   A N D
          N A T U R A L   B O N D   O R B I T A L   A N A L Y S I S
 ******************************Gaussian NBO Version 3.1******************************
       /RESON  / : Allow strongly delocalized NBO set

 Analyzing the CI density

 Job title: OCc1ccc(cc1)OC_conf_0                                           

 Storage needed:     88090 in NPA ( 805304168 available)


 NATURAL POPULATIONS:  Natural atomic orbital occupancies 
                                                          
   NAO  Atom  No  lang   Type(AO)    Occupancy
 --------------------------------------------
     1    O    1  S      Cor( 1S)     1.99984
     2    O    1  S      Val( 2S)     1.69445
     3    O    1  S      Ryd( 3S)     0.00156
     4    O    1  S      Ryd( 4S)     0.00002
     5    O    1  px     Val( 2p)     1.53000
     6    O    1  px     Ryd( 3p)     0.00176
     7    O    1  py     Val( 2p)     1.64511
     8    O    1  py     Ryd( 3p)     0.00157
     9    O    1  pz     Val( 2p)     1.85927
    10    O    1  pz     Ryd( 3p)     0.00164
    11    O    1  dxy    Ryd( 3d)     0.00117
    12    O    1  dxz    Ryd( 3d)     0.00105
    13    O    1  dyz    Ryd( 3d)     0.00121
    14    O    1  dx2y2  Ryd( 3d)     0.00130
    15    O    1  dz2    Ryd( 3d)     0.00148

    16    C    2  S      Cor( 1S)     1.99920
    17    C    2  S      Val( 2S)     1.02054
    18    C    2  S      Ryd( 3S)     0.00273
    19    C    2  S      Ryd( 4S)     0.00005
    20    C    2  px     Val( 2p)     1.03043
    21    C    2  px     Ryd( 3p)     0.00120
    22    C    2  py     Val( 2p)     0.91071
    23    C    2  py     Ryd( 3p)     0.00482
    24    C    2  pz     Val( 2p)     1.13333
    25    C    2  pz     Ryd( 3p)     0.00135
    26    C    2  dxy    Ryd( 3d)     0.00124
    27    C    2  dxz    Ryd( 3d)     0.00099
    28    C    2  dyz    Ryd( 3d)     0.00143
    29    C    2  dx2y2  Ryd( 3d)     0.00172
    30    C    2  dz2    Ryd( 3d)     0.00159

    31    C    3  S      Cor( 1S)     1.99902
    32    C    3  S      Val( 2S)     0.90108
    33    C    3  S      Ryd( 3S)     0.00083
    34    C    3  S      Ryd( 4S)     0.00006
    35    C    3  px     Val( 2p)     1.05582
    36    C    3  px     Ryd( 3p)     0.00467
    37    C    3  py     Val( 2p)     1.09277
    38    C    3  py     Ryd( 3p)     0.00506
    39    C    3  pz     Val( 2p)     0.92822
    40    C    3  pz     Ryd( 3p)     0.00277
    41    C    3  dxy    Ryd( 3d)     0.00073
    42    C    3  dxz    Ryd( 3d)     0.00050
    43    C    3  dyz    Ryd( 3d)     0.00110
    44    C    3  dx2y2  Ryd( 3d)     0.00076
    45    C    3  dz2    Ryd( 3d)     0.00039

    46    C    4  S      Cor( 1S)     1.99907
    47    C    4  S      Val( 2S)     0.94829
    48    C    4  S      Ryd( 3S)     0.00076
    49    C    4  S      Ryd( 4S)     0.00005
    50    C    4  px     Val( 2p)     1.07882
    51    C    4  px     Ryd( 3p)     0.00494
    52    C    4  py     Val( 2p)     1.16393
    53    C    4  py     Ryd( 3p)     0.00509
    54    C    4  pz     Val( 2p)     1.06602
    55    C    4  pz     Ryd( 3p)     0.00606
    56    C    4  dxy    Ryd( 3d)     0.00076
    57    C    4  dxz    Ryd( 3d)     0.00058
    58    C    4  dyz    Ryd( 3d)     0.00039
    59    C    4  dx2y2  Ryd( 3d)     0.00069
    60    C    4  dz2    Ryd( 3d)     0.00044

    61    C    5  S      Cor( 1S)     1.99905
    62    C    5  S      Val( 2S)     0.95771
    63    C    5  S      Ryd( 3S)     0.00064
    64    C    5  S      Ryd( 4S)     0.00005
    65    C    5  px     Val( 2p)     1.10403
    66    C    5  px     Ryd( 3p)     0.00407
    67    C    5  py     Val( 2p)     1.15087
    68    C    5  py     Ryd( 3p)     0.00392
    69    C    5  pz     Val( 2p)     1.10735
    70    C    5  pz     Ryd( 3p)     0.00570
    71    C    5  dxy    Ryd( 3d)     0.00084
    72    C    5  dxz    Ryd( 3d)     0.00063
    73    C    5  dyz    Ryd( 3d)     0.00042
    74    C    5  dx2y2  Ryd( 3d)     0.00053
    75    C    5  dz2    Ryd( 3d)     0.00047

    76    C    6  S      Cor( 1S)     1.99879
    77    C    6  S      Val( 2S)     0.84353
    78    C    6  S      Ryd( 3S)     0.00156
    79    C    6  S      Ryd( 4S)     0.00013
    80    C    6  px     Val( 2p)     0.74029
    81    C    6  px     Ryd( 3p)     0.00698
    82    C    6  py     Val( 2p)     1.09226
    83    C    6  py     Ryd( 3p)     0.00591
    84    C    6  pz     Val( 2p)     0.97243
    85    C    6  pz     Ryd( 3p)     0.00186
    86    C    6  dxy    Ryd( 3d)     0.00132
    87    C    6  dxz    Ryd( 3d)     0.00165
    88    C    6  dyz    Ryd( 3d)     0.00136
    89    C    6  dx2y2  Ryd( 3d)     0.00183
    90    C    6  dz2    Ryd( 3d)     0.00052

    91    C    7  S      Cor( 1S)     1.99907
    92    C    7  S      Val( 2S)     0.95767
    93    C    7  S      Ryd( 3S)     0.00088
    94    C    7  S      Ryd( 4S)     0.00004
    95    C    7  px     Val( 2p)     1.09475
    96    C    7  px     Ryd( 3p)     0.00548
    97    C    7  py     Val( 2p)     1.14311
    98    C    7  py     Ryd( 3p)     0.00462
    99    C    7  pz     Val( 2p)     1.09860
   100    C    7  pz     Ryd( 3p)     0.00698
   101    C    7  dxy    Ryd( 3d)     0.00083
   102    C    7  dxz    Ryd( 3d)     0.00061
   103    C    7  dyz    Ryd( 3d)     0.00042
   104    C    7  dx2y2  Ryd( 3d)     0.00054
   105    C    7  dz2    Ryd( 3d)     0.00046

   106    C    8  S      Cor( 1S)     1.99907
   107    C    8  S      Val( 2S)     0.94761
   108    C    8  S      Ryd( 3S)     0.00060
   109    C    8  S      Ryd( 4S)     0.00005
   110    C    8  px     Val( 2p)     1.08959
   111    C    8  px     Ryd( 3p)     0.00427
   112    C    8  py     Val( 2p)     1.14972
   113    C    8  py     Ryd( 3p)     0.00473
   114    C    8  pz     Val( 2p)     1.08264
   115    C    8  pz     Ryd( 3p)     0.00583
   116    C    8  dxy    Ryd( 3d)     0.00078
   117    C    8  dxz    Ryd( 3d)     0.00065
   118    C    8  dyz    Ryd( 3d)     0.00038
   119    C    8  dx2y2  Ryd( 3d)     0.00067
   120    C    8  dz2    Ryd( 3d)     0.00044

   121    O    9  S      Cor( 1S)     1.99975
   122    O    9  S      Val( 2S)     1.59820
   123    O    9  S      Ryd( 3S)     0.00078
   124    O    9  S      Ryd( 4S)     0.00007
   125    O    9  px     Val( 2p)     1.45393
   126    O    9  px     Ryd( 3p)     0.00118
   127    O    9  py     Val( 2p)     1.65567
   128    O    9  py     Ryd( 3p)     0.00197
   129    O    9  pz     Val( 2p)     1.71276
   130    O    9  pz     Ryd( 3p)     0.00222
   131    O    9  dxy    Ryd( 3d)     0.00134
   132    O    9  dxz    Ryd( 3d)     0.00074
   133    O    9  dyz    Ryd( 3d)     0.00130
   134    O    9  dx2y2  Ryd( 3d)     0.00132
   135    O    9  dz2    Ryd( 3d)     0.00077

   136    C   10  S      Cor( 1S)     1.99942
   137    C   10  S      Val( 2S)     1.10346
   138    C   10  S      Ryd( 3S)     0.00149
   139    C   10  S      Ryd( 4S)     0.00003
   140    C   10  px     Val( 2p)     1.07841
   141    C   10  px     Ryd( 3p)     0.00235
   142    C   10  py     Val( 2p)     0.89622
   143    C   10  py     Ryd( 3p)     0.00341
   144    C   10  pz     Val( 2p)     1.23306
   145    C   10  pz     Ryd( 3p)     0.00033
   146    C   10  dxy    Ryd( 3d)     0.00161
   147    C   10  dxz    Ryd( 3d)     0.00052
   148    C   10  dyz    Ryd( 3d)     0.00177
   149    C   10  dx2y2  Ryd( 3d)     0.00148
   150    C   10  dz2    Ryd( 3d)     0.00112

   151    H   11  S      Val( 1S)     0.52586
   152    H   11  S      Ryd( 2S)     0.00187

   153    H   12  S      Val( 1S)     0.78898
   154    H   12  S      Ryd( 2S)     0.00280

   155    H   13  S      Val( 1S)     0.78169
   156    H   13  S      Ryd( 2S)     0.00239

   157    H   14  S      Val( 1S)     0.75700
   158    H   14  S      Ryd( 2S)     0.00146

   159    H   15  S      Val( 1S)     0.77311
   160    H   15  S      Ryd( 2S)     0.00099

   161    H   16  S      Val( 1S)     0.76306
   162    H   16  S      Ryd( 2S)     0.00126

   163    H   17  S      Val( 1S)     0.77495
   164    H   17  S      Ryd( 2S)     0.00112

   165    H   18  S      Val( 1S)     0.76900
   166    H   18  S      Ryd( 2S)     0.00054

   167    H   19  S      Val( 1S)     0.78179
   168    H   19  S      Ryd( 2S)     0.00208

   169    H   20  S      Val( 1S)     0.78114
   170    H   20  S      Ryd( 2S)     0.00203

 WARNING:  1 low occupancy (<1.9990e) core orbital  found on  C    6


 Summary of Natural Population Analysis:                  
                                                          
                                       Natural Population 
                Natural  -----------------------------------------------
    Atom  No    Charge         Core      Valence    Rydberg      Total
 -----------------------------------------------------------------------
      O    1   -0.74142      1.99984     6.72882    0.01276     8.74142
      C    2   -0.11134      1.99920     4.09501    0.01714     6.11134
      C    3    0.00621      1.99902     3.97789    0.01688     5.99379
      C    4   -0.27590      1.99907     4.25706    0.01977     6.27590
      C    5   -0.33628      1.99905     4.31995    0.01728     6.33628
      C    6    0.32958      1.99879     3.64850    0.02312     5.67042
      C    7   -0.31406      1.99907     4.29412    0.02087     6.31406
      C    8   -0.28702      1.99907     4.26956    0.01839     6.28702
      O    9   -0.43200      1.99975     6.42056    0.01168     8.43200
      C   10   -0.32466      1.99942     4.31115    0.01410     6.32466
      H   11    0.47227      0.00000     0.52586    0.00187     0.52773
      H   12    0.20822      0.00000     0.78898    0.00280     0.79178
      H   13    0.21592      0.00000     0.78169    0.00239     0.78408
      H   14    0.24153      0.00000     0.75700    0.00146     0.75847
      H   15    0.22590      0.00000     0.77311    0.00099     0.77410
      H   16    0.23569      0.00000     0.76306    0.00126     0.76431
      H   17    0.22393      0.00000     0.77495    0.00112     0.77607
      H   18    0.23046      0.00000     0.76900    0.00054     0.76954
      H   19    0.21613      0.00000     0.78179    0.00208     0.78387
      H   20    0.21683      0.00000     0.78114    0.00203     0.78317
 =======================================================================
   * Total *    0.00000     19.99228    53.81918    0.18854    74.00000

                                 Natural Population      
 --------------------------------------------------------
   Core                      19.99228 ( 99.9614% of  20)
   Valence                   53.81918 ( 99.6652% of  54)
   Natural Minimal Basis     73.81146 ( 99.7452% of  74)
   Natural Rydberg Basis      0.18854 (  0.2548% of  74)
 --------------------------------------------------------

    Atom  No          Natural Electron Configuration
 ----------------------------------------------------------------------------
      O    1      [core]2S( 1.69)2p( 5.03)3d( 0.01)
      C    2      [core]2S( 1.02)2p( 3.07)3p( 0.01)3d( 0.01)
      C    3      [core]2S( 0.90)2p( 3.08)3p( 0.01)
      C    4      [core]2S( 0.95)2p( 3.31)3p( 0.02)
      C    5      [core]2S( 0.96)2p( 3.36)3p( 0.01)
      C    6      [core]2S( 0.84)2p( 2.80)3p( 0.01)3d( 0.01)
      C    7      [core]2S( 0.96)2p( 3.34)3p( 0.02)
      C    8      [core]2S( 0.95)2p( 3.32)3p( 0.01)
      O    9      [core]2S( 1.60)2p( 4.82)3p( 0.01)3d( 0.01)
      C   10      [core]2S( 1.10)2p( 3.21)3p( 0.01)3d( 0.01)
      H   11            1S( 0.53)
      H   12            1S( 0.79)
      H   13            1S( 0.78)
      H   14            1S( 0.76)
      H   15            1S( 0.77)
      H   16            1S( 0.76)
      H   17            1S( 0.77)
      H   18            1S( 0.77)
      H   19            1S( 0.78)
      H   20            1S( 0.78)


 NBO analysis skipped by request.
 Leave Link  607 at Tue Sep 28 14:33:39 2021, MaxMem=  805306368 cpu:       6.6
 (Enter /sw/target/amd/app/gaussian/Gaussian09RevA.02_gcc-4.9.2/g09/l9999.exe)
 1\1\GINC-HERMITE\SP\RTD-B3LYP-FC\6-31G(d)\C8H10O2\JSCHLEINITZ\28-Sep-2
 021\0\\#p TD(NStates=10, Root=1) b3lyp/6-31G* volume pop=NPA density=c
 urrent Geom=AllCheck Guess=Read\\OCc1ccc(cc1)OC_conf_0\\0,1\O,0,3.2878
 29892,1.1296530062,-0.3321702816\C,0,2.2115213786,0.2185908229,-0.1234
 108619\C,0,2.761373407,-1.1665143275,0.1232636516\C,0,3.9760601976,-1.
 3532705795,0.7847897047\C,0,4.467796305,-2.6333822324,1.0534350098\C,0
 ,3.7297429483,-3.7562624792,0.6624112578\C,0,2.5083333144,-3.581842772
 4,-0.0034281699\C,0,2.0396780326,-2.3016738478,-0.2712113412\O,0,4.110
 6818054,-5.0523122958,0.8742258041\C,0,5.3430115777,-5.2871599675,1.53
 42344561\H,0,2.9201546837,2.0258609402,-0.3115693987\H,0,1.535237782,0
 .1947704603,-0.9934804121\H,0,1.6049345923,0.5383143604,0.7418639581\H
 ,0,4.554424631,-0.4838510906,1.0803009267\H,0,5.4192262379,-2.74055547
 21,1.5622686092\H,0,1.9530972828,-4.4628013905,-0.3103448101\H,0,1.096
 1227666,-2.1830563783,-0.8003228832\H,0,5.4484212816,-6.372044415,1.59
 61998448\H,0,5.3466175585,-4.8647560724,2.5481272194\H,0,6.1896629533,
 -4.872752874,0.9705449131\\Version=AM64L-G09RevA.02\State=1-A\HF=-461.
 2900825\RMSD=7.142e-09\Dipole=0.1237772,0.0372486,0.4819522\Quadrupole
 =0.0835112,5.2068266,-5.2903378,-8.4239477,3.865053,-2.1110785\PG=C01 
 [X(C8H10O2)]\\@


 EDUCATION DOESN'T COST 
           ... IT PAYS!

 -- POSTMARK, UNIV. OF MISSISSIPPI, DEC 78
 Job cpu time:  0 days  0 hours 24 minutes 13.4 seconds.
 File lengths (MBytes):  RWF=    103 Int=      0 D2E=      0 Chk=     14 Scr=      1
 Normal termination of Gaussian 09 at Tue Sep 28 14:33:40 2021.
