 Entering Gaussian System, Link 0=g09
 Input=C8H11N_c139_conf_0.com
 Output=C8H11N_c139_conf_0.log
 Initial command:
 /sw/target/amd/app/gaussian/Gaussian09RevA.02_gcc-4.9.2/g09/l1.exe /home/jschleinitz/gaussian/Gau-1465450.inp -scrdir=/home/jschleinitz/gaussian/
 Entering Link 1 = /sw/target/amd/app/gaussian/Gaussian09RevA.02_gcc-4.9.2/g09/l1.exe PID=   1465454.
  
 Copyright (c) 1988,1990,1992,1993,1995,1998,2003,2009, Gaussian, Inc.
                  All Rights Reserved.
  
 This is part of the Gaussian(R) 09 program.  It is based on
 the Gaussian(R) 03 system (copyright 2003, Gaussian, Inc.),
 the Gaussian(R) 98 system (copyright 1998, Gaussian, Inc.),
 the Gaussian(R) 94 system (copyright 1995, Gaussian, Inc.),
 the Gaussian 92(TM) system (copyright 1992, Gaussian, Inc.),
 the Gaussian 90(TM) system (copyright 1990, Gaussian, Inc.),
 the Gaussian 88(TM) system (copyright 1988, Gaussian, Inc.),
 the Gaussian 86(TM) system (copyright 1986, Carnegie Mellon
 University), and the Gaussian 82(TM) system (copyright 1983,
 Carnegie Mellon University). Gaussian is a federally registered
 trademark of Gaussian, Inc.
  
 This software contains proprietary and confidential information,
 including trade secrets, belonging to Gaussian, Inc.
  
 This software is provided under written license and may be
 used, copied, transmitted, or stored only in accord with that
 written license.
  
 The following legend is applicable only to US Government
 contracts under FAR:
  
                    RESTRICTED RIGHTS LEGEND
  
 Use, reproduction and disclosure by the US Government is
 subject to restrictions as set forth in subparagraphs (a)
 and (c) of the Commercial Computer Software - Restricted
 Rights clause in FAR 52.227-19.
  
 Gaussian, Inc.
 340 Quinnipiac St., Bldg. 40, Wallingford CT 06492
  
  
 ---------------------------------------------------------------
 Warning -- This program may not be used in any manner that
 competes with the business of Gaussian, Inc. or will provide
 assistance to any competitor of Gaussian, Inc.  The licensee
 of this program is prohibited from giving any competitor of
 Gaussian, Inc. access to this program.  By using this program,
 the user acknowledges that Gaussian, Inc. is engaged in the
 business of creating and licensing software in the field of
 computational chemistry and represents and warrants to the
 licensee that it is not a competitor of Gaussian, Inc. and that
 it will not use this program in any manner prohibited above.
 ---------------------------------------------------------------
  

 Cite this work as:
 Gaussian 09, Revision A.02,
 M. J. Frisch, G. W. Trucks, H. B. Schlegel, G. E. Scuseria, 
 M. A. Robb, J. R. Cheeseman, G. Scalmani, V. Barone, B. Mennucci, 
 G. A. Petersson, H. Nakatsuji, M. Caricato, X. Li, H. P. Hratchian, 
 A. F. Izmaylov, J. Bloino, G. Zheng, J. L. Sonnenberg, M. Hada, 
 M. Ehara, K. Toyota, R. Fukuda, J. Hasegawa, M. Ishida, T. Nakajima, 
 Y. Honda, O. Kitao, H. Nakai, T. Vreven, J. A. Montgomery, Jr., 
 J. E. Peralta, F. Ogliaro, M. Bearpark, J. J. Heyd, E. Brothers, 
 K. N. Kudin, V. N. Staroverov, R. Kobayashi, J. Normand, 
 K. Raghavachari, A. Rendell, J. C. Burant, S. S. Iyengar, J. Tomasi, 
 M. Cossi, N. Rega, J. M. Millam, M. Klene, J. E. Knox, J. B. Cross, 
 V. Bakken, C. Adamo, J. Jaramillo, R. Gomperts, R. E. Stratmann, 
 O. Yazyev, A. J. Austin, R. Cammi, C. Pomelli, J. W. Ochterski, 
 R. L. Martin, K. Morokuma, V. G. Zakrzewski, G. A. Voth, 
 P. Salvador, J. J. Dannenberg, S. Dapprich, A. D. Daniels, 
 O. Farkas, J. B. Foresman, J. V. Ortiz, J. Cioslowski, 
 and D. J. Fox, Gaussian, Inc., Wallingford CT, 2009.
 
 ******************************************
 Gaussian 09:  AM64L-G09RevA.02 11-Jun-2009
                 4-Oct-2021 
 ******************************************
 %nproc=3
 Will use up to    3 processors via shared memory.
 %mem=6gb
 %chk=C8H11N_c139_conf_0.chk
 -----------------------------------
 #p opt b3lyp/6-31G* scf=(xqc,tight)
 -----------------------------------
 1/14=-1,18=20,19=15,26=3,38=1/1,3;
 2/9=110,12=2,17=6,18=5,40=1/2;
 3/5=1,6=6,7=1,11=2,16=1,25=1,30=1,71=1,74=-5/1,2,3;
 4//1;
 5/5=2,8=3,13=1,32=2,38=5/2,8;
 6/7=2,8=2,9=2,10=2,28=1/1;
 7//1,2,3,16;
 1/14=-1,18=20,19=15/3(2);
 2/9=110/2;
 99//99;
 2/9=110/2;
 3/5=1,6=6,7=1,11=2,16=1,25=1,30=1,71=1,74=-5/1,2,3;
 4/5=5,16=3/1;
 5/5=2,8=3,13=1,32=2,38=5/2,8;
 7//1,2,3,16;
 1/14=-1,18=20,19=15/3(-5);
 2/9=110/2;
 6/7=2,8=2,9=2,10=2,19=2,28=1/1;
 99/9=1/99;
 Leave Link    1 at Mon Oct  4 10:31:28 2021, MaxMem=  805306368 cpu:       0.1
 (Enter /sw/target/amd/app/gaussian/Gaussian09RevA.02_gcc-4.9.2/g09/l101.exe)
 ------------------
 CNCc1ccccc1_conf_0
 ------------------
 Symbolic Z-matrix:
 Charge =  0 Multiplicity = 1
 C                     1.59322   1.25943   1.48666 
 N                     3.04773   1.27071   1.53659 
 C                     3.62037   1.27767   0.18935 
 C                     5.13141   1.27743   0.23078 
 C                     5.86492   0.24114  -0.36525 
 C                     7.26152   0.2572   -0.34383 
 C                     7.94034   1.30684   0.27142 
 C                     7.22391   2.34413   0.86543 
 C                     5.82806   2.33028   0.84347 
 H                     1.19237   1.27214   2.50497 
 H                     1.2132    0.36247   0.9868 
 H                     1.20819   2.14575   0.97186 
 H                     3.38132   0.44151   2.02715 
 H                     3.29482   2.1678   -0.36247 
 H                     3.26692   0.40145  -0.36876 
 H                     5.35381  -0.58521  -0.85323 
 H                     7.8203   -0.55065  -0.81 
 H                     9.02695   1.3174    0.28837 
 H                     7.74972   3.16436   1.34622 
 H                     5.27658   3.14324   1.31181 
 
 NAtoms=     20 NQM=     20 NQMF=      0 NMic=      0 NMicF=      0 NTot=     20.
                    Isotopes and Nuclear Properties:
 (Nuclear quadrupole moments (NQMom) in fm**2, nuclear magnetic moments (NMagM)
  in nuclear magnetons)

  Atom         1           2           3           4           5           6           7           8           9          10
 IAtWgt=          12          14          12          12          12          12          12          12          12           1
 AtmWgt=  12.0000000  14.0030740  12.0000000  12.0000000  12.0000000  12.0000000  12.0000000  12.0000000  12.0000000   1.0078250
 NucSpn=           0           2           0           0           0           0           0           0           0           1
 AtZEff=   0.0000000   0.0000000   0.0000000   0.0000000   0.0000000   0.0000000   0.0000000   0.0000000   0.0000000   0.0000000
 NQMom=    0.0000000   2.0440000   0.0000000   0.0000000   0.0000000   0.0000000   0.0000000   0.0000000   0.0000000   0.0000000
 NMagM=    0.0000000   0.4037610   0.0000000   0.0000000   0.0000000   0.0000000   0.0000000   0.0000000   0.0000000   2.7928460

  Atom        11          12          13          14          15          16          17          18          19          20
 IAtWgt=           1           1           1           1           1           1           1           1           1           1
 AtmWgt=   1.0078250   1.0078250   1.0078250   1.0078250   1.0078250   1.0078250   1.0078250   1.0078250   1.0078250   1.0078250
 NucSpn=           1           1           1           1           1           1           1           1           1           1
 AtZEff=   0.0000000   0.0000000   0.0000000   0.0000000   0.0000000   0.0000000   0.0000000   0.0000000   0.0000000   0.0000000
 NQMom=    0.0000000   0.0000000   0.0000000   0.0000000   0.0000000   0.0000000   0.0000000   0.0000000   0.0000000   0.0000000
 NMagM=    2.7928460   2.7928460   2.7928460   2.7928460   2.7928460   2.7928460   2.7928460   2.7928460   2.7928460   2.7928460
 Leave Link  101 at Mon Oct  4 10:31:37 2021, MaxMem=  805306368 cpu:       0.2
 (Enter /sw/target/amd/app/gaussian/Gaussian09RevA.02_gcc-4.9.2/g09/l103.exe)

 GradGradGradGradGradGradGradGradGradGradGradGradGradGradGradGradGradGrad
 Berny optimization.
 Initialization pass.
                           ----------------------------
                           !    Initial Parameters    !
                           ! (Angstroms and Degrees)  !
 --------------------------                            --------------------------
 ! Name  Definition              Value          Derivative Info.                !
 --------------------------------------------------------------------------------
 ! R1    R(1,2)                  1.4554         estimate D2E/DX2                !
 ! R2    R(1,10)                 1.0944         estimate D2E/DX2                !
 ! R3    R(1,11)                 1.0949         estimate D2E/DX2                !
 ! R4    R(1,12)                 1.0949         estimate D2E/DX2                !
 ! R5    R(2,3)                  1.4639         estimate D2E/DX2                !
 ! R6    R(2,13)                 1.0196         estimate D2E/DX2                !
 ! R7    R(3,4)                  1.5116         estimate D2E/DX2                !
 ! R8    R(3,14)                 1.0967         estimate D2E/DX2                !
 ! R9    R(3,15)                 1.0973         estimate D2E/DX2                !
 ! R10   R(4,5)                  1.4026         estimate D2E/DX2                !
 ! R11   R(4,9)                  1.4033         estimate D2E/DX2                !
 ! R12   R(5,6)                  1.3969         estimate D2E/DX2                !
 ! R13   R(5,16)                 1.0873         estimate D2E/DX2                !
 ! R14   R(6,7)                  1.3932         estimate D2E/DX2                !
 ! R15   R(6,17)                 1.0873         estimate D2E/DX2                !
 ! R16   R(7,8)                  1.3936         estimate D2E/DX2                !
 ! R17   R(7,18)                 1.0868         estimate D2E/DX2                !
 ! R18   R(8,9)                  1.3961         estimate D2E/DX2                !
 ! R19   R(8,19)                 1.0865         estimate D2E/DX2                !
 ! R20   R(9,20)                 1.0883         estimate D2E/DX2                !
 ! A1    A(2,1,10)             109.5135         estimate D2E/DX2                !
 ! A2    A(2,1,11)             111.6462         estimate D2E/DX2                !
 ! A3    A(2,1,12)             111.1799         estimate D2E/DX2                !
 ! A4    A(10,1,11)            107.8885         estimate D2E/DX2                !
 ! A5    A(10,1,12)            107.4136         estimate D2E/DX2                !
 ! A6    A(11,1,12)            109.053          estimate D2E/DX2                !
 ! A7    A(1,2,3)              111.0627         estimate D2E/DX2                !
 ! A8    A(1,2,13)             109.7058         estimate D2E/DX2                !
 ! A9    A(3,2,13)             108.5839         estimate D2E/DX2                !
 ! A10   A(2,3,4)              111.4566         estimate D2E/DX2                !
 ! A11   A(2,3,14)             110.5364         estimate D2E/DX2                !
 ! A12   A(2,3,15)             109.7716         estimate D2E/DX2                !
 ! A13   A(4,3,14)             108.0978         estimate D2E/DX2                !
 ! A14   A(4,3,15)             109.62           estimate D2E/DX2                !
 ! A15   A(14,3,15)            107.2517         estimate D2E/DX2                !
 ! A16   A(3,4,5)              120.7475         estimate D2E/DX2                !
 ! A17   A(3,4,9)              120.5375         estimate D2E/DX2                !
 ! A18   A(5,4,9)              118.7021         estimate D2E/DX2                !
 ! A19   A(4,5,6)              120.5226         estimate D2E/DX2                !
 ! A20   A(4,5,16)             120.4253         estimate D2E/DX2                !
 ! A21   A(6,5,16)             119.0519         estimate D2E/DX2                !
 ! A22   A(5,6,7)              120.1702         estimate D2E/DX2                !
 ! A23   A(5,6,17)             119.9158         estimate D2E/DX2                !
 ! A24   A(7,6,17)             119.914          estimate D2E/DX2                !
 ! A25   A(6,7,8)              119.9019         estimate D2E/DX2                !
 ! A26   A(6,7,18)             120.0895         estimate D2E/DX2                !
 ! A27   A(8,7,18)             120.0086         estimate D2E/DX2                !
 ! A28   A(7,8,9)              119.9944         estimate D2E/DX2                !
 ! A29   A(7,8,19)             120.1161         estimate D2E/DX2                !
 ! A30   A(9,8,19)             119.8895         estimate D2E/DX2                !
 ! A31   A(4,9,8)              120.7083         estimate D2E/DX2                !
 ! A32   A(4,9,20)             119.788          estimate D2E/DX2                !
 ! A33   A(8,9,20)             119.5029         estimate D2E/DX2                !
 ! D1    D(10,1,2,3)          -179.0153         estimate D2E/DX2                !
 ! D2    D(10,1,2,13)           60.939          estimate D2E/DX2                !
 ! D3    D(11,1,2,3)            61.5619         estimate D2E/DX2                !
 ! D4    D(11,1,2,13)          -58.4838         estimate D2E/DX2                !
 ! D5    D(12,1,2,3)           -60.4723         estimate D2E/DX2                !
 ! D6    D(12,1,2,13)          179.4819         estimate D2E/DX2                !
 ! D7    D(1,2,3,4)           -179.5123         estimate D2E/DX2                !
 ! D8    D(1,2,3,14)            60.2453         estimate D2E/DX2                !
 ! D9    D(1,2,3,15)           -57.8664         estimate D2E/DX2                !
 ! D10   D(13,2,3,4)           -58.8021         estimate D2E/DX2                !
 ! D11   D(13,2,3,14)         -179.0445         estimate D2E/DX2                !
 ! D12   D(13,2,3,15)           62.8438         estimate D2E/DX2                !
 ! D13   D(2,3,4,5)            120.4306         estimate D2E/DX2                !
 ! D14   D(2,3,4,9)            -60.8941         estimate D2E/DX2                !
 ! D15   D(14,3,4,5)          -117.9017         estimate D2E/DX2                !
 ! D16   D(14,3,4,9)            60.7736         estimate D2E/DX2                !
 ! D17   D(15,3,4,5)            -1.3032         estimate D2E/DX2                !
 ! D18   D(15,3,4,9)           177.3722         estimate D2E/DX2                !
 ! D19   D(3,4,5,6)            178.9137         estimate D2E/DX2                !
 ! D20   D(3,4,5,16)            -0.9164         estimate D2E/DX2                !
 ! D21   D(9,4,5,6)              0.2145         estimate D2E/DX2                !
 ! D22   D(9,4,5,16)          -179.6156         estimate D2E/DX2                !
 ! D23   D(3,4,9,8)           -178.9921         estimate D2E/DX2                !
 ! D24   D(3,4,9,20)             1.3315         estimate D2E/DX2                !
 ! D25   D(5,4,9,8)             -0.2901         estimate D2E/DX2                !
 ! D26   D(5,4,9,20)          -179.9664         estimate D2E/DX2                !
 ! D27   D(4,5,6,7)             -0.0313         estimate D2E/DX2                !
 ! D28   D(4,5,6,17)          -179.9252         estimate D2E/DX2                !
 ! D29   D(16,5,6,7)           179.8011         estimate D2E/DX2                !
 ! D30   D(16,5,6,17)           -0.0928         estimate D2E/DX2                !
 ! D31   D(5,6,7,8)             -0.0813         estimate D2E/DX2                !
 ! D32   D(5,6,7,18)           179.9264         estimate D2E/DX2                !
 ! D33   D(17,6,7,8)           179.8127         estimate D2E/DX2                !
 ! D34   D(17,6,7,18)           -0.1796         estimate D2E/DX2                !
 ! D35   D(6,7,8,9)              0.0065         estimate D2E/DX2                !
 ! D36   D(6,7,8,19)           179.9969         estimate D2E/DX2                !
 ! D37   D(18,7,8,9)           179.9988         estimate D2E/DX2                !
 ! D38   D(18,7,8,19)           -0.0108         estimate D2E/DX2                !
 ! D39   D(7,8,9,4)              0.182          estimate D2E/DX2                !
 ! D40   D(7,8,9,20)           179.8593         estimate D2E/DX2                !
 ! D41   D(19,8,9,4)          -179.8085         estimate D2E/DX2                !
 ! D42   D(19,8,9,20)           -0.1312         estimate D2E/DX2                !
 --------------------------------------------------------------------------------
 Trust Radius=3.00D-01 FncErr=1.00D-07 GrdErr=1.00D-06
 Number of steps in this run= 105 maximum allowed number of steps= 120.
 GradGradGradGradGradGradGradGradGradGradGradGradGradGradGradGradGradGrad

 Leave Link  103 at Mon Oct  4 10:31:37 2021, MaxMem=  805306368 cpu:       0.0
 (Enter /sw/target/amd/app/gaussian/Gaussian09RevA.02_gcc-4.9.2/g09/l202.exe)
                          Input orientation:                          
 ---------------------------------------------------------------------
 Center     Atomic      Atomic             Coordinates (Angstroms)
 Number     Number       Type             X           Y           Z
 ---------------------------------------------------------------------
      1          6           0        1.593223    1.259428    1.486662
      2          7           0        3.047733    1.270705    1.536593
      3          6           0        3.620366    1.277675    0.189348
      4          6           0        5.131410    1.277433    0.230776
      5          6           0        5.864922    0.241144   -0.365247
      6          6           0        7.261519    0.257195   -0.343827
      7          6           0        7.940342    1.306838    0.271424
      8          6           0        7.223907    2.344128    0.865432
      9          6           0        5.828057    2.330277    0.843474
     10          1           0        1.192368    1.272139    2.504970
     11          1           0        1.213205    0.362467    0.986804
     12          1           0        1.208188    2.145752    0.971861
     13          1           0        3.381319    0.441512    2.027150
     14          1           0        3.294822    2.167805   -0.362468
     15          1           0        3.266922    0.401451   -0.368758
     16          1           0        5.353809   -0.585213   -0.853232
     17          1           0        7.820305   -0.550649   -0.809996
     18          1           0        9.026946    1.317397    0.288366
     19          1           0        7.749718    3.164358    1.346225
     20          1           0        5.276583    3.143242    1.311809
 ---------------------------------------------------------------------
                    Distance matrix (angstroms):
                    1          2          3          4          5
     1  C    0.000000
     2  N    1.455411   0.000000
     3  C    2.406796   1.463908   0.000000
     4  C    3.754509   2.459046   1.511611   0.000000
     5  C    4.765908   3.551555   2.533772   1.402562   0.000000
     6  C    6.040260   4.724317   3.818854   2.430724   1.396853
     7  C    6.462583   5.053670   4.320854   2.809381   2.418351
     8  C    5.767763   4.363842   3.818365   2.432934   2.789973
     9  C    4.415227   3.055047   2.531749   1.403281   2.413885
    10  H    1.094439   2.092877   3.355192   4.548410   5.579772
    11  H    1.094903   2.119589   2.695917   4.094029   4.845744
    12  H    1.094917   2.113897   2.680390   4.085934   5.205820
    13  H    2.039215   1.019552   2.033181   2.643584   3.454272
    14  H    2.672053   2.114775   1.096728   2.125501   3.212078
    15  H    2.641965   2.105708   1.097348   2.145484   2.602944
    16  H    4.797897   3.804430   2.749936   2.166562   1.087306
    17  H    6.879503   5.621499   4.688383   3.413978   2.155982
    18  H    7.529908   6.108292   5.407632   3.896167   3.403516
    19  H    6.445999   5.072555   4.685027   3.414710   3.876437
    20  H    4.140829   2.919707   2.735564   2.161238   3.403062
                    6          7          8          9         10
     6  C    0.000000
     7  C    1.393229   0.000000
     8  C    2.412262   1.393591   0.000000
     9  C    2.786066   2.415868   1.396091   0.000000
    10  H    6.780880   7.108100   6.341664   5.036848   0.000000
    11  H    6.193849   6.830665   6.330106   5.018933   1.769962
    12  H    6.476148   6.820286   6.019930   4.625336   1.764618
    13  H    4.550984   4.961457   4.442411   3.309842   2.389510
    14  H    4.402892   4.766964   4.120259   2.810334   3.666705
    15  H    3.997278   4.803167   4.577657   3.427724   3.649683
    16  H    2.146742   3.396301   3.877127   3.406436   5.660819
    17  H    1.087275   2.152704   3.397423   3.873338   7.631585
    18  H    2.154166   1.086787   2.153632   3.401023   8.142235
    19  H    3.397971   2.154510   1.086469   2.154350   6.922573
    20  H    3.874322   3.398587   2.151722   1.088289   4.648168
                   11         12         13         14         15
    11  H    0.000000
    12  H    1.783355   0.000000
    13  H    2.406094   2.956445   0.000000
    14  H    3.068046   2.476885   2.949210   0.000000
    15  H    2.461061   3.013011   2.398972   1.766585   0.000000
    16  H    4.629086   5.289170   3.638885   3.472663   2.358669
    17  H    6.907680   7.359734   5.360819   5.298138   4.672738
    18  H    7.902801   7.892168   5.971905   5.831297   5.869297
    19  H    7.120799   6.630936   5.192345   4.874304   5.538075
    20  H    4.934509   4.202664   3.376844   2.771653   3.792158
                   16         17         18         19         20
    16  H    0.000000
    17  H    2.467116   0.000000
    18  H    4.291282   2.480318   0.000000
    19  H    4.963594   4.295991   2.482265   0.000000
    20  H    4.312163   4.961593   4.294924   2.473464   0.000000
 Stoichiometry    C8H11N
 Framework group  C1[X(C8H11N)]
 Deg. of freedom    54
 Full point group                 C1      NOp   1
 Largest Abelian subgroup         C1      NOp   1
 Largest concise Abelian subgroup C1      NOp   1
                         Standard orientation:                         
 ---------------------------------------------------------------------
 Center     Atomic      Atomic             Coordinates (Angstroms)
 Number     Number       Type             X           Y           Z
 ---------------------------------------------------------------------
      1          6           0       -3.626413   -0.082335   -0.182438
      2          7           0       -2.212266   -0.289040   -0.457541
      3          6           0       -1.378618    0.369196    0.549823
      4          6           0        0.092675    0.170068    0.265903
      5          6           0        0.937542    1.269603    0.055181
      6          6           0        2.300726    1.081175   -0.184449
      7          6           0        2.834916   -0.205196   -0.215671
      8          6           0        2.007175   -1.306468   -0.005576
      9          6           0        0.644819   -1.119666    0.235591
     10          1           0       -4.225319   -0.598555   -0.939158
     11          1           0       -3.892235    0.979452   -0.209971
     12          1           0       -3.904149   -0.495152    0.792903
     13          1           0       -1.980322    0.095433   -1.372892
     14          1           0       -1.590621   -0.033665    1.547606
     15          1           0       -1.606734    1.442231    0.576886
     16          1           0        0.540544    2.281564    0.078850
     17          1           0        2.946900    1.940681   -0.345311
     18          1           0        3.895478   -0.350345   -0.403408
     19          1           0        2.420058   -2.311150   -0.029215
     20          1           0        0.005337   -1.985463    0.396319
 ---------------------------------------------------------------------
 Rotational constants (GHZ):      4.5545752      0.8762236      0.7710280
 Leave Link  202 at Mon Oct  4 10:31:38 2021, MaxMem=  805306368 cpu:       0.0
 (Enter /sw/target/amd/app/gaussian/Gaussian09RevA.02_gcc-4.9.2/g09/l301.exe)
 Standard basis: 6-31G(d) (6D, 7F)
 Ernie: Thresh=  0.10000D-02 Tol=  0.10000D-05 Strict=F.
 There are   157 symmetry adapted basis functions of A   symmetry.
 Integral buffers will be    131072 words long.
 Raffenetti 2 integral format.
 Two-electron integral symmetry is turned on.
   157 basis functions,   296 primitive gaussians,   157 cartesian basis functions
    33 alpha electrons       33 beta electrons
       nuclear repulsion energy       414.3155015105 Hartrees.
 IExCor=  402 DFT=T Ex+Corr=B3LYP ExCW=0 ScaHFX=  0.200000
 ScaDFX=  0.800000  0.720000  1.000000  0.810000 ScalE2=  1.000000  1.000000
 IRadAn=      0 IRanWt=     -1 IRanGd=            0 ICorTp=0
 NAtoms=   20 NActive=   20 NUniq=   20 SFac= 7.50D-01 NAtFMM=   80 NAOKFM=F Big=F
 Leave Link  301 at Mon Oct  4 10:31:38 2021, MaxMem=  805306368 cpu:       0.1
 (Enter /sw/target/amd/app/gaussian/Gaussian09RevA.02_gcc-4.9.2/g09/l302.exe)
 NPDir=0 NMtPBC=     1 NCelOv=     1 NCel=       1 NClECP=     1 NCelD=      1
         NCelK=      1 NCelE2=     1 NClLst=     1 CellRange=     0.0.
 One-electron integrals computed using PRISM.
 NBasis=   157 RedAO= T  NBF=   157
 NBsUse=   157 1.00D-06 NBFU=   157
 Precomputing XC quadrature grid using
 IXCGrd= 2 IRadAn=           0 IRanWt=          -1 IRanGd=           0 AccXCQ= 1.00D-10.
 NRdTot=    1257 NPtTot=      159780 NUsed=      168852 NTot=      168884
 NSgBfM=   157   157   157   157   157 NAtAll=    20    20.
 Leave Link  302 at Mon Oct  4 10:31:40 2021, MaxMem=  805306368 cpu:       1.2
 (Enter /sw/target/amd/app/gaussian/Gaussian09RevA.02_gcc-4.9.2/g09/l303.exe)
 DipDrv:  MaxL=1.
 Leave Link  303 at Mon Oct  4 10:31:40 2021, MaxMem=  805306368 cpu:       0.1
 (Enter /sw/target/amd/app/gaussian/Gaussian09RevA.02_gcc-4.9.2/g09/l401.exe)
 Harris functional with IExCor=  402 diagonalized for initial guess.
 ExpMin= 1.61D-01 ExpMax= 4.17D+03 ExpMxC= 6.27D+02 IAcc=1 IRadAn=         1 AccDes= 0.00D+00
 HarFok:  IExCor=  402 AccDes= 0.00D+00 IRadAn=         1 IDoV= 1
 ScaDFX=  1.000000  1.000000  1.000000  1.000000
 FoFCou: FMM=F IPFlag=           0 FMFlag=      100000 FMFlg1=           0
         NFxFlg=           0 DoJE=T BraDBF=F KetDBF=T FulRan=T
         Omega=  0.000000  0.000000  1.000000  0.000000  0.000000 ICntrl=     500 IOpCl=  0
         NMat0=    1 NMatS0=    1 NMatT0=    0 NMatD0=    1 NMtDS0=    0 NMtDT0=    0
         I1Cent=           4 NGrid=           0.
 Petite list used in FoFCou.
 Harris En= -366.286078594740    
 Initial guess orbital symmetries:
       Occupied  (A) (A) (A) (A) (A) (A) (A) (A) (A) (A) (A) (A)
                 (A) (A) (A) (A) (A) (A) (A) (A) (A) (A) (A) (A)
                 (A) (A) (A) (A) (A) (A) (A) (A) (A)
       Virtual   (A) (A) (A) (A) (A) (A) (A) (A) (A) (A) (A) (A)
                 (A) (A) (A) (A) (A) (A) (A) (A) (A) (A) (A) (A)
                 (A) (A) (A) (A) (A) (A) (A) (A) (A) (A) (A) (A)
                 (A) (A) (A) (A) (A) (A) (A) (A) (A) (A) (A) (A)
                 (A) (A) (A) (A) (A) (A) (A) (A) (A) (A) (A) (A)
                 (A) (A) (A) (A) (A) (A) (A) (A) (A) (A) (A) (A)
                 (A) (A) (A) (A) (A) (A) (A) (A) (A) (A) (A) (A)
                 (A) (A) (A) (A) (A) (A) (A) (A) (A) (A) (A) (A)
                 (A) (A) (A) (A) (A) (A) (A) (A) (A) (A) (A) (A)
                 (A) (A) (A) (A) (A) (A) (A) (A) (A) (A) (A) (A)
                 (A) (A) (A) (A)
 The electronic state of the initial guess is 1-A.
 Leave Link  401 at Mon Oct  4 10:31:52 2021, MaxMem=  805306368 cpu:       5.2
 (Enter /sw/target/amd/app/gaussian/Gaussian09RevA.02_gcc-4.9.2/g09/l502.exe)
 Closed shell SCF:
 Requested convergence on RMS density matrix=1.00D-08 within  64 cycles.
 Requested convergence on MAX density matrix=1.00D-06.
 Requested convergence on             energy=1.00D-06.
 No special actions if energy rises.
 Using DIIS extrapolation, IDIIS=  1040.
 Integral symmetry usage will be decided dynamically.
       168659 words used for storage of precomputed grid.
 Keep R1 ints in memory in canonical form, NReq=79145780.
 IEnd=      250283 IEndB=      250283 NGot=   805306368 MDV=   728161682
 LenX=   728161682 LenY=   728136592
 Symmetry not used in FoFDir.
 MinBra= 0 MaxBra= 2 Meth= 1.
 IRaf=       0 NMat=   1 IRICut=       1 DoRegI=T DoRafI=F ISym2E= 0 JSym2E=0.
 Integral accuracy reduced to 1.0D-05 until final iterations.

 Cycle   1  Pass 0  IDiag  1:
 E= -365.956880867972    
 DIIS: error= 4.75D-02 at cycle   1 NSaved=   1.
 NSaved= 1 IEnMin= 1 EnMin= -365.956880867972     IErMin= 1 ErrMin= 4.75D-02
 ErrMax= 4.75D-02 EMaxC= 1.00D-01 BMatC= 2.28D-01 BMatP= 2.28D-01
 IDIUse=3 WtCom= 5.25D-01 WtEn= 4.75D-01
 Coeff-Com:  0.100D+01
 Coeff-En:   0.100D+01
 Coeff:      0.100D+01
 Gap=     0.210 Goal=   None    Shift=    0.000
 GapD=    0.210 DampG=1.000 DampE=0.500 DampFc=0.5000 IDamp=-1.
 Damping current iteration by 5.00D-01
 RMSDP=7.54D-03 MaxDP=1.62D-01              OVMax= 1.74D-01

 Cycle   2  Pass 0  IDiag  1:
 E= -366.075956346739     Delta-E=       -0.119075478767 Rises=F Damp=T
 DIIS: error= 6.04D-03 at cycle   2 NSaved=   2.
 NSaved= 2 IEnMin= 2 EnMin= -366.075956346739     IErMin= 2 ErrMin= 6.04D-03
 ErrMax= 6.04D-03 EMaxC= 1.00D-01 BMatC= 1.07D-02 BMatP= 2.28D-01
 IDIUse=3 WtCom= 9.40D-01 WtEn= 6.04D-02
 Coeff-Com:  0.389D-01 0.961D+00
 Coeff-En:   0.514D-01 0.949D+00
 Coeff:      0.397D-01 0.960D+00
 Gap=     0.241 Goal=   None    Shift=    0.000
 RMSDP=1.63D-03 MaxDP=2.58D-02 DE=-1.19D-01 OVMax= 1.09D-01

 Cycle   3  Pass 0  IDiag  1:
 E= -366.210114852327     Delta-E=       -0.134158505587 Rises=F Damp=F
 DIIS: error= 4.83D-03 at cycle   3 NSaved=   3.
 NSaved= 3 IEnMin= 3 EnMin= -366.210114852327     IErMin= 3 ErrMin= 4.83D-03
 ErrMax= 4.83D-03 EMaxC= 1.00D-01 BMatC= 3.77D-03 BMatP= 1.07D-02
 IDIUse=3 WtCom= 9.52D-01 WtEn= 4.83D-02
 Coeff-Com: -0.191D-01 0.341D+00 0.678D+00
 Coeff-En:   0.000D+00 0.000D+00 0.100D+01
 Coeff:     -0.182D-01 0.324D+00 0.694D+00
 Gap=     0.213 Goal=   None    Shift=    0.000
 RMSDP=6.05D-04 MaxDP=1.99D-02 DE=-1.34D-01 OVMax= 2.12D-02

 Cycle   4  Pass 0  IDiag  1:
 E= -366.212149544590     Delta-E=       -0.002034692263 Rises=F Damp=F
 DIIS: error= 2.52D-03 at cycle   4 NSaved=   4.
 NSaved= 4 IEnMin= 4 EnMin= -366.212149544590     IErMin= 4 ErrMin= 2.52D-03
 ErrMax= 2.52D-03 EMaxC= 1.00D-01 BMatC= 1.44D-03 BMatP= 3.77D-03
 IDIUse=3 WtCom= 9.75D-01 WtEn= 2.52D-02
 Coeff-Com: -0.128D-01 0.821D-01 0.400D+00 0.531D+00
 Coeff-En:   0.000D+00 0.000D+00 0.287D+00 0.713D+00
 Coeff:     -0.125D-01 0.801D-01 0.397D+00 0.536D+00
 Gap=     0.220 Goal=   None    Shift=    0.000
 RMSDP=2.70D-04 MaxDP=7.95D-03 DE=-2.03D-03 OVMax= 1.06D-02

 Cycle   5  Pass 0  IDiag  1:
 E= -366.213399343614     Delta-E=       -0.001249799025 Rises=F Damp=F
 DIIS: error= 5.88D-04 at cycle   5 NSaved=   5.
 NSaved= 5 IEnMin= 5 EnMin= -366.213399343614     IErMin= 5 ErrMin= 5.88D-04
 ErrMax= 5.88D-04 EMaxC= 1.00D-01 BMatC= 5.58D-05 BMatP= 1.44D-03
 IDIUse=3 WtCom= 9.94D-01 WtEn= 5.88D-03
 Coeff-Com: -0.419D-02 0.148D-01 0.134D+00 0.245D+00 0.610D+00
 Coeff-En:   0.000D+00 0.000D+00 0.000D+00 0.000D+00 0.100D+01
 Coeff:     -0.417D-02 0.147D-01 0.133D+00 0.244D+00 0.612D+00
 Gap=     0.220 Goal=   None    Shift=    0.000
 RMSDP=7.30D-05 MaxDP=1.63D-03 DE=-1.25D-03 OVMax= 4.64D-03

 Cycle   6  Pass 0  IDiag  1:
 E= -366.213442066283     Delta-E=       -0.000042722668 Rises=F Damp=F
 DIIS: error= 3.38D-04 at cycle   6 NSaved=   6.
 NSaved= 6 IEnMin= 6 EnMin= -366.213442066283     IErMin= 6 ErrMin= 3.38D-04
 ErrMax= 3.38D-04 EMaxC= 1.00D-01 BMatC= 1.60D-05 BMatP= 5.58D-05
 IDIUse=3 WtCom= 9.97D-01 WtEn= 3.38D-03
 Coeff-Com: -0.159D-02 0.249D-02 0.531D-01 0.114D+00 0.402D+00 0.429D+00
 Coeff-En:   0.000D+00 0.000D+00 0.000D+00 0.000D+00 0.240D+00 0.760D+00
 Coeff:     -0.159D-02 0.248D-02 0.529D-01 0.114D+00 0.402D+00 0.430D+00
 Gap=     0.219 Goal=   None    Shift=    0.000
 RMSDP=2.85D-05 MaxDP=5.85D-04 DE=-4.27D-05 OVMax= 1.79D-03

 Cycle   7  Pass 0  IDiag  1:
 E= -366.213460048039     Delta-E=       -0.000017981756 Rises=F Damp=F
 DIIS: error= 1.41D-05 at cycle   7 NSaved=   7.
 NSaved= 7 IEnMin= 7 EnMin= -366.213460048039     IErMin= 7 ErrMin= 1.41D-05
 ErrMax= 1.41D-05 EMaxC= 1.00D-01 BMatC= 6.82D-08 BMatP= 1.60D-05
 IDIUse=1 WtCom= 1.00D+00 WtEn= 0.00D+00
 Coeff-Com: -0.221D-03-0.730D-04 0.878D-02 0.217D-01 0.855D-01 0.119D+00
 Coeff-Com:  0.765D+00
 Coeff:     -0.221D-03-0.730D-04 0.878D-02 0.217D-01 0.855D-01 0.119D+00
 Coeff:      0.765D+00
 Gap=     0.219 Goal=   None    Shift=    0.000
 RMSDP=2.66D-06 MaxDP=5.11D-05 DE=-1.80D-05 OVMax= 9.66D-05

 Initial convergence to 1.0D-05 achieved.  Increase integral accuracy.
 Cycle   8  Pass 1  IDiag  1:
 E= -366.213538697641     Delta-E=       -0.000078649603 Rises=F Damp=F
 DIIS: error= 3.16D-05 at cycle   1 NSaved=   1.
 NSaved= 1 IEnMin= 1 EnMin= -366.213538697641     IErMin= 1 ErrMin= 3.16D-05
 ErrMax= 3.16D-05 EMaxC= 1.00D-01 BMatC= 6.66D-08 BMatP= 6.66D-08
 IDIUse=1 WtCom= 1.00D+00 WtEn= 0.00D+00
 Coeff-Com:  0.100D+01
 Coeff:      0.100D+01
 Gap=     0.219 Goal=   None    Shift=    0.000
 RMSDP=2.66D-06 MaxDP=5.11D-05 DE=-7.86D-05 OVMax= 9.88D-05

 Cycle   9  Pass 1  IDiag  1:
 E= -366.213538763250     Delta-E=       -0.000000065609 Rises=F Damp=F
 DIIS: error= 6.92D-06 at cycle   2 NSaved=   2.
 NSaved= 2 IEnMin= 2 EnMin= -366.213538763250     IErMin= 2 ErrMin= 6.92D-06
 ErrMax= 6.92D-06 EMaxC= 1.00D-01 BMatC= 2.65D-08 BMatP= 6.66D-08
 IDIUse=1 WtCom= 1.00D+00 WtEn= 0.00D+00
 Coeff-Com:  0.344D+00 0.656D+00
 Coeff:      0.344D+00 0.656D+00
 Gap=     0.219 Goal=   None    Shift=    0.000
 RMSDP=1.49D-06 MaxDP=4.21D-05 DE=-6.56D-08 OVMax= 6.86D-05

 Cycle  10  Pass 1  IDiag  1:
 E= -366.213538780633     Delta-E=       -0.000000017383 Rises=F Damp=F
 DIIS: error= 4.66D-06 at cycle   3 NSaved=   3.
 NSaved= 3 IEnMin= 3 EnMin= -366.213538780633     IErMin= 3 ErrMin= 4.66D-06
 ErrMax= 4.66D-06 EMaxC= 1.00D-01 BMatC= 8.77D-09 BMatP= 2.65D-08
 IDIUse=1 WtCom= 1.00D+00 WtEn= 0.00D+00
 Coeff-Com: -0.132D-01 0.361D+00 0.652D+00
 Coeff:     -0.132D-01 0.361D+00 0.652D+00
 Gap=     0.219 Goal=   None    Shift=    0.000
 RMSDP=6.27D-07 MaxDP=2.09D-05 DE=-1.74D-08 OVMax= 3.84D-05

 Cycle  11  Pass 1  IDiag  1:
 E= -366.213538788707     Delta-E=       -0.000000008073 Rises=F Damp=F
 DIIS: error= 2.04D-06 at cycle   4 NSaved=   4.
 NSaved= 4 IEnMin= 4 EnMin= -366.213538788707     IErMin= 4 ErrMin= 2.04D-06
 ErrMax= 2.04D-06 EMaxC= 1.00D-01 BMatC= 6.18D-10 BMatP= 8.77D-09
 IDIUse=1 WtCom= 1.00D+00 WtEn= 0.00D+00
 Coeff-Com: -0.176D-01 0.202D+00 0.395D+00 0.420D+00
 Coeff:     -0.176D-01 0.202D+00 0.395D+00 0.420D+00
 Gap=     0.219 Goal=   None    Shift=    0.000
 RMSDP=1.90D-07 MaxDP=4.49D-06 DE=-8.07D-09 OVMax= 1.17D-05

 Cycle  12  Pass 1  IDiag  1:
 E= -366.213538789364     Delta-E=       -0.000000000658 Rises=F Damp=F
 DIIS: error= 3.85D-07 at cycle   5 NSaved=   5.
 NSaved= 5 IEnMin= 5 EnMin= -366.213538789364     IErMin= 5 ErrMin= 3.85D-07
 ErrMax= 3.85D-07 EMaxC= 1.00D-01 BMatC= 1.93D-11 BMatP= 6.18D-10
 IDIUse=1 WtCom= 1.00D+00 WtEn= 0.00D+00
 Coeff-Com: -0.676D-02 0.676D-01 0.134D+00 0.206D+00 0.600D+00
 Coeff:     -0.676D-02 0.676D-01 0.134D+00 0.206D+00 0.600D+00
 Gap=     0.219 Goal=   None    Shift=    0.000
 RMSDP=4.21D-08 MaxDP=9.05D-07 DE=-6.58D-10 OVMax= 2.67D-06

 Cycle  13  Pass 1  IDiag  1:
 E= -366.213538789374     Delta-E=       -0.000000000010 Rises=F Damp=F
 DIIS: error= 1.12D-07 at cycle   6 NSaved=   6.
 NSaved= 6 IEnMin= 6 EnMin= -366.213538789374     IErMin= 6 ErrMin= 1.12D-07
 ErrMax= 1.12D-07 EMaxC= 1.00D-01 BMatC= 3.54D-12 BMatP= 1.93D-11
 IDIUse=1 WtCom= 1.00D+00 WtEn= 0.00D+00
 Coeff-Com: -0.141D-02 0.104D-01 0.212D-01 0.614D-01 0.349D+00 0.560D+00
 Coeff:     -0.141D-02 0.104D-01 0.212D-01 0.614D-01 0.349D+00 0.560D+00
 Gap=     0.219 Goal=   None    Shift=    0.000
 RMSDP=1.20D-08 MaxDP=3.63D-07 DE=-9.89D-12 OVMax= 6.30D-07

 Cycle  14  Pass 1  IDiag  1:
 E= -366.213538789391     Delta-E=       -0.000000000017 Rises=F Damp=F
 DIIS: error= 1.19D-08 at cycle   7 NSaved=   7.
 NSaved= 7 IEnMin= 7 EnMin= -366.213538789391     IErMin= 7 ErrMin= 1.19D-08
 ErrMax= 1.19D-08 EMaxC= 1.00D-01 BMatC= 7.04D-14 BMatP= 3.54D-12
 IDIUse=1 WtCom= 1.00D+00 WtEn= 0.00D+00
 Coeff-Com: -0.398D-04-0.120D-02-0.208D-02 0.687D-02 0.861D-01 0.192D+00
 Coeff-Com:  0.719D+00
 Coeff:     -0.398D-04-0.120D-02-0.208D-02 0.687D-02 0.861D-01 0.192D+00
 Coeff:      0.719D+00
 Gap=     0.219 Goal=   None    Shift=    0.000
 RMSDP=2.59D-09 MaxDP=6.60D-08 DE=-1.73D-11 OVMax= 1.37D-07

 SCF Done:  E(RB3LYP) =  -366.213538789     A.U. after   14 cycles
             Convg  =    0.2593D-08             -V/T =  2.0098
 KE= 3.626608777674D+02 PE=-1.676905432909D+03 EE= 5.337155148413D+02
 Leave Link  502 at Mon Oct  4 10:34:58 2021, MaxMem=  805306368 cpu:      81.8
 (Enter /sw/target/amd/app/gaussian/Gaussian09RevA.02_gcc-4.9.2/g09/l508.exe)
 QCSCF skips out because SCF is already converged.
 Leave Link  508 at Mon Oct  4 10:34:59 2021, MaxMem=  805306368 cpu:       0.0
 (Enter /sw/target/amd/app/gaussian/Gaussian09RevA.02_gcc-4.9.2/g09/l601.exe)
 Copying SCF densities to generalized density rwf, IOpCl= 0 IROHF=0.

 **********************************************************************

            Population analysis using the SCF density.

 **********************************************************************

 Orbital symmetries:
       Occupied  (A) (A) (A) (A) (A) (A) (A) (A) (A) (A) (A) (A)
                 (A) (A) (A) (A) (A) (A) (A) (A) (A) (A) (A) (A)
                 (A) (A) (A) (A) (A) (A) (A) (A) (A)
       Virtual   (A) (A) (A) (A) (A) (A) (A) (A) (A) (A) (A) (A)
                 (A) (A) (A) (A) (A) (A) (A) (A) (A) (A) (A) (A)
                 (A) (A) (A) (A) (A) (A) (A) (A) (A) (A) (A) (A)
                 (A) (A) (A) (A) (A) (A) (A) (A) (A) (A) (A) (A)
                 (A) (A) (A) (A) (A) (A) (A) (A) (A) (A) (A) (A)
                 (A) (A) (A) (A) (A) (A) (A) (A) (A) (A) (A) (A)
                 (A) (A) (A) (A) (A) (A) (A) (A) (A) (A) (A) (A)
                 (A) (A) (A) (A) (A) (A) (A) (A) (A) (A) (A) (A)
                 (A) (A) (A) (A) (A) (A) (A) (A) (A) (A) (A) (A)
                 (A) (A) (A) (A) (A) (A) (A) (A) (A) (A) (A) (A)
                 (A) (A) (A) (A)
 The electronic state is 1-A.
 Alpha  occ. eigenvalues --  -14.31523 -10.20660 -10.19844 -10.18911 -10.18449
 Alpha  occ. eigenvalues --  -10.18398 -10.18370 -10.18305 -10.18109  -0.90139
 Alpha  occ. eigenvalues --   -0.84445  -0.75726  -0.73697  -0.68460  -0.63319
 Alpha  occ. eigenvalues --   -0.59796  -0.57658  -0.50993  -0.48036  -0.45845
 Alpha  occ. eigenvalues --   -0.44185  -0.43839  -0.42304  -0.41300  -0.38439
 Alpha  occ. eigenvalues --   -0.38151  -0.37039  -0.34920  -0.33503  -0.32727
 Alpha  occ. eigenvalues --   -0.24432  -0.23937  -0.21704
 Alpha virt. eigenvalues --    0.00219   0.00648   0.09141   0.09970   0.12853
 Alpha virt. eigenvalues --    0.13656   0.14776   0.15908   0.17131   0.17242
 Alpha virt. eigenvalues --    0.17837   0.18872   0.19327   0.20120   0.22814
 Alpha virt. eigenvalues --    0.25884   0.26926   0.31279   0.33013   0.33592
 Alpha virt. eigenvalues --    0.35751   0.47398   0.51612   0.52974   0.53333
 Alpha virt. eigenvalues --    0.54954   0.55603   0.57593   0.57911   0.58895
 Alpha virt. eigenvalues --    0.60208   0.60565   0.61828   0.61895   0.63033
 Alpha virt. eigenvalues --    0.63829   0.66592   0.68006   0.69565   0.75366
 Alpha virt. eigenvalues --    0.76338   0.78138   0.80317   0.82160   0.84315
 Alpha virt. eigenvalues --    0.84606   0.84981   0.86998   0.89498   0.90957
 Alpha virt. eigenvalues --    0.92036   0.93419   0.94301   0.95664   0.95795
 Alpha virt. eigenvalues --    0.98275   0.98685   1.01014   1.08003   1.10098
 Alpha virt. eigenvalues --    1.11933   1.16169   1.18815   1.20656   1.26142
 Alpha virt. eigenvalues --    1.32658   1.35775   1.43044   1.43837   1.44572
 Alpha virt. eigenvalues --    1.46238   1.49188   1.50041   1.52011   1.54777
 Alpha virt. eigenvalues --    1.60298   1.73078   1.79952   1.81651   1.86907
 Alpha virt. eigenvalues --    1.87851   1.89471   1.92531   1.95275   1.98062
 Alpha virt. eigenvalues --    2.01630   2.04240   2.04287   2.06430   2.10218
 Alpha virt. eigenvalues --    2.12955   2.14322   2.15535   2.18504   2.23658
 Alpha virt. eigenvalues --    2.26190   2.31285   2.31689   2.31714   2.34911
 Alpha virt. eigenvalues --    2.38010   2.45213   2.53453   2.58079   2.59634
 Alpha virt. eigenvalues --    2.65143   2.67032   2.73189   2.73367   2.74980
 Alpha virt. eigenvalues --    2.76125   2.82208   2.93815   3.06909   3.41584
 Alpha virt. eigenvalues --    3.90451   4.09597   4.12111   4.14452   4.25722
 Alpha virt. eigenvalues --    4.31334   4.34361   4.43513   4.70494
          Condensed to atoms (all electrons):
              1          2          3          4          5          6
     1  C    4.957315   0.316425  -0.054227   0.004983  -0.000088   0.000003
     2  N    0.316425   6.876093   0.306932  -0.058368  -0.000163  -0.000112
     3  C   -0.054227   0.306932   5.044954   0.368438  -0.050901   0.006919
     4  C    0.004983  -0.058368   0.368438   4.684104   0.547344  -0.020651
     5  C   -0.000088  -0.000163  -0.050901   0.547344   4.976672   0.518287
     6  C    0.000003  -0.000112   0.006919  -0.020651   0.518287   4.871292
     7  C   -0.000000   0.000021   0.000412  -0.034325  -0.036355   0.555619
     8  C    0.000006   0.000132   0.005785  -0.018815  -0.046183  -0.026762
     9  C    0.000226   0.005357  -0.065769   0.527216  -0.042474  -0.046267
    10  H    0.379436  -0.034415   0.005521  -0.000159   0.000003  -0.000000
    11  H    0.362148  -0.053437  -0.007314  -0.000089  -0.000022  -0.000000
    12  H    0.382867  -0.038157  -0.004105   0.000217  -0.000001  -0.000000
    13  H   -0.038825   0.303842  -0.041190   0.003041   0.001850  -0.000072
    14  H   -0.004793  -0.043647   0.360507  -0.019697   0.002563  -0.000275
    15  H   -0.004962  -0.055076   0.344975  -0.040722  -0.007329   0.000184
    16  H   -0.000026   0.000032  -0.010955  -0.042386   0.351642  -0.047585
    17  H   -0.000000   0.000001  -0.000185   0.003738  -0.040105   0.355890
    18  H   -0.000000   0.000000   0.000007   0.000677   0.004846  -0.043655
    19  H   -0.000000  -0.000002  -0.000181   0.003570   0.000869   0.004665
    20  H   -0.000220   0.007311  -0.009124  -0.044727   0.005947   0.000370
              7          8          9         10         11         12
     1  C   -0.000000   0.000006   0.000226   0.379436   0.362148   0.382867
     2  N    0.000021   0.000132   0.005357  -0.034415  -0.053437  -0.038157
     3  C    0.000412   0.005785  -0.065769   0.005521  -0.007314  -0.004105
     4  C   -0.034325  -0.018815   0.527216  -0.000159  -0.000089   0.000217
     5  C   -0.036355  -0.046183  -0.042474   0.000003  -0.000022  -0.000001
     6  C    0.555619  -0.026762  -0.046267  -0.000000  -0.000000  -0.000000
     7  C    4.850470   0.546739  -0.034958   0.000000   0.000000   0.000000
     8  C    0.546739   4.877537   0.521236  -0.000000   0.000000  -0.000001
     9  C   -0.034958   0.521236   4.964698  -0.000017   0.000055  -0.000048
    10  H    0.000000  -0.000000  -0.000017   0.570068  -0.041162  -0.026574
    11  H    0.000000   0.000000   0.000055  -0.041162   0.656032  -0.043870
    12  H    0.000000  -0.000001  -0.000048  -0.026574  -0.043870   0.565920
    13  H   -0.000013  -0.000092  -0.000574  -0.002352  -0.005753   0.005987
    14  H    0.000038  -0.000168  -0.008319   0.000126  -0.002181   0.007237
    15  H   -0.000005  -0.000137   0.007872  -0.000347   0.015008  -0.001926
    16  H    0.004853   0.000337   0.006509   0.000000   0.000013  -0.000000
    17  H   -0.043474   0.004645   0.000843   0.000000   0.000000  -0.000000
    18  H    0.358286  -0.043869   0.004686  -0.000000   0.000000  -0.000000
    19  H   -0.043780   0.357041  -0.040178   0.000000  -0.000000   0.000000
    20  H    0.004812  -0.047044   0.358293   0.000003   0.000017  -0.000027
             13         14         15         16         17         18
     1  C   -0.038825  -0.004793  -0.004962  -0.000026  -0.000000  -0.000000
     2  N    0.303842  -0.043647  -0.055076   0.000032   0.000001   0.000000
     3  C   -0.041190   0.360507   0.344975  -0.010955  -0.000185   0.000007
     4  C    0.003041  -0.019697  -0.040722  -0.042386   0.003738   0.000677
     5  C    0.001850   0.002563  -0.007329   0.351642  -0.040105   0.004846
     6  C   -0.000072  -0.000275   0.000184  -0.047585   0.355890  -0.043655
     7  C   -0.000013   0.000038  -0.000005   0.004853  -0.043474   0.358286
     8  C   -0.000092  -0.000168  -0.000137   0.000337   0.004645  -0.043869
     9  C   -0.000574  -0.008319   0.007872   0.006509   0.000843   0.004686
    10  H   -0.002352   0.000126  -0.000347   0.000000   0.000000  -0.000000
    11  H   -0.005753  -0.002181   0.015008   0.000013   0.000000   0.000000
    12  H    0.005987   0.007237  -0.001926  -0.000000  -0.000000  -0.000000
    13  H    0.475822   0.007092  -0.005995   0.000024   0.000000  -0.000000
    14  H    0.007092   0.598853  -0.051373   0.000081   0.000004  -0.000000
    15  H   -0.005995  -0.051373   0.674650   0.008843  -0.000007  -0.000000
    16  H    0.000024   0.000081   0.008843   0.612525  -0.005617  -0.000187
    17  H    0.000000   0.000004  -0.000007  -0.005617   0.604304  -0.005822
    18  H   -0.000000  -0.000000  -0.000000  -0.000187  -0.005822   0.605016
    19  H    0.000001  -0.000001   0.000003   0.000018  -0.000193  -0.005686
    20  H   -0.000052   0.001361   0.000323  -0.000157   0.000017  -0.000179
             19         20
     1  C   -0.000000  -0.000220
     2  N   -0.000002   0.007311
     3  C   -0.000181  -0.009124
     4  C    0.003570  -0.044727
     5  C    0.000869   0.005947
     6  C    0.004665   0.000370
     7  C   -0.043780   0.004812
     8  C    0.357041  -0.047044
     9  C   -0.040178   0.358293
    10  H    0.000000   0.000003
    11  H   -0.000000   0.000017
    12  H    0.000000  -0.000027
    13  H    0.000001  -0.000052
    14  H   -0.000001   0.001361
    15  H    0.000003   0.000323
    16  H    0.000018  -0.000157
    17  H   -0.000193   0.000017
    18  H   -0.005686  -0.000179
    19  H    0.601207  -0.005410
    20  H   -0.005410   0.590909
 Mulliken atomic charges:
              1
     1  C   -0.300267
     2  N   -0.532768
     3  C   -0.200499
     4  C    0.136611
     5  C   -0.186403
     6  C   -0.127851
     7  C   -0.128339
     8  C   -0.130388
     9  C   -0.158387
    10  H    0.149870
    11  H    0.120555
    12  H    0.152482
    13  H    0.297260
    14  H    0.152593
    15  H    0.116022
    16  H    0.122036
    17  H    0.125961
    18  H    0.125879
    19  H    0.128057
    20  H    0.137578
 Sum of Mulliken atomic charges =  -0.00000
 Mulliken charges with hydrogens summed into heavy atoms:
              1
     1  C    0.122640
     2  N   -0.235509
     3  C    0.068116
     4  C    0.136611
     5  C   -0.064367
     6  C   -0.001890
     7  C   -0.002460
     8  C   -0.002331
     9  C   -0.020810
 Sum of Mulliken charges with hydrogens summed into heavy atoms =  -0.00000
 Electronic spatial extent (au):  <R**2>=           1521.8434
 Charge=             -0.0000 electrons
 Dipole moment (field-independent basis, Debye):
    X=             -0.3914    Y=              0.8423    Z=             -0.1532  Tot=              0.9413
 Quadrupole moment (field-independent basis, Debye-Ang):
   XX=            -49.3082   YY=            -52.2202   ZZ=            -55.2108
   XY=             -1.7240   XZ=             -0.6345   YZ=             -1.3847
 Traceless Quadrupole moment (field-independent basis, Debye-Ang):
   XX=              2.9382   YY=              0.0262   ZZ=             -2.9644
   XY=             -1.7240   XZ=             -0.6345   YZ=             -1.3847
 Octapole moment (field-independent basis, Debye-Ang**2):
  XXX=             -1.9896  YYY=              0.1125  ZZZ=             -3.1147  XYY=              6.0300
  XXY=              0.3746  XXZ=             -5.8624  XZZ=            -11.5681  YZZ=             -0.2573
  YYZ=              0.2218  XYZ=              1.4742
 Hexadecapole moment (field-independent basis, Debye-Ang**3):
 XXXX=          -1534.4929 YYYY=           -315.5098 ZZZZ=           -104.2670 XXXY=              6.8995
 XXXZ=             -5.5932 YYYX=             -3.2775 YYYZ=             -3.4222 ZZZX=              7.6825
 ZZZY=             -1.0332 XXYY=           -319.6945 XXZZ=           -290.5135 YYZZ=            -79.2018
 XXYZ=             -4.3719 YYXZ=             -2.2460 ZZXY=              1.9187
 N-N= 4.143155015105D+02 E-N=-1.676905436664D+03  KE= 3.626608777674D+02
 No NMR shielding tensors so no spin-rotation constants.
 Leave Link  601 at Mon Oct  4 10:35:00 2021, MaxMem=  805306368 cpu:       0.6
 (Enter /sw/target/amd/app/gaussian/Gaussian09RevA.02_gcc-4.9.2/g09/l701.exe)
 Compute integral first derivatives.
 ... and contract with generalized density number  0.
 Leave Link  701 at Mon Oct  4 10:35:03 2021, MaxMem=  805306368 cpu:       0.9
 (Enter /sw/target/amd/app/gaussian/Gaussian09RevA.02_gcc-4.9.2/g09/l702.exe)
 L702 exits ... SP integral derivatives will be done elsewhere.
 Leave Link  702 at Mon Oct  4 10:35:04 2021, MaxMem=  805306368 cpu:       0.1
 (Enter /sw/target/amd/app/gaussian/Gaussian09RevA.02_gcc-4.9.2/g09/l703.exe)
 Compute integral first derivatives, UseDBF=F ICtDFT=           0.
 Integral derivatives from FoFDir, PRISM(SPDF).
 Calling FoFJK, ICntrl=      2127 FMM=F ISym2X=0 I1Cent= 0 IOpClX= 0 NMat=1 NMatS=1 NMatT=0.
 FoFCou: FMM=F IPFlag=           0 FMFlag=      100000 FMFlg1=         800
         NFxFlg=           0 DoJE=F BraDBF=F KetDBF=F FulRan=T
         Omega=  0.000000  0.000000  1.000000  0.000000  0.000000 ICntrl=    2127 IOpCl=  0
         NMat0=    1 NMatS0=    1 NMatT0=    0 NMatD0=    1 NMtDS0=    0 NMtDT0=    0
         I1Cent=           0 NGrid=           0.
 Symmetry not used in FoFCou.
 Leave Link  703 at Mon Oct  4 10:36:06 2021, MaxMem=  805306368 cpu:      32.3
 (Enter /sw/target/amd/app/gaussian/Gaussian09RevA.02_gcc-4.9.2/g09/l716.exe)
 Dipole        =-1.53996054D-01 3.31377709D-01-6.02805069D-02
 ***** Axes restored to original set *****
 -------------------------------------------------------------------
 Center     Atomic                   Forces (Hartrees/Bohr)
 Number     Number              X              Y              Z
 -------------------------------------------------------------------
      1        6           0.001375743   -0.003625708    0.008595443
      2        7           0.000312605    0.014165218   -0.002339348
      3        6           0.006768464   -0.006231303    0.005306761
      4        6           0.003188081   -0.002316836   -0.002945560
      5        6           0.001880085    0.002501600    0.002020050
      6        6           0.000145587   -0.000946204   -0.000796719
      7        6           0.003262171   -0.001082403   -0.000424581
      8        6          -0.003832865    0.000557387    0.000639265
      9        6           0.001293485    0.000648493    0.000950172
     10        1          -0.000587353    0.000048959    0.000968430
     11        1          -0.007520692   -0.003078397   -0.005087517
     12        1           0.002324519    0.000247707   -0.001368324
     13        1          -0.000094633    0.001437938   -0.000574119
     14        1          -0.005426441    0.001328735    0.003643197
     15        1          -0.000101244   -0.002410085   -0.008442615
     16        1          -0.001952455    0.000516353    0.000377771
     17        1          -0.000297418   -0.000130239    0.000054784
     18        1           0.000273922   -0.000132956   -0.000143191
     19        1           0.000030600    0.000421271    0.000063894
     20        1          -0.001042161   -0.001919530   -0.000497792
 -------------------------------------------------------------------
 Cartesian Forces:  Max     0.014165218 RMS     0.003445174
 Leave Link  716 at Mon Oct  4 10:36:08 2021, MaxMem=  805306368 cpu:       0.1
 (Enter /sw/target/amd/app/gaussian/Gaussian09RevA.02_gcc-4.9.2/g09/l103.exe)

 GradGradGradGradGradGradGradGradGradGradGradGradGradGradGradGradGradGrad
 Berny optimization.
 Internal  Forces:  Max     0.008661926 RMS     0.002484224
 Search for a local minimum.
 Step number   1 out of a maximum of  105
 All quantities printed in internal units (Hartrees-Bohrs-Radians)
 RMS Force = .24842D-02 SwitMx=.10000D-02 MixMth= 1
 Mixed Optimization -- RFO/linear search
 Second derivative matrix not updated -- first step.
     Eigenvalues ---    0.00612   0.00846   0.00959   0.01470   0.02061
     Eigenvalues ---    0.02089   0.02097   0.02126   0.02152   0.02157
     Eigenvalues ---    0.02166   0.02176   0.03039   0.05102   0.06539
     Eigenvalues ---    0.07228   0.07543   0.09832   0.10794   0.13185
     Eigenvalues ---    0.16000   0.16000   0.16000   0.16000   0.16000
     Eigenvalues ---    0.16000   0.16000   0.16000   0.21974   0.22000
     Eigenvalues ---    0.22000   0.23452   0.23471   0.24993   0.31189
     Eigenvalues ---    0.33977   0.34047   0.34251   0.34252   0.34305
     Eigenvalues ---    0.35011   0.35126   0.35129   0.35187   0.35224
     Eigenvalues ---    0.36479   0.37545   0.41740   0.41820   0.44410
     Eigenvalues ---    0.45376   0.46057   0.46211   0.466421000.00000
     Eigenvalues --- 1000.000001000.000001000.000001000.000001000.00000
     Eigenvalues --- 1000.000001000.000001000.000001000.000001000.00000
     Eigenvalues --- 1000.000001000.000001000.000001000.000001000.00000
     Eigenvalues --- 1000.000001000.000001000.000001000.000001000.00000
     Eigenvalues --- 1000.000001000.000001000.000001000.000001000.00000
     Eigenvalues --- 1000.000001000.000001000.000001000.000001000.00000
     Eigenvalues --- 1000.000001000.000001000.000001000.000001000.00000
     Eigenvalues --- 1000.000001000.000001000.000001000.000001000.00000
 RFO step:  Lambda=-3.98885491D-03 EMin= 6.12356965D-03
 Linear search not attempted -- first point.
 Iteration  1 RMS(Cart)=  0.04291500 RMS(Int)=  0.00105011
 Iteration  2 RMS(Cart)=  0.00178023 RMS(Int)=  0.00030603
 Iteration  3 RMS(Cart)=  0.00000376 RMS(Int)=  0.00030603
 Iteration  4 RMS(Cart)=  0.00000000 RMS(Int)=  0.00030603
 Variable       Old X    -DE/DX   Delta X   Delta X   Delta X     New X
                                 (Linear)    (Quad)   (Total)
    R1        2.75033   0.00435   0.00000   0.01146   0.01146   2.76178
    R2        2.06819   0.00112   0.00000   0.00322   0.00322   2.07141
    R3        2.06907   0.00746   0.00000   0.02152   0.02152   2.09058
    R4        2.06909   0.00002   0.00000   0.00007   0.00007   2.06916
    R5        2.76638   0.00178   0.00000   0.00483   0.00483   2.77121
    R6        1.92667  -0.00148   0.00000  -0.00329  -0.00329   1.92338
    R7        2.85653   0.00293   0.00000   0.00926   0.00926   2.86580
    R8        2.07252   0.00085   0.00000   0.00248   0.00248   2.07499
    R9        2.07369   0.00625   0.00000   0.01819   0.01819   2.09188
   R10        2.65046  -0.00255   0.00000  -0.00609  -0.00608   2.64438
   R11        2.65182  -0.00197   0.00000  -0.00485  -0.00484   2.64698
   R12        2.63967   0.00061   0.00000   0.00134   0.00134   2.64101
   R13        2.05471   0.00035   0.00000   0.00100   0.00100   2.05571
   R14        2.63282   0.00109   0.00000   0.00281   0.00280   2.63563
   R15        2.05465  -0.00008   0.00000  -0.00023  -0.00023   2.05443
   R16        2.63351   0.00326   0.00000   0.00741   0.00741   2.64091
   R17        2.05373   0.00027   0.00000   0.00076   0.00076   2.05449
   R18        2.63823  -0.00105   0.00000  -0.00228  -0.00228   2.63595
   R19        2.05313   0.00036   0.00000   0.00102   0.00102   2.05415
   R20        2.05657  -0.00112   0.00000  -0.00316  -0.00316   2.05341
    A1        1.91137   0.00022   0.00000   0.00541   0.00473   1.91610
    A2        1.94859   0.00866   0.00000   0.05640   0.05617   2.00477
    A3        1.94046  -0.00594   0.00000  -0.04388  -0.04365   1.89680
    A4        1.88301  -0.00167   0.00000   0.00474   0.00377   1.88678
    A5        1.87472   0.00138   0.00000   0.00101   0.00079   1.87551
    A6        1.90333  -0.00281   0.00000  -0.02437  -0.02378   1.87955
    A7        1.93841   0.00724   0.00000   0.02997   0.03000   1.96841
    A8        1.91473  -0.00202   0.00000  -0.00833  -0.00825   1.90648
    A9        1.89515  -0.00259   0.00000  -0.01288  -0.01285   1.88230
   A10        1.94529  -0.00011   0.00000   0.00295   0.00223   1.94752
   A11        1.92922  -0.00764   0.00000  -0.07413  -0.07361   1.85561
   A12        1.91588   0.00675   0.00000   0.06538   0.06541   1.98129
   A13        1.88666   0.00516   0.00000   0.02406   0.02352   1.91019
   A14        1.91323  -0.00307   0.00000  -0.00327  -0.00432   1.90891
   A15        1.87190  -0.00120   0.00000  -0.01644  -0.01542   1.85647
   A16        2.10744   0.00153   0.00000   0.00717   0.00704   2.11449
   A17        2.10378  -0.00164   0.00000  -0.00532  -0.00544   2.09833
   A18        2.07174   0.00011   0.00000  -0.00130  -0.00139   2.07036
   A19        2.10352   0.00159   0.00000   0.00603   0.00605   2.10956
   A20        2.10182  -0.00287   0.00000  -0.01567  -0.01568   2.08614
   A21        2.07785   0.00128   0.00000   0.00964   0.00963   2.08748
   A22        2.09737  -0.00087   0.00000  -0.00280  -0.00280   2.09456
   A23        2.09293   0.00013   0.00000  -0.00045  -0.00045   2.09248
   A24        2.09289   0.00074   0.00000   0.00325   0.00325   2.09614
   A25        2.09268  -0.00168   0.00000  -0.00543  -0.00544   2.08724
   A26        2.09596   0.00065   0.00000   0.00154   0.00154   2.09750
   A27        2.09455   0.00103   0.00000   0.00389   0.00389   2.09843
   A28        2.09430   0.00054   0.00000   0.00335   0.00335   2.09765
   A29        2.09642  -0.00010   0.00000  -0.00061  -0.00061   2.09581
   A30        2.09247  -0.00044   0.00000  -0.00274  -0.00274   2.08973
   A31        2.10676   0.00031   0.00000   0.00019   0.00020   2.10695
   A32        2.09069  -0.00207   0.00000  -0.01181  -0.01183   2.07887
   A33        2.08572   0.00176   0.00000   0.01158   0.01157   2.09729
    D1       -3.12441   0.00130   0.00000  -0.01648  -0.01620  -3.14060
    D2        1.06359   0.00123   0.00000  -0.01406  -0.01379   1.04980
    D3        1.07446  -0.00223   0.00000  -0.06150  -0.06209   1.01237
    D4       -1.02073  -0.00229   0.00000  -0.05909  -0.05969  -1.08042
    D5       -1.05544  -0.00051   0.00000  -0.03875  -0.03843  -1.09387
    D6        3.13255  -0.00057   0.00000  -0.03634  -0.03602   3.09653
    D7       -3.13308   0.00046   0.00000   0.01197   0.01183  -3.12125
    D8        1.05148  -0.00084   0.00000   0.02956   0.02887   1.08035
    D9       -1.00996   0.00112   0.00000   0.05447   0.05537  -0.95459
   D10       -1.02629   0.00076   0.00000   0.01189   0.01171  -1.01458
   D11       -3.12492  -0.00053   0.00000   0.02947   0.02874  -3.09618
   D12        1.09683   0.00142   0.00000   0.05439   0.05524   1.15207
   D13        2.10191   0.00422   0.00000   0.06946   0.06950   2.17141
   D14       -1.06280   0.00475   0.00000   0.09751   0.09756  -0.96524
   D15       -2.05777  -0.00193   0.00000  -0.00493  -0.00508  -2.06285
   D16        1.06070  -0.00140   0.00000   0.02312   0.02298   1.08368
   D17       -0.02274  -0.00213   0.00000  -0.01278  -0.01268  -0.03543
   D18        3.09573  -0.00160   0.00000   0.01527   0.01538   3.11111
   D19        3.12263   0.00023   0.00000   0.01347   0.01353   3.13616
   D20       -0.01599   0.00023   0.00000   0.01405   0.01411  -0.00189
   D21        0.00374  -0.00027   0.00000  -0.01402  -0.01404  -0.01030
   D22       -3.13488  -0.00026   0.00000  -0.01343  -0.01346   3.13484
   D23       -3.12400  -0.00029   0.00000  -0.01477  -0.01467  -3.13867
   D24        0.02324  -0.00008   0.00000  -0.00676  -0.00672   0.01652
   D25       -0.00506   0.00024   0.00000   0.01283   0.01280   0.00774
   D26       -3.14101   0.00045   0.00000   0.02084   0.02075  -3.12026
   D27       -0.00055   0.00012   0.00000   0.00634   0.00636   0.00581
   D28       -3.14029   0.00002   0.00000   0.00186   0.00187  -3.13841
   D29        3.13812   0.00011   0.00000   0.00572   0.00574  -3.13933
   D30       -0.00162   0.00001   0.00000   0.00124   0.00125  -0.00037
   D31       -0.00142   0.00006   0.00000   0.00283   0.00283   0.00141
   D32        3.14031  -0.00001   0.00000  -0.00059  -0.00060   3.13971
   D33        3.13832   0.00016   0.00000   0.00731   0.00732  -3.13754
   D34       -0.00314   0.00009   0.00000   0.00388   0.00389   0.00076
   D35        0.00011  -0.00008   0.00000  -0.00404  -0.00405  -0.00394
   D36        3.14154  -0.00007   0.00000  -0.00392  -0.00393   3.13761
   D37        3.14157  -0.00002   0.00000  -0.00062  -0.00062   3.14095
   D38       -0.00019  -0.00001   0.00000  -0.00050  -0.00050  -0.00069
   D39        0.00318  -0.00007   0.00000  -0.00390  -0.00388  -0.00070
   D40        3.13914  -0.00029   0.00000  -0.01196  -0.01199   3.12715
   D41       -3.13825  -0.00008   0.00000  -0.00401  -0.00400   3.14094
   D42       -0.00229  -0.00030   0.00000  -0.01208  -0.01210  -0.01439
         Item               Value     Threshold  Converged?
 Maximum Force            0.008662     0.000450     NO 
 RMS     Force            0.002484     0.000300     NO 
 Maximum Displacement     0.160247     0.001800     NO 
 RMS     Displacement     0.043965     0.001200     NO 
 Predicted change in Energy=-2.119829D-03
 GradGradGradGradGradGradGradGradGradGradGradGradGradGradGradGradGradGrad

 Leave Link  103 at Mon Oct  4 10:36:16 2021, MaxMem=  805306368 cpu:       2.8
 (Enter /sw/target/amd/app/gaussian/Gaussian09RevA.02_gcc-4.9.2/g09/l202.exe)
                          Input orientation:                          
 ---------------------------------------------------------------------
 Center     Atomic      Atomic             Coordinates (Angstroms)
 Number     Number       Type             X           Y           Z
 ---------------------------------------------------------------------
      1          6           0        1.587754    1.271728    1.509528
      2          7           0        3.048591    1.314665    1.513391
      3          6           0        3.622458    1.239543    0.165969
      4          6           0        5.138401    1.257612    0.203428
      5          6           0        5.889464    0.239618   -0.394700
      6          6           0        7.286407    0.265514   -0.362233
      7          6           0        7.949995    1.311809    0.278189
      8          6           0        7.209506    2.329164    0.886218
      9          6           0        5.815427    2.300449    0.848519
     10          1           0        1.212077    1.331880    2.537525
     11          1           0        1.150049    0.373024    1.035586
     12          1           0        1.212595    2.148098    0.970868
     13          1           0        3.405776    0.526312    2.048977
     14          1           0        3.259561    2.124276   -0.373700
     15          1           0        3.279892    0.359539   -0.411642
     16          1           0        5.378656   -0.580722   -0.894200
     17          1           0        7.854184   -0.532193   -0.834672
     18          1           0        9.036591    1.333772    0.306612
     19          1           0        7.718443    3.146475    1.390766
     20          1           0        5.239835    3.084522    1.332937
 ---------------------------------------------------------------------
                    Distance matrix (angstroms):
                    1          2          3          4          5
     1  C    0.000000
     2  N    1.461473   0.000000
     3  C    2.438484   1.466463   0.000000
     4  C    3.783278   2.467096   1.516513   0.000000
     5  C    4.816227   3.587074   2.540377   1.399344   0.000000
     6  C    6.081990   4.751607   3.827826   2.432727   1.397560
     7  C    6.480425   5.054651   4.329595   2.813110   2.418297
     8  C    5.754196   4.328483   3.817453   2.429794   2.783785
     9  C    4.400956   3.011512   2.529923   1.400719   2.407924
    10  H    1.096143   2.102839   3.382713   4.568320   5.627516
    11  H    1.106289   2.172429   2.760416   4.169165   4.952330
    12  H    1.094954   2.088019   2.698291   4.098034   5.232606
    13  H    2.037609   1.017808   2.025184   2.634927   3.496063
    14  H    2.658632   2.064241   1.098039   2.148074   3.235547
    15  H    2.717777   2.161369   1.106974   2.153811   2.612381
    16  H    4.855967   3.849440   2.742545   2.154526   1.087834
    17  H    6.929470   5.658446   4.695513   3.414167   2.156245
    18  H    7.545596   6.108422   5.416779   3.900298   3.404910
    19  H    6.412030   5.017777   4.681198   3.410893   3.870771
    20  H    4.081066   2.822500   2.716923   2.150274   3.391198
                    6          7          8          9         10
     6  C    0.000000
     7  C    1.394713   0.000000
     8  C    2.413130   1.397510   0.000000
     9  C    2.787591   2.420551   1.394884   0.000000
    10  H    6.814927   7.106656   6.300043   4.998170   0.000000
    11  H    6.294470   6.906102   6.369129   5.051308   1.782996
    12  H    6.497113   6.824349   6.000240   4.606977   1.766530
    13  H    4.576161   4.939902   4.366995   3.224140   2.387454
    14  H    4.435157   4.804710   4.151076   2.838540   3.646274
    15  H    4.007923   4.815865   4.583200   3.432794   3.730803
    16  H    2.153745   3.401170   3.871606   3.395436   5.726707
    17  H    1.087155   2.155919   3.400652   3.874729   7.678807
    18  H    2.156773   1.087189   2.159858   3.406468   8.136338
    19  H    3.399941   2.158111   1.087007   2.152037   6.851323
    20  H    3.874128   3.405873   2.156322   1.086617   4.554737
                   11         12         13         14         15
    11  H    0.000000
    12  H    1.777354   0.000000
    13  H    2.477653   2.933010   0.000000
    14  H    3.082695   2.449183   2.905896   0.000000
    15  H    2.575049   3.063330   2.469475   1.765262   0.000000
    16  H    4.744979   5.317988   3.712152   3.475414   2.349844
    17  H    7.018740   7.386111   5.405942   5.327278   4.679561
    18  H    7.978219   7.894255   5.949277   5.870416   5.882567
    19  H    7.138767   6.595387   5.088969   4.903046   5.542240
    20  H    4.915993   4.150499   3.228146   2.784989   3.782917
                   16         17         18         19         20
    16  H    0.000000
    17  H    2.476719   0.000000
    18  H    4.299735   2.486451   0.000000
    19  H    4.958596   4.301581   2.489738   0.000000
    20  H    4.291087   4.961248   4.305092   2.480056   0.000000
 Stoichiometry    C8H11N
 Framework group  C1[X(C8H11N)]
 Deg. of freedom    54
 Full point group                 C1      NOp   1
 Largest Abelian subgroup         C1      NOp   1
 Largest concise Abelian subgroup C1      NOp   1
                         Standard orientation:                         
 ---------------------------------------------------------------------
 Center     Atomic      Atomic             Coordinates (Angstroms)
 Number     Number       Type             X           Y           Z
 ---------------------------------------------------------------------
      1          6           0       -3.640562   -0.090300   -0.200380
      2          7           0       -2.212080   -0.315073   -0.412082
      3          6           0       -1.373697    0.434369    0.529175
      4          6           0        0.102148    0.203781    0.267406
      5          6           0        0.972116    1.274917    0.035052
      6          6           0        2.332415    1.056058   -0.199170
      7          6           0        2.838039   -0.243728   -0.210324
      8          6           0        1.976402   -1.321300    0.012058
      9          6           0        0.620010   -1.097554    0.248367
     10          1           0       -4.219404   -0.672369   -0.926787
     11          1           0       -3.960981    0.966094   -0.272776
     12          1           0       -3.908204   -0.451500    0.798032
     13          1           0       -1.962477   -0.021532   -1.354136
     14          1           0       -1.629233    0.065350    1.531281
     15          1           0       -1.580007    1.521931    0.535240
     16          1           0        0.584422    2.291308    0.040192
     17          1           0        2.994574    1.900190   -0.374936
     18          1           0        3.895461   -0.417240   -0.393987
     19          1           0        2.361269   -2.337837    0.001429
     20          1           0       -0.052082   -1.936348    0.407908
 ---------------------------------------------------------------------
 Rotational constants (GHZ):      4.5544143      0.8735128      0.7671777
 Leave Link  202 at Mon Oct  4 10:36:16 2021, MaxMem=  805306368 cpu:       0.0
 (Enter /sw/target/amd/app/gaussian/Gaussian09RevA.02_gcc-4.9.2/g09/l301.exe)
 Standard basis: 6-31G(d) (6D, 7F)
 Ernie: Thresh=  0.10000D-02 Tol=  0.10000D-05 Strict=F.
 There are   157 symmetry adapted basis functions of A   symmetry.
 Integral buffers will be    131072 words long.
 Raffenetti 2 integral format.
 Two-electron integral symmetry is turned on.
   157 basis functions,   296 primitive gaussians,   157 cartesian basis functions
    33 alpha electrons       33 beta electrons
       nuclear repulsion energy       413.7873562334 Hartrees.
 IExCor=  402 DFT=T Ex+Corr=B3LYP ExCW=0 ScaHFX=  0.200000
 ScaDFX=  0.800000  0.720000  1.000000  0.810000 ScalE2=  1.000000  1.000000
 IRadAn=      0 IRanWt=     -1 IRanGd=            0 ICorTp=0
 NAtoms=   20 NActive=   20 NUniq=   20 SFac= 7.50D-01 NAtFMM=   80 NAOKFM=F Big=F
 Leave Link  301 at Mon Oct  4 10:36:17 2021, MaxMem=  805306368 cpu:       0.1
 (Enter /sw/target/amd/app/gaussian/Gaussian09RevA.02_gcc-4.9.2/g09/l302.exe)
 NPDir=0 NMtPBC=     1 NCelOv=     1 NCel=       1 NClECP=     1 NCelD=      1
         NCelK=      1 NCelE2=     1 NClLst=     1 CellRange=     0.0.
 One-electron integrals computed using PRISM.
 NBasis=   157 RedAO= T  NBF=   157
 NBsUse=   157 1.00D-06 NBFU=   157
 Precomputing XC quadrature grid using
 IXCGrd= 2 IRadAn=           0 IRanWt=          -1 IRanGd=           0 AccXCQ= 1.00D-10.
 NRdTot=    1257 NPtTot=      159780 NUsed=      168852 NTot=      168884
 NSgBfM=   157   157   157   157   157 NAtAll=    20    20.
 Leave Link  302 at Mon Oct  4 10:36:19 2021, MaxMem=  805306368 cpu:       1.1
 (Enter /sw/target/amd/app/gaussian/Gaussian09RevA.02_gcc-4.9.2/g09/l303.exe)
 DipDrv:  MaxL=1.
 Leave Link  303 at Mon Oct  4 10:36:19 2021, MaxMem=  805306368 cpu:       0.1
 (Enter /sw/target/amd/app/gaussian/Gaussian09RevA.02_gcc-4.9.2/g09/l401.exe)
 Initial guess read from the read-write file.
 B after Tr=     0.000000    0.000000    0.000000
         Rot=    1.000000    0.000000    0.000000    0.000000 Ang=   0.00 deg.
 Guess basis will be translated and rotated to current coordinates.
 Initial guess orbital symmetries:
       Occupied  (A) (A) (A) (A) (A) (A) (A) (A) (A) (A) (A) (A)
                 (A) (A) (A) (A) (A) (A) (A) (A) (A) (A) (A) (A)
                 (A) (A) (A) (A) (A) (A) (A) (A) (A)
       Virtual   (A) (A) (A) (A) (A) (A) (A) (A) (A) (A) (A) (A)
                 (A) (A) (A) (A) (A) (A) (A) (A) (A) (A) (A) (A)
                 (A) (A) (A) (A) (A) (A) (A) (A) (A) (A) (A) (A)
                 (A) (A) (A) (A) (A) (A) (A) (A) (A) (A) (A) (A)
                 (A) (A) (A) (A) (A) (A) (A) (A) (A) (A) (A) (A)
                 (A) (A) (A) (A) (A) (A) (A) (A) (A) (A) (A) (A)
                 (A) (A) (A) (A) (A) (A) (A) (A) (A) (A) (A) (A)
                 (A) (A) (A) (A) (A) (A) (A) (A) (A) (A) (A) (A)
                 (A) (A) (A) (A) (A) (A) (A) (A) (A) (A) (A) (A)
                 (A) (A) (A) (A) (A) (A) (A) (A) (A) (A) (A) (A)
                 (A) (A) (A) (A)
 The electronic state of the initial guess is 1-A.
 Generating alternative initial guess.
 Harris functional with IExCor=  402 diagonalized for initial guess.
 ExpMin= 1.61D-01 ExpMax= 4.17D+03 ExpMxC= 6.27D+02 IAcc=1 IRadAn=         1 AccDes= 0.00D+00
 HarFok:  IExCor=  402 AccDes= 0.00D+00 IRadAn=         1 IDoV= 1
 ScaDFX=  1.000000  1.000000  1.000000  1.000000
 FoFCou: FMM=F IPFlag=           0 FMFlag=      100000 FMFlg1=           0
         NFxFlg=           0 DoJE=T BraDBF=F KetDBF=T FulRan=T
         Omega=  0.000000  0.000000  1.000000  0.000000  0.000000 ICntrl=     500 IOpCl=  0
         NMat0=    1 NMatS0=    1 NMatT0=    0 NMatD0=    1 NMtDS0=    0 NMtDT0=    0
         I1Cent=           4 NGrid=           0.
 Petite list used in FoFCou.
 Harris En= -366.284966206484    
 Leave Link  401 at Mon Oct  4 10:36:27 2021, MaxMem=  805306368 cpu:       5.1
 (Enter /sw/target/amd/app/gaussian/Gaussian09RevA.02_gcc-4.9.2/g09/l502.exe)
 Closed shell SCF:
 Requested convergence on RMS density matrix=1.00D-08 within  64 cycles.
 Requested convergence on MAX density matrix=1.00D-06.
 Requested convergence on             energy=1.00D-06.
 No special actions if energy rises.
 Using DIIS extrapolation, IDIIS=  1040.
 Integral symmetry usage will be decided dynamically.
       168659 words used for storage of precomputed grid.
 Keep R1 ints in memory in canonical form, NReq=79145780.
 IEnd=      250283 IEndB=      250283 NGot=   805306368 MDV=   728161682
 LenX=   728161682 LenY=   728136592
 Symmetry not used in FoFDir.
 MinBra= 0 MaxBra= 2 Meth= 1.
 IRaf=       0 NMat=   1 IRICut=       1 DoRegI=T DoRafI=F ISym2E= 0 JSym2E=0.
 Integral accuracy reduced to 1.0D-05 until final iterations.

 Cycle   1  Pass 0  IDiag  1:
 E= -366.209260437756    
 DIIS: error= 3.62D-03 at cycle   1 NSaved=   1.
 NSaved= 1 IEnMin= 1 EnMin= -366.209260437756     IErMin= 1 ErrMin= 3.62D-03
 ErrMax= 3.62D-03 EMaxC= 1.00D-01 BMatC= 3.24D-03 BMatP= 3.24D-03
 IDIUse=3 WtCom= 9.64D-01 WtEn= 3.62D-02
 Coeff-Com:  0.100D+01
 Coeff-En:   0.100D+01
 Coeff:      0.100D+01
 Gap=     0.225 Goal=   None    Shift=    0.000
 GapD=    0.225 DampG=1.000 DampE=1.000 DampFc=1.0000 IDamp=-1.
 RMSDP=6.10D-04 MaxDP=1.56D-02              OVMax= 2.78D-02

 Cycle   2  Pass 0  IDiag  1:
 E= -366.215201338811     Delta-E=       -0.005940901055 Rises=F Damp=F
 DIIS: error= 4.36D-04 at cycle   2 NSaved=   2.
 NSaved= 2 IEnMin= 2 EnMin= -366.215201338811     IErMin= 2 ErrMin= 4.36D-04
 ErrMax= 4.36D-04 EMaxC= 1.00D-01 BMatC= 5.82D-05 BMatP= 3.24D-03
 IDIUse=3 WtCom= 9.96D-01 WtEn= 4.36D-03
 Coeff-Com: -0.546D-01 0.105D+01
 Coeff-En:   0.000D+00 0.100D+01
 Coeff:     -0.543D-01 0.105D+01
 Gap=     0.223 Goal=   None    Shift=    0.000
 RMSDP=1.13D-04 MaxDP=2.36D-03 DE=-5.94D-03 OVMax= 3.78D-03

 Cycle   3  Pass 0  IDiag  1:
 E= -366.215231868985     Delta-E=       -0.000030530174 Rises=F Damp=F
 DIIS: error= 4.53D-04 at cycle   3 NSaved=   3.
 NSaved= 3 IEnMin= 3 EnMin= -366.215231868985     IErMin= 2 ErrMin= 4.36D-04
 ErrMax= 4.53D-04 EMaxC= 1.00D-01 BMatC= 5.46D-05 BMatP= 5.82D-05
 IDIUse=3 WtCom= 9.95D-01 WtEn= 4.53D-03
 Coeff-Com: -0.420D-01 0.549D+00 0.493D+00
 Coeff-En:   0.000D+00 0.318D+00 0.682D+00
 Coeff:     -0.418D-01 0.548D+00 0.494D+00
 Gap=     0.223 Goal=   None    Shift=    0.000
 RMSDP=6.09D-05 MaxDP=1.23D-03 DE=-3.05D-05 OVMax= 3.18D-03

 Cycle   4  Pass 0  IDiag  1:
 E= -366.215281384921     Delta-E=       -0.000049515936 Rises=F Damp=F
 DIIS: error= 2.18D-04 at cycle   4 NSaved=   4.
 NSaved= 4 IEnMin= 4 EnMin= -366.215281384921     IErMin= 4 ErrMin= 2.18D-04
 ErrMax= 2.18D-04 EMaxC= 1.00D-01 BMatC= 5.80D-06 BMatP= 5.46D-05
 IDIUse=3 WtCom= 9.98D-01 WtEn= 2.18D-03
 Coeff-Com: -0.188D-01 0.222D+00 0.289D+00 0.508D+00
 Coeff-En:   0.000D+00 0.000D+00 0.556D-01 0.944D+00
 Coeff:     -0.188D-01 0.221D+00 0.288D+00 0.509D+00
 Gap=     0.222 Goal=   None    Shift=    0.000
 RMSDP=2.09D-05 MaxDP=4.66D-04 DE=-4.95D-05 OVMax= 1.29D-03

 Cycle   5  Pass 0  IDiag  1:
 E= -366.215287469208     Delta-E=       -0.000006084287 Rises=F Damp=F
 DIIS: error= 5.60D-05 at cycle   5 NSaved=   5.
 NSaved= 5 IEnMin= 5 EnMin= -366.215287469208     IErMin= 5 ErrMin= 5.60D-05
 ErrMax= 5.60D-05 EMaxC= 1.00D-01 BMatC= 5.10D-07 BMatP= 5.80D-06
 IDIUse=1 WtCom= 1.00D+00 WtEn= 0.00D+00
 Coeff-Com: -0.508D-02 0.544D-01 0.979D-01 0.280D+00 0.573D+00
 Coeff:     -0.508D-02 0.544D-01 0.979D-01 0.280D+00 0.573D+00
 Gap=     0.223 Goal=   None    Shift=    0.000
 RMSDP=5.89D-06 MaxDP=1.10D-04 DE=-6.08D-06 OVMax= 3.04D-04

 Initial convergence to 1.0D-05 achieved.  Increase integral accuracy.
 Cycle   6  Pass 1  IDiag  1:
 E= -366.215353039421     Delta-E=       -0.000065570213 Rises=F Damp=F
 DIIS: error= 1.96D-05 at cycle   1 NSaved=   1.
 NSaved= 1 IEnMin= 1 EnMin= -366.215353039421     IErMin= 1 ErrMin= 1.96D-05
 ErrMax= 1.96D-05 EMaxC= 1.00D-01 BMatC= 5.73D-08 BMatP= 5.73D-08
 IDIUse=1 WtCom= 1.00D+00 WtEn= 0.00D+00
 Coeff-Com:  0.100D+01
 Coeff:      0.100D+01
 Gap=     0.222 Goal=   None    Shift=    0.000
 RMSDP=5.89D-06 MaxDP=1.10D-04 DE=-6.56D-05 OVMax= 1.10D-04

 Cycle   7  Pass 1  IDiag  1:
 E= -366.215353071464     Delta-E=       -0.000000032044 Rises=F Damp=F
 DIIS: error= 1.51D-05 at cycle   2 NSaved=   2.
 NSaved= 2 IEnMin= 2 EnMin= -366.215353071464     IErMin= 2 ErrMin= 1.51D-05
 ErrMax= 1.51D-05 EMaxC= 1.00D-01 BMatC= 4.00D-08 BMatP= 5.73D-08
 IDIUse=1 WtCom= 1.00D+00 WtEn= 0.00D+00
 Coeff-Com:  0.443D+00 0.557D+00
 Coeff:      0.443D+00 0.557D+00
 Gap=     0.223 Goal=   None    Shift=    0.000
 RMSDP=1.94D-06 MaxDP=3.92D-05 DE=-3.20D-08 OVMax= 1.10D-04

 Cycle   8  Pass 1  IDiag  1:
 E= -366.215353103437     Delta-E=       -0.000000031973 Rises=F Damp=F
 DIIS: error= 8.53D-06 at cycle   3 NSaved=   3.
 NSaved= 3 IEnMin= 3 EnMin= -366.215353103437     IErMin= 3 ErrMin= 8.53D-06
 ErrMax= 8.53D-06 EMaxC= 1.00D-01 BMatC= 9.37D-09 BMatP= 4.00D-08
 IDIUse=1 WtCom= 1.00D+00 WtEn= 0.00D+00
 Coeff-Com:  0.553D-01 0.323D+00 0.622D+00
 Coeff:      0.553D-01 0.323D+00 0.622D+00
 Gap=     0.222 Goal=   None    Shift=    0.000
 RMSDP=9.15D-07 MaxDP=2.11D-05 DE=-3.20D-08 OVMax= 5.72D-05

 Cycle   9  Pass 1  IDiag  1:
 E= -366.215353112482     Delta-E=       -0.000000009045 Rises=F Damp=F
 DIIS: error= 3.07D-06 at cycle   4 NSaved=   4.
 NSaved= 4 IEnMin= 4 EnMin= -366.215353112482     IErMin= 4 ErrMin= 3.07D-06
 ErrMax= 3.07D-06 EMaxC= 1.00D-01 BMatC= 1.65D-09 BMatP= 9.37D-09
 IDIUse=1 WtCom= 1.00D+00 WtEn= 0.00D+00
 Coeff-Com: -0.908D-02 0.144D+00 0.389D+00 0.476D+00
 Coeff:     -0.908D-02 0.144D+00 0.389D+00 0.476D+00
 Gap=     0.222 Goal=   None    Shift=    0.000
 RMSDP=2.94D-07 MaxDP=6.41D-06 DE=-9.04D-09 OVMax= 1.63D-05

 Cycle  10  Pass 1  IDiag  1:
 E= -366.215353114246     Delta-E=       -0.000000001764 Rises=F Damp=F
 DIIS: error= 3.17D-07 at cycle   5 NSaved=   5.
 NSaved= 5 IEnMin= 5 EnMin= -366.215353114246     IErMin= 5 ErrMin= 3.17D-07
 ErrMax= 3.17D-07 EMaxC= 1.00D-01 BMatC= 3.67D-11 BMatP= 1.65D-09
 IDIUse=1 WtCom= 1.00D+00 WtEn= 0.00D+00
 Coeff-Com: -0.785D-02 0.458D-01 0.142D+00 0.213D+00 0.607D+00
 Coeff:     -0.785D-02 0.458D-01 0.142D+00 0.213D+00 0.607D+00
 Gap=     0.222 Goal=   None    Shift=    0.000
 RMSDP=5.25D-08 MaxDP=1.21D-06 DE=-1.76D-09 OVMax= 2.06D-06

 Cycle  11  Pass 1  IDiag  1:
 E= -366.215353114281     Delta-E=       -0.000000000035 Rises=F Damp=F
 DIIS: error= 8.06D-08 at cycle   6 NSaved=   6.
 NSaved= 6 IEnMin= 6 EnMin= -366.215353114281     IErMin= 6 ErrMin= 8.06D-08
 ErrMax= 8.06D-08 EMaxC= 1.00D-01 BMatC= 2.05D-12 BMatP= 3.67D-11
 IDIUse=1 WtCom= 1.00D+00 WtEn= 0.00D+00
 Coeff-Com: -0.300D-02 0.149D-01 0.484D-01 0.752D-01 0.282D+00 0.582D+00
 Coeff:     -0.300D-02 0.149D-01 0.484D-01 0.752D-01 0.282D+00 0.582D+00
[...]
     7  C    5.084628   0.519216  -0.061671   0.000000   0.000000   0.000000
     8  C    0.519216   4.807542   0.602739  -0.000000  -0.000000   0.000000
     9  C   -0.061671   0.602739   5.065451  -0.000002  -0.000049   0.000033
    10  H    0.000000  -0.000000  -0.000002   0.491541  -0.023515  -0.024129
    11  H    0.000000  -0.000000  -0.000049  -0.023515   0.463347  -0.018889
    12  H    0.000000   0.000000   0.000033  -0.024129  -0.018889   0.463102
    13  H    0.000044  -0.000225  -0.000662  -0.003263   0.001015   0.004371
    14  H   -0.000063   0.000163   0.008371  -0.000070   0.001989   0.006037
    15  H    0.000009  -0.000126   0.001396   0.000193  -0.002437   0.000625
    16  H    0.005331   0.000661   0.005868   0.000000  -0.000013   0.000001
    17  H   -0.046805   0.005144   0.001208   0.000000  -0.000000   0.000000
    18  H    0.353461  -0.047960   0.005679  -0.000000  -0.000000   0.000000
    19  H   -0.045342   0.346250  -0.046529   0.000000  -0.000000   0.000000
    20  H    0.005230  -0.044842   0.354331   0.000044  -0.000023   0.000069
             13         14         15         16         17         18
     1  C   -0.019315   0.001465  -0.004781  -0.000004  -0.000000  -0.000000
     2  N    0.241881  -0.078422  -0.018672   0.000228   0.000001  -0.000000
     3  C   -0.014482   0.321650   0.357255  -0.015460  -0.000231   0.000010
     4  C    0.019602  -0.054263  -0.019799  -0.057623   0.004395   0.001108
     5  C    0.000042   0.000707  -0.002150   0.340072  -0.045738   0.005712
     6  C   -0.000127   0.000094  -0.000305  -0.043117   0.349273  -0.048490
     7  C    0.000044  -0.000063   0.000009   0.005331  -0.046805   0.353461
     8  C   -0.000225   0.000163  -0.000126   0.000661   0.005144  -0.047960
     9  C   -0.000662   0.008371   0.001396   0.005868   0.001208   0.005679
    10  H   -0.003263  -0.000070   0.000193   0.000000   0.000000  -0.000000
    11  H    0.001015   0.001989  -0.002437  -0.000013  -0.000000  -0.000000
    12  H    0.004371   0.006037   0.000625   0.000001   0.000000   0.000000
    13  H    0.366483   0.008950  -0.001067   0.000032   0.000000  -0.000000
    14  H    0.008950   0.637040  -0.028229   0.000331   0.000004  -0.000000
    15  H   -0.001067  -0.028229   0.501024   0.006748  -0.000013  -0.000001
    16  H    0.000032   0.000331   0.006748   0.708823  -0.007247  -0.000237
    17  H    0.000000   0.000004  -0.000013  -0.007247   0.672952  -0.006913
    18  H   -0.000000  -0.000000  -0.000001  -0.000237  -0.006913   0.679361
    19  H   -0.000000  -0.000003   0.000003   0.000023  -0.000240  -0.006842
    20  H    0.001170   0.002257  -0.000284  -0.000280   0.000022  -0.000235
             19         20
     1  C   -0.000000  -0.000222
     2  N   -0.000005  -0.003704
     3  C   -0.000250  -0.015635
     4  C    0.004011  -0.056792
     5  C    0.001269   0.006004
     6  C    0.004993   0.000701
     7  C   -0.045342   0.005230
     8  C    0.346250  -0.044842
     9  C   -0.046529   0.354331
    10  H    0.000000   0.000044
    11  H   -0.000000  -0.000023
    12  H    0.000000   0.000069
    13  H   -0.000000   0.001170
    14  H   -0.000003   0.002257
    15  H    0.000003  -0.000284
    16  H    0.000023  -0.000280
    17  H   -0.000240   0.000022
    18  H   -0.006842  -0.000235
    19  H    0.671473  -0.007050
    20  H   -0.007050   0.710040
 Mulliken atomic charges:
              1
     1  C   -0.361977
     2  N   -0.285480
     3  C   -0.283385
     4  C    0.066186
     5  C   -0.198242
     6  C   -0.152321
     7  C   -0.206118
     8  C   -0.122421
     9  C   -0.230615
    10  H    0.209591
    11  H    0.236024
    12  H    0.227770
    13  H    0.395551
    14  H    0.171991
    15  H    0.210613
    16  H    0.055862
    17  H    0.074188
    18  H    0.065346
    19  H    0.078238
    20  H    0.049200
 Sum of Mulliken atomic charges =  -0.00000
 Mulliken charges with hydrogens summed into heavy atoms:
              1
     1  C    0.311408
     2  N    0.110070
     3  C    0.099219
     4  C    0.066186
     5  C   -0.142379
     6  C   -0.078134
     7  C   -0.140772
     8  C   -0.044182
     9  C   -0.181415
 Sum of Mulliken charges with hydrogens summed into heavy atoms =  -0.00000
 Electronic spatial extent (au):  <R**2>=           1523.8318
 Charge=              0.0000 electrons
 Dipole moment (field-independent basis, Debye):
    X=            -12.3145    Y=              0.5462    Z=             -1.2953  Tot=             12.3945
 Quadrupole moment (field-independent basis, Debye-Ang):
   XX=            -38.0643   YY=            -54.3197   ZZ=            -55.9229
   XY=             -0.6212   XZ=              2.8227   YZ=              0.4816
 Traceless Quadrupole moment (field-independent basis, Debye-Ang):
   XX=             11.3713   YY=             -4.8841   ZZ=             -6.4873
   XY=             -0.6212   XZ=              2.8227   YZ=              0.4816
 Octapole moment (field-independent basis, Debye-Ang**2):
  XXX=           -122.5681  YYY=              2.1455  ZZZ=             -4.1001  XYY=            -12.8543
  XXY=              0.5597  XXZ=             -9.4495  XZZ=            -21.2056  YZZ=             -0.9436
  YYZ=             -1.3744  XYZ=             -1.2391
 Hexadecapole moment (field-independent basis, Debye-Ang**3):
 XXXX=          -1366.0869 YYYY=           -348.4293 ZZZZ=            -89.9416 XXXY=              4.0017
 XXXZ=             19.8750 YYYX=             -7.1870 YYYZ=             -0.0996 ZZZX=              9.9695
 ZZZY=              3.6178 XXYY=           -314.6422 XXZZ=           -284.7794 YYZZ=            -80.8017
 XXYZ=             -0.0872 YYXZ=              3.4891 ZZXY=              4.2864
 N-N= 4.140038716856D+02 E-N=-1.676541771918D+03  KE= 3.626760803561D+02
 No NMR shielding tensors so no spin-rotation constants.
 Leave Link  601 at Mon Oct  4 13:45:07 2021, MaxMem=  805306368 cpu:       0.6
 (Enter /sw/target/amd/app/gaussian/Gaussian09RevA.02_gcc-4.9.2/g09/l604.exe)
 Evaluate density.
 Using the total density.
 Monte-Carlo method of calculating molar volume:
 based on  0.001 e/bohr**3 density envelope.
 Number of points per bohr**3 =   20 CutOff= 1.00D-04
 Using the CI density.
 There are       371 points.  Will hold       371 in memory.
 LenV=   805221831 MDV=   805306368.
 Box volume = 6420.401 fraction occupied=0.173
 Integrated density= 4.1355195382970138D+01 error=-2.4644804617029862D+01
 Molar volume = 1107.562 bohr**3/mol ( 98.838 cm**3/mol)
 Recommended a0 for SCRF calculation =  4.24 angstrom (  8.01 bohr)
 Leave Link  604 at Mon Oct  4 13:45:07 2021, MaxMem=  805306368 cpu:       0.2
 (Enter /sw/target/amd/app/gaussian/Gaussian09RevA.02_gcc-4.9.2/g09/l607.exe)
 ******************************Gaussian NBO Version 3.1******************************
             N A T U R A L   A T O M I C   O R B I T A L   A N D
          N A T U R A L   B O N D   O R B I T A L   A N A L Y S I S
 ******************************Gaussian NBO Version 3.1******************************
       /RESON  / : Allow strongly delocalized NBO set

 Analyzing the CI density

 Job title: CNCc1ccccc1_conf_0                                              

 Storage needed:     75324 in NPA ( 805304168 available)


 NATURAL POPULATIONS:  Natural atomic orbital occupancies 
                                                          
   NAO  Atom  No  lang   Type(AO)    Occupancy
 --------------------------------------------
     1    C    1  S      Cor( 1S)     1.99945
     2    C    1  S      Val( 2S)     1.11739
     3    C    1  S      Ryd( 3S)     0.00115
     4    C    1  S      Ryd( 4S)     0.00002
     5    C    1  px     Val( 2p)     0.89888
     6    C    1  px     Ryd( 3p)     0.00274
     7    C    1  py     Val( 2p)     1.23785
     8    C    1  py     Ryd( 3p)     0.00193
     9    C    1  pz     Val( 2p)     1.27368
    10    C    1  pz     Ryd( 3p)     0.00159
    11    C    1  dxy    Ryd( 3d)     0.00088
    12    C    1  dxz    Ryd( 3d)     0.00073
    13    C    1  dyz    Ryd( 3d)     0.00058
    14    C    1  dx2y2  Ryd( 3d)     0.00121
    15    C    1  dz2    Ryd( 3d)     0.00113

    16    N    2  S      Cor( 1S)     1.99933
    17    N    2  S      Val( 2S)     1.35870
    18    N    2  S      Ryd( 3S)     0.00183
    19    N    2  S      Ryd( 4S)     0.00002
    20    N    2  px     Val( 2p)     1.25672
    21    N    2  px     Ryd( 3p)     0.00021
    22    N    2  py     Val( 2p)     1.18330
    23    N    2  py     Ryd( 3p)     0.00037
    24    N    2  pz     Val( 2p)     1.36636
    25    N    2  pz     Ryd( 3p)     0.00057
    26    N    2  dxy    Ryd( 3d)     0.00078
    27    N    2  dxz    Ryd( 3d)     0.00043
    28    N    2  dyz    Ryd( 3d)     0.00032
    29    N    2  dx2y2  Ryd( 3d)     0.00056
    30    N    2  dz2    Ryd( 3d)     0.00148

    31    C    3  S      Cor( 1S)     1.99922
    32    C    3  S      Val( 2S)     1.03032
    33    C    3  S      Ryd( 3S)     0.00140
    34    C    3  S      Ryd( 4S)     0.00003
    35    C    3  px     Val( 2p)     1.06032
    36    C    3  px     Ryd( 3p)     0.00353
    37    C    3  py     Val( 2p)     1.05146
    38    C    3  py     Ryd( 3p)     0.00478
    39    C    3  pz     Val( 2p)     1.14491
    40    C    3  pz     Ryd( 3p)     0.00182
    41    C    3  dxy    Ryd( 3d)     0.00115
    42    C    3  dxz    Ryd( 3d)     0.00186
    43    C    3  dyz    Ryd( 3d)     0.00059
    44    C    3  dx2y2  Ryd( 3d)     0.00068
    45    C    3  dz2    Ryd( 3d)     0.00095

    46    C    4  S      Cor( 1S)     1.99902
    47    C    4  S      Val( 2S)     0.84232
    48    C    4  S      Ryd( 3S)     0.00071
    49    C    4  S      Ryd( 4S)     0.00005
    50    C    4  px     Val( 2p)     0.99846
    51    C    4  px     Ryd( 3p)     0.00445
    52    C    4  py     Val( 2p)     1.10731
    53    C    4  py     Ryd( 3p)     0.00521
    54    C    4  pz     Val( 2p)     1.31826
    55    C    4  pz     Ryd( 3p)     0.00677
    56    C    4  dxy    Ryd( 3d)     0.00051
    57    C    4  dxz    Ryd( 3d)     0.00021
    58    C    4  dyz    Ryd( 3d)     0.00058
    59    C    4  dx2y2  Ryd( 3d)     0.00065
    60    C    4  dz2    Ryd( 3d)     0.00036

    61    C    5  S      Cor( 1S)     1.99905
    62    C    5  S      Val( 2S)     0.93610
    63    C    5  S      Ryd( 3S)     0.00052
    64    C    5  S      Ryd( 4S)     0.00003
    65    C    5  px     Val( 2p)     1.09461
    66    C    5  px     Ryd( 3p)     0.00359
    67    C    5  py     Val( 2p)     1.14971
    68    C    5  py     Ryd( 3p)     0.00448
    69    C    5  pz     Val( 2p)     1.05231
    70    C    5  pz     Ryd( 3p)     0.00172
    71    C    5  dxy    Ryd( 3d)     0.00075
    72    C    5  dxz    Ryd( 3d)     0.00108
    73    C    5  dyz    Ryd( 3d)     0.00030
    74    C    5  dx2y2  Ryd( 3d)     0.00069
    75    C    5  dz2    Ryd( 3d)     0.00049

    76    C    6  S      Cor( 1S)     1.99911
    77    C    6  S      Val( 2S)     0.94452
    78    C    6  S      Ryd( 3S)     0.00059
    79    C    6  S      Ryd( 4S)     0.00003
    80    C    6  px     Val( 2p)     1.10327
    81    C    6  px     Ryd( 3p)     0.00479
    82    C    6  py     Val( 2p)     1.13701
    83    C    6  py     Ryd( 3p)     0.00504
    84    C    6  pz     Val( 2p)     1.08181
    85    C    6  pz     Ryd( 3p)     0.00343
    86    C    6  dxy    Ryd( 3d)     0.00082
    87    C    6  dxz    Ryd( 3d)     0.00057
    88    C    6  dyz    Ryd( 3d)     0.00062
    89    C    6  dx2y2  Ryd( 3d)     0.00059
    90    C    6  dz2    Ryd( 3d)     0.00042

    91    C    7  S      Cor( 1S)     1.99910
    92    C    7  S      Val( 2S)     0.93772
    93    C    7  S      Ryd( 3S)     0.00053
    94    C    7  S      Ryd( 4S)     0.00003
    95    C    7  px     Val( 2p)     1.17128
    96    C    7  px     Ryd( 3p)     0.00439
    97    C    7  py     Val( 2p)     1.05885
    98    C    7  py     Ryd( 3p)     0.00530
    99    C    7  pz     Val( 2p)     1.20396
   100    C    7  pz     Ryd( 3p)     0.00637
   101    C    7  dxy    Ryd( 3d)     0.00062
   102    C    7  dxz    Ryd( 3d)     0.00032
   103    C    7  dyz    Ryd( 3d)     0.00040
   104    C    7  dx2y2  Ryd( 3d)     0.00074
   105    C    7  dz2    Ryd( 3d)     0.00042

   106    C    8  S      Cor( 1S)     1.99911
   107    C    8  S      Val( 2S)     0.94952
   108    C    8  S      Ryd( 3S)     0.00060
   109    C    8  S      Ryd( 4S)     0.00003
   110    C    8  px     Val( 2p)     1.07488
   111    C    8  px     Ryd( 3p)     0.00457
   112    C    8  py     Val( 2p)     1.17327
   113    C    8  py     Ryd( 3p)     0.00523
   114    C    8  pz     Val( 2p)     1.00710
   115    C    8  pz     Ryd( 3p)     0.00124
   116    C    8  dxy    Ryd( 3d)     0.00066
   117    C    8  dxz    Ryd( 3d)     0.00103
   118    C    8  dyz    Ryd( 3d)     0.00034
   119    C    8  dx2y2  Ryd( 3d)     0.00080
   120    C    8  dz2    Ryd( 3d)     0.00049

   121    C    9  S      Cor( 1S)     1.99905
   122    C    9  S      Val( 2S)     0.92769
   123    C    9  S      Ryd( 3S)     0.00055
   124    C    9  S      Ryd( 4S)     0.00004
   125    C    9  px     Val( 2p)     1.12936
   126    C    9  px     Ryd( 3p)     0.00337
   127    C    9  py     Val( 2p)     1.10602
   128    C    9  py     Ryd( 3p)     0.00407
   129    C    9  pz     Val( 2p)     1.15701
   130    C    9  pz     Ryd( 3p)     0.00436
   131    C    9  dxy    Ryd( 3d)     0.00088
   132    C    9  dxz    Ryd( 3d)     0.00051
   133    C    9  dyz    Ryd( 3d)     0.00057
   134    C    9  dx2y2  Ryd( 3d)     0.00051
   135    C    9  dz2    Ryd( 3d)     0.00044

   136    H   10  S      Val( 1S)     0.74069
   137    H   10  S      Ryd( 2S)     0.00049

   138    H   11  S      Val( 1S)     0.71439
   139    H   11  S      Ryd( 2S)     0.00000

   140    H   12  S      Val( 1S)     0.73111
   141    H   12  S      Ryd( 2S)     0.00099

   142    H   13  S      Val( 1S)     0.56676
   143    H   13  S      Ryd( 2S)     0.00394

   144    H   14  S      Val( 1S)     0.76731
   145    H   14  S      Ryd( 2S)     0.00709

   146    H   15  S      Val( 1S)     0.71140
   147    H   15  S      Ryd( 2S)     0.00000

   148    H   16  S      Val( 1S)     0.80471
   149    H   16  S      Ryd( 2S)     0.00082

   150    H   17  S      Val( 1S)     0.78869
   151    H   17  S      Ryd( 2S)     0.00082

   152    H   18  S      Val( 1S)     0.79218
   153    H   18  S      Ryd( 2S)     0.00065

   154    H   19  S      Val( 1S)     0.78763
   155    H   19  S      Ryd( 2S)     0.00091

   156    H   20  S      Val( 1S)     0.81122
   157    H   20  S      Ryd( 2S)     0.00000


 Summary of Natural Population Analysis:                  
                                                          
                                       Natural Population 
                Natural  -----------------------------------------------
    Atom  No    Charge         Core      Valence    Rydberg      Total
 -----------------------------------------------------------------------
      C    1   -0.53921      1.99945     4.52781    0.01195     6.53921
      N    2   -0.17099      1.99933     5.16508    0.00658     7.17099
      C    3   -0.30305      1.99922     4.28701    0.01681     6.30305
      C    4   -0.28487      1.99902     4.26635    0.01950     6.28487
      C    5   -0.24544      1.99905     4.23273    0.01365     6.24544
      C    6   -0.28263      1.99911     4.26661    0.01691     6.28263
      C    7   -0.39004      1.99910     4.37182    0.01912     6.39004
      C    8   -0.21886      1.99911     4.20477    0.01498     6.21886
      C    9   -0.33444      1.99905     4.32009    0.01530     6.33444
      H   10    0.25882      0.00000     0.74069    0.00049     0.74118
      H   11    0.28561      0.00000     0.71439    0.00000     0.71439
      H   12    0.26791      0.00000     0.73111    0.00099     0.73209
      H   13    0.42930      0.00000     0.56676    0.00394     0.57070
      H   14    0.22560      0.00000     0.76731    0.00709     0.77440
      H   15    0.28860      0.00000     0.71140    0.00000     0.71140
      H   16    0.19447      0.00000     0.80471    0.00082     0.80553
      H   17    0.21049      0.00000     0.78869    0.00082     0.78951
      H   18    0.20717      0.00000     0.79218    0.00065     0.79283
      H   19    0.21147      0.00000     0.78763    0.00091     0.78853
      H   20    0.18878      0.00000     0.81122    0.00000     0.81122
 =======================================================================
   * Total *   -0.00131     17.99245    47.85837    0.15049    66.00131

                                 Natural Population      
 --------------------------------------------------------
   Core                      17.99245 ( 99.9580% of  18)
   Valence                   47.85837 ( 99.7049% of  48)
   Natural Minimal Basis     65.85081 ( 99.7740% of  66)
   Natural Rydberg Basis      0.15049 (  0.2280% of  66)
 --------------------------------------------------------

    Atom  No          Natural Electron Configuration
 ----------------------------------------------------------------------------
      C    1      [core]2S( 1.12)2p( 3.41)3p( 0.01)
      N    2      [core]2S( 1.36)2p( 3.81)
      C    3      [core]2S( 1.03)2p( 3.26)3p( 0.01)3d( 0.01)
      C    4      [core]2S( 0.84)2p( 3.42)3p( 0.02)
      C    5      [core]2S( 0.94)2p( 3.30)3p( 0.01)
      C    6      [core]2S( 0.94)2p( 3.32)3p( 0.01)
      C    7      [core]2S( 0.94)2p( 3.43)3p( 0.02)
      C    8      [core]2S( 0.95)2p( 3.26)3p( 0.01)
      C    9      [core]2S( 0.93)2p( 3.39)3p( 0.01)
      H   10            1S( 0.74)
      H   11            1S( 0.71)
      H   12            1S( 0.73)
      H   13            1S( 0.57)
      H   14            1S( 0.77)2S( 0.01)
      H   15            1S( 0.71)
      H   16            1S( 0.80)
      H   17            1S( 0.79)
      H   18            1S( 0.79)
      H   19            1S( 0.79)
      H   20            1S( 0.81)


 NBO analysis skipped by request.
 Leave Link  607 at Mon Oct  4 13:45:27 2021, MaxMem=  805306368 cpu:      11.8
 (Enter /sw/target/amd/app/gaussian/Gaussian09RevA.02_gcc-4.9.2/g09/l9999.exe)
 1\1\GINC-HERMITE\SP\RTD-B3LYP-FC\6-31G(d)\C8H11N1\JSCHLEINITZ\04-Oct-2
 021\0\\#p TD(NStates=10, Root=1) b3lyp/6-31G* volume pop=NPA density=c
 urrent Geom=AllCheck Guess=Read\\CNCc1ccccc1_conf_0\\0,1\C,0,1.5791802
 524,1.3562842238,1.4843897896\N,0,3.0354966355,1.4167369804,1.49397280
 29\C,0,3.6286722093,1.136185081,0.1881807038\C,0,5.1429663405,1.196679
 169,0.2272437535\C,0,5.9130112816,0.25577296,-0.4658484369\C,0,7.30764
 25104,0.3266012153,-0.458335758\C,0,7.9516859719,1.3393670518,0.253130
 7097\C,0,7.1921560586,2.2790130487,0.9546674526\C,0,5.7992654493,2.209
 2178457,0.9408762954\H,0,1.200479634,1.5187611015,2.4987694647\H,0,1.1
 634221198,0.4023304797,1.1079663776\H,0,1.1870572257,2.1594684086,0.84
 87262139\H,0,3.4021065476,0.7492593523,2.1705959643\H,0,3.2457710227,1
 .8979989258,-0.5080472834\H,0,3.3137989193,0.1603193978,-0.2307265155\
 H,0,5.4158835748,-0.5408047157,-1.0158615104\H,0,7.8891583913,-0.41357
 7878,-1.002128288\H,0,9.0371462382,1.3945534428,0.2645620395\H,0,7.686
 7880955,3.069548945,1.5136361215\H,0,5.2039758642,2.9313695797,1.49159
 56034\\Version=AM64L-G09RevA.02\State=1-A\HF=-366.2156979\RMSD=2.106e-
 09\Dipole=-4.693595,-0.3701685,1.2696701\Quadrupole=7.4439618,-4.55802
 01,-2.8859417,1.4896905,-3.7535993,0.3746206\PG=C01 [X(C8H11N1)]\\@


 I WANT TO KNOW HOW GOD CREATED THE WORLD.  I AM NOT INTERESTED IN
 THIS OR THAT PHENOMENON, IN THE SPECTRUM OF THIS OR THAT ELEMENT.
 I WANT TO KNOW HIS THOUGHTS, THE REST ARE DETAILS.
     -- ALBERT EINSTEIN
 Job cpu time:  0 days  0 hours 54 minutes  4.6 seconds.
 File lengths (MBytes):  RWF=     86 Int=      0 D2E=      0 Chk=     12 Scr=      1
 Normal termination of Gaussian 09 at Mon Oct  4 13:46:14 2021.
