 Entering Gaussian System, Link 0=g09
 Input=C8H10O2_653a_conf_0.com
 Output=C8H10O2_653a_conf_0.log
 Initial command:
 /sw/target/amd/app/gaussian/Gaussian09RevA.02_gcc-4.9.2/g09/l1.exe /home/jschleinitz/gaussian/Gau-2719492.inp -scrdir=/home/jschleinitz/gaussian/
 Entering Link 1 = /sw/target/amd/app/gaussian/Gaussian09RevA.02_gcc-4.9.2/g09/l1.exe PID=   2719494.
  
 Copyright (c) 1988,1990,1992,1993,1995,1998,2003,2009, Gaussian, Inc.
                  All Rights Reserved.
  
 This is part of the Gaussian(R) 09 program.  It is based on
 the Gaussian(R) 03 system (copyright 2003, Gaussian, Inc.),
 the Gaussian(R) 98 system (copyright 1998, Gaussian, Inc.),
 the Gaussian(R) 94 system (copyright 1995, Gaussian, Inc.),
 the Gaussian 92(TM) system (copyright 1992, Gaussian, Inc.),
 the Gaussian 90(TM) system (copyright 1990, Gaussian, Inc.),
 the Gaussian 88(TM) system (copyright 1988, Gaussian, Inc.),
 the Gaussian 86(TM) system (copyright 1986, Carnegie Mellon
 University), and the Gaussian 82(TM) system (copyright 1983,
 Carnegie Mellon University). Gaussian is a federally registered
 trademark of Gaussian, Inc.
  
 This software contains proprietary and confidential information,
 including trade secrets, belonging to Gaussian, Inc.
  
 This software is provided under written license and may be
 used, copied, transmitted, or stored only in accord with that
 written license.
  
 The following legend is applicable only to US Government
 contracts under FAR:
  
                    RESTRICTED RIGHTS LEGEND
  
 Use, reproduction and disclosure by the US Government is
 subject to restrictions as set forth in subparagraphs (a)
 and (c) of the Commercial Computer Software - Restricted
 Rights clause in FAR 52.227-19.
  
 Gaussian, Inc.
 340 Quinnipiac St., Bldg. 40, Wallingford CT 06492
  
  
 ---------------------------------------------------------------
 Warning -- This program may not be used in any manner that
 competes with the business of Gaussian, Inc. or will provide
 assistance to any competitor of Gaussian, Inc.  The licensee
 of this program is prohibited from giving any competitor of
 Gaussian, Inc. access to this program.  By using this program,
 the user acknowledges that Gaussian, Inc. is engaged in the
 business of creating and licensing software in the field of
 computational chemistry and represents and warrants to the
 licensee that it is not a competitor of Gaussian, Inc. and that
 it will not use this program in any manner prohibited above.
 ---------------------------------------------------------------
  

 Cite this work as:
 Gaussian 09, Revision A.02,
 M. J. Frisch, G. W. Trucks, H. B. Schlegel, G. E. Scuseria, 
 M. A. Robb, J. R. Cheeseman, G. Scalmani, V. Barone, B. Mennucci, 
 G. A. Petersson, H. Nakatsuji, M. Caricato, X. Li, H. P. Hratchian, 
 A. F. Izmaylov, J. Bloino, G. Zheng, J. L. Sonnenberg, M. Hada, 
 M. Ehara, K. Toyota, R. Fukuda, J. Hasegawa, M. Ishida, T. Nakajima, 
 Y. Honda, O. Kitao, H. Nakai, T. Vreven, J. A. Montgomery, Jr., 
 J. E. Peralta, F. Ogliaro, M. Bearpark, J. J. Heyd, E. Brothers, 
 K. N. Kudin, V. N. Staroverov, R. Kobayashi, J. Normand, 
 K. Raghavachari, A. Rendell, J. C. Burant, S. S. Iyengar, J. Tomasi, 
 M. Cossi, N. Rega, J. M. Millam, M. Klene, J. E. Knox, J. B. Cross, 
 V. Bakken, C. Adamo, J. Jaramillo, R. Gomperts, R. E. Stratmann, 
 O. Yazyev, A. J. Austin, R. Cammi, C. Pomelli, J. W. Ochterski, 
 R. L. Martin, K. Morokuma, V. G. Zakrzewski, G. A. Voth, 
 P. Salvador, J. J. Dannenberg, S. Dapprich, A. D. Daniels, 
 O. Farkas, J. B. Foresman, J. V. Ortiz, J. Cioslowski, 
 and D. J. Fox, Gaussian, Inc., Wallingford CT, 2009.
 
 ******************************************
 Gaussian 09:  AM64L-G09RevA.02 11-Jun-2009
                30-Sep-2021 
 ******************************************
 %nproc=3
 Will use up to    3 processors via shared memory.
 %mem=6gb
 %chk=C8H10O2_653a_conf_0.chk
 -----------------------------------
 #p opt b3lyp/6-31G* scf=(xqc,tight)
 -----------------------------------
 1/14=-1,18=20,19=15,26=3,38=1/1,3;
 2/9=110,12=2,17=6,18=5,40=1/2;
 3/5=1,6=6,7=1,11=2,16=1,25=1,30=1,71=1,74=-5/1,2,3;
 4//1;
 5/5=2,8=3,13=1,32=2,38=5/2,8;
 6/7=2,8=2,9=2,10=2,28=1/1;
 7//1,2,3,16;
 1/14=-1,18=20,19=15/3(2);
 2/9=110/2;
 99//99;
 2/9=110/2;
 3/5=1,6=6,7=1,11=2,16=1,25=1,30=1,71=1,74=-5/1,2,3;
 4/5=5,16=3/1;
 5/5=2,8=3,13=1,32=2,38=5/2,8;
 7//1,2,3,16;
 1/14=-1,18=20,19=15/3(-5);
 2/9=110/2;
 6/7=2,8=2,9=2,10=2,19=2,28=1/1;
 99/9=1/99;
 Leave Link    1 at Thu Sep 30 09:49:46 2021, MaxMem=  805306368 cpu:       0.1
 (Enter /sw/target/amd/app/gaussian/Gaussian09RevA.02_gcc-4.9.2/g09/l101.exe)
 -------------------
 OCCOc1ccccc1_conf_0
 -------------------
 Symbolic Z-matrix:
 Charge =  0 Multiplicity = 1
 O                     1.10297  -1.27402   0.37549 
 C                     2.45566  -0.88139   0.57689 
 C                     3.17734  -1.91392   1.43513 
 O                     4.53085  -1.49893   1.61354 
 C                     5.33094  -2.31665   2.36449 
 C                     4.94195  -3.51327   2.97046 
 C                     5.86299  -4.2545    3.71739 
 C                     7.1738   -3.8058    3.86275 
 C                     7.56813  -2.61379   3.25886 
 C                     6.64792  -1.87455   2.51285 
 H                     0.71384  -0.63759  -0.24906 
 H                     2.47531   0.10187   1.05949 
 H                     2.94728  -0.78433  -0.39643 
 H                     3.13495  -2.8868    0.92948 
 H                     2.66531  -1.99562   2.40229 
 H                     3.93218  -3.89828   2.8831 
 H                     5.55307  -5.1853    4.18694 
 H                     7.88634  -4.38361   4.44508 
 H                     8.58905  -2.25913   3.36786 
 H                     6.96074  -0.94496   2.04324 
 
 NAtoms=     20 NQM=     20 NQMF=      0 NMic=      0 NMicF=      0 NTot=     20.
                    Isotopes and Nuclear Properties:
 (Nuclear quadrupole moments (NQMom) in fm**2, nuclear magnetic moments (NMagM)
  in nuclear magnetons)

  Atom         1           2           3           4           5           6           7           8           9          10
 IAtWgt=          16          12          12          16          12          12          12          12          12          12
 AtmWgt=  15.9949146  12.0000000  12.0000000  15.9949146  12.0000000  12.0000000  12.0000000  12.0000000  12.0000000  12.0000000
 NucSpn=           0           0           0           0           0           0           0           0           0           0
 AtZEff=   0.0000000   0.0000000   0.0000000   0.0000000   0.0000000   0.0000000   0.0000000   0.0000000   0.0000000   0.0000000
 NQMom=    0.0000000   0.0000000   0.0000000   0.0000000   0.0000000   0.0000000   0.0000000   0.0000000   0.0000000   0.0000000
 NMagM=    0.0000000   0.0000000   0.0000000   0.0000000   0.0000000   0.0000000   0.0000000   0.0000000   0.0000000   0.0000000

  Atom        11          12          13          14          15          16          17          18          19          20
 IAtWgt=           1           1           1           1           1           1           1           1           1           1
 AtmWgt=   1.0078250   1.0078250   1.0078250   1.0078250   1.0078250   1.0078250   1.0078250   1.0078250   1.0078250   1.0078250
 NucSpn=           1           1           1           1           1           1           1           1           1           1
 AtZEff=   0.0000000   0.0000000   0.0000000   0.0000000   0.0000000   0.0000000   0.0000000   0.0000000   0.0000000   0.0000000
 NQMom=    0.0000000   0.0000000   0.0000000   0.0000000   0.0000000   0.0000000   0.0000000   0.0000000   0.0000000   0.0000000
 NMagM=    2.7928460   2.7928460   2.7928460   2.7928460   2.7928460   2.7928460   2.7928460   2.7928460   2.7928460   2.7928460
 Leave Link  101 at Thu Sep 30 09:49:46 2021, MaxMem=  805306368 cpu:       0.2
 (Enter /sw/target/amd/app/gaussian/Gaussian09RevA.02_gcc-4.9.2/g09/l103.exe)

 GradGradGradGradGradGradGradGradGradGradGradGradGradGradGradGradGradGrad
 Berny optimization.
 Initialization pass.
                           ----------------------------
                           !    Initial Parameters    !
                           ! (Angstroms and Degrees)  !
 --------------------------                            --------------------------
 ! Name  Definition              Value          Derivative Info.                !
 --------------------------------------------------------------------------------
 ! R1    R(1,2)                  1.4228         estimate D2E/DX2                !
 ! R2    R(1,11)                 0.9729         estimate D2E/DX2                !
 ! R3    R(2,3)                  1.5243         estimate D2E/DX2                !
 ! R4    R(2,12)                 1.0955         estimate D2E/DX2                !
 ! R5    R(2,13)                 1.0947         estimate D2E/DX2                !
 ! R6    R(3,4)                  1.4269         estimate D2E/DX2                !
 ! R7    R(3,14)                 1.0973         estimate D2E/DX2                !
 ! R8    R(3,15)                 1.0974         estimate D2E/DX2                !
 ! R9    R(4,5)                  1.3685         estimate D2E/DX2                !
 ! R10   R(5,6)                  1.3966         estimate D2E/DX2                !
 ! R11   R(5,10)                 1.3971         estimate D2E/DX2                !
 ! R12   R(6,7)                  1.3984         estimate D2E/DX2                !
 ! R13   R(6,16)                 1.0842         estimate D2E/DX2                !
 ! R14   R(7,8)                  1.3931         estimate D2E/DX2                !
 ! R15   R(7,17)                 1.0876         estimate D2E/DX2                !
 ! R16   R(8,9)                  1.3932         estimate D2E/DX2                !
 ! R17   R(8,18)                 1.0866         estimate D2E/DX2                !
 ! R18   R(9,10)                 1.3964         estimate D2E/DX2                !
 ! R19   R(9,19)                 1.0863         estimate D2E/DX2                !
 ! R20   R(10,20)                1.0874         estimate D2E/DX2                !
 ! A1    A(2,1,11)             106.8943         estimate D2E/DX2                !
 ! A2    A(1,2,3)              110.0524         estimate D2E/DX2                !
 ! A3    A(1,2,12)             109.0921         estimate D2E/DX2                !
 ! A4    A(1,2,13)             108.9986         estimate D2E/DX2                !
 ! A5    A(3,2,12)             110.5762         estimate D2E/DX2                !
 ! A6    A(3,2,13)             110.3665         estimate D2E/DX2                !
 ! A7    A(12,2,13)            107.7011         estimate D2E/DX2                !
 ! A8    A(2,3,4)              108.8137         estimate D2E/DX2                !
 ! A9    A(2,3,14)             108.8345         estimate D2E/DX2                !
 ! A10   A(2,3,15)             109.0107         estimate D2E/DX2                !
 ! A11   A(4,3,14)             110.6181         estimate D2E/DX2                !
 ! A12   A(4,3,15)             110.7352         estimate D2E/DX2                !
 ! A13   A(14,3,15)            108.7906         estimate D2E/DX2                !
 ! A14   A(3,4,5)              116.7062         estimate D2E/DX2                !
 ! A15   A(4,5,6)              125.9614         estimate D2E/DX2                !
 ! A16   A(4,5,10)             114.8547         estimate D2E/DX2                !
 ! A17   A(6,5,10)             119.1839         estimate D2E/DX2                !
 ! A18   A(5,6,7)              120.1629         estimate D2E/DX2                !
 ! A19   A(5,6,16)             121.9187         estimate D2E/DX2                !
 ! A20   A(7,6,16)             117.9183         estimate D2E/DX2                !
 ! A21   A(6,7,8)              120.3134         estimate D2E/DX2                !
 ! A22   A(6,7,17)             119.7708         estimate D2E/DX2                !
 ! A23   A(8,7,17)             119.9158         estimate D2E/DX2                !
 ! A24   A(7,8,9)              119.7798         estimate D2E/DX2                !
 ! A25   A(7,8,18)             120.1106         estimate D2E/DX2                !
 ! A26   A(9,8,18)             120.1096         estimate D2E/DX2                !
 ! A27   A(8,9,10)             119.8676         estimate D2E/DX2                !
 ! A28   A(8,9,19)             120.1237         estimate D2E/DX2                !
 ! A29   A(10,9,19)            120.0087         estimate D2E/DX2                !
 ! A30   A(5,10,9)             120.6922         estimate D2E/DX2                !
 ! A31   A(5,10,20)            119.7237         estimate D2E/DX2                !
 ! A32   A(9,10,20)            119.5841         estimate D2E/DX2                !
 ! D1    D(11,1,2,3)          -174.2237         estimate D2E/DX2                !
 ! D2    D(11,1,2,12)           64.2931         estimate D2E/DX2                !
 ! D3    D(11,1,2,13)          -53.059          estimate D2E/DX2                !
 ! D4    D(1,2,3,4)            179.6595         estimate D2E/DX2                !
 ! D5    D(1,2,3,14)            59.0443         estimate D2E/DX2                !
 ! D6    D(1,2,3,15)           -59.4772         estimate D2E/DX2                !
 ! D7    D(12,2,3,4)           -59.7468         estimate D2E/DX2                !
 ! D8    D(12,2,3,14)          179.638          estimate D2E/DX2                !
 ! D9    D(12,2,3,15)           61.1165         estimate D2E/DX2                !
 ! D10   D(13,2,3,4)            59.3172         estimate D2E/DX2                !
 ! D11   D(13,2,3,14)          -61.298          estimate D2E/DX2                !
 ! D12   D(13,2,3,15)         -179.8195         estimate D2E/DX2                !
 ! D13   D(2,3,4,5)           -179.9415         estimate D2E/DX2                !
 ! D14   D(14,3,4,5)           -60.4313         estimate D2E/DX2                !
 ! D15   D(15,3,4,5)            60.2606         estimate D2E/DX2                !
 ! D16   D(3,4,5,6)             -0.1281         estimate D2E/DX2                !
 ! D17   D(3,4,5,10)           179.9263         estimate D2E/DX2                !
 ! D18   D(4,5,6,7)           -179.8298         estimate D2E/DX2                !
 ! D19   D(4,5,6,16)             0.1425         estimate D2E/DX2                !
 ! D20   D(10,5,6,7)             0.1137         estimate D2E/DX2                !
 ! D21   D(10,5,6,16)         -179.914          estimate D2E/DX2                !
 ! D22   D(4,5,10,9)           179.8136         estimate D2E/DX2                !
 ! D23   D(4,5,10,20)           -0.1629         estimate D2E/DX2                !
 ! D24   D(6,5,10,9)            -0.136          estimate D2E/DX2                !
 ! D25   D(6,5,10,20)          179.8876         estimate D2E/DX2                !
 ! D26   D(5,6,7,8)              0.0021         estimate D2E/DX2                !
 ! D27   D(5,6,7,17)           179.9736         estimate D2E/DX2                !
 ! D28   D(16,6,7,8)          -179.9713         estimate D2E/DX2                !
 ! D29   D(16,6,7,17)            0.0002         estimate D2E/DX2                !
 ! D30   D(6,7,8,9)             -0.0973         estimate D2E/DX2                !
 ! D31   D(6,7,8,18)           179.9088         estimate D2E/DX2                !
 ! D32   D(17,7,8,9)           179.9312         estimate D2E/DX2                !
 ! D33   D(17,7,8,18)           -0.0626         estimate D2E/DX2                !
 ! D34   D(7,8,9,10)             0.0754         estimate D2E/DX2                !
 ! D35   D(7,8,9,19)          -179.9485         estimate D2E/DX2                !
 ! D36   D(18,8,9,10)         -179.9308         estimate D2E/DX2                !
 ! D37   D(18,8,9,19)            0.0454         estimate D2E/DX2                !
 ! D38   D(8,9,10,5)             0.0418         estimate D2E/DX2                !
 ! D39   D(8,9,10,20)         -179.9817         estimate D2E/DX2                !
 ! D40   D(19,9,10,5)         -179.9343         estimate D2E/DX2                !
 ! D41   D(19,9,10,20)           0.0421         estimate D2E/DX2                !
 --------------------------------------------------------------------------------
 Trust Radius=3.00D-01 FncErr=1.00D-07 GrdErr=1.00D-06
 Number of steps in this run= 103 maximum allowed number of steps= 120.
 GradGradGradGradGradGradGradGradGradGradGradGradGradGradGradGradGradGrad

 Leave Link  103 at Thu Sep 30 09:49:47 2021, MaxMem=  805306368 cpu:       0.0
 (Enter /sw/target/amd/app/gaussian/Gaussian09RevA.02_gcc-4.9.2/g09/l202.exe)
                          Input orientation:                          
 ---------------------------------------------------------------------
 Center     Atomic      Atomic             Coordinates (Angstroms)
 Number     Number       Type             X           Y           Z
 ---------------------------------------------------------------------
      1          8           0        1.102972   -1.274016    0.375492
      2          6           0        2.455657   -0.881387    0.576891
      3          6           0        3.177343   -1.913923    1.435132
      4          8           0        4.530845   -1.498931    1.613544
      5          6           0        5.330940   -2.316649    2.364492
      6          6           0        4.941954   -3.513266    2.970460
      7          6           0        5.862991   -4.254495    3.717394
      8          6           0        7.173799   -3.805799    3.862748
      9          6           0        7.568130   -2.613792    3.258863
     10          6           0        6.647916   -1.874551    2.512855
     11          1           0        0.713837   -0.637591   -0.249058
     12          1           0        2.475307    0.101870    1.059493
     13          1           0        2.947277   -0.784334   -0.396435
     14          1           0        3.134951   -2.886804    0.929475
     15          1           0        2.665315   -1.995625    2.402290
     16          1           0        3.932180   -3.898284    2.883096
     17          1           0        5.553075   -5.185299    4.186935
     18          1           0        7.886337   -4.383606    4.445082
     19          1           0        8.589052   -2.259126    3.367860
     20          1           0        6.960741   -0.944960    2.043237
 ---------------------------------------------------------------------
                    Distance matrix (angstroms):
                    1          2          3          4          5
     1  O    0.000000
     2  C    1.422841   0.000000
     3  C    2.415643   1.524316   0.000000
     4  O    3.651530   2.400504   1.426891   0.000000
     5  C    4.787371   3.677329   2.379891   1.368480   0.000000
     6  C    5.146443   4.340234   2.833546   2.463286   1.396567
     7  C    6.535238   5.731540   4.230804   3.714018   2.422534
     8  C    7.444851   6.450574   5.044221   4.167224   2.803295
     9  C    7.204657   6.027568   4.805707   3.629750   2.427593
    10  C    5.972885   4.723279   3.634269   2.330630   1.397099
    11  H    0.972896   1.943081   3.245671   4.333676   5.564847
    12  H    2.060151   1.095483   2.167344   2.663602   3.963193
    13  H    2.058426   1.094748   2.164148   2.656756   3.956331
    14  H    2.652719   2.146498   1.097261   2.083905   2.684534
    15  H    2.658861   2.148852   1.097380   2.085433   2.685153
    16  H    4.602095   4.074356   2.569838   2.779759   2.174178
    17  H    7.044760   6.414832   4.890646   4.610488   3.405847
    18  H    8.499715   7.531317   6.110136   5.253407   3.889887
    19  H    8.121951   6.877951   5.756839   4.486041   3.409596
    20  H    6.099435   4.738143   3.952566   2.529015   2.154294
                    6          7          8          9         10
     6  C    0.000000
     7  C    1.398442   0.000000
     8  C    2.421339   1.393080   0.000000
     9  C    2.790883   2.410323   1.393218   0.000000
    10  C    2.409377   2.780496   2.414225   1.396352   0.000000
    11  H    6.042498   7.438315   8.287074   7.949353   6.661195
    12  H    4.775495   6.125256   6.723387   6.176479   4.840368
    13  H    4.770931   6.121029   6.718138   6.169311   4.831901
    14  H    2.797023   4.133434   5.075523   5.015342   3.984052
    15  H    2.794484   4.130028   5.073075   5.015321   3.985975
    16  H    1.084212   2.133300   3.387678   3.874436   3.407022
    17  H    2.156148   1.087617   2.152873   3.396236   3.868110
    18  H    3.406082   2.154096   1.086593   2.154209   3.400375
    19  H    3.877127   3.396334   2.154078   1.086255   2.155676
    20  H    3.395797   3.867929   3.397118   2.152130   1.087446
                   11         12         13         14         15
    11  H    0.000000
    12  H    2.315574   0.000000
    13  H    2.243102   1.768569   0.000000
    14  H    3.508517   3.063365   2.492716   0.000000
    15  H    3.561203   2.497737   3.062611   1.784360   0.000000
    16  H    5.549797   4.631333   4.628395   2.339936   2.335859
    17  H    7.986107   6.870786   6.867747   4.662772   4.658126
    18  H    9.354803   7.801343   7.796753   6.097178   6.093811
    19  H    8.816489   6.948434   6.940789   6.007239   6.007697
    20  H    6.661299   4.709854   4.699543   4.432594   4.436610
                   16         17         18         19         20
    16  H    0.000000
    17  H    2.446160   0.000000
    18  H    4.279100   2.480618   0.000000
    19  H    4.960675   4.295408   2.483472   0.000000
    20  H    4.312733   4.955546   4.295331   2.476500   0.000000
 Stoichiometry    C8H10O2
 Framework group  C1[X(C8H10O2)]
 Deg. of freedom    54
 Full point group                 C1      NOp   1
 Largest Abelian subgroup         C1      NOp   1
 Largest concise Abelian subgroup C1      NOp   1
                         Standard orientation:                         
 ---------------------------------------------------------------------
 Center     Atomic      Atomic             Coordinates (Angstroms)
 Number     Number       Type             X           Y           Z
 ---------------------------------------------------------------------
      1          8           0        4.135023    0.530403    0.001087
      2          6           0        3.089691   -0.434849    0.007817
      3          6           0        1.734278    0.262565    0.004997
      4          8           0        0.707146   -0.727897    0.003833
      5          6           0       -0.584145   -0.274807    0.000034
      6          6           0       -0.983748    1.063370   -0.000262
      7          6           0       -2.343344    1.390693   -0.000780
      8          6           0       -3.308428    0.386062   -0.000961
      9          6           0       -2.915755   -0.950674   -0.002678
     10          6           0       -1.557969   -1.276579   -0.002614
     11          1           0        4.970983    0.041214   -0.090518
     12          1           0        3.194078   -1.069898    0.894326
     13          1           0        3.190408   -1.075411   -0.874231
     14          1           0        1.662836    0.894344   -0.889282
     15          1           0        1.658377    0.899953    0.895064
     16          1           0       -0.265970    1.875964    0.000342
     17          1           0       -2.647407    2.434943   -0.000573
     18          1           0       -4.363930    0.644130    0.000133
     19          1           0       -3.663565   -1.738538   -0.003673
     20          1           0       -1.256643   -2.321442   -0.004261
 ---------------------------------------------------------------------
 Rotational constants (GHZ):      4.5337186      0.5796644      0.5173091
 Leave Link  202 at Thu Sep 30 09:49:47 2021, MaxMem=  805306368 cpu:       0.0
 (Enter /sw/target/amd/app/gaussian/Gaussian09RevA.02_gcc-4.9.2/g09/l301.exe)
 Standard basis: 6-31G(d) (6D, 7F)
 Ernie: Thresh=  0.10000D-02 Tol=  0.10000D-05 Strict=F.
 There are   170 symmetry adapted basis functions of A   symmetry.
 Integral buffers will be    131072 words long.
 Raffenetti 2 integral format.
 Two-electron integral symmetry is turned on.
   170 basis functions,   320 primitive gaussians,   170 cartesian basis functions
    37 alpha electrons       37 beta electrons
       nuclear repulsion energy       493.4104733898 Hartrees.
 IExCor=  402 DFT=T Ex+Corr=B3LYP ExCW=0 ScaHFX=  0.200000
 ScaDFX=  0.800000  0.720000  1.000000  0.810000 ScalE2=  1.000000  1.000000
 IRadAn=      0 IRanWt=     -1 IRanGd=            0 ICorTp=0
 NAtoms=   20 NActive=   20 NUniq=   20 SFac= 7.50D-01 NAtFMM=   80 NAOKFM=F Big=F
 Leave Link  301 at Thu Sep 30 09:49:47 2021, MaxMem=  805306368 cpu:       0.1
 (Enter /sw/target/amd/app/gaussian/Gaussian09RevA.02_gcc-4.9.2/g09/l302.exe)
 NPDir=0 NMtPBC=     1 NCelOv=     1 NCel=       1 NClECP=     1 NCelD=      1
         NCelK=      1 NCelE2=     1 NClLst=     1 CellRange=     0.0.
 One-electron integrals computed using PRISM.
 NBasis=   170 RedAO= T  NBF=   170
 NBsUse=   170 1.00D-06 NBFU=   170
 Precomputing XC quadrature grid using
 IXCGrd= 2 IRadAn=           0 IRanWt=          -1 IRanGd=           0 AccXCQ= 1.00D-10.
 NRdTot=    1263 NPtTot=      160826 NUsed=      169940 NTot=      169972
 NSgBfM=   169   169   169   169   169 NAtAll=    20    20.
 Leave Link  302 at Thu Sep 30 09:49:50 2021, MaxMem=  805306368 cpu:       1.2
 (Enter /sw/target/amd/app/gaussian/Gaussian09RevA.02_gcc-4.9.2/g09/l303.exe)
 DipDrv:  MaxL=1.
 Leave Link  303 at Thu Sep 30 09:49:51 2021, MaxMem=  805306368 cpu:       0.1
 (Enter /sw/target/amd/app/gaussian/Gaussian09RevA.02_gcc-4.9.2/g09/l401.exe)
 Harris functional with IExCor=  402 diagonalized for initial guess.
 ExpMin= 1.61D-01 ExpMax= 5.48D+03 ExpMxC= 8.25D+02 IAcc=1 IRadAn=         1 AccDes= 0.00D+00
 HarFok:  IExCor=  402 AccDes= 0.00D+00 IRadAn=         1 IDoV= 1
 ScaDFX=  1.000000  1.000000  1.000000  1.000000
 FoFCou: FMM=F IPFlag=           0 FMFlag=      100000 FMFlg1=           0
         NFxFlg=           0 DoJE=T BraDBF=F KetDBF=T FulRan=T
         Omega=  0.000000  0.000000  1.000000  0.000000  0.000000 ICntrl=     500 IOpCl=  0
         NMat0=    1 NMatS0=    1 NMatT0=    0 NMatD0=    1 NMtDS0=    0 NMtDT0=    0
         I1Cent=           4 NGrid=           0.
 Petite list used in FoFCou.
 Harris En= -461.352238920011    
 Initial guess orbital symmetries:
       Occupied  (A) (A) (A) (A) (A) (A) (A) (A) (A) (A) (A) (A)
                 (A) (A) (A) (A) (A) (A) (A) (A) (A) (A) (A) (A)
                 (A) (A) (A) (A) (A) (A) (A) (A) (A) (A) (A) (A)
                 (A)
       Virtual   (A) (A) (A) (A) (A) (A) (A) (A) (A) (A) (A) (A)
                 (A) (A) (A) (A) (A) (A) (A) (A) (A) (A) (A) (A)
                 (A) (A) (A) (A) (A) (A) (A) (A) (A) (A) (A) (A)
                 (A) (A) (A) (A) (A) (A) (A) (A) (A) (A) (A) (A)
                 (A) (A) (A) (A) (A) (A) (A) (A) (A) (A) (A) (A)
                 (A) (A) (A) (A) (A) (A) (A) (A) (A) (A) (A) (A)
                 (A) (A) (A) (A) (A) (A) (A) (A) (A) (A) (A) (A)
                 (A) (A) (A) (A) (A) (A) (A) (A) (A) (A) (A) (A)
                 (A) (A) (A) (A) (A) (A) (A) (A) (A) (A) (A) (A)
                 (A) (A) (A) (A) (A) (A) (A) (A) (A) (A) (A) (A)
                 (A) (A) (A) (A) (A) (A) (A) (A) (A) (A) (A) (A)
                 (A)
 The electronic state of the initial guess is 1-A.
 Leave Link  401 at Thu Sep 30 09:49:59 2021, MaxMem=  805306368 cpu:       5.0
 (Enter /sw/target/amd/app/gaussian/Gaussian09RevA.02_gcc-4.9.2/g09/l502.exe)
 Closed shell SCF:
 Requested convergence on RMS density matrix=1.00D-08 within  64 cycles.
 Requested convergence on MAX density matrix=1.00D-06.
 Requested convergence on             energy=1.00D-06.
 No special actions if energy rises.
 Using DIIS extrapolation, IDIIS=  1040.
 Integral symmetry usage will be decided dynamically.
       169747 words used for storage of precomputed grid.
 Keep R1 ints in memory in canonical form, NReq=108404709.
 IEnd=      264295 IEndB=      264295 NGot=   805306368 MDV=   699434960
 LenX=   699434960 LenY=   699405619
 Symmetry not used in FoFDir.
 MinBra= 0 MaxBra= 2 Meth= 1.
 IRaf=       0 NMat=   1 IRICut=       1 DoRegI=T DoRafI=F ISym2E= 0 JSym2E=0.
 Integral accuracy reduced to 1.0D-05 until final iterations.

 Cycle   1  Pass 0  IDiag  1:
 E= -461.041850930502    
 DIIS: error= 3.76D-02 at cycle   1 NSaved=   1.
 NSaved= 1 IEnMin= 1 EnMin= -461.041850930502     IErMin= 1 ErrMin= 3.76D-02
 ErrMax= 3.76D-02 EMaxC= 1.00D-01 BMatC= 2.44D-01 BMatP= 2.44D-01
 IDIUse=3 WtCom= 6.24D-01 WtEn= 3.76D-01
 Coeff-Com:  0.100D+01
 Coeff-En:   0.100D+01
 Coeff:      0.100D+01
 Gap=     0.253 Goal=   None    Shift=    0.000
 GapD=    0.253 DampG=1.000 DampE=0.500 DampFc=0.5000 IDamp=-1.
 Damping current iteration by 5.00D-01
 RMSDP=6.52D-03 MaxDP=1.35D-01              OVMax= 2.02D-01

 Cycle   2  Pass 0  IDiag  1:
 E= -461.151366659647     Delta-E=       -0.109515729146 Rises=F Damp=T
 DIIS: error= 7.42D-03 at cycle   2 NSaved=   2.
 NSaved= 2 IEnMin= 2 EnMin= -461.151366659647     IErMin= 2 ErrMin= 7.42D-03
 ErrMax= 7.42D-03 EMaxC= 1.00D-01 BMatC= 1.52D-02 BMatP= 2.44D-01
 IDIUse=3 WtCom= 9.26D-01 WtEn= 7.42D-02
 Coeff-Com:  0.732D-01 0.927D+00
 Coeff-En:   0.107D+00 0.893D+00
 Coeff:      0.757D-01 0.924D+00
 Gap=     0.273 Goal=   None    Shift=    0.000
 RMSDP=1.52D-03 MaxDP=3.68D-02 DE=-1.10D-01 OVMax= 1.55D-01

 Cycle   3  Pass 0  IDiag  1:
 E= -461.279252396859     Delta-E=       -0.127885737212 Rises=F Damp=F
 DIIS: error= 7.41D-03 at cycle   3 NSaved=   3.
 NSaved= 3 IEnMin= 3 EnMin= -461.279252396859     IErMin= 3 ErrMin= 7.41D-03
 ErrMax= 7.41D-03 EMaxC= 1.00D-01 BMatC= 1.08D-02 BMatP= 1.52D-02
 IDIUse=3 WtCom= 9.26D-01 WtEn= 7.41D-02
 Coeff-Com: -0.472D-02 0.449D+00 0.556D+00
 Coeff-En:   0.000D+00 0.000D+00 0.100D+01
 Coeff:     -0.437D-02 0.416D+00 0.589D+00
 Gap=     0.226 Goal=   None    Shift=    0.000
 RMSDP=9.96D-04 MaxDP=2.64D-02 DE=-1.28D-01 OVMax= 6.51D-02

 Cycle   4  Pass 0  IDiag  1:
 E= -461.286109875647     Delta-E=       -0.006857478788 Rises=F Damp=F
 DIIS: error= 5.16D-03 at cycle   4 NSaved=   4.
 NSaved= 4 IEnMin= 4 EnMin= -461.286109875647     IErMin= 4 ErrMin= 5.16D-03
 ErrMax= 5.16D-03 EMaxC= 1.00D-01 BMatC= 3.47D-03 BMatP= 1.08D-02
 IDIUse=3 WtCom= 9.48D-01 WtEn= 5.16D-02
 Coeff-Com: -0.102D-01 0.997D-01 0.372D+00 0.538D+00
 Coeff-En:   0.000D+00 0.000D+00 0.292D+00 0.708D+00
 Coeff:     -0.965D-02 0.946D-01 0.368D+00 0.547D+00
 Gap=     0.220 Goal=   None    Shift=    0.000
 RMSDP=4.47D-04 MaxDP=9.46D-03 DE=-6.86D-03 OVMax= 2.85D-02

 Cycle   5  Pass 0  IDiag  1:
 E= -461.289593877806     Delta-E=       -0.003484002159 Rises=F Damp=F
 DIIS: error= 9.85D-04 at cycle   5 NSaved=   5.
 NSaved= 5 IEnMin= 5 EnMin= -461.289593877806     IErMin= 5 ErrMin= 9.85D-04
 ErrMax= 9.85D-04 EMaxC= 1.00D-01 BMatC= 1.80D-04 BMatP= 3.47D-03
 IDIUse=3 WtCom= 9.90D-01 WtEn= 9.85D-03
 Coeff-Com: -0.408D-02 0.252D-01 0.161D+00 0.296D+00 0.522D+00
 Coeff-En:   0.000D+00 0.000D+00 0.000D+00 0.000D+00 0.100D+01
 Coeff:     -0.404D-02 0.250D-01 0.159D+00 0.293D+00 0.526D+00
 Gap=     0.220 Goal=   None    Shift=    0.000
 RMSDP=9.12D-05 MaxDP=2.15D-03 DE=-3.48D-03 OVMax= 5.73D-03

 Cycle   6  Pass 0  IDiag  1:
 E= -461.289753246586     Delta-E=       -0.000159368780 Rises=F Damp=F
 DIIS: error= 2.98D-04 at cycle   6 NSaved=   6.
 NSaved= 6 IEnMin= 6 EnMin= -461.289753246586     IErMin= 6 ErrMin= 2.98D-04
 ErrMax= 2.98D-04 EMaxC= 1.00D-01 BMatC= 1.65D-05 BMatP= 1.80D-04
 IDIUse=3 WtCom= 9.97D-01 WtEn= 2.98D-03
 Coeff-Com: -0.891D-03 0.110D-02 0.396D-01 0.901D-01 0.282D+00 0.588D+00
 Coeff-En:   0.000D+00 0.000D+00 0.000D+00 0.000D+00 0.262D-01 0.974D+00
 Coeff:     -0.889D-03 0.110D-02 0.395D-01 0.899D-01 0.282D+00 0.589D+00
 Gap=     0.220 Goal=   None    Shift=    0.000
 RMSDP=2.26D-05 MaxDP=5.93D-04 DE=-1.59D-04 OVMax= 1.04D-03

 Cycle   7  Pass 0  IDiag  1:
 E= -461.289767314081     Delta-E=       -0.000014067495 Rises=F Damp=F
 DIIS: error= 4.39D-05 at cycle   7 NSaved=   7.
 NSaved= 7 IEnMin= 7 EnMin= -461.289767314081     IErMin= 7 ErrMin= 4.39D-05
 ErrMax= 4.39D-05 EMaxC= 1.00D-01 BMatC= 3.50D-07 BMatP= 1.65D-05
 IDIUse=1 WtCom= 1.00D+00 WtEn= 0.00D+00
 Coeff-Com: -0.249D-03-0.238D-03 0.138D-01 0.328D-01 0.114D+00 0.264D+00
 Coeff-Com:  0.576D+00
 Coeff:     -0.249D-03-0.238D-03 0.138D-01 0.328D-01 0.114D+00 0.264D+00
 Coeff:      0.576D+00
 Gap=     0.220 Goal=   None    Shift=    0.000
 RMSDP=4.80D-06 MaxDP=1.05D-04 DE=-1.41D-05 OVMax= 2.97D-04

 Initial convergence to 1.0D-05 achieved.  Increase integral accuracy.
 Cycle   8  Pass 1  IDiag  1:
 E= -461.289749615152     Delta-E=        0.000017698930 Rises=F Damp=F
 DIIS: error= 2.55D-05 at cycle   1 NSaved=   1.
 NSaved= 1 IEnMin= 1 EnMin= -461.289749615152     IErMin= 1 ErrMin= 2.55D-05
 ErrMax= 2.55D-05 EMaxC= 1.00D-01 BMatC= 1.21D-07 BMatP= 1.21D-07
 IDIUse=1 WtCom= 1.00D+00 WtEn= 0.00D+00
 Coeff-Com:  0.100D+01
 Coeff:      0.100D+01
 Gap=     0.220 Goal=   None    Shift=    0.000
 RMSDP=4.80D-06 MaxDP=1.05D-04 DE= 1.77D-05 OVMax= 3.41D-04

 Cycle   9  Pass 1  IDiag  1:
 E= -461.289749458350     Delta-E=        0.000000156802 Rises=F Damp=F
 DIIS: error= 5.17D-05 at cycle   2 NSaved=   2.
 NSaved= 2 IEnMin= 1 EnMin= -461.289749615152     IErMin= 1 ErrMin= 2.55D-05
 ErrMax= 5.17D-05 EMaxC= 1.00D-01 BMatC= 2.66D-07 BMatP= 1.21D-07
 IDIUse=1 WtCom= 1.00D+00 WtEn= 0.00D+00
 Coeff-Com:  0.606D+00 0.394D+00
 Coeff:      0.606D+00 0.394D+00
 Gap=     0.220 Goal=   None    Shift=    0.000
 RMSDP=3.53D-06 MaxDP=9.18D-05 DE= 1.57D-07 OVMax= 2.57D-04

 Cycle  10  Pass 1  IDiag  1:
 E= -461.289749746609     Delta-E=       -0.000000288259 Rises=F Damp=F
 DIIS: error= 7.09D-06 at cycle   3 NSaved=   3.
 NSaved= 3 IEnMin= 3 EnMin= -461.289749746609     IErMin= 3 ErrMin= 7.09D-06
 ErrMax= 7.09D-06 EMaxC= 1.00D-01 BMatC= 6.04D-09 BMatP= 1.21D-07
 IDIUse=1 WtCom= 1.00D+00 WtEn= 0.00D+00
 Coeff-Com:  0.772D-01 0.141D+00 0.781D+00
 Coeff:      0.772D-01 0.141D+00 0.781D+00
 Gap=     0.220 Goal=   None    Shift=    0.000
 RMSDP=7.34D-07 MaxDP=2.22D-05 DE=-2.88D-07 OVMax= 4.93D-05

 Cycle  11  Pass 1  IDiag  1:
 E= -461.289749751473     Delta-E=       -0.000000004864 Rises=F Damp=F
 DIIS: error= 3.83D-06 at cycle   4 NSaved=   4.
 NSaved= 4 IEnMin= 4 EnMin= -461.289749751473     IErMin= 4 ErrMin= 3.83D-06
 ErrMax= 3.83D-06 EMaxC= 1.00D-01 BMatC= 2.47D-09 BMatP= 6.04D-09
 IDIUse=1 WtCom= 1.00D+00 WtEn= 0.00D+00
 Coeff-Com: -0.918D-02 0.518D-01 0.488D+00 0.470D+00
 Coeff:     -0.918D-02 0.518D-01 0.488D+00 0.470D+00
 Gap=     0.220 Goal=   None    Shift=    0.000
 RMSDP=2.80D-07 MaxDP=8.44D-06 DE=-4.86D-09 OVMax= 1.34D-05

 Cycle  12  Pass 1  IDiag  1:
 E= -461.289749753559     Delta-E=       -0.000000002086 Rises=F Damp=F
 DIIS: error= 8.08D-07 at cycle   5 NSaved=   5.
 NSaved= 5 IEnMin= 5 EnMin= -461.289749753559     IErMin= 5 ErrMin= 8.08D-07
 ErrMax= 8.08D-07 EMaxC= 1.00D-01 BMatC= 6.39D-11 BMatP= 2.47D-09
 IDIUse=1 WtCom= 1.00D+00 WtEn= 0.00D+00
 Coeff-Com: -0.836D-02 0.195D-01 0.211D+00 0.237D+00 0.541D+00
 Coeff:     -0.836D-02 0.195D-01 0.211D+00 0.237D+00 0.541D+00
 Gap=     0.220 Goal=   None    Shift=    0.000
 RMSDP=5.97D-08 MaxDP=1.96D-06 DE=-2.09D-09 OVMax= 3.52D-06

 Cycle  13  Pass 1  IDiag  1:
 E= -461.289749753612     Delta-E=       -0.000000000053 Rises=F Damp=F
 DIIS: error= 2.50D-07 at cycle   6 NSaved=   6.
 NSaved= 6 IEnMin= 6 EnMin= -461.289749753612     IErMin= 6 ErrMin= 2.50D-07
 ErrMax= 2.50D-07 EMaxC= 1.00D-01 BMatC= 7.11D-12 BMatP= 6.39D-11
 IDIUse=1 WtCom= 1.00D+00 WtEn= 0.00D+00
 Coeff-Com: -0.378D-02 0.707D-02 0.803D-01 0.956D-01 0.305D+00 0.516D+00
 Coeff:     -0.378D-02 0.707D-02 0.803D-01 0.956D-01 0.305D+00 0.516D+00
 Gap=     0.220 Goal=   None    Shift=    0.000
 RMSDP=1.89D-08 MaxDP=6.93D-07 DE=-5.30D-11 OVMax= 1.50D-06

 Cycle  14  Pass 1  IDiag  1:
 E= -461.289749753619     Delta-E=       -0.000000000007 Rises=F Damp=F
 DIIS: error= 4.25D-08 at cycle   7 NSaved=   7.
 NSaved= 7 IEnMin= 7 EnMin= -461.289749753619     IErMin= 7 ErrMin= 4.25D-08
 ErrMax= 4.25D-08 EMaxC= 1.00D-01 BMatC= 3.27D-13 BMatP= 7.11D-12
 IDIUse=1 WtCom= 1.00D+00 WtEn= 0.00D+00
 Coeff-Com: -0.877D-03 0.121D-02 0.150D-01 0.187D-01 0.739D-01 0.222D+00
 Coeff-Com:  0.671D+00
 Coeff:     -0.877D-03 0.121D-02 0.150D-01 0.187D-01 0.739D-01 0.222D+00
 Coeff:      0.671D+00
 Gap=     0.220 Goal=   None    Shift=    0.000
 RMSDP=4.71D-09 MaxDP=1.41D-07 DE=-6.71D-12 OVMax= 2.86D-07

 SCF Done:  E(RB3LYP) =  -461.289749754     A.U. after   14 cycles
             Convg  =    0.4708D-08             -V/T =  2.0093
 KE= 4.570400389489D+02 PE=-2.061188826226D+03 EE= 6.494485641341D+02
 Leave Link  502 at Thu Sep 30 09:53:06 2021, MaxMem=  805306368 cpu:      89.6
 (Enter /sw/target/amd/app/gaussian/Gaussian09RevA.02_gcc-4.9.2/g09/l508.exe)
 QCSCF skips out because SCF is already converged.
 Leave Link  508 at Thu Sep 30 09:53:06 2021, MaxMem=  805306368 cpu:       0.0
 (Enter /sw/target/amd/app/gaussian/Gaussian09RevA.02_gcc-4.9.2/g09/l601.exe)
 Copying SCF densities to generalized density rwf, IOpCl= 0 IROHF=0.

 **********************************************************************

            Population analysis using the SCF density.

 **********************************************************************

 Orbital symmetries:
       Occupied  (A) (A) (A) (A) (A) (A) (A) (A) (A) (A) (A) (A)
                 (A) (A) (A) (A) (A) (A) (A) (A) (A) (A) (A) (A)
                 (A) (A) (A) (A) (A) (A) (A) (A) (A) (A) (A) (A)
                 (A)
       Virtual   (A) (A) (A) (A) (A) (A) (A) (A) (A) (A) (A) (A)
                 (A) (A) (A) (A) (A) (A) (A) (A) (A) (A) (A) (A)
                 (A) (A) (A) (A) (A) (A) (A) (A) (A) (A) (A) (A)
                 (A) (A) (A) (A) (A) (A) (A) (A) (A) (A) (A) (A)
                 (A) (A) (A) (A) (A) (A) (A) (A) (A) (A) (A) (A)
                 (A) (A) (A) (A) (A) (A) (A) (A) (A) (A) (A) (A)
                 (A) (A) (A) (A) (A) (A) (A) (A) (A) (A) (A) (A)
                 (A) (A) (A) (A) (A) (A) (A) (A) (A) (A) (A) (A)
                 (A) (A) (A) (A) (A) (A) (A) (A) (A) (A) (A) (A)
                 (A) (A) (A) (A) (A) (A) (A) (A) (A) (A) (A) (A)
                 (A) (A) (A) (A) (A) (A) (A) (A) (A) (A) (A) (A)
                 (A)
 The electronic state is 1-A.
 Alpha  occ. eigenvalues --  -19.17803 -19.14965 -10.24468 -10.24200 -10.23711
 Alpha  occ. eigenvalues --  -10.18787 -10.18638 -10.18494 -10.18077 -10.17878
 Alpha  occ. eigenvalues --   -1.06318  -1.02159  -0.84569  -0.76905  -0.74135
 Alpha  occ. eigenvalues --   -0.71719  -0.63524  -0.59957  -0.58434  -0.54181
 Alpha  occ. eigenvalues --   -0.50580  -0.49523  -0.47397  -0.46656  -0.44176
 Alpha  occ. eigenvalues --   -0.42317  -0.41775  -0.40621  -0.36743  -0.36651
 Alpha  occ. eigenvalues --   -0.35429  -0.33983  -0.32405  -0.31489  -0.27176
 Alpha  occ. eigenvalues --   -0.24607  -0.21737
 Alpha virt. eigenvalues --    0.00280   0.01806   0.05848   0.09379   0.10986
 Alpha virt. eigenvalues --    0.13775   0.14514   0.14812   0.15547   0.17106
 Alpha virt. eigenvalues --    0.17196   0.19177   0.19671   0.20266   0.22617
 Alpha virt. eigenvalues --    0.23946   0.26007   0.30875   0.31620   0.34556
 Alpha virt. eigenvalues --    0.36473   0.47832   0.51165   0.52612   0.52695
 Alpha virt. eigenvalues --    0.55715   0.56117   0.56917   0.58112   0.58530
 Alpha virt. eigenvalues --    0.60114   0.60286   0.60696   0.61790   0.62297
 Alpha virt. eigenvalues --    0.63443   0.65857   0.67142   0.68424   0.72810
 Alpha virt. eigenvalues --    0.73940   0.78469   0.78576   0.83320   0.84251
 Alpha virt. eigenvalues --    0.84878   0.85048   0.86792   0.88150   0.89426
 Alpha virt. eigenvalues --    0.91355   0.92613   0.93278   0.95119   0.97425
 Alpha virt. eigenvalues --    0.98720   1.00359   1.00962   1.05098   1.09049
 Alpha virt. eigenvalues --    1.09641   1.10382   1.17945   1.20003   1.21842
 Alpha virt. eigenvalues --    1.26173   1.26330   1.33920   1.35695   1.37894
 Alpha virt. eigenvalues --    1.41617   1.43463   1.44913   1.45987   1.49306
 Alpha virt. eigenvalues --    1.50060   1.51728   1.56526   1.64131   1.71249
 Alpha virt. eigenvalues --    1.73733   1.76622   1.82950   1.83284   1.84885
 Alpha virt. eigenvalues --    1.88528   1.90364   1.96192   1.96339   1.97517
 Alpha virt. eigenvalues --    1.98435   2.00207   2.02635   2.07696   2.08027
 Alpha virt. eigenvalues --    2.12546   2.14508   2.14712   2.15907   2.22633
 Alpha virt. eigenvalues --    2.23402   2.25479   2.31039   2.31151   2.34379
 Alpha virt. eigenvalues --    2.40917   2.43010   2.45676   2.52502   2.55094
 Alpha virt. eigenvalues --    2.58525   2.62012   2.67038   2.67557   2.68503
 Alpha virt. eigenvalues --    2.74171   2.75524   2.81227   2.84062   2.90891
 Alpha virt. eigenvalues --    3.03653   3.18869   3.43465   3.72933   4.08385
 Alpha virt. eigenvalues --    4.10134   4.11862   4.19560   4.29180   4.33423
 Alpha virt. eigenvalues --    4.44865   4.46664   4.75835
          Condensed to atoms (all electrons):
              1          2          3          4          5          6
     1  O    8.261596   0.235904  -0.040643   0.000814  -0.000009  -0.000002
     2  C    0.235904   4.843205   0.371775  -0.033974   0.002455   0.000468
     3  C   -0.040643   0.371775   4.884664   0.219249  -0.035505  -0.006659
     4  O    0.000814  -0.033974   0.219249   8.247141   0.273795  -0.061117
     5  C   -0.000009   0.002455  -0.035505   0.273795   4.502889   0.469376
     6  C   -0.000002   0.000468  -0.006659  -0.061117   0.469376   5.093596
     7  C   -0.000000  -0.000009   0.000433   0.003435  -0.000257   0.504977
     8  C    0.000000   0.000000   0.000014   0.000156  -0.039944  -0.034725
     9  C   -0.000000   0.000003  -0.000116   0.003148  -0.012537  -0.041079
    10  C    0.000000  -0.000165   0.003398  -0.054483   0.539446  -0.065766
    11  H    0.236315  -0.020972   0.005793  -0.000087   0.000000   0.000000
    12  H   -0.040702   0.362859  -0.041001   0.004527   0.000125   0.000014
    13  H   -0.038077   0.362163  -0.037593   0.004207   0.000145   0.000016
    14  H    0.005605  -0.037252   0.353693  -0.035352  -0.003817   0.004743
    15  H    0.004905  -0.037730   0.355678  -0.035628  -0.003749   0.004806
    16  H    0.000004  -0.000073   0.005903  -0.007162  -0.047092   0.354534
    17  H    0.000000  -0.000000  -0.000011  -0.000045   0.003095  -0.039394
    18  H   -0.000000  -0.000000  -0.000000   0.000002   0.000678   0.005212
    19  H    0.000000  -0.000000   0.000002  -0.000059   0.004238   0.000421
    20  H    0.000000  -0.000014  -0.000279  -0.000358  -0.038902   0.007550
              7          8          9         10         11         12
     1  O   -0.000000   0.000000  -0.000000   0.000000   0.236315  -0.040702
     2  C   -0.000009   0.000000   0.000003  -0.000165  -0.020972   0.362859
     3  C    0.000433   0.000014  -0.000116   0.003398   0.005793  -0.041001
     4  O    0.003435   0.000156   0.003148  -0.054483  -0.000087   0.004527
     5  C   -0.000257  -0.039944  -0.012537   0.539446   0.000000   0.000125
     6  C    0.504977  -0.034725  -0.041079  -0.065766   0.000000   0.000014
     7  C    4.855918   0.557203  -0.028208  -0.038044   0.000000  -0.000000
     8  C    0.557203   4.859866   0.546620  -0.036695  -0.000000   0.000000
     9  C   -0.028208   0.546620   4.845683   0.537215   0.000000  -0.000000
    10  C   -0.038044  -0.036695   0.537215   4.982386  -0.000000  -0.000010
    11  H    0.000000  -0.000000   0.000000  -0.000000   0.388715  -0.003145
    12  H   -0.000000   0.000000  -0.000000  -0.000010  -0.003145   0.638763
    13  H   -0.000000   0.000000  -0.000000  -0.000013  -0.005772  -0.055601
    14  H   -0.000107  -0.000006  -0.000003   0.000181  -0.000217   0.006999
    15  H   -0.000106  -0.000007  -0.000002   0.000172  -0.000236  -0.009377
    16  H   -0.040618   0.004618   0.000568   0.004604  -0.000000   0.000005
    17  H    0.358103  -0.041493   0.004680   0.000754  -0.000000   0.000000
    18  H   -0.043534   0.358647  -0.044227   0.004830  -0.000000   0.000000
    19  H    0.005074  -0.044165   0.359521  -0.040626  -0.000000  -0.000000
    20  H    0.000079   0.005321  -0.044057   0.346114  -0.000000   0.000011
             13         14         15         16         17         18
     1  O   -0.038077   0.005605   0.004905   0.000004   0.000000  -0.000000
     2  C    0.362163  -0.037252  -0.037730  -0.000073  -0.000000  -0.000000
     3  C   -0.037593   0.353693   0.355678   0.005903  -0.000011  -0.000000
     4  O    0.004207  -0.035352  -0.035628  -0.007162  -0.000045   0.000002
     5  C    0.000145  -0.003817  -0.003749  -0.047092   0.003095   0.000678
     6  C    0.000016   0.004743   0.004806   0.354534  -0.039394   0.005212
     7  C   -0.000000  -0.000107  -0.000106  -0.040618   0.358103  -0.043534
     8  C    0.000000  -0.000006  -0.000007   0.004618  -0.041493   0.358647
     9  C   -0.000000  -0.000003  -0.000002   0.000568   0.004680  -0.044227
    10  C   -0.000013   0.000181   0.000172   0.004604   0.000754   0.004830
    11  H   -0.005772  -0.000217  -0.000236  -0.000000  -0.000000  -0.000000
    12  H   -0.055601   0.006999  -0.009377   0.000005   0.000000   0.000000
    13  H    0.637823  -0.009520   0.006936   0.000004   0.000000   0.000000
    14  H   -0.009520   0.616358  -0.056071   0.001859   0.000002   0.000000
    15  H    0.006936  -0.056071   0.614853   0.001849   0.000002   0.000000
    16  H    0.000004   0.001859   0.001849   0.590408  -0.005935  -0.000183
    17  H    0.000000   0.000002   0.000002  -0.005935   0.595099  -0.005618
    18  H    0.000000   0.000000   0.000000  -0.000183  -0.005618   0.606794
    19  H   -0.000000  -0.000000  -0.000000   0.000015  -0.000201  -0.005756
    20  H    0.000011   0.000029   0.000028  -0.000158   0.000014  -0.000169
             19         20
     1  O    0.000000   0.000000
     2  C   -0.000000  -0.000014
     3  C    0.000002  -0.000279
     4  O   -0.000059  -0.000358
     5  C    0.004238  -0.038902
     6  C    0.000421   0.007550
     7  C    0.005074   0.000079
     8  C   -0.044165   0.005321
     9  C    0.359521  -0.044057
    10  C   -0.040626   0.346114
    11  H   -0.000000  -0.000000
    12  H   -0.000000   0.000011
    13  H   -0.000000   0.000011
    14  H   -0.000000   0.000029
    15  H   -0.000000   0.000028
    16  H    0.000015  -0.000158
    17  H   -0.000201   0.000014
    18  H   -0.005756  -0.000169
    19  H    0.598140  -0.006589
    20  H   -0.006589   0.597420
 Mulliken atomic charges:
              1
     1  O   -0.625712
     2  C   -0.048644
     3  C   -0.038796
     4  O   -0.528210
     5  C    0.385569
     6  C   -0.196972
     7  C   -0.134340
     8  C   -0.135411
     9  C   -0.127209
    10  C   -0.183299
    11  H    0.399604
    12  H    0.136533
    13  H    0.135272
    14  H    0.152879
    15  H    0.153676
    16  H    0.136851
    17  H    0.130950
    18  H    0.123324
    19  H    0.129986
    20  H    0.133948
 Sum of Mulliken atomic charges =  -0.00000
 Mulliken charges with hydrogens summed into heavy atoms:
              1
     1  O   -0.226107
     2  C    0.223161
     3  C    0.267759
     4  O   -0.528210
     5  C    0.385569
     6  C   -0.060121
     7  C   -0.003390
     8  C   -0.012086
     9  C    0.002776
    10  C   -0.049351
 Sum of Mulliken charges with hydrogens summed into heavy atoms =  -0.00000
 Electronic spatial extent (au):  <R**2>=           2080.4679
 Charge=             -0.0000 electrons
 Dipole moment (field-independent basis, Debye):
    X=              1.0574    Y=             -0.5370    Z=             -0.1510  Tot=              1.1955
 Quadrupole moment (field-independent basis, Debye-Ang):
   XX=            -47.0723   YY=            -56.5257   ZZ=            -61.5001
   XY=             -5.3576   XZ=             -0.8276   YZ=              0.0350
 Traceless Quadrupole moment (field-independent basis, Debye-Ang):
   XX=              7.9604   YY=             -1.4930   ZZ=             -6.4673
   XY=             -5.3576   XZ=             -0.8276   YZ=              0.0350
 Octapole moment (field-independent basis, Debye-Ang**2):
  XXX=             67.4141  YYY=             -0.3227  ZZZ=             -0.0469  XYY=             -3.5968
  XXY=            -29.2917  XXZ=             -4.3745  XZZ=             16.0054  YZZ=             -0.9419
  YYZ=             -0.0158  XYZ=              0.0350
 Hexadecapole moment (field-independent basis, Debye-Ang**3):
 XXXX=          -1761.2386 YYYY=           -340.2611 ZZZZ=            -73.6168 XXXY=           -111.2094
 XXXZ=            -22.9771 YYYX=              2.4730 YYYZ=              0.0915 ZZZX=             -0.5097
 ZZZY=             -0.0017 XXYY=           -430.5151 XXZZ=           -409.1649 YYZZ=            -77.4639
 XXYZ=              0.0793 YYXZ=             -0.0705 ZZXY=              0.8173
 N-N= 4.934104733898D+02 E-N=-2.061188828272D+03  KE= 4.570400389489D+02
 No NMR shielding tensors so no spin-rotation constants.
 Leave Link  601 at Thu Sep 30 09:53:08 2021, MaxMem=  805306368 cpu:       0.6
 (Enter /sw/target/amd/app/gaussian/Gaussian09RevA.02_gcc-4.9.2/g09/l701.exe)
 Compute integral first derivatives.
 ... and contract with generalized density number  0.
 Leave Link  701 at Thu Sep 30 09:53:10 2021, MaxMem=  805306368 cpu:       0.8
 (Enter /sw/target/amd/app/gaussian/Gaussian09RevA.02_gcc-4.9.2/g09/l702.exe)
 L702 exits ... SP integral derivatives will be done elsewhere.
 Leave Link  702 at Thu Sep 30 09:53:10 2021, MaxMem=  805306368 cpu:       0.0
 (Enter /sw/target/amd/app/gaussian/Gaussian09RevA.02_gcc-4.9.2/g09/l703.exe)
 Compute integral first derivatives, UseDBF=F ICtDFT=           0.
 Integral derivatives from FoFDir, PRISM(SPDF).
 Calling FoFJK, ICntrl=      2127 FMM=F ISym2X=0 I1Cent= 0 IOpClX= 0 NMat=1 NMatS=1 NMatT=0.
 FoFCou: FMM=F IPFlag=           0 FMFlag=      100000 FMFlg1=         800
         NFxFlg=           0 DoJE=F BraDBF=F KetDBF=F FulRan=T
         Omega=  0.000000  0.000000  1.000000  0.000000  0.000000 ICntrl=    2127 IOpCl=  0
         NMat0=    1 NMatS0=    1 NMatT0=    0 NMatD0=    1 NMtDS0=    0 NMtDT0=    0
         I1Cent=           0 NGrid=           0.
 Symmetry not used in FoFCou.
 Leave Link  703 at Thu Sep 30 09:54:03 2021, MaxMem=  805306368 cpu:      32.4
 (Enter /sw/target/amd/app/gaussian/Gaussian09RevA.02_gcc-4.9.2/g09/l716.exe)
 Dipole        = 4.16019266D-01-2.11258358D-01-5.93885481D-02
 ***** Axes restored to original set *****
 -------------------------------------------------------------------
 Center     Atomic                   Forces (Hartrees/Bohr)
 Number     Number              X              Y              Z
 -------------------------------------------------------------------
      1        8          -0.002248309   -0.005865067    0.002222007
      2        6          -0.001845629    0.009188749   -0.006340947
      3        6          -0.006170547    0.000277584   -0.002497653
      4        8          -0.009564347   -0.002739552   -0.001214398
      5        6           0.004759576    0.003469722   -0.000485374
      6        6          -0.006229229   -0.006160037    0.001779905
      7        6           0.003146707    0.003414473   -0.001052938
      8        6           0.001764333   -0.005519995    0.003899394
      9        6          -0.005747667    0.002755632   -0.003513044
     10        6           0.012488585    0.002127569    0.002683210
     11        1           0.001692902   -0.003362404    0.003496901
     12        1           0.005622394    0.002117166    0.003480499
     13        1           0.007277555   -0.000272866   -0.000637007
     14        1          -0.000021607   -0.001203218    0.001012166
     15        1           0.000258721   -0.001289382    0.000648485
     16        1          -0.000982807    0.002011840   -0.001521720
     17        1          -0.000894443    0.000879086   -0.000810134
     18        1          -0.000022414   -0.000210500    0.000073258
     19        1          -0.000125067    0.000845214   -0.000567508
     20        1          -0.003158707   -0.000464014   -0.000655102
 -------------------------------------------------------------------
 Cartesian Forces:  Max     0.012488585 RMS     0.003825803
 Leave Link  716 at Thu Sep 30 09:54:03 2021, MaxMem=  805306368 cpu:       0.1
 (Enter /sw/target/amd/app/gaussian/Gaussian09RevA.02_gcc-4.9.2/g09/l103.exe)

 GradGradGradGradGradGradGradGradGradGradGradGradGradGradGradGradGradGrad
 Berny optimization.
 Internal  Forces:  Max     0.016387487 RMS     0.003200301
 Search for a local minimum.
 Step number   1 out of a maximum of  103
 All quantities printed in internal units (Hartrees-Bohrs-Radians)
 RMS Force = .32003D-02 SwitMx=.10000D-02 MixMth= 1
 Mixed Optimization -- RFO/linear search
 Second derivative matrix not updated -- first step.
     Eigenvalues ---    0.00444   0.01336   0.01390   0.02109   0.02120
     Eigenvalues ---    0.02125   0.02129   0.02133   0.02137   0.02145
     Eigenvalues ---    0.02158   0.02169   0.02179   0.05109   0.05319
     Eigenvalues ---    0.05805   0.06067   0.11076   0.11453   0.13664
     Eigenvalues ---    0.13802   0.16000   0.16000   0.16000   0.16000
     Eigenvalues ---    0.16000   0.16000   0.21998   0.22000   0.22000
     Eigenvalues ---    0.22040   0.23480   0.25000   0.25000   0.29955
     Eigenvalues ---    0.33974   0.33987   0.34187   0.34270   0.35089
     Eigenvalues ---    0.35110   0.35209   0.35249   0.35490   0.41439
     Eigenvalues ---    0.41842   0.42035   0.42338   0.46004   0.46178
     Eigenvalues ---    0.46483   0.46675   0.51270   0.527901000.00000
     Eigenvalues --- 1000.000001000.000001000.000001000.000001000.00000
     Eigenvalues --- 1000.000001000.000001000.000001000.000001000.00000
     Eigenvalues --- 1000.000001000.000001000.000001000.000001000.00000
     Eigenvalues --- 1000.000001000.000001000.000001000.000001000.00000
     Eigenvalues --- 1000.000001000.000001000.000001000.000001000.00000
     Eigenvalues --- 1000.000001000.000001000.000001000.000001000.00000
     Eigenvalues --- 1000.000001000.000001000.000001000.000001000.00000
     Eigenvalues --- 1000.000001000.000001000.00000
 RFO step:  Lambda=-4.49828103D-03 EMin= 4.44288438D-03
 Linear search not attempted -- first point.
 Iteration  1 RMS(Cart)=  0.03419285 RMS(Int)=  0.00080782
 Iteration  2 RMS(Cart)=  0.00098790 RMS(Int)=  0.00052225
 Iteration  3 RMS(Cart)=  0.00000040 RMS(Int)=  0.00052225
 Variable       Old X    -DE/DX   Delta X   Delta X   Delta X     New X
                                 (Linear)    (Quad)   (Total)
    R1        2.68878   0.00227   0.00000   0.00534   0.00534   2.69412
    R2        1.83851  -0.00512   0.00000  -0.00962  -0.00962   1.82888
    R3        2.88054  -0.00500   0.00000  -0.01646  -0.01646   2.86408
    R4        2.07016   0.00353   0.00000   0.01020   0.01020   2.08036
    R5        2.06877   0.00381   0.00000   0.01097   0.01097   2.07974
    R6        2.69643  -0.00437   0.00000  -0.01043  -0.01043   2.68600
    R7        2.07352   0.00060   0.00000   0.00175   0.00175   2.07527
    R8        2.07375   0.00055   0.00000   0.00159   0.00159   2.07534
    R9        2.58605   0.00094   0.00000   0.00182   0.00182   2.58787
   R10        2.63913   0.00198   0.00000   0.00442   0.00441   2.64354
   R11        2.64014   0.00421   0.00000   0.00913   0.00912   2.64926
   R12        2.64267   0.00037   0.00000   0.00088   0.00088   2.64355
   R13        2.04886   0.00032   0.00000   0.00090   0.00090   2.04976
   R14        2.63254   0.00074   0.00000   0.00149   0.00150   2.63404
   R15        2.05530  -0.00085   0.00000  -0.00239  -0.00239   2.05291
   R16        2.63280   0.00471   0.00000   0.00980   0.00981   2.64261
   R17        2.05336   0.00014   0.00000   0.00038   0.00038   2.05375
   R18        2.63872  -0.00381   0.00000  -0.00824  -0.00825   2.63048
   R19        2.05272   0.00010   0.00000   0.00029   0.00029   2.05301
   R20        2.05497  -0.00102   0.00000  -0.00287  -0.00287   2.05210
    A1        1.86566   0.00061   0.00000   0.00369   0.00369   1.86935
    A2        1.92078  -0.01639   0.00000  -0.07289  -0.07279   1.84799
    A3        1.90402   0.00927   0.00000   0.05743   0.05556   1.95958
    A4        1.90238   0.00956   0.00000   0.06228   0.06061   1.96299
    A5        1.92992  -0.00067   0.00000  -0.02448  -0.02395   1.90596
    A6        1.92626  -0.00069   0.00000  -0.02282  -0.02215   1.90411
    A7        1.87974  -0.00039   0.00000   0.00460   0.00243   1.88216
    A8        1.89916  -0.00897   0.00000  -0.04108  -0.04100   1.85816
    A9        1.89952   0.00317   0.00000   0.01772   0.01764   1.91716
   A10        1.90260   0.00314   0.00000   0.01596   0.01582   1.91842
   A11        1.93065   0.00244   0.00000   0.00825   0.00840   1.93905
   A12        1.93269   0.00219   0.00000   0.00425   0.00433   1.93703
   A13        1.89875  -0.00189   0.00000  -0.00447  -0.00472   1.89404
   A14        2.03691   0.00630   0.00000   0.02477   0.02477   2.06168
   A15        2.19844  -0.00557   0.00000  -0.02221  -0.02220   2.17624
   A16        2.00459   0.00327   0.00000   0.01251   0.01252   2.01711
   A17        2.08015   0.00230   0.00000   0.00969   0.00969   2.08984
   A18        2.09724  -0.00277   0.00000  -0.01162  -0.01162   2.08562
   A19        2.12788  -0.00137   0.00000  -0.01092  -0.01092   2.11696
   A20        2.05806   0.00414   0.00000   0.02254   0.02254   2.08060
   A21        2.09987   0.00245   0.00000   0.01112   0.01113   2.11099
   A22        2.09040  -0.00249   0.00000  -0.01322  -0.01323   2.07717
   A23        2.09292   0.00003   0.00000   0.00210   0.00210   2.09502
   A24        2.09055  -0.00212   0.00000  -0.00976  -0.00975   2.08080
   A25        2.09633   0.00089   0.00000   0.00383   0.00382   2.10015
   A26        2.09631   0.00123   0.00000   0.00594   0.00593   2.10224
   A27        2.09208   0.00212   0.00000   0.00914   0.00914   2.10122
   A28        2.09655  -0.00001   0.00000   0.00182   0.00182   2.09838
   A29        2.09455  -0.00211   0.00000  -0.01096  -0.01096   2.08359
   A30        2.10648  -0.00198   0.00000  -0.00857  -0.00858   2.09790
   A31        2.08957  -0.00219   0.00000  -0.01505  -0.01505   2.07452
   A32        2.08714   0.00417   0.00000   0.02362   0.02363   2.11076
    D1       -3.04078  -0.00022   0.00000  -0.00984  -0.00979  -3.05057
    D2        1.12213   0.00499   0.00000   0.02955   0.03206   1.15419
    D3       -0.92605  -0.00522   0.00000  -0.04388  -0.04645  -0.97250
    D4        3.13565   0.00030   0.00000   0.00823   0.00817  -3.13937
    D5        1.03052   0.00080   0.00000   0.01219   0.01226   1.04278
    D6       -1.03807  -0.00056   0.00000  -0.00183  -0.00198  -1.04005
    D7       -1.04278   0.00075   0.00000   0.01659   0.01689  -1.02589
    D8        3.13527   0.00125   0.00000   0.02055   0.02098  -3.12693
    D9        1.06668  -0.00011   0.00000   0.00652   0.00674   1.07342
   D10        1.03528  -0.00059   0.00000  -0.00771  -0.00798   1.02730
   D11       -1.06985  -0.00009   0.00000  -0.00374  -0.00389  -1.07374
   D12       -3.13844  -0.00146   0.00000  -0.01777  -0.01813   3.12661
   D13       -3.14057  -0.00008   0.00000  -0.00166  -0.00162   3.14099
   D14       -1.05473  -0.00031   0.00000  -0.00061  -0.00059  -1.05532
   D15        1.05175   0.00038   0.00000   0.00205   0.00199   1.05373
   D16       -0.00224   0.00003   0.00000   0.00126   0.00126  -0.00098
   D17        3.14031  -0.00001   0.00000  -0.00014  -0.00014   3.14017
   D18       -3.13862  -0.00007   0.00000  -0.00275  -0.00274  -3.14136
   D19        0.00249  -0.00005   0.00000  -0.00191  -0.00191   0.00058
   D20        0.00198  -0.00003   0.00000  -0.00129  -0.00129   0.00070
   D21       -3.14009  -0.00001   0.00000  -0.00045  -0.00046  -3.14055
   D22        3.13834   0.00007   0.00000   0.00295   0.00296   3.14130
   D23       -0.00284   0.00006   0.00000   0.00237   0.00239  -0.00045
   D24       -0.00237   0.00004   0.00000   0.00166   0.00166  -0.00071
   D25        3.13963   0.00003   0.00000   0.00108   0.00109   3.14072
   D26        0.00004  -0.00001   0.00000  -0.00026  -0.00027  -0.00023
   D27        3.14113   0.00002   0.00000   0.00057   0.00056  -3.14149
   D28       -3.14109  -0.00003   0.00000  -0.00106  -0.00107   3.14103
   D29        0.00000  -0.00000   0.00000  -0.00023  -0.00024  -0.00024
   D30       -0.00170   0.00004   0.00000   0.00148   0.00148  -0.00022
   D31        3.14000   0.00003   0.00000   0.00120   0.00120   3.14120
   D32        3.14039   0.00002   0.00000   0.00066   0.00064   3.14104
   D33       -0.00109   0.00001   0.00000   0.00037   0.00037  -0.00073
   D34        0.00132  -0.00003   0.00000  -0.00111  -0.00111   0.00021
   D35       -3.14069  -0.00002   0.00000  -0.00058  -0.00057  -3.14126
   D36       -3.14038  -0.00002   0.00000  -0.00083  -0.00083  -3.14122
   D37        0.00079  -0.00001   0.00000  -0.00030  -0.00029   0.00050
   D38        0.00073  -0.00002   0.00000  -0.00048  -0.00047   0.00026
   D39       -3.14127  -0.00000   0.00000   0.00008   0.00010  -3.14117
   D40       -3.14045  -0.00003   0.00000  -0.00102  -0.00101  -3.14146
   D41        0.00074  -0.00001   0.00000  -0.00045  -0.00044   0.00030
         Item               Value     Threshold  Converged?
 Maximum Force            0.016387     0.000450     NO 
 RMS     Force            0.003200     0.000300     NO 
 Maximum Displacement     0.163533     0.001800     NO 
 RMS     Displacement     0.034505     0.001200     NO 
 Predicted change in Energy=-2.336430D-03
 GradGradGradGradGradGradGradGradGradGradGradGradGradGradGradGradGradGrad

 Leave Link  103 at Thu Sep 30 09:54:09 2021, MaxMem=  805306368 cpu:       2.6
 (Enter /sw/target/amd/app/gaussian/Gaussian09RevA.02_gcc-4.9.2/g09/l202.exe)
                          Input orientation:                          
 ---------------------------------------------------------------------
 Center     Atomic      Atomic             Coordinates (Angstroms)
 Number     Number       Type             X           Y           Z
 ---------------------------------------------------------------------
      1          8           0        1.139170   -1.288288    0.401183
      2          6           0        2.490142   -0.866796    0.573668
      3          6           0        3.149749   -1.928749    1.430544
      4          8           0        4.498425   -1.518775    1.613003
      5          6           0        5.320185   -2.317585    2.362661
      6          6           0        4.929023   -3.516254    2.968562
      7          6           0        5.860576   -4.247945    3.712725
      8          6           0        7.172381   -3.799918    3.858723
      9          6           0        7.556088   -2.601032    3.249636
     10          6           0        6.638744   -1.863584    2.506481
     11          1           0        0.722990   -0.666140   -0.212306
     12          1           0        2.561845    0.106134    1.083768
     13          1           0        3.031232   -0.787448   -0.381393
     14          1           0        3.097412   -2.901857    0.924248
     15          1           0        2.629136   -2.008465    2.394234
     16          1           0        3.915802   -3.891463    2.872934
     17          1           0        5.548370   -5.177750    4.179796
     18          1           0        7.887727   -4.376257    4.439444
     19          1           0        8.574407   -2.236717    3.352506
     20          1           0        6.927217   -0.931680    2.029433
 ---------------------------------------------------------------------
                    Distance matrix (angstroms):
                    1          2          3          4          5
     1  O    0.000000
     2  C    1.425668   0.000000
     3  C    2.347808   1.515606   0.000000
     4  O    3.578579   2.353401   1.421371   0.000000
     5  C    4.731568   3.648894   2.393915   1.369443   0.000000
     6  C    5.090997   4.324729   2.837514   2.452116   1.398903
     7  C    6.482095   5.713639   4.235045   3.703060   2.416813
     8  C    7.393410   6.427920   5.057559   4.170960   2.804664
     9  C    7.142396   5.986000   4.814238   3.633063   2.422050
    10  C    5.916803   4.684042   3.651708   2.344816   1.401926
    11  H    0.967803   1.944440   3.190971   4.279329   5.521950
    12  H    2.105787   1.100880   2.146307   2.582782   3.888242
    13  H    2.107881   1.100552   2.144698   2.581688   3.887217
    14  H    2.590736   2.152477   1.098187   2.085698   2.711296
    15  H    2.590542   2.153414   1.098222   2.084313   2.708930
    16  H    4.538255   4.058046   2.553345   2.748913   2.170199
    17  H    6.989054   6.398534   4.885466   4.591176   3.396261
    18  H    8.449031   7.509625   6.123089   5.257503   3.891456
    19  H    8.055592   6.827657   5.763306   4.489425   3.402394
    20  H    6.023276   4.670235   3.952478   2.533205   2.148098
                    6          7          8          9         10
     6  C    0.000000
     7  C    1.398908   0.000000
     8  C    2.430125   1.393872   0.000000
     9  C    2.796087   2.408637   1.398407   0.000000
    10  C    2.422392   2.783119   2.421305   1.391988   0.000000
    11  H    5.994313   7.391210   8.245514   7.900638   6.619805
    12  H    4.719923   6.062264   6.649411   6.079654   4.746052
    13  H    4.719130   6.061520   6.648509   6.078469   4.744684
    14  H    2.812739   4.150016   5.101277   5.037630   4.015284
    15  H    2.809405   4.146793   5.098540   5.035644   4.013795
    16  H    1.084686   2.148133   3.403744   3.880567   3.414820
    17  H    2.147382   1.086353   2.153815   3.396410   3.869443
    18  H    3.414240   2.157297   1.086795   2.162649   3.407321
    19  H    3.882454   3.397010   2.159983   1.086407   2.145175
    20  H    3.399230   3.868955   3.410747   2.161276   1.085927
                   11         12         13         14         15
    11  H    0.000000
    12  H    2.378572   0.000000
    13  H    2.317604   1.779188   0.000000
    14  H    3.453703   3.059459   2.485921   0.000000
    15  H    3.497039   2.488651   3.058868   1.782776   0.000000
    16  H    5.487756   4.584223   4.583450   2.333765   2.330309
    17  H    7.932810   6.813527   6.812868   4.667491   4.664174
    18  H    9.313282   7.727705   7.726938   6.121894   6.118996
    19  H    8.764665   6.840104   6.838798   6.027961   6.026328
    20  H    6.602147   4.585610   4.583839   4.446396   4.445903
                   16         17         18         19         20
    16  H    0.000000
    17  H    2.455138   0.000000
    18  H    4.297112   2.486443   0.000000
    19  H    4.966968   4.300114   2.496116   0.000000
    20  H    4.305860   4.955239   4.312290   2.483319   0.000000
 Stoichiometry    C8H10O2
 Framework group  C1[X(C8H10O2)]
 Deg. of freedom    54
 Full point group                 C1      NOp   1
 Largest Abelian subgroup         C1      NOp   1
 Largest concise Abelian subgroup C1      NOp   1
                         Standard orientation:                         
 ---------------------------------------------------------------------
 Center     Atomic      Atomic             Coordinates (Angstroms)
 Number     Number       Type             X           Y           Z
 ---------------------------------------------------------------------
      1          8           0        4.087071    0.527558    0.005929
      2          6           0        3.066924   -0.468346    0.003502
      3          6           0        1.751828    0.285031    0.001181
      4          8           0        0.724704   -0.697472    0.001780
      5          6           0       -0.576626   -0.270963    0.000696
      6          6           0       -0.974938    1.070036    0.000154
      7          6           0       -2.338242    1.383635   -0.000672
      8          6           0       -3.304850    0.379371   -0.001238
      9          6           0       -2.898945   -0.958830   -0.001244
     10          6           0       -1.545517   -1.284199   -0.000441
     11          1           0        4.934411    0.067298   -0.076648
     12          1           0        3.112478   -1.114561    0.893597
     13          1           0        3.112811   -1.115358   -0.885591
     14          1           0        1.688810    0.922286   -0.890980
     15          1           0        1.685223    0.924145    0.891792
     16          1           0       -0.246834    1.874031    0.000044
     17          1           0       -2.638750    2.427598   -0.001184
     18          1           0       -4.361281    0.634475   -0.001511
     19          1           0       -3.638460   -1.754693   -0.001992
     20          1           0       -1.220415   -2.320319   -0.000830
 ---------------------------------------------------------------------
 Rotational constants (GHZ):      4.5201266      0.5870109      0.5229847
 Leave Link  202 at Thu Sep 30 09:54:09 2021, MaxMem=  805306368 cpu:       0.0
 (Enter /sw/target/amd/app/gaussian/Gaussian09RevA.02_gcc-4.9.2/g09/l301.exe)
 Standard basis: 6-31G(d) (6D, 7F)
 Ernie: Thresh=  0.10000D-02 Tol=  0.10000D-05 Strict=F.
 There are   170 symmetry adapted basis functions of A   symmetry.
 Integral buffers will be    131072 words long.
 Raffenetti 2 integral format.
 Two-electron integral symmetry is turned on.
   170 basis functions,   320 primitive gaussians,   170 cartesian basis functions
    37 alpha electrons       37 beta electrons
       nuclear repulsion energy       494.5477704568 Hartrees.
 IExCor=  402 DFT=T Ex+Corr=B3LYP ExCW=0 ScaHFX=  0.200000
 ScaDFX=  0.800000  0.720000  1.000000  0.810000 ScalE2=  1.000000  1.000000
 IRadAn=      0 IRanWt=     -1 IRanGd=            0 ICorTp=0
 NAtoms=   20 NActive=   20 NUniq=   20 SFac= 7.50D-01 NAtFMM=   80 NAOKFM=F Big=F
 Leave Link  301 at Thu Sep 30 09:54:10 2021, MaxMem=  805306368 cpu:       0.1
 (Enter /sw/target/amd/app/gaussian/Gaussian09RevA.02_gcc-4.9.2/g09/l302.exe)
 NPDir=0 NMtPBC=     1 NCelOv=     1 NCel=       1 NClECP=     1 NCelD=      1
         NCelK=      1 NCelE2=     1 NClLst=     1 CellRange=     0.0.
 One-electron integrals computed using PRISM.
 NBasis=   170 RedAO= T  NBF=   170
 NBsUse=   170 1.00D-06 NBFU=   170
 Precomputing XC quadrature grid using
 IXCGrd= 2 IRadAn=           0 IRanWt=          -1 IRanGd=           0 AccXCQ= 1.00D-10.
 NRdTot=    1262 NPtTot=      160826 NUsed=      169933 NTot=      169965
 NSgBfM=   169   169   169   169   169 NAtAll=    20    20.
 Leave Link  302 at Thu Sep 30 09:54:12 2021, MaxMem=  805306368 cpu:       1.2
 (Enter /sw/target/amd/app/gaussian/Gaussian09RevA.02_gcc-4.9.2/g09/l303.exe)
 DipDrv:  MaxL=1.
 Leave Link  303 at Thu Sep 30 09:54:13 2021, MaxMem=  805306368 cpu:       0.1
 (Enter /sw/target/amd/app/gaussian/Gaussian09RevA.02_gcc-4.9.2/g09/l401.exe)
 Initial guess read from the read-write file.
 B after Tr=     0.000000    0.000000    0.000000
         Rot=    1.000000    0.000000    0.000000    0.000000 Ang=   0.00 deg.
 Guess basis will be translated and rotated to current coordinates.
 Initial guess orbital symmetries:
       Occupied  (A) (A) (A) (A) (A) (A) (A) (A) (A) (A) (A) (A)
                 (A) (A) (A) (A) (A) (A) (A) (A) (A) (A) (A) (A)
                 (A) (A) (A) (A) (A) (A) (A) (A) (A) (A) (A) (A)
                 (A)
       Virtual   (A) (A) (A) (A) (A) (A) (A) (A) (A) (A) (A) (A)
                 (A) (A) (A) (A) (A) (A) (A) (A) (A) (A) (A) (A)
                 (A) (A) (A) (A) (A) (A) (A) (A) (A) (A) (A) (A)
                 (A) (A) (A) (A) (A) (A) (A) (A) (A) (A) (A) (A)
                 (A) (A) (A) (A) (A) (A) (A) (A) (A) (A) (A) (A)
                 (A) (A) (A) (A) (A) (A) (A) (A) (A) (A) (A) (A)
                 (A) (A) (A) (A) (A) (A) (A) (A) (A) (A) (A) (A)
                 (A) (A) (A) (A) (A) (A) (A) (A) (A) (A) (A) (A)
                 (A) (A) (A) (A) (A) (A) (A) (A) (A) (A) (A) (A)
                 (A) (A) (A) (A) (A) (A) (A) (A) (A) (A) (A) (A)
                 (A) (A) (A) (A) (A) (A) (A) (A) (A) (A) (A) (A)
                 (A)
 The electronic state of the initial guess is 1-A.
 Generating alternative initial guess.
 Harris functional with IExCor=  402 diagonalized for initial guess.
 ExpMin= 1.61D-01 ExpMax= 5.48D+03 ExpMxC= 8.25D+02 IAcc=1 IRadAn=         1 AccDes= 0.00D+00
 HarFok:  IExCor=  402 AccDes= 0.00D+00 IRadAn=         1 IDoV= 1
 ScaDFX=  1.000000  1.000000  1.000000  1.000000
 FoFCou: FMM=F IPFlag=           0 FMFlag=      100000 FMFlg1=           0
         NFxFlg=           0 DoJE=T BraDBF=F KetDBF=T FulRan=T
         Omega=  0.000000  0.000000  1.000000  0.000000  0.000000 ICntrl=     500 IOpCl=  0
         NMat0=    1 NMatS0=    1 NMatT0=    0 NMatD0=    1 NMtDS0=    0 NMtDT0=    0
         I1Cent=           4 NGrid=           0.
 Petite list used in FoFCou.
 Harris En= -461.351937724641    
 Leave Link  401 at Thu Sep 30 09:54:25 2021, MaxMem=  805306368 cpu:       5.9
 (Enter /sw/target/amd/app/gaussian/Gaussian09RevA.02_gcc-4.9.2/g09/l502.exe)
 Closed shell SCF:
 Requested convergence on RMS density matrix=1.00D-08 within  64 cycles.
 Requested convergence on MAX density matrix=1.00D-06.
 Requested convergence on             energy=1.00D-06.
 No special actions if energy rises.
 Using DIIS extrapolation, IDIIS=  1040.
 Integral symmetry usage will be decided dynamically.
       169740 words used for storage of precomputed grid.
 Keep R1 ints in memory in canonical form, NReq=108404702.
 IEnd=      264288 IEndB=      264288 NGot=   805306368 MDV=   699434967
 LenX=   699434967 LenY=   699405626
 Symmetry not used in FoFDir.
 MinBra= 0 MaxBra= 2 Meth= 1.
 IRaf=       0 NMat=   1 IRICut=       1 DoRegI=T DoRafI=F ISym2E= 0 JSym2E=0.
 Integral accuracy reduced to 1.0D-05 until final iterations.

 Cycle   1  Pass 0  IDiag  1:
 E= -461.290478362969    
 DIIS: error= 1.98D-03 at cycle   1 NSaved=   1.
 NSaved= 1 IEnMin= 1 EnMin= -461.290478362969     IErMin= 1 ErrMin= 1.98D-03
 ErrMax= 1.98D-03 EMaxC= 1.00D-01 BMatC= 7.97D-04 BMatP= 7.97D-04
 IDIUse=3 WtCom= 9.80D-01 WtEn= 1.98D-02
 Coeff-Com:  0.100D+01
 Coeff-En:   0.100D+01
 Coeff:      0.100D+01
 Gap=     0.220 Goal=   None    Shift=    0.000
 GapD=    0.220 DampG=1.000 DampE=1.000 DampFc=1.0000 IDamp=-1.
 RMSDP=3.13D-04 MaxDP=5.20D-03              OVMax= 1.11D-02

 Cycle   2  Pass 0  IDiag  1:
 E= -461.291735155558     Delta-E=       -0.001256792588 Rises=F Damp=F
 DIIS: error= 4.61D-04 at cycle   2 NSaved=   2.
 NSaved= 2 IEnMin= 2 EnMin= -461.291735155558     IErMin= 2 ErrMin= 4.61D-04
 ErrMax= 4.61D-04 EMaxC= 1.00D-01 BMatC= 4.75D-05 BMatP= 7.97D-04
 IDIUse=3 WtCom= 9.95D-01 WtEn= 4.61D-03
 Coeff-Com:  0.579D-01 0.942D+00
 Coeff-En:   0.000D+00 0.100D+01
 Coeff:      0.576D-01 0.942D+00
 Gap=     0.220 Goal=   None    Shift=    0.000
 RMSDP=7.67D-05 MaxDP=2.37D-03 DE=-1.26D-03 OVMax= 2.93D-03

 Cycle   3  Pass 0  IDiag  1:
 E= -461.291725340373     Delta-E=        0.000009815185 Rises=F Damp=F
 DIIS: error= 6.39D-04 at cycle   3 NSaved=   3.
 NSaved= 3 IEnMin= 2 EnMin= -461.291735155558     IErMin= 2 ErrMin= 4.61D-04
 ErrMax= 6.39D-04 EMaxC= 1.00D-01 BMatC= 6.66D-05 BMatP= 4.75D-05
 IDIUse=3 WtCom= 2.83D-01 WtEn= 7.17D-01
 Coeff-Com: -0.222D-01 0.552D+00 0.470D+00
 Coeff-En:   0.000D+00 0.549D+00 0.451D+00
 Coeff:     -0.629D-02 0.550D+00 0.456D+00
 Gap=     0.220 Goal=   None    Shift=    0.000
 RMSDP=4.57D-05 MaxDP=1.33D-03 DE= 9.82D-06 OVMax= 2.33D-03

 Cycle   4  Pass 0  IDiag  1:
 E= -461.291779661234     Delta-E=       -0.000054320861 Rises=F Damp=F
 DIIS: error= 1.02D-04 at cycle   4 NSaved=   4.
 NSaved= 4 IEnMin= 4 EnMin= -461.291779661234     IErMin= 4 ErrMin= 1.02D-04
 ErrMax= 1.02D-04 EMaxC= 1.00D-01 BMatC= 1.73D-06 BMatP= 4.75D-05
 IDIUse=3 WtCom= 9.99D-01 WtEn= 1.02D-03
 Coeff-Com: -0.145D-01 0.162D+00 0.199D+00 0.653D+00
 Coeff-En:   0.000D+00 0.000D+00 0.000D+00 0.100D+01
 Coeff:     -0.145D-01 0.162D+00 0.199D+00 0.653D+00
 Gap=     0.220 Goal=   None    Shift=    0.000
 RMSDP=1.13D-05 MaxDP=3.01D-04 DE=-5.43D-05 OVMax= 7.49D-04

 Cycle   5  Pass 0  IDiag  1:
 E= -461.291780975383     Delta-E=       -0.000001314149 Rises=F Damp=F
 DIIS: error= 5.44D-05 at cycle   5 NSaved=   5.
 NSaved= 5 IEnMin= 5 EnMin= -461.291780975383     IErMin= 5 ErrMin= 5.44D-05
 ErrMax= 5.44D-05 EMaxC= 1.00D-01 BMatC= 4.46D-07 BMatP= 1.73D-06
 IDIUse=1 WtCom= 1.00D+00 WtEn= 0.00D+00
 Coeff-Com: -0.721D-02 0.621D-01 0.907D-01 0.405D+00 0.449D+00
 Coeff:     -0.721D-02 0.621D-01 0.907D-01 0.405D+00 0.449D+00
 Gap=     0.220 Goal=   None    Shift=    0.000
 RMSDP=4.61D-06 MaxDP=1.23D-04 DE=-1.31D-06 OVMax= 3.22D-04

 Initial convergence to 1.0D-05 achieved.  Increase integral accuracy.
 Cycle   6  Pass 1  IDiag  1:
 E= -461.291770114522     Delta-E=        0.000010860860 Rises=F Damp=F
 DIIS: error= 2.17D-05 at cycle   1 NSaved=   1.
 NSaved= 1 IEnMin= 1 EnMin= -461.291770114522     IErMin= 1 ErrMin= 2.17D-05
 ErrMax= 2.17D-05 EMaxC= 1.00D-01 BMatC= 4.72D-08 BMatP= 4.72D-08
 IDIUse=1 WtCom= 1.00D+00 WtEn= 0.00D+00
 Coeff-Com:  0.100D+01
 Coeff:      0.100D+01
 Gap=     0.220 Goal=   None    Shift=    0.000
 RMSDP=4.61D-06 MaxDP=1.23D-04 DE= 1.09D-05 OVMax= 1.20D-04

 Cycle   7  Pass 1  IDiag  1:
 E= -461.291770135757     Delta-E=       -0.000000021235 Rises=F Damp=F
 DIIS: error= 1.44D-05 at cycle   2 NSaved=   2.
 NSaved= 2 IEnMin= 2 EnMin= -461.291770135757     IErMin= 2 ErrMin= 1.44D-05
 ErrMax= 1.44D-05 EMaxC= 1.00D-01 BMatC= 3.39D-08 BMatP= 4.72D-08
 IDIUse=1 WtCom= 1.00D+00 WtEn= 0.00D+00
 Coeff-Com:  0.442D+00 0.558D+00
 Coeff:      0.442D+00 0.558D+00
 Gap=     0.220 Goal=   None    Shift=    0.000
 RMSDP=1.82D-06 MaxDP=4.41D-05 DE=-2.12D-08 OVMax= 1.23D-04

 Cycle   8  Pass 1  IDiag  1:
 E= -461.291770158045     Delta-E=       -0.000000022288 Rises=F Damp=F
 DIIS: error= 9.21D-06 at cycle   3 NSaved=   3.
 NSaved= 3 IEnMin= 3 EnMin= -461.291770158045     IErMin= 3 ErrMin= 9.21D-06
 ErrMax= 9.21D-06 EMaxC= 1.00D-01 BMatC= 1.27D-08 BMatP= 3.39D-08
 IDIUse=1 WtCom= 1.00D+00 WtEn= 0.00D+00
 Coeff-Com: -0.382D-02 0.378D+00 0.626D+00
 Coeff:     -0.382D-02 0.378D+00 0.626D+00
 Gap=     0.220 Goal=   None    Shift=    0.000
 RMSDP=7.63D-07 MaxDP=1.88D-05 DE=-2.23D-08 OVMax= 5.46D-05

 Cycle   9  Pass 1  IDiag  1:
 E= -461.291770171824     Delta-E=       -0.000000013779 Rises=F Damp=F
 DIIS: error= 1.63D-06 at cycle   4 NSaved=   4.
 NSaved= 4 IEnMin= 4 EnMin= -461.291770171824     IErMin= 4 ErrMin= 1.63D-06
 ErrMax= 1.63D-06 EMaxC= 1.00D-01 BMatC= 4.42D-10 BMatP= 1.27D-08
 IDIUse=1 WtCom= 1.00D+00 WtEn= 0.00D+00
 Coeff-Com: -0.145D-01 0.196D+00 0.348D+00 0.471D+00
 Coeff:     -0.145D-01 0.196D+00 0.348D+00 0.471D+00
 Gap=     0.220 Goal=   None    Shift=    0.000
 RMSDP=1.36D-07 MaxDP=3.61D-06 DE=-1.38D-08 OVMax= 7.27D-06

 Cycle  10  Pass 1  IDiag  1:
 E= -461.291770172214     Delta-E=       -0.000000000390 Rises=F Damp=F
 DIIS: error= 3.55D-07 at cycle   5 NSaved=   5.
 NSaved= 5 IEnMin= 5 EnMin= -461.291770172214     IErMin= 5 ErrMin= 3.55D-07
 ErrMax= 3.55D-07 EMaxC= 1.00D-01 BMatC= 2.03D-11 BMatP= 4.42D-10
 IDIUse=1 WtCom= 1.00D+00 WtEn= 0.00D+00
 Coeff-Com: -0.676D-02 0.679D-01 0.123D+00 0.235D+00 0.581D+00
 Coeff:     -0.676D-02 0.679D-01 0.123D+00 0.235D+00 0.581D+00
 Gap=     0.220 Goal=   None    Shift=    0.000
 RMSDP=2.79D-08 MaxDP=7.94D-07 DE=-3.90D-10 OVMax= 1.47D-06

 Cycle  11  Pass 1  IDiag  1:
 E= -461.291770172225     Delta-E=       -0.000000000011 Rises=F Damp=F
 DIIS: error= 7.84D-08 at cycle   6 NSaved=   6.
 NSaved= 6 IEnMin= 6 EnMin= -461.291770172225     IErMin= 6 ErrMin= 7.84D-08
 ErrMax= 7.84D-08 EMaxC= 1.00D-01 BMatC= 1.51D-12 BMatP= 2.03D-11
 IDIUse=1 WtCom= 1.00D+00 WtEn= 0.00D+00
[...]
    20  H    0.000015   0.005487  -0.042595   0.348191  -0.000000   0.000015
             13         14         15         16         17         18
     1  O   -0.035940   0.005822   0.005849   0.000002   0.000000  -0.000000
     2  C    0.361057  -0.037011  -0.037077   0.000022  -0.000000  -0.000000
     3  C   -0.040786   0.356399   0.356410   0.006696  -0.000011  -0.000000
     4  O    0.004729  -0.030650  -0.030625  -0.007723  -0.000052   0.000002
     5  C    0.000131  -0.001973  -0.001984  -0.048118   0.003544   0.000677
     6  C    0.000026   0.003257   0.003244   0.353079  -0.039385   0.004933
     7  C   -0.000000  -0.000169  -0.000169  -0.037830   0.358885  -0.043243
     8  C    0.000000   0.000005   0.000005   0.004644  -0.042049   0.358345
     9  C   -0.000000   0.000005   0.000005   0.000479   0.004729  -0.042531
    10  C   -0.000021  -0.000115  -0.000114   0.004573   0.000825   0.004552
    11  H   -0.003944  -0.000236  -0.000235  -0.000000  -0.000000   0.000000
    12  H   -0.056002   0.006489  -0.008672   0.000002   0.000000   0.000000
    13  H    0.631552  -0.008678   0.006491   0.000002   0.000000   0.000000
    14  H   -0.008678   0.581903  -0.050129   0.001445   0.000002   0.000000
    15  H    0.006491  -0.050129   0.581897   0.001448   0.000002   0.000000
    16  H    0.000002   0.001445   0.001448   0.599555  -0.006289  -0.000168
    17  H    0.000000   0.000002   0.000002  -0.006289   0.605468  -0.005752
    18  H    0.000000   0.000000   0.000000  -0.000168  -0.005752   0.597115
    19  H   -0.000000  -0.000000  -0.000000   0.000015  -0.000207  -0.005772
    20  H    0.000015   0.000024   0.000024  -0.000173   0.000015  -0.000155
             19         20
     1  O    0.000000   0.000000
     2  C   -0.000000  -0.000016
     3  C    0.000002  -0.000270
     4  O   -0.000062  -0.001191
     5  C    0.004684  -0.042104
     6  C    0.000506   0.007423
     7  C    0.005118   0.000015
     8  C   -0.044545   0.005487
     9  C    0.360875  -0.042595
    10  C   -0.040850   0.348191
    11  H   -0.000000  -0.000000
    12  H   -0.000000   0.000015
    13  H   -0.000000   0.000015
    14  H   -0.000000   0.000024
    15  H   -0.000000   0.000024
    16  H    0.000015  -0.000173
    17  H   -0.000207   0.000015
    18  H   -0.005772  -0.000155
    19  H    0.608346  -0.007034
    20  H   -0.007034   0.608673
 Mulliken atomic charges:
              1
     1  O   -0.619388
     2  C   -0.052171
     3  C   -0.050868
     4  O   -0.465156
     5  C    0.355283
     6  C   -0.196397
     7  C   -0.168793
     8  C   -0.106891
     9  C   -0.162289
    10  C   -0.189936
    11  H    0.403421
    12  H    0.141385
    13  H    0.141368
    14  H    0.173608
    15  H    0.173628
    16  H    0.128339
    17  H    0.120276
    18  H    0.131999
    19  H    0.118925
    20  H    0.123657
 Sum of Mulliken atomic charges =  -0.00000
 Mulliken charges with hydrogens summed into heavy atoms:
              1
     1  O   -0.215967
     2  C    0.230582
     3  C    0.296368
     4  O   -0.465156
     5  C    0.355283
     6  C   -0.068058
     7  C   -0.048517
     8  C    0.025108
     9  C   -0.043364
    10  C   -0.066280
 Sum of Mulliken charges with hydrogens summed into heavy atoms =  -0.00000
 Electronic spatial extent (au):  <R**2>=           2065.8498
 Charge=             -0.0000 electrons
 Dipole moment (field-independent basis, Debye):
    X=             -2.6369    Y=             -0.5136    Z=              0.0012  Tot=              2.6865
 Quadrupole moment (field-independent basis, Debye-Ang):
   XX=            -46.8276   YY=            -58.0857   ZZ=            -61.6251
   XY=              5.5869   XZ=             -0.0010   YZ=              0.0002
 Traceless Quadrupole moment (field-independent basis, Debye-Ang):
   XX=              8.6852   YY=             -2.5729   ZZ=             -6.1123
   XY=              5.5869   XZ=             -0.0010   YZ=              0.0002
 Octapole moment (field-independent basis, Debye-Ang**2):
  XXX=            -80.0238  YYY=             -0.7479  ZZZ=             -0.0006  XYY=             -2.5445
  XXY=            -24.3275  XXZ=             -0.0011  XZZ=            -17.3319  YZZ=             -0.7254
  YYZ=             -0.0013  XYZ=             -0.0007
 Hexadecapole moment (field-independent basis, Debye-Ang**3):
 XXXX=          -1717.7591 YYYY=           -350.8289 ZZZZ=            -73.8816 XXXY=            109.1906
 XXXZ=              0.0664 YYYX=             -3.9588 YYYZ=              0.0018 ZZZX=              0.0021
 ZZZY=              0.0000 XXYY=           -436.7173 XXZZ=           -406.9937 YYZZ=            -79.1808
 XXYZ=              0.0062 YYXZ=              0.0047 ZZXY=             -0.4222
 N-N= 4.942878235974D+02 E-N=-2.062712854400D+03  KE= 4.572304430225D+02
 No NMR shielding tensors so no spin-rotation constants.
 Leave Link  601 at Thu Sep 30 12:57:13 2021, MaxMem=  805306368 cpu:       0.8
 (Enter /sw/target/amd/app/gaussian/Gaussian09RevA.02_gcc-4.9.2/g09/l604.exe)
 Evaluate density.
 Using the total density.
 Monte-Carlo method of calculating molar volume:
 based on  0.001 e/bohr**3 density envelope.
 Number of points per bohr**3 =   20 CutOff= 1.00D-04
 Using the CI density.
 There are       363 points.  Will hold       363 in memory.
 LenV=   805214136 MDV=   805306368.
 Box volume = 5997.170 fraction occupied=0.204
 Integrated density= 4.1540021690192063D+01 error=-3.2459978309807937D+01
 Molar volume = 1222.564 bohr**3/mol (109.100 cm**3/mol)
 Recommended a0 for SCRF calculation =  4.36 angstrom (  8.25 bohr)
 Leave Link  604 at Thu Sep 30 12:57:13 2021, MaxMem=  805306368 cpu:       0.2
 (Enter /sw/target/amd/app/gaussian/Gaussian09RevA.02_gcc-4.9.2/g09/l607.exe)
 ******************************Gaussian NBO Version 3.1******************************
             N A T U R A L   A T O M I C   O R B I T A L   A N D
          N A T U R A L   B O N D   O R B I T A L   A N A L Y S I S
 ******************************Gaussian NBO Version 3.1******************************
       /RESON  / : Allow strongly delocalized NBO set

 Analyzing the CI density

 Job title: OCCOc1ccccc1_conf_0                                             

 Storage needed:     88090 in NPA ( 805304168 available)


 NATURAL POPULATIONS:  Natural atomic orbital occupancies 
                                                          
   NAO  Atom  No  lang   Type(AO)    Occupancy
 --------------------------------------------
     1    O    1  S      Cor( 1S)     1.99983
     2    O    1  S      Val( 2S)     1.69075
     3    O    1  S      Ryd( 3S)     0.00138
     4    O    1  S      Ryd( 4S)     0.00001
     5    O    1  px     Val( 2p)     1.41869
     6    O    1  px     Ryd( 3p)     0.00196
     7    O    1  py     Val( 2p)     1.67128
     8    O    1  py     Ryd( 3p)     0.00092
     9    O    1  pz     Val( 2p)     1.95975
    10    O    1  pz     Ryd( 3p)     0.00205
    11    O    1  dxy    Ryd( 3d)     0.00161
    12    O    1  dxz    Ryd( 3d)     0.00009
    13    O    1  dyz    Ryd( 3d)     0.00184
    14    O    1  dx2y2  Ryd( 3d)     0.00160
    15    O    1  dz2    Ryd( 3d)     0.00097

    16    C    2  S      Cor( 1S)     1.99930
    17    C    2  S      Val( 2S)     1.03344
    18    C    2  S      Ryd( 3S)     0.00298
    19    C    2  S      Ryd( 4S)     0.00005
    20    C    2  px     Val( 2p)     0.85398
    21    C    2  px     Ryd( 3p)     0.00195
    22    C    2  py     Val( 2p)     0.98322
    23    C    2  py     Ryd( 3p)     0.00317
    24    C    2  pz     Val( 2p)     1.22362
    25    C    2  pz     Ryd( 3p)     0.00189
    26    C    2  dxy    Ryd( 3d)     0.00170
    27    C    2  dxz    Ryd( 3d)     0.00093
    28    C    2  dyz    Ryd( 3d)     0.00209
    29    C    2  dx2y2  Ryd( 3d)     0.00117
    30    C    2  dz2    Ryd( 3d)     0.00095

    31    C    3  S      Cor( 1S)     1.99925
    32    C    3  S      Val( 2S)     1.04332
    33    C    3  S      Ryd( 3S)     0.00279
    34    C    3  S      Ryd( 4S)     0.00004
    35    C    3  px     Val( 2p)     0.84867
    36    C    3  px     Ryd( 3p)     0.00299
    37    C    3  py     Val( 2p)     0.97970
    38    C    3  py     Ryd( 3p)     0.00347
    39    C    3  pz     Val( 2p)     1.24490
    40    C    3  pz     Ryd( 3p)     0.00161
    41    C    3  dxy    Ryd( 3d)     0.00181
    42    C    3  dxz    Ryd( 3d)     0.00081
    43    C    3  dyz    Ryd( 3d)     0.00179
    44    C    3  dx2y2  Ryd( 3d)     0.00101
    45    C    3  dz2    Ryd( 3d)     0.00104

    46    O    4  S      Cor( 1S)     1.99974
    47    O    4  S      Val( 2S)     1.59528
    48    O    4  S      Ryd( 3S)     0.00099
    49    O    4  S      Ryd( 4S)     0.00009
    50    O    4  px     Val( 2p)     1.40501
    51    O    4  px     Ryd( 3p)     0.00099
    52    O    4  py     Val( 2p)     1.72015
    53    O    4  py     Ryd( 3p)     0.00237
    54    O    4  pz     Val( 2p)     1.70489
    55    O    4  pz     Ryd( 3p)     0.00242
    56    O    4  dxy    Ryd( 3d)     0.00133
    57    O    4  dxz    Ryd( 3d)     0.00050
    58    O    4  dyz    Ryd( 3d)     0.00143
    59    O    4  dx2y2  Ryd( 3d)     0.00131
    60    O    4  dz2    Ryd( 3d)     0.00074

    61    C    5  S      Cor( 1S)     1.99881
    62    C    5  S      Val( 2S)     0.84327
    63    C    5  S      Ryd( 3S)     0.00153
    64    C    5  S      Ryd( 4S)     0.00013
    65    C    5  px     Val( 2p)     0.76166
    66    C    5  px     Ryd( 3p)     0.00586
    67    C    5  py     Val( 2p)     1.06664
    68    C    5  py     Ryd( 3p)     0.00682
    69    C    5  pz     Val( 2p)     0.97878
    70    C    5  pz     Ryd( 3p)     0.00195
    71    C    5  dxy    Ryd( 3d)     0.00154
    72    C    5  dxz    Ryd( 3d)     0.00160
    73    C    5  dyz    Ryd( 3d)     0.00141
    74    C    5  dx2y2  Ryd( 3d)     0.00160
    75    C    5  dz2    Ryd( 3d)     0.00049

    76    C    6  S      Cor( 1S)     1.99905
    77    C    6  S      Val( 2S)     0.96116
    78    C    6  S      Ryd( 3S)     0.00063
    79    C    6  S      Ryd( 4S)     0.00005
    80    C    6  px     Val( 2p)     1.13417
    81    C    6  px     Ryd( 3p)     0.00362
    82    C    6  py     Val( 2p)     1.12174
    83    C    6  py     Ryd( 3p)     0.00413
    84    C    6  pz     Val( 2p)     1.09873
    85    C    6  pz     Ryd( 3p)     0.00580
    86    C    6  dxy    Ryd( 3d)     0.00078
    87    C    6  dxz    Ryd( 3d)     0.00057
    88    C    6  dyz    Ryd( 3d)     0.00050
    89    C    6  dx2y2  Ryd( 3d)     0.00060
    90    C    6  dz2    Ryd( 3d)     0.00047

    91    C    7  S      Cor( 1S)     1.99915
    92    C    7  S      Val( 2S)     0.95909
    93    C    7  S      Ryd( 3S)     0.00071
    94    C    7  S      Ryd( 4S)     0.00003
    95    C    7  px     Val( 2p)     1.05654
    96    C    7  px     Ryd( 3p)     0.00536
    97    C    7  py     Val( 2p)     1.17969
    98    C    7  py     Ryd( 3p)     0.00500
    99    C    7  pz     Val( 2p)     1.07474
   100    C    7  pz     Ryd( 3p)     0.00589
   101    C    7  dxy    Ryd( 3d)     0.00068
   102    C    7  dxz    Ryd( 3d)     0.00061
   103    C    7  dyz    Ryd( 3d)     0.00036
   104    C    7  dx2y2  Ryd( 3d)     0.00078
   105    C    7  dz2    Ryd( 3d)     0.00044

   106    C    8  S      Cor( 1S)     1.99912
   107    C    8  S      Val( 2S)     0.97410
   108    C    8  S      Ryd( 3S)     0.00053
   109    C    8  S      Ryd( 4S)     0.00003
   110    C    8  px     Val( 2p)     1.18220
   111    C    8  px     Ryd( 3p)     0.00467
   112    C    8  py     Val( 2p)     1.06655
   113    C    8  py     Ryd( 3p)     0.00472
   114    C    8  pz     Val( 2p)     0.92413
   115    C    8  pz     Ryd( 3p)     0.00258
   116    C    8  dxy    Ryd( 3d)     0.00072
   117    C    8  dxz    Ryd( 3d)     0.00035
   118    C    8  dyz    Ryd( 3d)     0.00096
   119    C    8  dx2y2  Ryd( 3d)     0.00086
   120    C    8  dz2    Ryd( 3d)     0.00044

   121    C    9  S      Cor( 1S)     1.99915
   122    C    9  S      Val( 2S)     0.96061
   123    C    9  S      Ryd( 3S)     0.00059
   124    C    9  S      Ryd( 4S)     0.00004
   125    C    9  px     Val( 2p)     1.11466
   126    C    9  px     Ryd( 3p)     0.00502
   127    C    9  py     Val( 2p)     1.12484
   128    C    9  py     Ryd( 3p)     0.00504
   129    C    9  pz     Val( 2p)     1.07315
   130    C    9  pz     Ryd( 3p)     0.00552
   131    C    9  dxy    Ryd( 3d)     0.00081
   132    C    9  dxz    Ryd( 3d)     0.00057
   133    C    9  dyz    Ryd( 3d)     0.00044
   134    C    9  dx2y2  Ryd( 3d)     0.00064
   135    C    9  dz2    Ryd( 3d)     0.00045

   136    C   10  S      Cor( 1S)     1.99907
   137    C   10  S      Val( 2S)     0.96140
   138    C   10  S      Ryd( 3S)     0.00083
   139    C   10  S      Ryd( 4S)     0.00004
   140    C   10  px     Val( 2p)     1.07000
   141    C   10  px     Ryd( 3p)     0.00544
   142    C   10  py     Val( 2p)     1.16946
   143    C   10  py     Ryd( 3p)     0.00429
   144    C   10  pz     Val( 2p)     1.09203
   145    C   10  pz     Ryd( 3p)     0.00681
   146    C   10  dxy    Ryd( 3d)     0.00082
   147    C   10  dxz    Ryd( 3d)     0.00065
   148    C   10  dyz    Ryd( 3d)     0.00039
   149    C   10  dx2y2  Ryd( 3d)     0.00056
   150    C   10  dz2    Ryd( 3d)     0.00046

   151    H   11  S      Val( 1S)     0.51780
   152    H   11  S      Ryd( 2S)     0.00125

   153    H   12  S      Val( 1S)     0.79458
   154    H   12  S      Ryd( 2S)     0.00236

   155    H   13  S      Val( 1S)     0.79460
   156    H   13  S      Ryd( 2S)     0.00236

   157    H   14  S      Val( 1S)     0.76836
   158    H   14  S      Ryd( 2S)     0.00307

   159    H   15  S      Val( 1S)     0.76833
   160    H   15  S      Ryd( 2S)     0.00307

   161    H   16  S      Val( 1S)     0.77092
   162    H   16  S      Ryd( 2S)     0.00095

   163    H   17  S      Val( 1S)     0.77097
   164    H   17  S      Ryd( 2S)     0.00086

   165    H   18  S      Val( 1S)     0.76983
   166    H   18  S      Ryd( 2S)     0.00086

   167    H   19  S      Val( 1S)     0.77079
   168    H   19  S      Ryd( 2S)     0.00083

   169    H   20  S      Val( 1S)     0.76441
   170    H   20  S      Ryd( 2S)     0.00127

 WARNING:  1 low occupancy (<1.9990e) core orbital  found on  C    5


 Summary of Natural Population Analysis:                  
                                                          
                                       Natural Population 
                Natural  -----------------------------------------------
    Atom  No    Charge         Core      Valence    Rydberg      Total
 -----------------------------------------------------------------------
      O    1   -0.75274      1.99983     6.74047    0.01243     8.75274
      C    2   -0.11045      1.99930     4.09426    0.01689     6.11045
      C    3   -0.13320      1.99925     4.11659    0.01736     6.13320
      O    4   -0.43725      1.99974     6.42533    0.01218     8.43725
      C    5    0.32790      1.99881     3.65035    0.02294     5.67210
      C    6   -0.33199      1.99905     4.31580    0.01714     6.33199
      C    7   -0.28908      1.99915     4.27007    0.01986     6.28908
      C    8   -0.16196      1.99912     4.14697    0.01587     6.16196
      C    9   -0.29152      1.99915     4.27326    0.01912     6.29152
      C   10   -0.31227      1.99907     4.29289    0.02031     6.31227
      H   11    0.48095      0.00000     0.51780    0.00125     0.51905
      H   12    0.20306      0.00000     0.79458    0.00236     0.79694
      H   13    0.20304      0.00000     0.79460    0.00236     0.79696
      H   14    0.22857      0.00000     0.76836    0.00307     0.77143
      H   15    0.22860      0.00000     0.76833    0.00307     0.77140
      H   16    0.22813      0.00000     0.77092    0.00095     0.77187
      H   17    0.22817      0.00000     0.77097    0.00086     0.77183
      H   18    0.22932      0.00000     0.76983    0.00086     0.77068
      H   19    0.22838      0.00000     0.77079    0.00083     0.77162
      H   20    0.23431      0.00000     0.76441    0.00127     0.76569
 =======================================================================
   * Total *   -0.00000     19.99246    53.81658    0.19096    74.00000

                                 Natural Population      
 --------------------------------------------------------
   Core                      19.99246 ( 99.9623% of  20)
   Valence                   53.81658 ( 99.6603% of  54)
   Natural Minimal Basis     73.80904 ( 99.7419% of  74)
   Natural Rydberg Basis      0.19096 (  0.2581% of  74)
 --------------------------------------------------------

    Atom  No          Natural Electron Configuration
 ----------------------------------------------------------------------------
      O    1      [core]2S( 1.69)2p( 5.05)3d( 0.01)
      C    2      [core]2S( 1.03)2p( 3.06)3p( 0.01)3d( 0.01)
      C    3      [core]2S( 1.04)2p( 3.07)3p( 0.01)3d( 0.01)
      O    4      [core]2S( 1.60)2p( 4.83)3p( 0.01)3d( 0.01)
      C    5      [core]2S( 0.84)2p( 2.81)3p( 0.01)3d( 0.01)
      C    6      [core]2S( 0.96)2p( 3.35)3p( 0.01)
      C    7      [core]2S( 0.96)2p( 3.31)3p( 0.02)
      C    8      [core]2S( 0.97)2p( 3.17)3p( 0.01)
      C    9      [core]2S( 0.96)2p( 3.31)3p( 0.02)
      C   10      [core]2S( 0.96)2p( 3.33)3p( 0.02)
      H   11            1S( 0.52)
      H   12            1S( 0.79)
      H   13            1S( 0.79)
      H   14            1S( 0.77)
      H   15            1S( 0.77)
      H   16            1S( 0.77)
      H   17            1S( 0.77)
      H   18            1S( 0.77)
      H   19            1S( 0.77)
      H   20            1S( 0.76)


 NBO analysis skipped by request.
 Leave Link  607 at Thu Sep 30 12:57:30 2021, MaxMem=  805306368 cpu:      10.0
 (Enter /sw/target/amd/app/gaussian/Gaussian09RevA.02_gcc-4.9.2/g09/l9999.exe)
 1\1\GINC-HERMITE\SP\RTD-B3LYP-FC\6-31G(d)\C8H10O2\JSCHLEINITZ\30-Sep-2
 021\0\\#p TD(NStates=10, Root=1) b3lyp/6-31G* volume pop=NPA density=c
 urrent Geom=AllCheck Guess=Read\\OCCOc1ccccc1_conf_0\\0,1\O,0,1.141255
 2977,-1.2841336548,0.3793537224\C,0,2.4890108612,-0.8720910443,0.56135
 93798\C,0,3.1515821198,-1.934485972,1.4249293658\O,0,4.5006810776,-1.5
 296698427,1.6139079998\C,0,5.3244337485,-2.322492691,2.3642369994\C,0,
 4.9328974467,-3.5214566604,2.9706908869\C,0,5.8653237611,-4.2498118065
 ,3.7167594493\C,0,7.1750416431,-3.7991913245,3.8640106425\C,0,7.556600
 0162,-2.5992268311,3.2537461618\C,0,6.6418615033,-1.8634012318,2.50880
 00371\H,0,0.6976278681,-0.6208468676,-0.1690968076\H,0,2.5592276504,0.
 1015520125,1.069531582\H,0,3.0302925192,-0.7934524008,-0.3936148798\H,
 0,3.0993956363,-2.9092831967,0.9214631895\H,0,2.6254289532,-2.01391237
 79,2.3858198225\H,0,3.9191043125,-3.8922138192,2.8701922152\H,0,5.5536
 85696,-5.1801133726,4.1847844646\H,0,7.8914963142,-4.3721577905,4.4454
 146109\H,0,8.5748242464,-2.2337117827,3.3589448462\H,0,6.9208504125,-0
 .9304671817,2.0286145962\\Version=AM64L-G09RevA.02\State=1-A\HF=-461.2
 919181\RMSD=4.719e-09\Dipole=-0.7269687,0.5271045,-0.5574869\Quadrupol
 e=-0.2349055,0.7985655,-0.56366,-3.8872051,3.7682832,-4.5211627\PG=C01
  [X(C8H10O2)]\\@


 IF YOU BELIEVE CERTAIN WORDS, YOU BELIEVE THEIR HIDDEN ARGUMENTS.
 WHEN YOU BELIEVE SOMETHING IS RIGHT OR WRONG, TRUE OR FALSE, 
 YOU BELIEVE THE ASSUMPTIONS IN THE WORDS WHICH EXPRESS THE ARGUMENTS.
 SUCH ASSUMPTIONS ARE OFTEN FULL OF HOLES, BUT REMAIN MOST PRECIOUS 
 TO THE CONVINCED.

                 -- THE OPEN-ENDED PROOF FROM THE PANOPLIA PROPHETICA
                    CHILDREN OF DUNE BY FRANK HERBERT
 Job cpu time:  0 days  1 hours 14 minutes 35.3 seconds.
 File lengths (MBytes):  RWF=    103 Int=      0 D2E=      0 Chk=     14 Scr=      1
 Normal termination of Gaussian 09 at Thu Sep 30 12:57:32 2021.
