 Entering Gaussian System, Link 0=g09
 Input=C8H11N_ada2_conf_0.com
 Output=C8H11N_ada2_conf_0.log
 Initial command:
 /sw/target/amd/app/gaussian/Gaussian09RevA.02_gcc-4.9.2/g09/l1.exe /home/jschleinitz/gaussian/Gau-3095919.inp -scrdir=/home/jschleinitz/gaussian/
 Entering Link 1 = /sw/target/amd/app/gaussian/Gaussian09RevA.02_gcc-4.9.2/g09/l1.exe PID=   3096198.
  
 Copyright (c) 1988,1990,1992,1993,1995,1998,2003,2009, Gaussian, Inc.
                  All Rights Reserved.
  
 This is part of the Gaussian(R) 09 program.  It is based on
 the Gaussian(R) 03 system (copyright 2003, Gaussian, Inc.),
 the Gaussian(R) 98 system (copyright 1998, Gaussian, Inc.),
 the Gaussian(R) 94 system (copyright 1995, Gaussian, Inc.),
 the Gaussian 92(TM) system (copyright 1992, Gaussian, Inc.),
 the Gaussian 90(TM) system (copyright 1990, Gaussian, Inc.),
 the Gaussian 88(TM) system (copyright 1988, Gaussian, Inc.),
 the Gaussian 86(TM) system (copyright 1986, Carnegie Mellon
 University), and the Gaussian 82(TM) system (copyright 1983,
 Carnegie Mellon University). Gaussian is a federally registered
 trademark of Gaussian, Inc.
  
 This software contains proprietary and confidential information,
 including trade secrets, belonging to Gaussian, Inc.
  
 This software is provided under written license and may be
 used, copied, transmitted, or stored only in accord with that
 written license.
  
 The following legend is applicable only to US Government
 contracts under FAR:
  
                    RESTRICTED RIGHTS LEGEND
  
 Use, reproduction and disclosure by the US Government is
 subject to restrictions as set forth in subparagraphs (a)
 and (c) of the Commercial Computer Software - Restricted
 Rights clause in FAR 52.227-19.
  
 Gaussian, Inc.
 340 Quinnipiac St., Bldg. 40, Wallingford CT 06492
  
  
 ---------------------------------------------------------------
 Warning -- This program may not be used in any manner that
 competes with the business of Gaussian, Inc. or will provide
 assistance to any competitor of Gaussian, Inc.  The licensee
 of this program is prohibited from giving any competitor of
 Gaussian, Inc. access to this program.  By using this program,
 the user acknowledges that Gaussian, Inc. is engaged in the
 business of creating and licensing software in the field of
 computational chemistry and represents and warrants to the
 licensee that it is not a competitor of Gaussian, Inc. and that
 it will not use this program in any manner prohibited above.
 ---------------------------------------------------------------
  

 Cite this work as:
 Gaussian 09, Revision A.02,
 M. J. Frisch, G. W. Trucks, H. B. Schlegel, G. E. Scuseria, 
 M. A. Robb, J. R. Cheeseman, G. Scalmani, V. Barone, B. Mennucci, 
 G. A. Petersson, H. Nakatsuji, M. Caricato, X. Li, H. P. Hratchian, 
 A. F. Izmaylov, J. Bloino, G. Zheng, J. L. Sonnenberg, M. Hada, 
 M. Ehara, K. Toyota, R. Fukuda, J. Hasegawa, M. Ishida, T. Nakajima, 
 Y. Honda, O. Kitao, H. Nakai, T. Vreven, J. A. Montgomery, Jr., 
 J. E. Peralta, F. Ogliaro, M. Bearpark, J. J. Heyd, E. Brothers, 
 K. N. Kudin, V. N. Staroverov, R. Kobayashi, J. Normand, 
 K. Raghavachari, A. Rendell, J. C. Burant, S. S. Iyengar, J. Tomasi, 
 M. Cossi, N. Rega, J. M. Millam, M. Klene, J. E. Knox, J. B. Cross, 
 V. Bakken, C. Adamo, J. Jaramillo, R. Gomperts, R. E. Stratmann, 
 O. Yazyev, A. J. Austin, R. Cammi, C. Pomelli, J. W. Ochterski, 
 R. L. Martin, K. Morokuma, V. G. Zakrzewski, G. A. Voth, 
 P. Salvador, J. J. Dannenberg, S. Dapprich, A. D. Daniels, 
 O. Farkas, J. B. Foresman, J. V. Ortiz, J. Cioslowski, 
 and D. J. Fox, Gaussian, Inc., Wallingford CT, 2009.
 
 ******************************************
 Gaussian 09:  AM64L-G09RevA.02 11-Jun-2009
                 4-Oct-2021 
 ******************************************
 %nproc=3
 Will use up to    3 processors via shared memory.
 %mem=6gb
 %chk=C8H11N_ada2_conf_0.chk
 -----------------------------------
 #p opt b3lyp/6-31G* scf=(xqc,tight)
 -----------------------------------
 1/14=-1,18=20,19=15,26=3,38=1/1,3;
 2/9=110,12=2,17=6,18=5,40=1/2;
 3/5=1,6=6,7=1,11=2,16=1,25=1,30=1,71=1,74=-5/1,2,3;
 4//1;
 5/5=2,8=3,13=1,32=2,38=5/2,8;
 6/7=2,8=2,9=2,10=2,28=1/1;
 7//1,2,3,16;
 1/14=-1,18=20,19=15/3(2);
 2/9=110/2;
 99//99;
 2/9=110/2;
 3/5=1,6=6,7=1,11=2,16=1,25=1,30=1,71=1,74=-5/1,2,3;
 4/5=5,16=3/1;
 5/5=2,8=3,13=1,32=2,38=5/2,8;
 7//1,2,3,16;
 1/14=-1,18=20,19=15/3(-5);
 2/9=110/2;
 6/7=2,8=2,9=2,10=2,19=2,28=1/1;
 99/9=1/99;
 Leave Link    1 at Mon Oct  4 21:19:03 2021, MaxMem=  805306368 cpu:       0.1
 (Enter /sw/target/amd/app/gaussian/Gaussian09RevA.02_gcc-4.9.2/g09/l101.exe)
 --------------------
 Cc1cccc(c1N)C_conf_0
 --------------------
 Symbolic Z-matrix:
 Charge =  0 Multiplicity = 1
 C                    -2.54186  -0.76052  -0.03407 
 C                    -1.21364  -0.05309  -0.00992 
 C                    -1.20153   1.35247   0.01213 
 C                    -0.00017   2.05169   0.02756 
 C                     1.20402   1.35622   0.02125 
 C                     1.22087  -0.04788  -0.00305 
 C                     0.00444  -0.76623   0.01202 
 N                     0.00718  -2.16041  -0.18439 
 C                     2.55135  -0.75172  -0.02731 
 H                    -3.37786  -0.05271  -0.05004 
 H                    -2.65457  -1.37755   0.86374 
 H                    -2.62544  -1.38951  -0.92522 
 H                    -2.13581   1.9107    0.00409 
 H                    -0.00201   3.13866   0.03219 
 H                     2.13562   1.91743   0.02051 
 H                     0.84595  -2.62469   0.14455 
 H                    -0.83267  -2.62763   0.13389 
 H                     3.38483  -0.04067  -0.03309 
 H                     2.64069  -1.37104  -0.92695 
 H                     2.66285  -1.37874   0.86247 
 
 NAtoms=     20 NQM=     20 NQMF=      0 NMic=      0 NMicF=      0 NTot=     20.
                    Isotopes and Nuclear Properties:
 (Nuclear quadrupole moments (NQMom) in fm**2, nuclear magnetic moments (NMagM)
  in nuclear magnetons)

  Atom         1           2           3           4           5           6           7           8           9          10
 IAtWgt=          12          12          12          12          12          12          12          14          12           1
 AtmWgt=  12.0000000  12.0000000  12.0000000  12.0000000  12.0000000  12.0000000  12.0000000  14.0030740  12.0000000   1.0078250
 NucSpn=           0           0           0           0           0           0           0           2           0           1
 AtZEff=   0.0000000   0.0000000   0.0000000   0.0000000   0.0000000   0.0000000   0.0000000   0.0000000   0.0000000   0.0000000
 NQMom=    0.0000000   0.0000000   0.0000000   0.0000000   0.0000000   0.0000000   0.0000000   2.0440000   0.0000000   0.0000000
 NMagM=    0.0000000   0.0000000   0.0000000   0.0000000   0.0000000   0.0000000   0.0000000   0.4037610   0.0000000   2.7928460

  Atom        11          12          13          14          15          16          17          18          19          20
 IAtWgt=           1           1           1           1           1           1           1           1           1           1
 AtmWgt=   1.0078250   1.0078250   1.0078250   1.0078250   1.0078250   1.0078250   1.0078250   1.0078250   1.0078250   1.0078250
 NucSpn=           1           1           1           1           1           1           1           1           1           1
 AtZEff=   0.0000000   0.0000000   0.0000000   0.0000000   0.0000000   0.0000000   0.0000000   0.0000000   0.0000000   0.0000000
 NQMom=    0.0000000   0.0000000   0.0000000   0.0000000   0.0000000   0.0000000   0.0000000   0.0000000   0.0000000   0.0000000
 NMagM=    2.7928460   2.7928460   2.7928460   2.7928460   2.7928460   2.7928460   2.7928460   2.7928460   2.7928460   2.7928460
 Leave Link  101 at Mon Oct  4 21:19:03 2021, MaxMem=  805306368 cpu:       0.2
 (Enter /sw/target/amd/app/gaussian/Gaussian09RevA.02_gcc-4.9.2/g09/l103.exe)

 GradGradGradGradGradGradGradGradGradGradGradGradGradGradGradGradGradGrad
 Berny optimization.
 Initialization pass.
                           ----------------------------
                           !    Initial Parameters    !
                           ! (Angstroms and Degrees)  !
 --------------------------                            --------------------------
 ! Name  Definition              Value          Derivative Info.                !
 --------------------------------------------------------------------------------
 ! R1    R(1,2)                  1.5051         estimate D2E/DX2                !
 ! R2    R(1,10)                 1.0955         estimate D2E/DX2                !
 ! R3    R(1,11)                 1.0952         estimate D2E/DX2                !
 ! R4    R(1,12)                 1.094          estimate D2E/DX2                !
 ! R5    R(2,3)                  1.4058         estimate D2E/DX2                !
 ! R6    R(2,7)                  1.4117         estimate D2E/DX2                !
 ! R7    R(3,4)                  1.3901         estimate D2E/DX2                !
 ! R8    R(3,13)                 1.0884         estimate D2E/DX2                !
 ! R9    R(4,5)                  1.3906         estimate D2E/DX2                !
 ! R10   R(4,14)                 1.087          estimate D2E/DX2                !
 ! R11   R(5,6)                  1.4044         estimate D2E/DX2                !
 ! R12   R(5,15)                 1.0876         estimate D2E/DX2                !
 ! R13   R(6,7)                  1.4128         estimate D2E/DX2                !
 ! R14   R(6,9)                  1.5054         estimate D2E/DX2                !
 ! R15   R(7,8)                  1.408          estimate D2E/DX2                !
 ! R16   R(8,16)                 1.0136         estimate D2E/DX2                !
 ! R17   R(8,17)                 1.0124         estimate D2E/DX2                !
 ! R18   R(9,18)                 1.0956         estimate D2E/DX2                !
 ! R19   R(9,19)                 1.0958         estimate D2E/DX2                !
 ! R20   R(9,20)                 1.0942         estimate D2E/DX2                !
 ! A1    A(2,1,10)             111.7155         estimate D2E/DX2                !
 ! A2    A(2,1,11)             110.0282         estimate D2E/DX2                !
 ! A3    A(2,1,12)             110.5337         estimate D2E/DX2                !
 ! A4    A(10,1,11)            107.3023         estimate D2E/DX2                !
 ! A5    A(10,1,12)            107.5358         estimate D2E/DX2                !
 ! A6    A(11,1,12)            109.6322         estimate D2E/DX2                !
 ! A7    A(1,2,3)              118.5426         estimate D2E/DX2                !
 ! A8    A(1,2,7)              121.62           estimate D2E/DX2                !
 ! A9    A(3,2,7)              119.8298         estimate D2E/DX2                !
 ! A10   A(2,3,4)              120.6991         estimate D2E/DX2                !
 ! A11   A(2,3,13)             120.3517         estimate D2E/DX2                !
 ! A12   A(4,3,13)             118.9444         estimate D2E/DX2                !
 ! A13   A(3,4,5)              119.7858         estimate D2E/DX2                !
 ! A14   A(3,4,14)             120.1038         estimate D2E/DX2                !
 ! A15   A(5,4,14)             120.1062         estimate D2E/DX2                !
 ! A16   A(4,5,6)              120.6955         estimate D2E/DX2                !
 ! A17   A(4,5,15)             118.9257         estimate D2E/DX2                !
 ! A18   A(6,5,15)             120.3726         estimate D2E/DX2                !
 ! A19   A(5,6,7)              119.8568         estimate D2E/DX2                !
 ! A20   A(5,6,9)              118.5762         estimate D2E/DX2                !
 ! A21   A(7,6,9)              121.5624         estimate D2E/DX2                !
 ! A22   A(2,7,6)              119.0727         estimate D2E/DX2                !
 ! A23   A(2,7,8)              119.9837         estimate D2E/DX2                !
 ! A24   A(6,7,8)              120.0215         estimate D2E/DX2                !
 ! A25   A(7,8,16)             114.2003         estimate D2E/DX2                !
 ! A26   A(7,8,17)             114.2999         estimate D2E/DX2                !
 ! A27   A(16,8,17)            111.9052         estimate D2E/DX2                !
 ! A28   A(6,9,18)             111.655          estimate D2E/DX2                !
 ! A29   A(6,9,19)             110.4583         estimate D2E/DX2                !
 ! A30   A(6,9,20)             110.1739         estimate D2E/DX2                !
 ! A31   A(18,9,19)            107.4836         estimate D2E/DX2                !
 ! A32   A(18,9,20)            107.3779         estimate D2E/DX2                !
 ! A33   A(19,9,20)            109.5981         estimate D2E/DX2                !
 ! D1    D(10,1,2,3)             1.0556         estimate D2E/DX2                !
 ! D2    D(10,1,2,7)          -179.9466         estimate D2E/DX2                !
 ! D3    D(11,1,2,3)          -118.0169         estimate D2E/DX2                !
 ! D4    D(11,1,2,7)            60.9809         estimate D2E/DX2                !
 ! D5    D(12,1,2,3)           120.7578         estimate D2E/DX2                !
 ! D6    D(12,1,2,7)           -60.2444         estimate D2E/DX2                !
 ! D7    D(1,2,3,4)           -179.6481         estimate D2E/DX2                !
 ! D8    D(1,2,3,13)            -0.4589         estimate D2E/DX2                !
 ! D9    D(7,2,3,4)              1.3356         estimate D2E/DX2                !
 ! D10   D(7,2,3,13)          -179.4752         estimate D2E/DX2                !
 ! D11   D(1,2,7,6)            178.2738         estimate D2E/DX2                !
 ! D12   D(1,2,7,8)              9.2584         estimate D2E/DX2                !
 ! D13   D(3,2,7,6)             -2.7411         estimate D2E/DX2                !
 ! D14   D(3,2,7,8)           -171.7564         estimate D2E/DX2                !
 ! D15   D(2,3,4,5)             -0.0038         estimate D2E/DX2                !
 ! D16   D(2,3,4,14)           179.2457         estimate D2E/DX2                !
 ! D17   D(13,3,4,5)          -179.2042         estimate D2E/DX2                !
 ! D18   D(13,3,4,14)            0.0453         estimate D2E/DX2                !
 ! D19   D(3,4,5,6)              0.1171         estimate D2E/DX2                !
 ! D20   D(3,4,5,15)           179.2171         estimate D2E/DX2                !
 ! D21   D(14,4,5,6)          -179.1324         estimate D2E/DX2                !
 ! D22   D(14,4,5,15)           -0.0324         estimate D2E/DX2                !
 ! D23   D(4,5,6,7)             -1.5604         estimate D2E/DX2                !
 ! D24   D(4,5,6,9)            179.202          estimate D2E/DX2                !
 ! D25   D(15,5,6,7)           179.3526         estimate D2E/DX2                !
 ! D26   D(15,5,6,9)             0.115          estimate D2E/DX2                !
 ! D27   D(5,6,7,2)              2.8529         estimate D2E/DX2                !
 ! D28   D(5,6,7,8)            171.864          estimate D2E/DX2                !
 ! D29   D(9,6,7,2)           -177.9328         estimate D2E/DX2                !
 ! D30   D(9,6,7,8)             -8.9218         estimate D2E/DX2                !
 ! D31   D(5,6,9,18)            -0.5846         estimate D2E/DX2                !
 ! D32   D(5,6,9,19)          -120.1308         estimate D2E/DX2                !
 ! D33   D(5,6,9,20)           118.6399         estimate D2E/DX2                !
 ! D34   D(7,6,9,18)          -179.8086         estimate D2E/DX2                !
 ! D35   D(7,6,9,19)            60.6452         estimate D2E/DX2                !
 ! D36   D(7,6,9,20)           -60.5841         estimate D2E/DX2                !
 ! D37   D(2,7,8,16)          -160.7028         estimate D2E/DX2                !
 ! D38   D(2,7,8,17)           -30.033          estimate D2E/DX2                !
 ! D39   D(6,7,8,16)            30.3868         estimate D2E/DX2                !
 ! D40   D(6,7,8,17)           161.0566         estimate D2E/DX2                !
 --------------------------------------------------------------------------------
 Trust Radius=3.00D-01 FncErr=1.00D-07 GrdErr=1.00D-06
 Number of steps in this run= 103 maximum allowed number of steps= 120.
 GradGradGradGradGradGradGradGradGradGradGradGradGradGradGradGradGradGrad

 Leave Link  103 at Mon Oct  4 21:19:15 2021, MaxMem=  805306368 cpu:       0.0
 (Enter /sw/target/amd/app/gaussian/Gaussian09RevA.02_gcc-4.9.2/g09/l202.exe)
                          Input orientation:                          
 ---------------------------------------------------------------------
 Center     Atomic      Atomic             Coordinates (Angstroms)
 Number     Number       Type             X           Y           Z
 ---------------------------------------------------------------------
      1          6           0       -2.541856   -0.760519   -0.034074
      2          6           0       -1.213635   -0.053085   -0.009918
      3          6           0       -1.201528    1.352472    0.012130
      4          6           0       -0.000169    2.051686    0.027563
      5          6           0        1.204020    1.356215    0.021254
      6          6           0        1.220868   -0.047884   -0.003050
      7          6           0        0.004441   -0.766226    0.012018
      8          7           0        0.007182   -2.160409   -0.184395
      9          6           0        2.551350   -0.751721   -0.027315
     10          1           0       -3.377865   -0.052710   -0.050043
     11          1           0       -2.654574   -1.377554    0.863736
     12          1           0       -2.625442   -1.389514   -0.925224
     13          1           0       -2.135810    1.910697    0.004086
     14          1           0       -0.002014    3.138662    0.032190
     15          1           0        2.135617    1.917435    0.020510
     16          1           0        0.845947   -2.624689    0.144553
     17          1           0       -0.832670   -2.627631    0.133892
     18          1           0        3.384835   -0.040671   -0.033094
     19          1           0        2.640694   -1.371038   -0.926950
     20          1           0        2.662845   -1.378737    0.862469
 ---------------------------------------------------------------------
                    Distance matrix (angstroms):
                    1          2          3          4          5
     1  C    0.000000
     2  C    1.505064   0.000000
     3  C    2.502668   1.405782   0.000000
     4  C    3.791104   2.429808   1.390108   0.000000
     5  C    4.302931   2.798599   2.405568   1.390608   0.000000
     6  C    3.829740   2.434519   2.798076   2.429005   1.404411
     7  C    2.546721   1.411652   2.437877   2.817959   2.437997
     8  N    2.912024   2.441650   3.720207   4.217432   3.720398
     9  C    5.093217   3.829296   4.302705   3.791089   2.502209
    10  H    1.095518   2.164602   2.591302   3.980369   4.794145
    11  H    1.095217   2.143314   3.207743   4.416417   4.803334
    12  H    1.093969   2.148727   3.228723   4.431898   4.806208
    13  H    2.702170   2.169572   1.088376   2.140418   3.385588
    14  H    4.653902   3.414242   2.151676   1.086987   2.152151
    15  H    5.390099   3.886048   3.384640   2.140013   1.087585
    16  H    3.870949   3.298315   4.475209   4.753744   3.998877
    17  H    2.536856   2.606550   3.999013   4.753986   4.475693
    18  H    5.970246   4.598545   4.793497   3.979936   2.590405
    19  H    5.294222   4.175380   4.802296   4.427222   3.225063
    20  H    5.317415   4.188736   4.807906   4.422275   3.211819
                    6          7          8          9         10
     6  C    0.000000
     7  C    1.412776   0.000000
     8  N    2.443089   1.407953   0.000000
     9  C    1.505376   2.547253   2.912364   0.000000
    10  H    4.598976   3.457304   3.989861   5.970320   0.000000
    11  H    4.187887   2.858235   2.965870   5.318579   1.764470
    12  H    4.176659   2.860629   2.841447   5.292655   1.766105
    13  H    3.886307   3.427339   4.604546   5.390632   2.323918
    14  H    3.413321   3.904945   5.303504   4.653847   4.646287
    15  H    2.167902   3.426955   4.604458   2.701761   5.855334
    16  H    2.608117   2.044402   1.013552   2.538887   4.949094
    17  H    3.300132   2.044612   1.012401   3.872547   3.625199
    18  H    2.164187   3.457676   3.990579   1.095593   6.762731
    19  H    2.149473   2.863090   2.847785   1.095847   6.223343
    20  H    2.144665   2.857543   2.959643   1.094210   6.251496
                   11         12         13         14         15
    11  H    0.000000
    12  H    1.789237   0.000000
    13  H    3.438125   3.463343   0.000000
    14  H    5.303183   5.320093   2.462067   0.000000
    15  H    5.874854   5.873501   4.271464   2.461910   0.000000
    16  H    3.784999   3.836746   5.429579   5.826481   4.723296
    17  H    2.326951   2.422538   4.723499   5.826704   5.429661
    18  H    6.250281   6.224042   5.855487   4.645769   2.323273
    19  H    5.589853   5.266169   5.869548   5.314250   3.459312
    20  H    5.317420   5.582289   5.880841   5.310154   3.442617
                   16         17         18         19         20
    16  H    0.000000
    17  H    1.678654   0.000000
    18  H    3.626935   4.950515   0.000000
    19  H    2.437391   3.843003   1.767088   0.000000
    20  H    2.317093   3.782750   1.764574   1.789573   0.000000
 Stoichiometry    C8H11N
 Framework group  C1[X(C8H11N)]
 Deg. of freedom    54
 Full point group                 C1      NOp   1
 Largest Abelian subgroup         C1      NOp   1
 Largest concise Abelian subgroup C1      NOp   1
                         Standard orientation:                         
 ---------------------------------------------------------------------
 Center     Atomic      Atomic             Coordinates (Angstroms)
 Number     Number       Type             X           Y           Z
 ---------------------------------------------------------------------
      1          6           0       -2.546823   -0.683636    0.005420
      2          6           0       -1.217105    0.021382    0.009509
      3          6           0       -1.202060    1.427021   -0.003725
      4          6           0        0.000764    2.123870   -0.007929
      5          6           0        1.203503    1.425925    0.001106
      6          6           0        1.217412    0.021625    0.011997
      7          6           0       -0.000464   -0.693549    0.047198
      8          7           0       -0.000952   -2.092222   -0.114189
      9          6           0        2.546394   -0.685400    0.003071
     10          1           0       -3.381398    0.025310   -0.026837
     11          1           0       -2.659200   -1.277723    0.918620
     12          1           0       -2.633308   -1.334603   -0.869526
     13          1           0       -2.135202    1.986836   -0.024137
     14          1           0        0.001169    3.210622   -0.030563
     15          1           0        2.136253    1.984985   -0.015340
     16          1           0        0.837444   -2.549872    0.224836
     17          1           0       -0.841192   -2.549545    0.217180
     18          1           0        3.381331    0.023524   -0.021994
     19          1           0        2.632844   -1.327270   -0.880903
     20          1           0        2.658195   -1.290139    0.908105
 ---------------------------------------------------------------------
 Rotational constants (GHZ):      2.2653632      1.7346655      0.9960797
 Leave Link  202 at Mon Oct  4 21:19:15 2021, MaxMem=  805306368 cpu:       0.0
 (Enter /sw/target/amd/app/gaussian/Gaussian09RevA.02_gcc-4.9.2/g09/l301.exe)
 Standard basis: 6-31G(d) (6D, 7F)
 Ernie: Thresh=  0.10000D-02 Tol=  0.10000D-05 Strict=F.
 There are   157 symmetry adapted basis functions of A   symmetry.
 Integral buffers will be    131072 words long.
 Raffenetti 2 integral format.
 Two-electron integral symmetry is turned on.
   157 basis functions,   296 primitive gaussians,   157 cartesian basis functions
    33 alpha electrons       33 beta electrons
       nuclear repulsion energy       430.0418362535 Hartrees.
 IExCor=  402 DFT=T Ex+Corr=B3LYP ExCW=0 ScaHFX=  0.200000
 ScaDFX=  0.800000  0.720000  1.000000  0.810000 ScalE2=  1.000000  1.000000
 IRadAn=      0 IRanWt=     -1 IRanGd=            0 ICorTp=0
 NAtoms=   20 NActive=   20 NUniq=   20 SFac= 7.50D-01 NAtFMM=   80 NAOKFM=F Big=F
 Leave Link  301 at Mon Oct  4 21:19:15 2021, MaxMem=  805306368 cpu:       0.1
 (Enter /sw/target/amd/app/gaussian/Gaussian09RevA.02_gcc-4.9.2/g09/l302.exe)
 NPDir=0 NMtPBC=     1 NCelOv=     1 NCel=       1 NClECP=     1 NCelD=      1
         NCelK=      1 NCelE2=     1 NClLst=     1 CellRange=     0.0.
 One-electron integrals computed using PRISM.
 NBasis=   157 RedAO= T  NBF=   157
 NBsUse=   157 1.00D-06 NBFU=   157
 Precomputing XC quadrature grid using
 IXCGrd= 2 IRadAn=           0 IRanWt=          -1 IRanGd=           0 AccXCQ= 1.00D-10.
 NRdTot=    1248 NPtTot=      158612 NUsed=      167621 NTot=      167653
 NSgBfM=   157   157   157   157   157 NAtAll=    20    20.
 Leave Link  302 at Mon Oct  4 21:19:16 2021, MaxMem=  805306368 cpu:       1.3
 (Enter /sw/target/amd/app/gaussian/Gaussian09RevA.02_gcc-4.9.2/g09/l303.exe)
 DipDrv:  MaxL=1.
 Leave Link  303 at Mon Oct  4 21:19:16 2021, MaxMem=  805306368 cpu:       0.1
 (Enter /sw/target/amd/app/gaussian/Gaussian09RevA.02_gcc-4.9.2/g09/l401.exe)
 Harris functional with IExCor=  402 diagonalized for initial guess.
 ExpMin= 1.61D-01 ExpMax= 4.17D+03 ExpMxC= 6.27D+02 IAcc=1 IRadAn=         1 AccDes= 0.00D+00
 HarFok:  IExCor=  402 AccDes= 0.00D+00 IRadAn=         1 IDoV= 1
 ScaDFX=  1.000000  1.000000  1.000000  1.000000
 FoFCou: FMM=F IPFlag=           0 FMFlag=      100000 FMFlg1=           0
         NFxFlg=           0 DoJE=T BraDBF=F KetDBF=T FulRan=T
         Omega=  0.000000  0.000000  1.000000  0.000000  0.000000 ICntrl=     500 IOpCl=  0
         NMat0=    1 NMatS0=    1 NMatT0=    0 NMatD0=    1 NMtDS0=    0 NMtDT0=    0
         I1Cent=           4 NGrid=           0.
 Petite list used in FoFCou.
 Harris En= -366.323675796302    
 Initial guess orbital symmetries:
       Occupied  (A) (A) (A) (A) (A) (A) (A) (A) (A) (A) (A) (A)
                 (A) (A) (A) (A) (A) (A) (A) (A) (A) (A) (A) (A)
                 (A) (A) (A) (A) (A) (A) (A) (A) (A)
       Virtual   (A) (A) (A) (A) (A) (A) (A) (A) (A) (A) (A) (A)
                 (A) (A) (A) (A) (A) (A) (A) (A) (A) (A) (A) (A)
                 (A) (A) (A) (A) (A) (A) (A) (A) (A) (A) (A) (A)
                 (A) (A) (A) (A) (A) (A) (A) (A) (A) (A) (A) (A)
                 (A) (A) (A) (A) (A) (A) (A) (A) (A) (A) (A) (A)
                 (A) (A) (A) (A) (A) (A) (A) (A) (A) (A) (A) (A)
                 (A) (A) (A) (A) (A) (A) (A) (A) (A) (A) (A) (A)
                 (A) (A) (A) (A) (A) (A) (A) (A) (A) (A) (A) (A)
                 (A) (A) (A) (A) (A) (A) (A) (A) (A) (A) (A) (A)
                 (A) (A) (A) (A) (A) (A) (A) (A) (A) (A) (A) (A)
                 (A) (A) (A) (A)
 The electronic state of the initial guess is 1-A.
 Leave Link  401 at Mon Oct  4 21:19:25 2021, MaxMem=  805306368 cpu:       4.9
 (Enter /sw/target/amd/app/gaussian/Gaussian09RevA.02_gcc-4.9.2/g09/l502.exe)
 Closed shell SCF:
 Requested convergence on RMS density matrix=1.00D-08 within  64 cycles.
 Requested convergence on MAX density matrix=1.00D-06.
 Requested convergence on             energy=1.00D-06.
 No special actions if energy rises.
 Using DIIS extrapolation, IDIIS=  1040.
 Integral symmetry usage will be decided dynamically.
       167428 words used for storage of precomputed grid.
 Keep R1 ints in memory in canonical form, NReq=79144549.
 IEnd=      249052 IEndB=      249052 NGot=   805306368 MDV=   728162913
 LenX=   728162913 LenY=   728137823
 Symmetry not used in FoFDir.
 MinBra= 0 MaxBra= 2 Meth= 1.
 IRaf=       0 NMat=   1 IRICut=       1 DoRegI=T DoRafI=F ISym2E= 0 JSym2E=0.
 Integral accuracy reduced to 1.0D-05 until final iterations.

 Cycle   1  Pass 0  IDiag  1:
 E= -365.943006472627    
 DIIS: error= 5.51D-02 at cycle   1 NSaved=   1.
 NSaved= 1 IEnMin= 1 EnMin= -365.943006472627     IErMin= 1 ErrMin= 5.51D-02
 ErrMax= 5.51D-02 EMaxC= 1.00D-01 BMatC= 2.67D-01 BMatP= 2.67D-01
 IDIUse=3 WtCom= 4.49D-01 WtEn= 5.51D-01
 Coeff-Com:  0.100D+01
 Coeff-En:   0.100D+01
 Coeff:      0.100D+01
 Gap=     0.219 Goal=   None    Shift=    0.000
 GapD=    0.219 DampG=1.000 DampE=0.500 DampFc=0.5000 IDamp=-1.
 Damping current iteration by 5.00D-01
 RMSDP=7.87D-03 MaxDP=1.49D-01              OVMax= 1.68D-01

 Cycle   2  Pass 0  IDiag  1:
 E= -366.080348614534     Delta-E=       -0.137342141907 Rises=F Damp=T
 DIIS: error= 6.62D-03 at cycle   2 NSaved=   2.
 NSaved= 2 IEnMin= 2 EnMin= -366.080348614534     IErMin= 2 ErrMin= 6.62D-03
 ErrMax= 6.62D-03 EMaxC= 1.00D-01 BMatC= 9.38D-03 BMatP= 2.67D-01
 IDIUse=3 WtCom= 9.34D-01 WtEn= 6.62D-02
 Coeff-Com:  0.335D-01 0.967D+00
 Coeff-En:   0.490D-01 0.951D+00
 Coeff:      0.345D-01 0.965D+00
 Gap=     0.267 Goal=   None    Shift=    0.000
 RMSDP=1.77D-03 MaxDP=3.18D-02 DE=-1.37D-01 OVMax= 9.89D-02

 Cycle   3  Pass 0  IDiag  1:
 E= -366.232090939040     Delta-E=       -0.151742324506 Rises=F Damp=F
 DIIS: error= 3.34D-03 at cycle   3 NSaved=   3.
 NSaved= 3 IEnMin= 3 EnMin= -366.232090939040     IErMin= 3 ErrMin= 3.34D-03
 ErrMax= 3.34D-03 EMaxC= 1.00D-01 BMatC= 2.24D-03 BMatP= 9.38D-03
 IDIUse=3 WtCom= 9.67D-01 WtEn= 3.34D-02
 Coeff-Com: -0.126D-01 0.276D+00 0.737D+00
 Coeff-En:   0.000D+00 0.000D+00 0.100D+01
 Coeff:     -0.122D-01 0.266D+00 0.746D+00
 Gap=     0.212 Goal=   None    Shift=    0.000
 RMSDP=5.56D-04 MaxDP=2.05D-02 DE=-1.52D-01 OVMax= 3.29D-02

 Cycle   4  Pass 0  IDiag  1:
 E= -366.232236349739     Delta-E=       -0.000145410699 Rises=F Damp=F
 DIIS: error= 3.62D-03 at cycle   4 NSaved=   4.
 NSaved= 4 IEnMin= 4 EnMin= -366.232236349739     IErMin= 3 ErrMin= 3.34D-03
 ErrMax= 3.62D-03 EMaxC= 1.00D-01 BMatC= 1.90D-03 BMatP= 2.24D-03
 IDIUse=3 WtCom= 9.64D-01 WtEn= 3.62D-02
 Coeff-Com: -0.100D-01 0.684D-01 0.488D+00 0.454D+00
 Coeff-En:   0.000D+00 0.000D+00 0.486D+00 0.514D+00
 Coeff:     -0.966D-02 0.659D-01 0.487D+00 0.456D+00
 Gap=     0.210 Goal=   None    Shift=    0.000
 RMSDP=3.69D-04 MaxDP=1.01D-02 DE=-1.45D-04 OVMax= 1.97D-02

 Cycle   5  Pass 0  IDiag  1:
 E= -366.234254802933     Delta-E=       -0.002018453194 Rises=F Damp=F
 DIIS: error= 7.79D-04 at cycle   5 NSaved=   5.
 NSaved= 5 IEnMin= 5 EnMin= -366.234254802933     IErMin= 5 ErrMin= 7.79D-04
 ErrMax= 7.79D-04 EMaxC= 1.00D-01 BMatC= 6.79D-05 BMatP= 1.90D-03
 IDIUse=3 WtCom= 9.92D-01 WtEn= 7.79D-03
 Coeff-Com: -0.327D-02 0.133D-01 0.187D+00 0.232D+00 0.571D+00
 Coeff-En:   0.000D+00 0.000D+00 0.000D+00 0.000D+00 0.100D+01
 Coeff:     -0.325D-02 0.132D-01 0.186D+00 0.230D+00 0.574D+00
 Gap=     0.210 Goal=   None    Shift=    0.000
 RMSDP=7.61D-05 MaxDP=1.79D-03 DE=-2.02D-03 OVMax= 4.59D-03

 Cycle   6  Pass 0  IDiag  1:
 E= -366.234320466441     Delta-E=       -0.000065663508 Rises=F Damp=F
 DIIS: error= 2.27D-04 at cycle   6 NSaved=   6.
 NSaved= 6 IEnMin= 6 EnMin= -366.234320466441     IErMin= 6 ErrMin= 2.27D-04
 ErrMax= 2.27D-04 EMaxC= 1.00D-01 BMatC= 1.00D-05 BMatP= 6.79D-05
 IDIUse=3 WtCom= 9.98D-01 WtEn= 2.27D-03
 Coeff-Com: -0.795D-03 0.489D-03 0.571D-01 0.858D-01 0.336D+00 0.522D+00
 Coeff-En:   0.000D+00 0.000D+00 0.000D+00 0.000D+00 0.827D-01 0.917D+00
 Coeff:     -0.793D-03 0.487D-03 0.569D-01 0.857D-01 0.335D+00 0.522D+00
 Gap=     0.210 Goal=   None    Shift=    0.000
 RMSDP=2.04D-05 MaxDP=6.15D-04 DE=-6.57D-05 OVMax= 8.98D-04

 Cycle   7  Pass 0  IDiag  1:
 E= -366.234329838087     Delta-E=       -0.000009371646 Rises=F Damp=F
 DIIS: error= 1.61D-05 at cycle   7 NSaved=   7.
 NSaved= 7 IEnMin= 7 EnMin= -366.234329838087     IErMin= 7 ErrMin= 1.61D-05
 ErrMax= 1.61D-05 EMaxC= 1.00D-01 BMatC= 7.00D-08 BMatP= 1.00D-05
 IDIUse=1 WtCom= 1.00D+00 WtEn= 0.00D+00
 Coeff-Com: -0.139D-03-0.329D-03 0.151D-01 0.234D-01 0.101D+00 0.169D+00
 Coeff-Com:  0.692D+00
 Coeff:     -0.139D-03-0.329D-03 0.151D-01 0.234D-01 0.101D+00 0.169D+00
 Coeff:      0.692D+00
 Gap=     0.210 Goal=   None    Shift=    0.000
 RMSDP=2.44D-06 MaxDP=6.61D-05 DE=-9.37D-06 OVMax= 1.18D-04

 Initial convergence to 1.0D-05 achieved.  Increase integral accuracy.
 Cycle   8  Pass 1  IDiag  1:
 E= -366.234366459708     Delta-E=       -0.000036621621 Rises=F Damp=F
 DIIS: error= 5.60D-05 at cycle   1 NSaved=   1.
 NSaved= 1 IEnMin= 1 EnMin= -366.234366459708     IErMin= 1 ErrMin= 5.60D-05
 ErrMax= 5.60D-05 EMaxC= 1.00D-01 BMatC= 1.12D-07 BMatP= 1.12D-07
 IDIUse=1 WtCom= 1.00D+00 WtEn= 0.00D+00
 Coeff-Com:  0.100D+01
 Coeff:      0.100D+01
 Gap=     0.210 Goal=   None    Shift=    0.000
 RMSDP=2.44D-06 MaxDP=6.61D-05 DE=-3.66D-05 OVMax= 1.86D-04

 Cycle   9  Pass 1  IDiag  1:
 E= -366.234366553497     Delta-E=       -0.000000093789 Rises=F Damp=F
 DIIS: error= 1.71D-05 at cycle   2 NSaved=   2.
 NSaved= 2 IEnMin= 2 EnMin= -366.234366553497     IErMin= 2 ErrMin= 1.71D-05
 ErrMax= 1.71D-05 EMaxC= 1.00D-01 BMatC= 6.06D-08 BMatP= 1.12D-07
 IDIUse=1 WtCom= 1.00D+00 WtEn= 0.00D+00
 Coeff-Com:  0.393D+00 0.607D+00
 Coeff:      0.393D+00 0.607D+00
 Gap=     0.210 Goal=   None    Shift=    0.000
 RMSDP=2.54D-06 MaxDP=7.46D-05 DE=-9.38D-08 OVMax= 1.73D-04

 Cycle  10  Pass 1  IDiag  1:
 E= -366.234366590904     Delta-E=       -0.000000037407 Rises=F Damp=F
 DIIS: error= 1.11D-05 at cycle   3 NSaved=   3.
 NSaved= 3 IEnMin= 3 EnMin= -366.234366590904     IErMin= 3 ErrMin= 1.11D-05
 ErrMax= 1.11D-05 EMaxC= 1.00D-01 BMatC= 2.21D-08 BMatP= 6.06D-08
 IDIUse=1 WtCom= 1.00D+00 WtEn= 0.00D+00
 Coeff-Com: -0.140D-01 0.375D+00 0.639D+00
 Coeff:     -0.140D-01 0.375D+00 0.639D+00
 Gap=     0.210 Goal=   None    Shift=    0.000
 RMSDP=9.84D-07 MaxDP=3.46D-05 DE=-3.74D-08 OVMax= 7.44D-05

 Cycle  11  Pass 1  IDiag  1:
 E= -366.234366611054     Delta-E=       -0.000000020150 Rises=F Damp=F
 DIIS: error= 1.94D-06 at cycle   4 NSaved=   4.
 NSaved= 4 IEnMin= 4 EnMin= -366.234366611054     IErMin= 4 ErrMin= 1.94D-06
 ErrMax= 1.94D-06 EMaxC= 1.00D-01 BMatC= 7.52D-10 BMatP= 2.21D-08
 IDIUse=1 WtCom= 1.00D+00 WtEn= 0.00D+00
 Coeff-Com: -0.155D-01 0.205D+00 0.366D+00 0.445D+00
 Coeff:     -0.155D-01 0.205D+00 0.366D+00 0.445D+00
 Gap=     0.210 Goal=   None    Shift=    0.000
 RMSDP=2.26D-07 MaxDP=4.22D-06 DE=-2.02D-08 OVMax= 1.34D-05

 Cycle  12  Pass 1  IDiag  1:
 E= -366.234366611784     Delta-E=       -0.000000000729 Rises=F Damp=F
 DIIS: error= 6.68D-07 at cycle   5 NSaved=   5.
 NSaved= 5 IEnMin= 5 EnMin= -366.234366611784     IErMin= 5 ErrMin= 6.68D-07
 ErrMax= 6.68D-07 EMaxC= 1.00D-01 BMatC= 4.22D-11 BMatP= 7.52D-10
 IDIUse=1 WtCom= 1.00D+00 WtEn= 0.00D+00
 Coeff-Com: -0.676D-02 0.770D-01 0.138D+00 0.239D+00 0.552D+00
 Coeff:     -0.676D-02 0.770D-01 0.138D+00 0.239D+00 0.552D+00
 Gap=     0.210 Goal=   None    Shift=    0.000
 RMSDP=6.26D-08 MaxDP=1.42D-06 DE=-7.29D-10 OVMax= 4.05D-06

 Cycle  13  Pass 1  IDiag  1:
 E= -366.234366611819     Delta-E=       -0.000000000035 Rises=F Damp=F
 DIIS: error= 2.40D-07 at cycle   6 NSaved=   6.
 NSaved= 6 IEnMin= 6 EnMin= -366.234366611819     IErMin= 6 ErrMin= 2.40D-07
 ErrMax= 2.40D-07 EMaxC= 1.00D-01 BMatC= 6.06D-12 BMatP= 4.22D-11
 IDIUse=1 WtCom= 1.00D+00 WtEn= 0.00D+00
 Coeff-Com: -0.146D-02 0.140D-01 0.250D-01 0.724D-01 0.323D+00 0.567D+00
 Coeff:     -0.146D-02 0.140D-01 0.250D-01 0.724D-01 0.323D+00 0.567D+00
 Gap=     0.210 Goal=   None    Shift=    0.000
 RMSDP=1.88D-08 MaxDP=3.97D-07 DE=-3.55D-11 OVMax= 9.04D-07

 Cycle  14  Pass 1  IDiag  1:
 E= -366.234366611834     Delta-E=       -0.000000000015 Rises=F Damp=F
 DIIS: error= 1.69D-08 at cycle   7 NSaved=   7.
 NSaved= 7 IEnMin= 7 EnMin= -366.234366611834     IErMin= 7 ErrMin= 1.69D-08
 ErrMax= 1.69D-08 EMaxC= 1.00D-01 BMatC= 8.09D-14 BMatP= 6.06D-12
 IDIUse=1 WtCom= 1.00D+00 WtEn= 0.00D+00
 Coeff-Com: -0.131D-03 0.294D-03 0.500D-03 0.902D-02 0.671D-01 0.173D+00
 Coeff-Com:  0.751D+00
 Coeff:     -0.131D-03 0.294D-03 0.500D-03 0.902D-02 0.671D-01 0.173D+00
 Coeff:      0.751D+00
 Gap=     0.210 Goal=   None    Shift=    0.000
 RMSDP=2.91D-09 MaxDP=5.13D-08 DE=-1.47D-11 OVMax= 1.00D-07

 SCF Done:  E(RB3LYP) =  -366.234366612     A.U. after   14 cycles
             Convg  =    0.2912D-08             -V/T =  2.0099
 KE= 3.626423771921D+02 PE=-1.708444484090D+03 EE= 5.495259040323D+02
 Leave Link  502 at Mon Oct  4 22:00:54 2021, MaxMem=  805306368 cpu:      99.6
 (Enter /sw/target/amd/app/gaussian/Gaussian09RevA.02_gcc-4.9.2/g09/l508.exe)
 QCSCF skips out because SCF is already converged.
 Leave Link  508 at Mon Oct  4 22:01:01 2021, MaxMem=  805306368 cpu:       0.0
 (Enter /sw/target/amd/app/gaussian/Gaussian09RevA.02_gcc-4.9.2/g09/l601.exe)
 Copying SCF densities to generalized density rwf, IOpCl= 0 IROHF=0.

 **********************************************************************

            Population analysis using the SCF density.

 **********************************************************************

 Orbital symmetries:
       Occupied  (A) (A) (A) (A) (A) (A) (A) (A) (A) (A) (A) (A)
                 (A) (A) (A) (A) (A) (A) (A) (A) (A) (A) (A) (A)
                 (A) (A) (A) (A) (A) (A) (A) (A) (A)
       Virtual   (A) (A) (A) (A) (A) (A) (A) (A) (A) (A) (A) (A)
                 (A) (A) (A) (A) (A) (A) (A) (A) (A) (A) (A) (A)
                 (A) (A) (A) (A) (A) (A) (A) (A) (A) (A) (A) (A)
                 (A) (A) (A) (A) (A) (A) (A) (A) (A) (A) (A) (A)
                 (A) (A) (A) (A) (A) (A) (A) (A) (A) (A) (A) (A)
                 (A) (A) (A) (A) (A) (A) (A) (A) (A) (A) (A) (A)
                 (A) (A) (A) (A) (A) (A) (A) (A) (A) (A) (A) (A)
                 (A) (A) (A) (A) (A) (A) (A) (A) (A) (A) (A) (A)
                 (A) (A) (A) (A) (A) (A) (A) (A) (A) (A) (A) (A)
                 (A) (A) (A) (A) (A) (A) (A) (A) (A) (A) (A) (A)
                 (A) (A) (A) (A)
 The electronic state is 1-A.
 Alpha  occ. eigenvalues --  -14.33710 -10.21493 -10.18072 -10.18066 -10.17954
 Alpha  occ. eigenvalues --  -10.17948 -10.17175 -10.17163 -10.16479  -0.91184
 Alpha  occ. eigenvalues --   -0.82629  -0.77327  -0.73501  -0.68117  -0.66750
 Alpha  occ. eigenvalues --   -0.57623  -0.57315  -0.50691  -0.50160  -0.44846
 Alpha  occ. eigenvalues --   -0.43258  -0.42664  -0.41460  -0.41019  -0.39925
 Alpha  occ. eigenvalues --   -0.38806  -0.36595  -0.34745  -0.32826  -0.32589
 Alpha  occ. eigenvalues --   -0.29937  -0.22338  -0.19292
 Alpha virt. eigenvalues --    0.01728   0.02600   0.07351   0.10885   0.10980
 Alpha virt. eigenvalues --    0.14889   0.15294   0.15539   0.16060   0.16410
 Alpha virt. eigenvalues --    0.19116   0.19796   0.19864   0.21466   0.24238
 Alpha virt. eigenvalues --    0.26005   0.28413   0.34693   0.36536   0.36753
 Alpha virt. eigenvalues --    0.37785   0.48640   0.49953   0.52906   0.55041
 Alpha virt. eigenvalues --    0.55277   0.55757   0.58358   0.58874   0.58989
 Alpha virt. eigenvalues --    0.61175   0.62709   0.63382   0.64628   0.68520
 Alpha virt. eigenvalues --    0.69558   0.70906   0.72001   0.73514   0.73985
 Alpha virt. eigenvalues --    0.76879   0.77358   0.78991   0.84116   0.84785
 Alpha virt. eigenvalues --    0.85278   0.86410   0.87643   0.89454   0.90940
 Alpha virt. eigenvalues --    0.92824   0.93425   0.95327   0.96745   0.98607
 Alpha virt. eigenvalues --    1.00260   1.02737   1.03109   1.08585   1.08863
 Alpha virt. eigenvalues --    1.11240   1.16048   1.21979   1.25651   1.28162
 Alpha virt. eigenvalues --    1.29539   1.35446   1.38561   1.40208   1.41215
 Alpha virt. eigenvalues --    1.44395   1.49259   1.51066   1.57986   1.62935
 Alpha virt. eigenvalues --    1.75451   1.77068   1.81830   1.86024   1.86242
 Alpha virt. eigenvalues --    1.89709   1.89871   1.90591   1.92152   1.95445
 Alpha virt. eigenvalues --    2.02399   2.02964   2.07899   2.09597   2.13692
 Alpha virt. eigenvalues --    2.15830   2.22529   2.23205   2.24386   2.25288
 Alpha virt. eigenvalues --    2.27329   2.31266   2.33939   2.34572   2.35287
 Alpha virt. eigenvalues --    2.35745   2.39552   2.48145   2.52314   2.61000
 Alpha virt. eigenvalues --    2.65037   2.65778   2.68618   2.77914   2.81393
 Alpha virt. eigenvalues --    2.82458   2.84796   3.00695   3.14837   3.42375
 Alpha virt. eigenvalues --    3.87877   4.10915   4.13186   4.15014   4.24939
 Alpha virt. eigenvalues --    4.26373   4.40013   4.43325   4.75052
          Condensed to atoms (all electrons):
              1          2          3          4          5          6
     1  C    5.256351   0.334562  -0.058974   0.007850   0.000565   0.007376
     2  C    0.334562   4.762528   0.563511  -0.023594  -0.044038  -0.033537
     3  C   -0.058974   0.563511   4.930926   0.529131  -0.036211  -0.043940
     4  C    0.007850  -0.023594   0.529131   4.901215   0.528394  -0.023603
     5  C    0.000565  -0.044038  -0.036211   0.528394   4.931204   0.564420
     6  C    0.007376  -0.033537  -0.043940  -0.023603   0.564420   4.760939
     7  C   -0.061851   0.501423  -0.011786  -0.054865  -0.011744   0.500970
     8  N   -0.014225  -0.083163   0.004877   0.000263   0.004885  -0.082891
     9  C   -0.000188   0.007398   0.000562   0.007860  -0.059143   0.334552
    10  H    0.366271  -0.026104  -0.003549   0.000174   0.000003  -0.000117
    11  H    0.356986  -0.034066   0.000000  -0.000177   0.000016  -0.000041
    12  H    0.358952  -0.030405   0.000929  -0.000174   0.000039  -0.000270
    13  H   -0.011752  -0.040218   0.351007  -0.046288   0.005011   0.000674
    14  H   -0.000234   0.003739  -0.039735   0.349972  -0.039749   0.003737
    15  H    0.000009   0.000673   0.005018  -0.046354   0.351090  -0.040248
    16  H   -0.000107   0.006554  -0.000110  -0.000014  -0.000155  -0.018123
    17  H    0.009933  -0.018285  -0.000153  -0.000014  -0.000108   0.006559
    18  H    0.000002  -0.000118   0.000003   0.000172  -0.003536  -0.026204
    19  H    0.000002  -0.000271   0.000040  -0.000173   0.000823  -0.030500
    20  H    0.000001  -0.000042   0.000015  -0.000178   0.000108  -0.033767
              7          8          9         10         11         12
     1  C   -0.061851  -0.014225  -0.000188   0.366271   0.356986   0.358952
     2  C    0.501423  -0.083163   0.007398  -0.026104  -0.034066  -0.030405
     3  C   -0.011786   0.004877   0.000562  -0.003549   0.000000   0.000929
     4  C   -0.054865   0.000263   0.007860   0.000174  -0.000177  -0.000174
     5  C   -0.011744   0.004885  -0.059143   0.000003   0.000016   0.000039
     6  C    0.500970  -0.082891   0.334552  -0.000117  -0.000041  -0.000270
     7  C    4.750986   0.311944  -0.061682   0.003164  -0.002328  -0.004667
     8  N    0.311944   7.040798  -0.014208   0.000277   0.000757   0.004958
     9  C   -0.061682  -0.014208   5.256403   0.000002   0.000001   0.000002
    10  H    0.003164   0.000277   0.000002   0.546778  -0.027207  -0.026620
    11  H   -0.002328   0.000757   0.000001  -0.027207   0.589993  -0.038067
    12  H   -0.004667   0.004958   0.000002  -0.026620  -0.038067   0.573396
    13  H    0.005284  -0.000105   0.000009   0.007438   0.000219   0.000180
    14  H    0.001422   0.000008  -0.000234  -0.000016   0.000004   0.000004
    15  H    0.005293  -0.000105  -0.011795  -0.000000  -0.000000  -0.000000
    16  H   -0.017689   0.303872   0.009782  -0.000002   0.000123  -0.000110
    17  H   -0.017582   0.304089  -0.000115  -0.000248   0.005387  -0.001326
    18  H    0.003176   0.000276   0.366189  -0.000000  -0.000000   0.000000
    19  H   -0.004628   0.004986   0.359188   0.000000   0.000000  -0.000000
    20  H   -0.002400   0.000700   0.356642  -0.000000  -0.000001   0.000000
             13         14         15         16         17         18
     1  C   -0.011752  -0.000234   0.000009  -0.000107   0.009933   0.000002
     2  C   -0.040218   0.003739   0.000673   0.006554  -0.018285  -0.000118
     3  C    0.351007  -0.039735   0.005018  -0.000110  -0.000153   0.000003
     4  C   -0.046288   0.349972  -0.046354  -0.000014  -0.000014   0.000172
     5  C    0.005011  -0.039749   0.351090  -0.000155  -0.000108  -0.003536
     6  C    0.000674   0.003737  -0.040248  -0.018123   0.006559  -0.026204
     7  C    0.005284   0.001422   0.005293  -0.017689  -0.017582   0.003176
     8  N   -0.000105   0.000008  -0.000105   0.303872   0.304089   0.000276
     9  C    0.000009  -0.000234  -0.011795   0.009782  -0.000115   0.366189
    10  H    0.007438  -0.000016  -0.000000  -0.000002  -0.000248  -0.000000
    11  H    0.000219   0.000004  -0.000000   0.000123   0.005387  -0.000000
    12  H    0.000180   0.000004  -0.000000  -0.000110  -0.001326   0.000000
    13  H    0.619588  -0.005630  -0.000221   0.000003  -0.000007  -0.000000
    14  H   -0.005630   0.618605  -0.005626  -0.000000  -0.000000  -0.000015
    15  H   -0.000221  -0.005626   0.619552  -0.000007   0.000003   0.007458
    16  H    0.000003  -0.000000  -0.000007   0.419547  -0.028816  -0.000247
    17  H   -0.000007  -0.000000   0.000003  -0.028816   0.419040  -0.000002
    18  H   -0.000000  -0.000015   0.007458  -0.000247  -0.000002   0.547035
    19  H   -0.000000   0.000004   0.000179  -0.001367  -0.000106  -0.026624
    20  H   -0.000000   0.000004   0.000221   0.005536   0.000122  -0.027194
             19         20
     1  C    0.000002   0.000001
     2  C   -0.000271  -0.000042
     3  C    0.000040   0.000015
     4  C   -0.000173  -0.000178
     5  C    0.000823   0.000108
     6  C   -0.030500  -0.033767
     7  C   -0.004628  -0.002400
     8  N    0.004986   0.000700
     9  C    0.359188   0.356642
    10  H    0.000000  -0.000000
    11  H    0.000000  -0.000001
    12  H   -0.000000   0.000000
    13  H   -0.000000  -0.000000
    14  H    0.000004   0.000004
    15  H    0.000179   0.000221
    16  H   -0.001367   0.005536
    17  H   -0.000106   0.000122
    18  H   -0.026624  -0.027194
    19  H    0.573203  -0.038028
    20  H   -0.038028   0.590111
 Mulliken atomic charges:
              1
     1  C   -0.551531
     2  C    0.153453
     3  C   -0.191564
     4  C   -0.129596
     5  C   -0.191874
     6  C    0.154014
     7  C    0.167561
     8  N   -0.787994
     9  C   -0.551224
    10  H    0.159756
    11  H    0.148400
    12  H    0.163179
    13  H    0.114808
    14  H    0.113743
    15  H    0.114859
    16  H    0.321329
    17  H    0.321627
    18  H    0.159630
    19  H    0.163272
    20  H    0.148153
 Sum of Mulliken atomic charges =  -0.00000
 Mulliken charges with hydrogens summed into heavy atoms:
              1
     1  C   -0.080196
     2  C    0.153453
     3  C   -0.076756
     4  C   -0.015853
     5  C   -0.077014
     6  C    0.154014
     7  C    0.167561
     8  N   -0.145038
     9  C   -0.080169
 Sum of Mulliken charges with hydrogens summed into heavy atoms =  -0.00000
 Electronic spatial extent (au):  <R**2>=           1210.2618
 Charge=             -0.0000 electrons
 Dipole moment (field-independent basis, Debye):
    X=             -0.0043    Y=             -1.4694    Z=              0.9710  Tot=              1.7612
 Quadrupole moment (field-independent basis, Debye-Ang):
   XX=            -49.3010   YY=            -48.6975   ZZ=            -57.8952
   XY=              0.0145   XZ=              0.0116   YZ=             -2.9345
 Traceless Quadrupole moment (field-independent basis, Debye-Ang):
   XX=              2.6635   YY=              3.2671   ZZ=             -5.9306
   XY=              0.0145   XZ=              0.0116   YZ=             -2.9345
 Octapole moment (field-independent basis, Debye-Ang**2):
  XXX=             -0.0292  YYY=            -13.2982  ZZZ=              0.6939  XYY=             -0.0329
  XXY=             -1.2498  XXZ=             -0.2924  XZZ=              0.0003  YZZ=             -4.6616
  YYZ=              7.0051  XYZ=             -0.0141
 Hexadecapole moment (field-independent basis, Debye-Ang**3):
 XXXX=           -889.4806 YYYY=           -597.2870 ZZZZ=            -73.7679 XXXY=              0.0449
 XXXZ=              0.0897 YYYX=              0.1487 YYYZ=            -20.2678 ZZZX=             -0.0661
 ZZZY=             -2.3411 XXYY=           -244.7731 XXZZ=           -165.8796 YYZZ=           -132.4245
 XXYZ=             -1.2267 YYXZ=              0.1489 ZZXY=             -0.0067
 N-N= 4.300418362535D+02 E-N=-1.708444482141D+03  KE= 3.626423771921D+02
 No NMR shielding tensors so no spin-rotation constants.
 Leave Link  601 at Mon Oct  4 22:01:03 2021, MaxMem=  805306368 cpu:       0.9
 (Enter /sw/target/amd/app/gaussian/Gaussian09RevA.02_gcc-4.9.2/g09/l701.exe)
 Compute integral first derivatives.
 ... and contract with generalized density number  0.
 Leave Link  701 at Mon Oct  4 22:01:05 2021, MaxMem=  805306368 cpu:       1.0
 (Enter /sw/target/amd/app/gaussian/Gaussian09RevA.02_gcc-4.9.2/g09/l702.exe)
 L702 exits ... SP integral derivatives will be done elsewhere.
 Leave Link  702 at Mon Oct  4 22:01:05 2021, MaxMem=  805306368 cpu:       0.1
 (Enter /sw/target/amd/app/gaussian/Gaussian09RevA.02_gcc-4.9.2/g09/l703.exe)
 Compute integral first derivatives, UseDBF=F ICtDFT=           0.
 Integral derivatives from FoFDir, PRISM(SPDF).
 Calling FoFJK, ICntrl=      2127 FMM=F ISym2X=0 I1Cent= 0 IOpClX= 0 NMat=1 NMatS=1 NMatT=0.
 FoFCou: FMM=F IPFlag=           0 FMFlag=      100000 FMFlg1=         800
         NFxFlg=           0 DoJE=F BraDBF=F KetDBF=F FulRan=T
         Omega=  0.000000  0.000000  1.000000  0.000000  0.000000 ICntrl=    2127 IOpCl=  0
         NMat0=    1 NMatS0=    1 NMatT0=    0 NMatD0=    1 NMtDS0=    0 NMtDT0=    0
         I1Cent=           0 NGrid=           0.
 Symmetry not used in FoFCou.
 Leave Link  703 at Mon Oct  4 22:01:51 2021, MaxMem=  805306368 cpu:      46.2
 (Enter /sw/target/amd/app/gaussian/Gaussian09RevA.02_gcc-4.9.2/g09/l716.exe)
 Dipole        =-1.70650829D-03-5.78098167D-01 3.82008053D-01
 ***** Axes restored to original set *****
 -------------------------------------------------------------------
 Center     Atomic                   Forces (Hartrees/Bohr)
 Number     Number              X              Y              Z
 -------------------------------------------------------------------
      1        6           0.002777983    0.000043863   -0.000524306
      2        6          -0.006399046    0.013698893    0.004483952
      3        6           0.005796380   -0.006266681    0.000032055
      4        6           0.000062747    0.005835072    0.000004434
      5        6          -0.006379027   -0.005703441   -0.000099910
      6        6           0.006043568    0.012175716    0.004468070
      7        6           0.000250294    0.005120670   -0.014974142
      8        7           0.001060244    0.003483572    0.004522350
      9        6          -0.002793970   -0.000039621   -0.002020578
     10        1           0.001896154   -0.000092819    0.000262838
     11        1          -0.003544501   -0.005177729   -0.000134397
     12        1          -0.002390463   -0.004864215   -0.000024783
     13        1          -0.000908863   -0.003265469    0.000145553
     14        1           0.000012045    0.000106916    0.000282891
     15        1           0.001383286   -0.002991267    0.000103880
     16        1          -0.002023433   -0.000977186    0.000686791
     17        1           0.001195112   -0.001261722    0.001114344
     18        1          -0.001867831   -0.000194981    0.000363429
     19        1           0.002247467   -0.004225679    0.000924288
     20        1           0.003581855   -0.005403893    0.000383241
 -------------------------------------------------------------------
 Cartesian Forces:  Max     0.014974142 RMS     0.004305042
 Leave Link  716 at Mon Oct  4 22:02:58 2021, MaxMem=  805306368 cpu:       0.1
 (Enter /sw/target/amd/app/gaussian/Gaussian09RevA.02_gcc-4.9.2/g09/l103.exe)

 GradGradGradGradGradGradGradGradGradGradGradGradGradGradGradGradGradGrad
 Berny optimization.
 Internal  Forces:  Max     0.009839454 RMS     0.003100002
 Search for a local minimum.
 Step number   1 out of a maximum of  103
 All quantities printed in internal units (Hartrees-Bohrs-Radians)
 RMS Force = .31000D-02 SwitMx=.10000D-02 MixMth= 1
 Mixed Optimization -- RFO/linear search
 Second derivative matrix not updated -- first step.
     Eigenvalues ---    0.00695   0.00699   0.01443   0.01494   0.01587
     Eigenvalues ---    0.01905   0.01947   0.02025   0.02104   0.02125
     Eigenvalues ---    0.02170   0.02217   0.04418   0.07202   0.07213
     Eigenvalues ---    0.07272   0.07288   0.15998   0.15998   0.15999
     Eigenvalues ---    0.16000   0.16000   0.16000   0.16000   0.16000
     Eigenvalues ---    0.16000   0.16000   0.16000   0.22080   0.23448
     Eigenvalues ---    0.24520   0.24774   0.24996   0.24998   0.31820
     Eigenvalues ---    0.31852   0.34146   0.34174   0.34183   0.34217
     Eigenvalues ---    0.34331   0.34358   0.35001   0.35093   0.35163
     Eigenvalues ---    0.40968   0.41042   0.43930   0.44327   0.44792
     Eigenvalues ---    0.45383   0.45573   0.46052   0.469571000.00000
     Eigenvalues --- 1000.000001000.000001000.000001000.000001000.00000
     Eigenvalues --- 1000.000001000.000001000.000001000.000001000.00000
     Eigenvalues --- 1000.000001000.000001000.000001000.000001000.00000
     Eigenvalues --- 1000.000001000.000001000.000001000.000001000.00000
     Eigenvalues --- 1000.000001000.000001000.000001000.000001000.00000
     Eigenvalues --- 1000.000001000.000001000.000001000.000001000.00000
     Eigenvalues --- 1000.000001000.000001000.000001000.000001000.00000
     Eigenvalues --- 1000.000001000.000001000.00000
 RFO step:  Lambda=-5.59835014D-03 EMin= 6.94839668D-03
 Linear search not attempted -- first point.
 Maximum step size (   0.300) exceeded in Quadratic search.
    -- Step size scaled by   0.957
 Iteration  1 RMS(Cart)=  0.04517305 RMS(Int)=  0.00123979
 Iteration  2 RMS(Cart)=  0.00201050 RMS(Int)=  0.00061086
 Iteration  3 RMS(Cart)=  0.00000107 RMS(Int)=  0.00061086
 Iteration  4 RMS(Cart)=  0.00000000 RMS(Int)=  0.00061086
 Variable       Old X    -DE/DX   Delta X   Delta X   Delta X     New X
                                 (Linear)    (Quad)   (Total)
    R1        2.84416   0.00586   0.00000   0.01732   0.01732   2.86147
    R2        2.07023  -0.00151   0.00000  -0.00416  -0.00416   2.06607
    R3        2.06966   0.00317   0.00000   0.00873   0.00873   2.07839
    R4        2.06730   0.00300   0.00000   0.00822   0.00822   2.07553
    R5        2.65654  -0.00644   0.00000  -0.01365  -0.01366   2.64289
    R6        2.66764  -0.00124   0.00000  -0.00374  -0.00338   2.66426
    R7        2.62692   0.00362   0.00000   0.00820   0.00785   2.63477
    R8        2.05673  -0.00090   0.00000  -0.00241  -0.00241   2.05432
    R9        2.62787   0.00351   0.00000   0.00800   0.00765   2.63551
   R10        2.05411   0.00011   0.00000   0.00029   0.00029   2.05440
   R11        2.65395  -0.00568   0.00000  -0.01192  -0.01193   2.64202
   R12        2.05524  -0.00036   0.00000  -0.00096  -0.00096   2.05427
   R13        2.66976  -0.00193   0.00000  -0.00521  -0.00486   2.66490
   R14        2.84475   0.00565   0.00000   0.01671   0.01671   2.86145
   R15        2.66065  -0.00211   0.00000  -0.00451  -0.00451   2.65614
   R16        1.91534  -0.00100   0.00000  -0.00209  -0.00209   1.91324
   R17        1.91316  -0.00006   0.00000  -0.00012  -0.00012   1.91304
   R18        2.07037  -0.00155   0.00000  -0.00427  -0.00427   2.06610
   R19        2.07085   0.00181   0.00000   0.00500   0.00500   2.07585
   R20        2.06776   0.00377   0.00000   0.01035   0.01035   2.07811
    A1        1.94980  -0.00312   0.00000  -0.01617  -0.01608   1.93373
    A2        1.92035   0.00609   0.00000   0.03465   0.03457   1.95492
    A3        1.92918   0.00406   0.00000   0.02216   0.02207   1.95125
    A4        1.87278  -0.00111   0.00000  -0.00386  -0.00377   1.86900
    A5        1.87685  -0.00031   0.00000  -0.00066  -0.00058   1.87627
    A6        1.91344  -0.00605   0.00000  -0.03865  -0.03889   1.87456
    A7        2.06896   0.00983   0.00000   0.03844   0.03804   2.10700
    A8        2.12267  -0.00629   0.00000  -0.02196  -0.02236   2.10031
    A9        2.09143  -0.00353   0.00000  -0.01629  -0.01556   2.07586
   A10        2.10660   0.00194   0.00000   0.00892   0.00894   2.11553
   A11        2.10053  -0.00433   0.00000  -0.02383  -0.02386   2.07667
   A12        2.07597   0.00239   0.00000   0.01503   0.01500   2.09098
   A13        2.09066  -0.00271   0.00000  -0.00868  -0.00905   2.08161
   A14        2.09621   0.00137   0.00000   0.00449   0.00464   2.10085
   A15        2.09625   0.00135   0.00000   0.00433   0.00448   2.10073
   A16        2.10653   0.00191   0.00000   0.00896   0.00896   2.11549
   A17        2.07564   0.00241   0.00000   0.01508   0.01505   2.09069
   A18        2.10090  -0.00432   0.00000  -0.02387  -0.02390   2.07700
   A19        2.09190  -0.00366   0.00000  -0.01665  -0.01592   2.07598
   A20        2.06955   0.00984   0.00000   0.03838   0.03800   2.10755
   A21        2.12166  -0.00618   0.00000  -0.02162  -0.02201   2.09966
   A22        2.07821   0.00609   0.00000   0.02548   0.02365   2.10186
   A23        2.09411  -0.00254   0.00000  -0.00002  -0.00356   2.09055
   A24        2.09477  -0.00293   0.00000  -0.00151  -0.00506   2.08971
   A25        1.99317   0.00119   0.00000   0.00263   0.00261   1.99578
   A26        1.99491   0.00085   0.00000   0.00071   0.00069   1.99560
   A27        1.95311  -0.00225   0.00000  -0.01934  -0.01938   1.93374
   A28        1.94875  -0.00296   0.00000  -0.01511  -0.01503   1.93371
   A29        1.92786   0.00405   0.00000   0.02233   0.02225   1.95011
   A30        1.92290   0.00590   0.00000   0.03318   0.03311   1.95600
   A31        1.87594  -0.00027   0.00000   0.00017   0.00023   1.87618
   A32        1.87410  -0.00118   0.00000  -0.00469  -0.00461   1.86949
   A33        1.91285  -0.00598   0.00000  -0.03838  -0.03860   1.87424
    D1        0.01842  -0.00001   0.00000  -0.00574  -0.00576   0.01266
    D2       -3.14066   0.00021   0.00000   0.00616   0.00619  -3.13447
    D3       -2.05978  -0.00064   0.00000  -0.01339  -0.01329  -2.07307
    D4        1.06432  -0.00042   0.00000  -0.00149  -0.00134   1.06298
    D5        2.10762   0.00027   0.00000  -0.00232  -0.00247   2.10515
    D6       -1.05146   0.00049   0.00000   0.00958   0.00948  -1.04198
    D7       -3.13545  -0.00026   0.00000  -0.00604  -0.00576  -3.14122
    D8       -0.00801   0.00006   0.00000   0.00431   0.00441  -0.00360
    D9        0.02331  -0.00045   0.00000  -0.01765  -0.01747   0.00584
   D10       -3.13243  -0.00013   0.00000  -0.00730  -0.00730  -3.13973
   D11        3.11146   0.00048   0.00000   0.02689   0.02756   3.13903
   D12        0.16159  -0.00281   0.00000  -0.11408  -0.11430   0.04729
   D13       -0.04784   0.00084   0.00000   0.03948   0.03983  -0.00801
   D14       -2.99771  -0.00245   0.00000  -0.10149  -0.10203  -3.09975
   D15       -0.00007  -0.00015   0.00000  -0.00407  -0.00390  -0.00397
   D16        3.12843   0.00024   0.00000   0.00895   0.00898   3.13741
   D17       -3.12770  -0.00041   0.00000  -0.01397  -0.01385  -3.14155
   D18        0.00079  -0.00002   0.00000  -0.00094  -0.00096  -0.00017
   D19        0.00204   0.00010   0.00000   0.00240   0.00222   0.00426
   D20        3.12793   0.00043   0.00000   0.01463   0.01452  -3.14073
   D21       -3.12645  -0.00029   0.00000  -0.01063  -0.01066  -3.13711
   D22       -0.00056   0.00003   0.00000   0.00160   0.00164   0.00107
   D23       -0.02723   0.00056   0.00000   0.02103   0.02082  -0.00642
   D24        3.12766   0.00041   0.00000   0.01172   0.01145   3.13911
   D25        3.13029   0.00017   0.00000   0.00826   0.00826   3.13856
   D26        0.00201   0.00001   0.00000  -0.00104  -0.00111   0.00090
   D27        0.04979  -0.00090   0.00000  -0.04118  -0.04150   0.00829
   D28        2.99959   0.00244   0.00000   0.10002   0.10046   3.10006
   D29       -3.10551  -0.00062   0.00000  -0.03112  -0.03171  -3.13722
   D30       -0.15571   0.00272   0.00000   0.11007   0.11026  -0.04545
   D31       -0.01020   0.00005   0.00000   0.00411   0.00413  -0.00607
   D32       -2.09668  -0.00037   0.00000  -0.00113  -0.00100  -2.09768
   D33        2.07066   0.00057   0.00000   0.01043   0.01033   2.08099
   D34       -3.13825  -0.00012   0.00000  -0.00541  -0.00542   3.13951
   D35        1.05846  -0.00055   0.00000  -0.01065  -0.01055   1.04790
   D36       -1.05739   0.00040   0.00000   0.00092   0.00078  -1.05661
   D37       -2.80479   0.00279   0.00000   0.08410   0.08346  -2.72133
   D38       -0.52417   0.00148   0.00000   0.05892   0.05830  -0.46587
   D39        0.53035  -0.00153   0.00000  -0.06120  -0.06059   0.46976
   D40        2.81097  -0.00284   0.00000  -0.08638  -0.08575   2.72522
         Item               Value     Threshold  Converged?
 Maximum Force            0.009839     0.000450     NO 
 RMS     Force            0.003100     0.000300     NO 
 Maximum Displacement     0.162556     0.001800     NO 
 RMS     Displacement     0.046020     0.001200     NO 
 Predicted change in Energy=-3.059898D-03
 GradGradGradGradGradGradGradGradGradGradGradGradGradGradGradGradGradGrad

 Leave Link  103 at Mon Oct  4 22:03:08 2021, MaxMem=  805306368 cpu:       2.3
 (Enter /sw/target/amd/app/gaussian/Gaussian09RevA.02_gcc-4.9.2/g09/l202.exe)
                          Input orientation:                          
 ---------------------------------------------------------------------
 Center     Atomic      Atomic             Coordinates (Angstroms)
 Number     Number       Type             X           Y           Z
 ---------------------------------------------------------------------
      1          6           0       -2.531860   -0.784712   -0.056523
      2          6           0       -1.220237   -0.028463   -0.031722
      3          6           0       -1.202116    1.369256    0.013148
      4          6           0       -0.000394    2.075876    0.035862
      5          6           0        1.204184    1.373209    0.018167
      6          6           0        1.227253   -0.023968   -0.026954
      7          6           0        0.004633   -0.726449   -0.046887
      8          7           0        0.007888   -2.128733   -0.142839
      9          6           0        2.541129   -0.776357   -0.049032
     10          1           0       -3.378763   -0.093326   -0.047617
     11          1           0       -2.643932   -1.444232    0.816469
     12          1           0       -2.625261   -1.409895   -0.954705
     13          1           0       -2.146145    1.908155    0.026638
     14          1           0       -0.002270    3.162574    0.066818
     15          1           0        2.146105    1.915595    0.036451
     16          1           0        0.840675   -2.570483    0.226440
     17          1           0       -0.825929   -2.573689    0.219913
     18          1           0        3.386005   -0.082636   -0.031376
     19          1           0        2.640510   -1.394944   -0.951340
     20          1           0        2.650758   -1.441999    0.819426
 ---------------------------------------------------------------------
                    Distance matrix (angstroms):
                    1          2          3          4          5
     1  C    0.000000
     2  C    1.514227   0.000000
     3  C    2.532321   1.398556   0.000000
     4  C    3.820971   2.433274   1.394261   0.000000
     5  C    4.315116   2.800891   2.406308   1.394654   0.000000
     6  C    3.835432   2.447499   2.800806   2.433188   1.398096
     7  C    2.537180   1.409865   2.419054   2.803550   2.419033
     8  N    2.874746   2.435523   3.704642   4.208413   3.704139
     9  C    5.073002   3.835039   4.315021   3.821228   2.532306
    10  H    1.093315   2.159560   2.623096   4.015693   4.812324
    11  H    1.099838   2.179619   3.261882   4.470884   4.835624
    12  H    1.098321   2.175855   3.268909   4.474567   4.832887
    13  H    2.721622   2.147371   1.087100   2.152316   3.392778
    14  H    4.689894   3.416997   2.158356   1.087140   2.158639
    15  H    5.402191   3.887964   3.392582   2.152475   1.087075
    16  H    3.826623   3.282663   4.442976   4.725714   3.965883
    17  H    2.487380   2.587851   3.966243   4.725869   4.442979
    18  H    5.959418   4.606560   4.812569   4.016390   2.623410
    19  H    5.284553   4.197420   4.830819   4.471636   3.265831
    20  H    5.297061   4.207985   4.837135   4.474151   3.264964
                    6          7          8          9         10
     6  C    0.000000
     7  C    1.410205   0.000000
     8  N    2.435225   1.405567   0.000000
     9  C    1.514215   2.536989   2.873157   0.000000
    10  H    4.606585   3.442123   3.952386   5.959166   0.000000
    11  H    4.208870   2.876715   2.901889   5.299057   1.763964
    12  H    4.198021   2.864886   2.847688   5.283295   1.767464
    13  H    3.887903   3.401821   4.578761   5.402118   2.351763
    14  H    3.416806   3.890690   5.295469   4.690147   4.691981
    15  H    2.147141   3.401947   4.578287   2.722124   5.879371
    16  H    2.588125   2.043071   1.012445   2.487231   4.900518
    17  H    3.282922   2.042868   1.012336   3.826201   3.569417
    18  H    2.159553   3.442152   3.951026   1.093332   6.764796
    19  H    2.175169   2.865794   2.850057   1.098493   6.224354
    20  H    2.180261   2.874803   2.895224   1.099689   6.239056
                   11         12         13         14         15
    11  H    0.000000
    12  H    1.771606   0.000000
    13  H    3.479961   3.493143   0.000000
    14  H    5.363116   5.369457   2.484227   0.000000
    15  H    5.902654   5.899764   4.292268   2.484229   0.000000
    16  H    3.709321   3.841195   5.386949   5.796894   4.676018
    17  H    2.221866   2.443714   4.676244   5.797117   5.387051
    18  H    6.239625   6.224907   5.879736   4.692700   2.352632
    19  H    5.572514   5.265794   5.897370   5.365808   3.489962
    20  H    5.294691   5.566413   5.904433   5.367221   3.484417
                   16         17         18         19         20
    16  H    0.000000
    17  H    1.666620   0.000000
    18  H    3.568551   4.899885   0.000000
    19  H    2.451217   3.844148   1.767555   0.000000
    20  H    2.213935   3.705063   1.764176   1.771421   0.000000
 Stoichiometry    C8H11N
 Framework group  C1[X(C8H11N)]
 Deg. of freedom    54
 Full point group                 C1      NOp   1
 Largest Abelian subgroup         C1      NOp   1
 Largest concise Abelian subgroup C1      NOp   1
                         Standard orientation:                         
 ---------------------------------------------------------------------
 Center     Atomic      Atomic             Coordinates (Angstroms)
 Number     Number       Type             X           Y           Z
 ---------------------------------------------------------------------
      1          6           0        2.536405   -0.720289    0.010793
      2          6           0        1.223724    0.034513    0.005772
      3          6           0        1.203644    1.432873   -0.006326
      4          6           0        0.000934    2.138163   -0.010595
      5          6           0       -1.202664    1.433604   -0.007464
      6          6           0       -1.223774    0.035723    0.004963
      7          6           0       -0.000176   -0.665335    0.006517
      8          7           0       -0.001385   -2.069485    0.069609
      9          6           0       -2.536597   -0.718799    0.011483
     10          1           0        3.382359   -0.027711    0.016747
     11          1           0        2.647965   -1.359032   -0.877579
     12          1           0        2.632092   -1.366202    0.893941
     13          1           0        2.146922    1.973249   -0.008678
     14          1           0        0.001293    3.225289   -0.016098
     15          1           0       -2.145345    1.974962   -0.011559
     16          1           0       -0.834167   -2.503622   -0.308602
     17          1           0        0.832448   -2.504668   -0.304774
     18          1           0       -3.382435   -0.026027    0.011407
     19          1           0       -2.633694   -1.358481    0.899214
     20          1           0       -2.646721   -1.364074   -0.872150
 ---------------------------------------------------------------------
 Rotational constants (GHZ):      2.2592472      1.7405552      0.9963789
 Leave Link  202 at Mon Oct  4 22:03:14 2021, MaxMem=  805306368 cpu:       0.0
 (Enter /sw/target/amd/app/gaussian/Gaussian09RevA.02_gcc-4.9.2/g09/l301.exe)
 Standard basis: 6-31G(d) (6D, 7F)
 Ernie: Thresh=  0.10000D-02 Tol=  0.10000D-05 Strict=F.
 There are   157 symmetry adapted basis functions of A   symmetry.
 Integral buffers will be    131072 words long.
 Raffenetti 2 integral format.
 Two-electron integral symmetry is turned on.
   157 basis functions,   296 primitive gaussians,   157 cartesian basis functions
    33 alpha electrons       33 beta electrons
       nuclear repulsion energy       430.1207454464 Hartrees.
 IExCor=  402 DFT=T Ex+Corr=B3LYP ExCW=0 ScaHFX=  0.200000
 ScaDFX=  0.800000  0.720000  1.000000  0.810000 ScalE2=  1.000000  1.000000
 IRadAn=      0 IRanWt=     -1 IRanGd=            0 ICorTp=0
 NAtoms=   20 NActive=   20 NUniq=   20 SFac= 7.50D-01 NAtFMM=   80 NAOKFM=F Big=F
 Leave Link  301 at Mon Oct  4 22:03:14 2021, MaxMem=  805306368 cpu:       0.1
 (Enter /sw/target/amd/app/gaussian/Gaussian09RevA.02_gcc-4.9.2/g09/l302.exe)
 NPDir=0 NMtPBC=     1 NCelOv=     1 NCel=       1 NClECP=     1 NCelD=      1
         NCelK=      1 NCelE2=     1 NClLst=     1 CellRange=     0.0.
 One-electron integrals computed using PRISM.
 NBasis=   157 RedAO= T  NBF=   157
 NBsUse=   157 1.00D-06 NBFU=   157
 Precomputing XC quadrature grid using
 IXCGrd= 2 IRadAn=           0 IRanWt=          -1 IRanGd=           0 AccXCQ= 1.00D-10.
 NRdTot=    1248 NPtTot=      158612 NUsed=      167621 NTot=      167653
 NSgBfM=   157   157   157   157   157 NAtAll=    20    20.
 Leave Link  302 at Mon Oct  4 22:03:16 2021, MaxMem=  805306368 cpu:       1.2
 (Enter /sw/target/amd/app/gaussian/Gaussian09RevA.02_gcc-4.9.2/g09/l303.exe)
 DipDrv:  MaxL=1.
 Leave Link  303 at Mon Oct  4 22:03:16 2021, MaxMem=  805306368 cpu:       0.1
 (Enter /sw/target/amd/app/gaussian/Gaussian09RevA.02_gcc-4.9.2/g09/l401.exe)
 Initial guess read from the read-write file.
 B after Tr=     0.000000    0.000000    0.000000
         Rot=    1.000000    0.000000    0.000000    0.000000 Ang=   0.00 deg.
 Guess basis will be translated and rotated to current coordinates.
 Initial guess orbital symmetries:
       Occupied  (A) (A) (A) (A) (A) (A) (A) (A) (A) (A) (A) (A)
                 (A) (A) (A) (A) (A) (A) (A) (A) (A) (A) (A) (A)
                 (A) (A) (A) (A) (A) (A) (A) (A) (A)
       Virtual   (A) (A) (A) (A) (A) (A) (A) (A) (A) (A) (A) (A)
                 (A) (A) (A) (A) (A) (A) (A) (A) (A) (A) (A) (A)
                 (A) (A) (A) (A) (A) (A) (A) (A) (A) (A) (A) (A)
                 (A) (A) (A) (A) (A) (A) (A) (A) (A) (A) (A) (A)
                 (A) (A) (A) (A) (A) (A) (A) (A) (A) (A) (A) (A)
                 (A) (A) (A) (A) (A) (A) (A) (A) (A) (A) (A) (A)
                 (A) (A) (A) (A) (A) (A) (A) (A) (A) (A) (A) (A)
                 (A) (A) (A) (A) (A) (A) (A) (A) (A) (A) (A) (A)
                 (A) (A) (A) (A) (A) (A) (A) (A) (A) (A) (A) (A)
                 (A) (A) (A) (A) (A) (A) (A) (A) (A) (A) (A) (A)
                 (A) (A) (A) (A)
 The electronic state of the initial guess is 1-A.
 Generating alternative initial guess.
 Harris functional with IExCor=  402 diagonalized for initial guess.
 ExpMin= 1.61D-01 ExpMax= 4.17D+03 ExpMxC= 6.27D+02 IAcc=1 IRadAn=         1 AccDes= 0.00D+00
 HarFok:  IExCor=  402 AccDes= 0.00D+00 IRadAn=         1 IDoV= 1
 ScaDFX=  1.000000  1.000000  1.000000  1.000000
 FoFCou: FMM=F IPFlag=           0 FMFlag=      100000 FMFlg1=           0
         NFxFlg=           0 DoJE=T BraDBF=F KetDBF=T FulRan=T
         Omega=  0.000000  0.000000  1.000000  0.000000  0.000000 ICntrl=     500 IOpCl=  0
         NMat0=    1 NMatS0=    1 NMatT0=    0 NMatD0=    1 NMtDS0=    0 NMtDT0=    0
         I1Cent=           4 NGrid=           0.
 Petite list used in FoFCou.
 Harris En= -366.323443881066    
 Leave Link  401 at Mon Oct  4 22:03:23 2021, MaxMem=  805306368 cpu:       5.7
 (Enter /sw/target/amd/app/gaussian/Gaussian09RevA.02_gcc-4.9.2/g09/l502.exe)
 Closed shell SCF:
 Requested convergence on RMS density matrix=1.00D-08 within  64 cycles.
 Requested convergence on MAX density matrix=1.00D-06.
 Requested convergence on             energy=1.00D-06.
 No special actions if energy rises.
 Using DIIS extrapolation, IDIIS=  1040.
 Integral symmetry usage will be decided dynamically.
       167428 words used for storage of precomputed grid.
 Keep R1 ints in memory in canonical form, NReq=79144549.
 IEnd=      249052 IEndB=      249052 NGot=   805306368 MDV=   728162913
 LenX=   728162913 LenY=   728137823
 Symmetry not used in FoFDir.
 MinBra= 0 MaxBra= 2 Meth= 1.
 IRaf=       0 NMat=   1 IRICut=       1 DoRegI=T DoRafI=F ISym2E= 0 JSym2E=0.
 Integral accuracy reduced to 1.0D-05 until final iterations.

 Cycle   1  Pass 0  IDiag  1:
 E= -355.115320434207    
 DIIS: error= 8.75D-02 at cycle   1 NSaved=   1.
 NSaved= 1 IEnMin= 1 EnMin= -355.115320434207     IErMin= 1 ErrMin= 8.75D-02
 ErrMax= 8.75D-02 EMaxC= 1.00D-01 BMatC= 2.43D+00 BMatP= 2.43D+00
 IDIUse=3 WtCom= 1.25D-01 WtEn= 8.75D-01
 Coeff-Com:  0.100D+01
 Coeff-En:   0.100D+01
 Coeff:      0.100D+01
 Recover alternate guess density for next cycle.
 RMSDP=3.34D-02 MaxDP=5.73D-01              OVMax= 0.00D+00

 Cycle   2  Pass 0  IDiag  1:
 E= -365.950192909059     Delta-E=      -10.834872474852 Rises=F Damp=F
 DIIS: error= 5.39D-02 at cycle   2 NSaved=   2.
 NSaved= 2 IEnMin= 2 EnMin= -365.950192909059     IErMin= 2 ErrMin= 5.39D-02
 ErrMax= 5.39D-02 EMaxC= 1.00D-01 BMatC= 2.63D-01 BMatP= 2.43D+00
 IDIUse=3 WtCom= 4.61D-01 WtEn= 5.39D-01
 Coeff-Com:  0.468D-01 0.953D+00
 Coeff-En:   0.000D+00 0.100D+01
 Coeff:      0.216D-01 0.978D+00
 Gap=     0.217 Goal=   None    Shift=    0.000
 RMSDP=7.78D-03 MaxDP=1.40D-01 DE=-1.08D+01 OVMax= 1.67D-01

 Cycle   3  Pass 0  IDiag  1:
 E= -365.918754580475     Delta-E=        0.031438328584 Rises=F Damp=F
 DIIS: error= 5.21D-02 at cycle   3 NSaved=   3.
 NSaved= 3 IEnMin= 2 EnMin= -365.950192909059     IErMin= 3 ErrMin= 5.21D-02
 ErrMax= 5.21D-02 EMaxC= 1.00D-01 BMatC= 3.01D-01 BMatP= 2.63D-01
 IDIUse=2 WtCom= 0.00D+00 WtEn= 1.00D+00
 Coeff-En:   0.000D+00 0.526D+00 0.474D+00
 Coeff:      0.000D+00 0.526D+00 0.474D+00
 Gap=     0.264 Goal=   None    Shift=    0.000
 RMSDP=4.68D-03 MaxDP=9.57D-02 DE= 3.14D-02 OVMax= 8.70D-02

 Cycle   4  Pass 0  IDiag  1:
 E= -366.235966168323     Delta-E=       -0.317211587848 Rises=F Damp=F
 DIIS: error= 2.07D-03 at cycle   4 NSaved=   4.
 NSaved= 4 IEnMin= 4 EnMin= -366.235966168323     IErMin= 4 ErrMin= 2.07D-03
 ErrMax= 2.07D-03 EMaxC= 1.00D-01 BMatC= 1.15D-03 BMatP= 2.63D-01
 IDIUse=3 WtCom= 9.79D-01 WtEn= 2.07D-02
 Coeff-Com:  0.291D-03 0.911D-01 0.917D-01 0.817D+00
 Coeff-En:   0.000D+00 0.000D+00 0.000D+00 0.100D+01
 Coeff:      0.285D-03 0.892D-01 0.898D-01 0.821D+00
 Gap=     0.210 Goal=   None    Shift=    0.000
 RMSDP=3.75D-04 MaxDP=1.50D-02 DE=-3.17D-01 OVMax= 1.80D-02

 Cycle   5  Pass 0  IDiag  1:
 E= -366.236024005906     Delta-E=       -0.000057837583 Rises=F Damp=F
 DIIS: error= 2.27D-03 at cycle   5 NSaved=   5.
 NSaved= 5 IEnMin= 5 EnMin= -366.236024005906     IErMin= 4 ErrMin= 2.07D-03
 ErrMax= 2.27D-03 EMaxC= 1.00D-01 BMatC= 1.01D-03 BMatP= 1.15D-03
 IDIUse=3 WtCom= 9.77D-01 WtEn= 2.27D-02
 Coeff-Com: -0.311D-03 0.204D-01 0.201D-01 0.484D+00 0.476D+00
 Coeff-En:   0.000D+00 0.000D+00 0.000D+00 0.487D+00 0.513D+00
 Coeff:     -0.304D-03 0.199D-01 0.197D-01 0.484D+00 0.477D+00
 Gap=     0.210 Goal=   None    Shift=    0.000
 RMSDP=2.64D-04 MaxDP=8.35D-03 DE=-5.78D-05 OVMax= 1.27D-02

 Cycle   6  Pass 0  IDiag  1:
 E= -366.236987450240     Delta-E=       -0.000963444334 Rises=F Damp=F
 DIIS: error= 7.87D-04 at cycle   6 NSaved=   6.
 NSaved= 6 IEnMin= 6 EnMin= -366.236987450240     IErMin= 6 ErrMin= 7.87D-04
 ErrMax= 7.87D-04 EMaxC= 1.00D-01 BMatC= 5.79D-05 BMatP= 1.01D-03
 IDIUse=3 WtCom= 9.92D-01 WtEn= 7.87D-03
 Coeff-Com:  0.582D-04 0.284D-02 0.210D-02 0.168D+00 0.249D+00 0.578D+00
 Coeff-En:   0.000D+00 0.000D+00 0.000D+00 0.000D+00 0.000D+00 0.100D+01
 Coeff:      0.577D-04 0.282D-02 0.209D-02 0.167D+00 0.247D+00 0.581D+00
 Gap=     0.210 Goal=   None    Shift=    0.000
 RMSDP=8.14D-05 MaxDP=1.59D-03 DE=-9.63D-04 OVMax= 4.64D-03

 Cycle   7  Pass 0  IDiag  1:
 E= -366.237043353532     Delta-E=       -0.000055903292 Rises=F Damp=F
 DIIS: error= 3.23D-04 at cycle   7 NSaved=   7.
 NSaved= 7 IEnMin= 7 EnMin= -366.237043353532     IErMin= 7 ErrMin= 3.23D-04
 ErrMax= 3.23D-04 EMaxC= 1.00D-01 BMatC= 1.09D-05 BMatP= 5.79D-05
 IDIUse=3 WtCom= 9.97D-01 WtEn= 3.23D-03
 Coeff-Com: -0.191D-05 0.640D-05-0.634D-03 0.631D-01 0.115D+00 0.370D+00
 Coeff-Com:  0.453D+00
 Coeff-En:   0.000D+00 0.000D+00 0.000D+00 0.000D+00 0.000D+00 0.130D+00
 Coeff-En:   0.870D+00
 Coeff:     -0.190D-05 0.638D-05-0.632D-03 0.629D-01 0.114D+00 0.369D+00
 Coeff:      0.455D+00
 Gap=     0.210 Goal=   None    Shift=    0.000
 RMSDP=2.17D-05 MaxDP=5.72D-04 DE=-5.59D-05 OVMax= 1.23D-03

 Cycle   8  Pass 0  IDiag  1:
 E= -366.237054453406     Delta-E=       -0.000011099874 Rises=F Damp=F
 DIIS: error= 1.49D-05 at cycle   8 NSaved=   8.
 NSaved= 8 IEnMin= 8 EnMin= -366.237054453406     IErMin= 8 ErrMin= 1.49D-05
 ErrMax= 1.49D-05 EMaxC= 1.00D-01 BMatC= 5.40D-08 BMatP= 1.09D-05
 IDIUse=1 WtCom= 1.00D+00 WtEn= 0.00D+00
 Coeff-Com:  0.769D-05-0.568D-04-0.336D-03 0.149D-01 0.283D-01 0.969D-01
 Coeff-Com:  0.129D+00 0.732D+00
 Coeff:      0.769D-05-0.568D-04-0.336D-03 0.149D-01 0.283D-01 0.969D-01
 Coeff:      0.129D+00 0.732D+00
 Gap=     0.210 Goal=   None    Shift=    0.000
 RMSDP=2.11D-06 MaxDP=6.98D-05 DE=-1.11D-05 OVMax= 1.36D-04

 Initial convergence to 1.0D-05 achieved.  Increase integral accuracy.
 Cycle   9  Pass 1  IDiag  1:
 E= -366.237078249002     Delta-E=       -0.000023795596 Rises=F Damp=F
 DIIS: error= 6.27D-05 at cycle   1 NSaved=   1.
 NSaved= 1 IEnMin= 1 EnMin= -366.237078249002     IErMin= 1 ErrMin= 6.27D-05
 ErrMax= 6.27D-05 EMaxC= 1.00D-01 BMatC= 1.14D-07 BMatP= 1.14D-07
 IDIUse=1 WtCom= 1.00D+00 WtEn= 0.00D+00
 Coeff-Com:  0.100D+01
 Coeff:      0.100D+01
 Gap=     0.210 Goal=   None    Shift=    0.000
 RMSDP=2.11D-06 MaxDP=6.98D-05 DE=-2.38D-05 OVMax= 2.04D-04

 Cycle  10  Pass 1  IDiag  1:
 E= -366.237078337886     Delta-E=       -0.000000088884 Rises=F Damp=F
 DIIS: error= 1.84D-05 at cycle   2 NSaved=   2.
 NSaved= 2 IEnMin= 2 EnMin= -366.237078337886     IErMin= 2 ErrMin= 1.84D-05
 ErrMax= 1.84D-05 EMaxC= 1.00D-01 BMatC= 6.62D-08 BMatP= 1.14D-07
 IDIUse=1 WtCom= 1.00D+00 WtEn= 0.00D+00
 Coeff-Com:  0.405D+00 0.595D+00
 Coeff:      0.405D+00 0.595D+00
 Gap=     0.210 Goal=   None    Shift=    0.000
 RMSDP=2.61D-06 MaxDP=7.38D-05 DE=-8.89D-08 OVMax= 1.86D-04

 Cycle  11  Pass 1  IDiag  1:
 E= -366.237078380638     Delta-E=       -0.000000042752 Rises=F Damp=F
 DIIS: error= 1.13D-05 at cycle   3 NSaved=   3.
 NSaved= 3 IEnMin= 3 EnMin= -366.237078380638     IErMin= 3 ErrMin= 1.13D-05
 ErrMax= 1.13D-05 EMaxC= 1.00D-01 BMatC= 2.25D-08 BMatP= 6.62D-08
 IDIUse=1 WtCom= 1.00D+00 WtEn= 0.00D+00
 Coeff-Com: -0.141D-01 0.366D+00 0.648D+00
[...]
     6  C    0.451059  -0.076025   0.344842  -0.000133   0.000038   0.000096
     7  C    4.887533   0.275835  -0.064032   0.002916  -0.002060  -0.002496
     8  N    0.275835   7.033697  -0.019576   0.000326   0.000497   0.001334
     9  C   -0.064032  -0.019576   5.278173   0.000002   0.000000   0.000002
    10  H    0.002916   0.000326   0.000002   0.541402  -0.027499  -0.024348
    11  H   -0.002060   0.000497   0.000000  -0.027499   0.632306  -0.052376
    12  H   -0.002496   0.001334   0.000002  -0.024348  -0.052376   0.602150
    13  H    0.006080  -0.000124   0.000009   0.007826   0.000188   0.000175
    14  H    0.001498   0.000008  -0.000205  -0.000013   0.000003   0.000003
    15  H    0.006080  -0.000124  -0.012699  -0.000000  -0.000000  -0.000000
    16  H   -0.019041   0.296631   0.011169  -0.000001   0.000161  -0.000091
    17  H   -0.019043   0.296632  -0.000097  -0.000376   0.004133   0.001001
    18  H    0.002916   0.000326   0.364506  -0.000000   0.000000  -0.000000
    19  H   -0.002496   0.001333   0.355310  -0.000000   0.000004  -0.000011
    20  H   -0.002058   0.000498   0.346039   0.000000  -0.000009   0.000004
             13         14         15         16         17         18
     1  C   -0.012699  -0.000205   0.000009  -0.000097   0.011164   0.000002
     2  C   -0.039073   0.003107   0.000861   0.005667  -0.015398  -0.000133
     3  C    0.350716  -0.038097   0.004839  -0.000087  -0.000105   0.000008
     4  C   -0.047106   0.351339  -0.047107  -0.000021  -0.000021   0.000061
     5  C    0.004839  -0.038097   0.350716  -0.000105  -0.000087  -0.002219
     6  C    0.000861   0.003107  -0.039073  -0.015402   0.005667  -0.024553
     7  C    0.006080   0.001498   0.006080  -0.019041  -0.019043   0.002916
     8  N   -0.000124   0.000008  -0.000124   0.296631   0.296632   0.000326
     9  C    0.000009  -0.000205  -0.012699   0.011169  -0.000097   0.364506
    10  H    0.007826  -0.000013  -0.000000  -0.000001  -0.000376  -0.000000
    11  H    0.000188   0.000003  -0.000000   0.000161   0.004133   0.000000
    12  H    0.000175   0.000003  -0.000000  -0.000091   0.001001  -0.000000
    13  H    0.630615  -0.005490  -0.000217   0.000004  -0.000010  -0.000000
    14  H   -0.005490   0.604437  -0.005490  -0.000000  -0.000000  -0.000013
    15  H   -0.000217  -0.005490   0.630618  -0.000010   0.000004   0.007826
    16  H    0.000004  -0.000000  -0.000010   0.400913  -0.028182  -0.000376
    17  H   -0.000010  -0.000000   0.000004  -0.028182   0.400912  -0.000001
    18  H   -0.000000  -0.000013   0.007826  -0.000376  -0.000001   0.541400
    19  H   -0.000000   0.000003   0.000175   0.001004  -0.000091  -0.024342
    20  H   -0.000000   0.000003   0.000188   0.004128   0.000161  -0.027506
             19         20
     1  C    0.000002   0.000000
     2  C    0.000096   0.000039
     3  C   -0.000013  -0.000011
     4  C   -0.000177  -0.000182
     5  C    0.001729   0.001938
     6  C   -0.036931  -0.040025
     7  C   -0.002496  -0.002058
     8  N    0.001333   0.000498
     9  C    0.355310   0.346039
    10  H   -0.000000   0.000000
    11  H    0.000004  -0.000009
    12  H   -0.000011   0.000004
    13  H   -0.000000  -0.000000
    14  H    0.000003   0.000003
    15  H    0.000175   0.000188
    16  H    0.001004   0.004128
    17  H   -0.000091   0.000161
    18  H   -0.024342  -0.027506
    19  H    0.602148  -0.052376
    20  H   -0.052376   0.632304
 Mulliken atomic charges:
              1
     1  C   -0.557598
     2  C    0.172448
     3  C   -0.236304
     4  C   -0.097827
     5  C   -0.236299
     6  C    0.172453
     7  C    0.143700
     8  N   -0.728534
     9  C   -0.557612
    10  H    0.162094
    11  H    0.136853
    12  H    0.154641
    13  H    0.103406
    14  H    0.124103
    15  H    0.103406
    16  H    0.343737
    17  H    0.343737
    18  H    0.162097
    19  H    0.154634
    20  H    0.136865
 Sum of Mulliken atomic charges =  -0.00000
 Mulliken charges with hydrogens summed into heavy atoms:
              1
     1  C   -0.104011
     2  C    0.172448
     3  C   -0.132898
     4  C    0.026276
     5  C   -0.132893
     6  C    0.172453
     7  C    0.143700
     8  N   -0.041059
     9  C   -0.104017
 Sum of Mulliken charges with hydrogens summed into heavy atoms =  -0.00000
 Electronic spatial extent (au):  <R**2>=           1209.5245
 Charge=              0.0000 electrons
 Dipole moment (field-independent basis, Debye):
    X=             -0.0002    Y=             -2.7047    Z=             -0.9447  Tot=              2.8649
 Quadrupole moment (field-independent basis, Debye-Ang):
   XX=            -51.8909   YY=            -46.6116   ZZ=            -58.0474
   XY=              0.0004   XZ=             -0.0002   YZ=              2.8096
 Traceless Quadrupole moment (field-independent basis, Debye-Ang):
   XX=              0.2924   YY=              5.5717   ZZ=             -5.8641
   XY=              0.0004   XZ=             -0.0002   YZ=              2.8096
 Octapole moment (field-independent basis, Debye-Ang**2):
  XXX=             -0.0007  YYY=            -18.9749  ZZZ=             -0.5781  XYY=             -0.0009
  XXY=             -2.5389  XXZ=              0.0579  XZZ=             -0.0001  YZZ=             -5.9453
  YYZ=             -7.5891  XYZ=              0.0003
 Hexadecapole moment (field-independent basis, Debye-Ang**3):
 XXXX=           -899.1964 YYYY=           -583.4238 ZZZZ=            -74.3645 XXXY=              0.0016
 XXXZ=             -0.0026 YYYX=              0.0036 YYYZ=             20.5324 ZZZX=              0.0008
 ZZZY=              2.1895 XXYY=           -252.0402 XXZZ=           -169.6822 YYZZ=           -130.4994
 XXYZ=              1.6591 YYXZ=             -0.0018 ZZXY=             -0.0002
 N-N= 4.302963298422D+02 E-N=-1.708898688316D+03  KE= 3.628219432996D+02
 No NMR shielding tensors so no spin-rotation constants.
 Leave Link  601 at Tue Oct  5 00:03:29 2021, MaxMem=  805306368 cpu:       0.5
 (Enter /sw/target/amd/app/gaussian/Gaussian09RevA.02_gcc-4.9.2/g09/l604.exe)
 Evaluate density.
 Using the total density.
 Monte-Carlo method of calculating molar volume:
 based on  0.001 e/bohr**3 density envelope.
 Number of points per bohr**3 =   20 CutOff= 1.00D-04
 Using the CI density.
 There are       361 points.  Will hold       361 in memory.
 LenV=   805223441 MDV=   805306368.
 Box volume = 5901.389 fraction occupied=0.208
 Integrated density= 5.4932294232329767D+01 error=-1.1067705767670233D+01
 Molar volume = 1226.050 bohr**3/mol (109.411 cm**3/mol)
 Recommended a0 for SCRF calculation =  4.37 angstrom (  8.25 bohr)
 Leave Link  604 at Tue Oct  5 00:03:30 2021, MaxMem=  805306368 cpu:       0.1
 (Enter /sw/target/amd/app/gaussian/Gaussian09RevA.02_gcc-4.9.2/g09/l607.exe)
 ******************************Gaussian NBO Version 3.1******************************
             N A T U R A L   A T O M I C   O R B I T A L   A N D
          N A T U R A L   B O N D   O R B I T A L   A N A L Y S I S
 ******************************Gaussian NBO Version 3.1******************************
       /RESON  / : Allow strongly delocalized NBO set

 Analyzing the CI density

 Job title: Cc1cccc(c1N)C_conf_0                                            

 Storage needed:     75324 in NPA ( 805304168 available)


 NATURAL POPULATIONS:  Natural atomic orbital occupancies 
                                                          
   NAO  Atom  No  lang   Type(AO)    Occupancy
 --------------------------------------------
     1    C    1  S      Cor( 1S)     1.99941
     2    C    1  S      Val( 2S)     1.09538
     3    C    1  S      Ryd( 3S)     0.00027
     4    C    1  S      Ryd( 4S)     0.00001
     5    C    1  px     Val( 2p)     1.14584
     6    C    1  px     Ryd( 3p)     0.00185
     7    C    1  py     Val( 2p)     1.21942
     8    C    1  py     Ryd( 3p)     0.00215
     9    C    1  pz     Val( 2p)     1.23064
    10    C    1  pz     Ryd( 3p)     0.00024
    11    C    1  dxy    Ryd( 3d)     0.00084
    12    C    1  dxz    Ryd( 3d)     0.00043
    13    C    1  dyz    Ryd( 3d)     0.00126
    14    C    1  dx2y2  Ryd( 3d)     0.00043
    15    C    1  dz2    Ryd( 3d)     0.00059

    16    C    2  S      Cor( 1S)     1.99900
    17    C    2  S      Val( 2S)     0.87074
    18    C    2  S      Ryd( 3S)     0.00048
    19    C    2  S      Ryd( 4S)     0.00005
    20    C    2  px     Val( 2p)     1.03964
    21    C    2  px     Ryd( 3p)     0.00408
    22    C    2  py     Val( 2p)     1.08291
    23    C    2  py     Ryd( 3p)     0.00431
    24    C    2  pz     Val( 2p)     1.08424
    25    C    2  pz     Ryd( 3p)     0.00510
    26    C    2  dxy    Ryd( 3d)     0.00071
    27    C    2  dxz    Ryd( 3d)     0.00050
    28    C    2  dyz    Ryd( 3d)     0.00077
    29    C    2  dx2y2  Ryd( 3d)     0.00066
    30    C    2  dz2    Ryd( 3d)     0.00035

    31    C    3  S      Cor( 1S)     1.99907
    32    C    3  S      Val( 2S)     0.94571
    33    C    3  S      Ryd( 3S)     0.00059
    34    C    3  S      Ryd( 4S)     0.00004
    35    C    3  px     Val( 2p)     1.15631
    36    C    3  px     Ryd( 3p)     0.00434
    37    C    3  py     Val( 2p)     1.08039
    38    C    3  py     Ryd( 3p)     0.00463
    39    C    3  pz     Val( 2p)     1.09867
    40    C    3  pz     Ryd( 3p)     0.00571
    41    C    3  dxy    Ryd( 3d)     0.00076
    42    C    3  dxz    Ryd( 3d)     0.00038
    43    C    3  dyz    Ryd( 3d)     0.00060
    44    C    3  dx2y2  Ryd( 3d)     0.00070
    45    C    3  dz2    Ryd( 3d)     0.00043

    46    C    4  S      Cor( 1S)     1.99911
    47    C    4  S      Val( 2S)     0.96543
    48    C    4  S      Ryd( 3S)     0.00053
    49    C    4  S      Ryd( 4S)     0.00003
    50    C    4  px     Val( 2p)     1.06010
    51    C    4  px     Ryd( 3p)     0.00496
    52    C    4  py     Val( 2p)     1.18879
    53    C    4  py     Ryd( 3p)     0.00484
    54    C    4  pz     Val( 2p)     0.92990
    55    C    4  pz     Ryd( 3p)     0.00231
    56    C    4  dxy    Ryd( 3d)     0.00065
    57    C    4  dxz    Ryd( 3d)     0.00104
    58    C    4  dyz    Ryd( 3d)     0.00030
    59    C    4  dx2y2  Ryd( 3d)     0.00092
    60    C    4  dz2    Ryd( 3d)     0.00043

    61    C    5  S      Cor( 1S)     1.99907
    62    C    5  S      Val( 2S)     0.94571
    63    C    5  S      Ryd( 3S)     0.00059
    64    C    5  S      Ryd( 4S)     0.00004
    65    C    5  px     Val( 2p)     1.15631
    66    C    5  px     Ryd( 3p)     0.00434
    67    C    5  py     Val( 2p)     1.08039
    68    C    5  py     Ryd( 3p)     0.00463
    69    C    5  pz     Val( 2p)     1.09867
    70    C    5  pz     Ryd( 3p)     0.00571
    71    C    5  dxy    Ryd( 3d)     0.00076
    72    C    5  dxz    Ryd( 3d)     0.00038
    73    C    5  dyz    Ryd( 3d)     0.00060
    74    C    5  dx2y2  Ryd( 3d)     0.00070
    75    C    5  dz2    Ryd( 3d)     0.00043

    76    C    6  S      Cor( 1S)     1.99900
    77    C    6  S      Val( 2S)     0.87074
    78    C    6  S      Ryd( 3S)     0.00048
    79    C    6  S      Ryd( 4S)     0.00005
    80    C    6  px     Val( 2p)     1.03964
    81    C    6  px     Ryd( 3p)     0.00408
    82    C    6  py     Val( 2p)     1.08291
    83    C    6  py     Ryd( 3p)     0.00431
    84    C    6  pz     Val( 2p)     1.08423
    85    C    6  pz     Ryd( 3p)     0.00510
    86    C    6  dxy    Ryd( 3d)     0.00071
    87    C    6  dxz    Ryd( 3d)     0.00050
    88    C    6  dyz    Ryd( 3d)     0.00076
    89    C    6  dx2y2  Ryd( 3d)     0.00066
    90    C    6  dz2    Ryd( 3d)     0.00035

    91    C    7  S      Cor( 1S)     1.99886
    92    C    7  S      Val( 2S)     0.83892
    93    C    7  S      Ryd( 3S)     0.00130
    94    C    7  S      Ryd( 4S)     0.00009
    95    C    7  px     Val( 2p)     1.10219
    96    C    7  px     Ryd( 3p)     0.00375
    97    C    7  py     Val( 2p)     0.87699
    98    C    7  py     Ryd( 3p)     0.00566
    99    C    7  pz     Val( 2p)     0.99611
   100    C    7  pz     Ryd( 3p)     0.00208
   101    C    7  dxy    Ryd( 3d)     0.00079
   102    C    7  dxz    Ryd( 3d)     0.00129
   103    C    7  dyz    Ryd( 3d)     0.00112
   104    C    7  dx2y2  Ryd( 3d)     0.00126
   105    C    7  dz2    Ryd( 3d)     0.00041

   106    N    8  S      Cor( 1S)     1.99948
   107    N    8  S      Val( 2S)     1.36398
   108    N    8  S      Ryd( 3S)     0.00021
   109    N    8  S      Ryd( 4S)     0.00002
   110    N    8  px     Val( 2p)     1.40705
   111    N    8  px     Ryd( 3p)     0.00152
   112    N    8  py     Val( 2p)     1.33641
   113    N    8  py     Ryd( 3p)     0.00211
   114    N    8  pz     Val( 2p)     1.58729
   115    N    8  pz     Ryd( 3p)     0.00313
   116    N    8  dxy    Ryd( 3d)     0.00058
   117    N    8  dxz    Ryd( 3d)     0.00106
   118    N    8  dyz    Ryd( 3d)     0.00107
   119    N    8  dx2y2  Ryd( 3d)     0.00048
   120    N    8  dz2    Ryd( 3d)     0.00081

   121    C    9  S      Cor( 1S)     1.99941
   122    C    9  S      Val( 2S)     1.09538
   123    C    9  S      Ryd( 3S)     0.00027
   124    C    9  S      Ryd( 4S)     0.00001
   125    C    9  px     Val( 2p)     1.14584
   126    C    9  px     Ryd( 3p)     0.00185
   127    C    9  py     Val( 2p)     1.21943
   128    C    9  py     Ryd( 3p)     0.00215
   129    C    9  pz     Val( 2p)     1.23064
   130    C    9  pz     Ryd( 3p)     0.00024
   131    C    9  dxy    Ryd( 3d)     0.00084
   132    C    9  dxz    Ryd( 3d)     0.00043
   133    C    9  dyz    Ryd( 3d)     0.00126
   134    C    9  dx2y2  Ryd( 3d)     0.00043
   135    C    9  dz2    Ryd( 3d)     0.00059

   136    H   10  S      Val( 1S)     0.75240
   137    H   10  S      Ryd( 2S)     0.00079

   138    H   11  S      Val( 1S)     0.77984
   139    H   11  S      Ryd( 2S)     0.00216

   140    H   12  S      Val( 1S)     0.76631
   141    H   12  S      Ryd( 2S)     0.00212

   142    H   13  S      Val( 1S)     0.77757
   143    H   13  S      Ryd( 2S)     0.00101

   144    H   14  S      Val( 1S)     0.77090
   145    H   14  S      Ryd( 2S)     0.00089

   146    H   15  S      Val( 1S)     0.77757
   147    H   15  S      Ryd( 2S)     0.00101

   148    H   16  S      Val( 1S)     0.59220
   149    H   16  S      Ryd( 2S)     0.00137

   150    H   17  S      Val( 1S)     0.59221
   151    H   17  S      Ryd( 2S)     0.00137

   152    H   18  S      Val( 1S)     0.75240
   153    H   18  S      Ryd( 2S)     0.00080

   154    H   19  S      Val( 1S)     0.76631
   155    H   19  S      Ryd( 2S)     0.00212

   156    H   20  S      Val( 1S)     0.77983
   157    H   20  S      Ryd( 2S)     0.00216

 WARNING:  1 low occupancy (<1.9990e) core orbital  found on  C    7


 Summary of Natural Population Analysis:                  
                                                          
                                       Natural Population 
                Natural  -----------------------------------------------
    Atom  No    Charge         Core      Valence    Rydberg      Total
 -----------------------------------------------------------------------
      C    1   -0.69876      1.99941     4.69128    0.00807     6.69876
      C    2   -0.09355      1.99900     4.07753    0.01702     6.09355
      C    3   -0.29835      1.99907     4.28108    0.01820     6.29835
      C    4   -0.15935      1.99911     4.14422    0.01602     6.15935
      C    5   -0.29835      1.99907     4.28108    0.01820     6.29835
      C    6   -0.09354      1.99900     4.07752    0.01702     6.09354
      C    7    0.16918      1.99886     3.81421    0.01775     5.83082
      N    8   -0.70521      1.99948     5.69473    0.01100     7.70521
      C    9   -0.69877      1.99941     4.69129    0.00807     6.69877
      H   10    0.24680      0.00000     0.75240    0.00079     0.75320
      H   11    0.21800      0.00000     0.77984    0.00216     0.78200
      H   12    0.23158      0.00000     0.76631    0.00212     0.76842
      H   13    0.22142      0.00000     0.77757    0.00101     0.77858
      H   14    0.22822      0.00000     0.77090    0.00089     0.77178
      H   15    0.22142      0.00000     0.77757    0.00101     0.77858
      H   16    0.40643      0.00000     0.59220    0.00137     0.59357
      H   17    0.40643      0.00000     0.59221    0.00137     0.59357
      H   18    0.24681      0.00000     0.75240    0.00080     0.75319
      H   19    0.23157      0.00000     0.76631    0.00212     0.76843
      H   20    0.21801      0.00000     0.77983    0.00216     0.78199
 =======================================================================
   * Total *   -0.00000     17.99241    47.86047    0.14712    66.00000

                                 Natural Population      
 --------------------------------------------------------
   Core                      17.99241 ( 99.9578% of  18)
   Valence                   47.86047 ( 99.7093% of  48)
   Natural Minimal Basis     65.85288 ( 99.7771% of  66)
   Natural Rydberg Basis      0.14712 (  0.2229% of  66)
 --------------------------------------------------------

    Atom  No          Natural Electron Configuration
 ----------------------------------------------------------------------------
      C    1      [core]2S( 1.10)2p( 3.60)
      C    2      [core]2S( 0.87)2p( 3.21)3p( 0.01)
      C    3      [core]2S( 0.95)2p( 3.34)3p( 0.01)
      C    4      [core]2S( 0.97)2p( 3.18)3p( 0.01)
      C    5      [core]2S( 0.95)2p( 3.34)3p( 0.01)
      C    6      [core]2S( 0.87)2p( 3.21)3p( 0.01)
      C    7      [core]2S( 0.84)2p( 2.98)3p( 0.01)
      N    8      [core]2S( 1.36)2p( 4.33)3p( 0.01)
      C    9      [core]2S( 1.10)2p( 3.60)
      H   10            1S( 0.75)
      H   11            1S( 0.78)
      H   12            1S( 0.77)
      H   13            1S( 0.78)
      H   14            1S( 0.77)
      H   15            1S( 0.78)
      H   16            1S( 0.59)
      H   17            1S( 0.59)
      H   18            1S( 0.75)
      H   19            1S( 0.77)
      H   20            1S( 0.78)


 NBO analysis skipped by request.
 Leave Link  607 at Tue Oct  5 00:03:33 2021, MaxMem=  805306368 cpu:       7.1
 (Enter /sw/target/amd/app/gaussian/Gaussian09RevA.02_gcc-4.9.2/g09/l9999.exe)
 1\1\GINC-HERMITE\SP\RTD-B3LYP-FC\6-31G(d)\C8H11N1\JSCHLEINITZ\05-Oct-2
 021\0\\#p TD(NStates=10, Root=1) b3lyp/6-31G* volume pop=NPA density=c
 urrent Geom=AllCheck Guess=Read\\Cc1cccc(c1N)C_conf_0\\0,1\C,0,-2.5285
 927321,-0.781680497,-0.0642787072\C,0,-1.2221478175,-0.0262628017,-0.0
 220902977\C,0,-1.2005132643,1.3697573456,0.0203607249\C,0,-0.000232916
 9,2.0779922992,0.0469605244\C,0,1.2024610599,1.3737557849,0.0243056632
 \C,0,1.2288784602,-0.0221988893,-0.0180695973\C,0,0.0045689361,-0.7265
 174373,-0.0358281885\N,0,0.0070548589,-2.1264121925,-0.1339638845\C,0,
 2.5379683703,-0.7732590439,-0.055929396\H,0,-3.3782753331,-0.093021681
 9,-0.0872597121\H,0,-2.6642874885,-1.4300738,0.8151740972\H,0,-2.59700
 10199,-1.4268157837,-0.9507493021\H,0,-2.1469711136,1.9062556302,0.031
 9511917\H,0,-0.002098949,3.1636941463,0.0791706042\H,0,2.1470965237,1.
 9133779371,0.0389808405\H,0,0.8406181158,-2.5749485747,0.2242318089\H,
 0,-0.826098261,-2.5777382551,0.2216608889\H,0,3.3854139642,-0.08176943
 76,-0.076359707\H,0,2.6113763834,-1.4183525852,-0.9420334216\H,0,2.673
 0176519,-1.4210030827,0.8241028389\\Version=AM64L-G09RevA.02\State=1-A
 \HF=-366.2371757\RMSD=1.142e-09\Dipole=0.0012832,-1.0731924,0.3445301\
 Quadrupole=0.2173569,4.2430516,-4.4604085,-0.0038813,0.0105964,-1.8702
 283\PG=C01 [X(C8H11N1)]\\@


 SILVERMAN'S PARADOX - IF MURPHY'S LAW CAN GO WRONG, IT WILL.
 Job cpu time:  0 days  0 hours 44 minutes  3.9 seconds.
 File lengths (MBytes):  RWF=     86 Int=      0 D2E=      0 Chk=     12 Scr=      1
 Normal termination of Gaussian 09 at Tue Oct  5 00:06:45 2021.
