 Entering Gaussian System, Link 0=g09
 Input=C8H10LiN_4800_conf_0.com
 Output=C8H10LiN_4800_conf_0.log
 Initial command:
 /sw/target/amd/app/gaussian/Gaussian09RevA.02_gcc-4.9.2/g09/l1.exe /home/jschleinitz/gaussian/Gau-3514357.inp -scrdir=/home/jschleinitz/gaussian/
 Entering Link 1 = /sw/target/amd/app/gaussian/Gaussian09RevA.02_gcc-4.9.2/g09/l1.exe PID=   3514359.
  
 Copyright (c) 1988,1990,1992,1993,1995,1998,2003,2009, Gaussian, Inc.
                  All Rights Reserved.
  
 This is part of the Gaussian(R) 09 program.  It is based on
 the Gaussian(R) 03 system (copyright 2003, Gaussian, Inc.),
 the Gaussian(R) 98 system (copyright 1998, Gaussian, Inc.),
 the Gaussian(R) 94 system (copyright 1995, Gaussian, Inc.),
 the Gaussian 92(TM) system (copyright 1992, Gaussian, Inc.),
 the Gaussian 90(TM) system (copyright 1990, Gaussian, Inc.),
 the Gaussian 88(TM) system (copyright 1988, Gaussian, Inc.),
 the Gaussian 86(TM) system (copyright 1986, Carnegie Mellon
 University), and the Gaussian 82(TM) system (copyright 1983,
 Carnegie Mellon University). Gaussian is a federally registered
 trademark of Gaussian, Inc.
  
 This software contains proprietary and confidential information,
 including trade secrets, belonging to Gaussian, Inc.
  
 This software is provided under written license and may be
 used, copied, transmitted, or stored only in accord with that
 written license.
  
 The following legend is applicable only to US Government
 contracts under FAR:
  
                    RESTRICTED RIGHTS LEGEND
  
 Use, reproduction and disclosure by the US Government is
 subject to restrictions as set forth in subparagraphs (a)
 and (c) of the Commercial Computer Software - Restricted
 Rights clause in FAR 52.227-19.
  
 Gaussian, Inc.
 340 Quinnipiac St., Bldg. 40, Wallingford CT 06492
  
  
 ---------------------------------------------------------------
 Warning -- This program may not be used in any manner that
 competes with the business of Gaussian, Inc. or will provide
 assistance to any competitor of Gaussian, Inc.  The licensee
 of this program is prohibited from giving any competitor of
 Gaussian, Inc. access to this program.  By using this program,
 the user acknowledges that Gaussian, Inc. is engaged in the
 business of creating and licensing software in the field of
 computational chemistry and represents and warrants to the
 licensee that it is not a competitor of Gaussian, Inc. and that
 it will not use this program in any manner prohibited above.
 ---------------------------------------------------------------
  

 Cite this work as:
 Gaussian 09, Revision A.02,
 M. J. Frisch, G. W. Trucks, H. B. Schlegel, G. E. Scuseria, 
 M. A. Robb, J. R. Cheeseman, G. Scalmani, V. Barone, B. Mennucci, 
 G. A. Petersson, H. Nakatsuji, M. Caricato, X. Li, H. P. Hratchian, 
 A. F. Izmaylov, J. Bloino, G. Zheng, J. L. Sonnenberg, M. Hada, 
 M. Ehara, K. Toyota, R. Fukuda, J. Hasegawa, M. Ishida, T. Nakajima, 
 Y. Honda, O. Kitao, H. Nakai, T. Vreven, J. A. Montgomery, Jr., 
 J. E. Peralta, F. Ogliaro, M. Bearpark, J. J. Heyd, E. Brothers, 
 K. N. Kudin, V. N. Staroverov, R. Kobayashi, J. Normand, 
 K. Raghavachari, A. Rendell, J. C. Burant, S. S. Iyengar, J. Tomasi, 
 M. Cossi, N. Rega, J. M. Millam, M. Klene, J. E. Knox, J. B. Cross, 
 V. Bakken, C. Adamo, J. Jaramillo, R. Gomperts, R. E. Stratmann, 
 O. Yazyev, A. J. Austin, R. Cammi, C. Pomelli, J. W. Ochterski, 
 R. L. Martin, K. Morokuma, V. G. Zakrzewski, G. A. Voth, 
 P. Salvador, J. J. Dannenberg, S. Dapprich, A. D. Daniels, 
 O. Farkas, J. B. Foresman, J. V. Ortiz, J. Cioslowski, 
 and D. J. Fox, Gaussian, Inc., Wallingford CT, 2009.
 
 ******************************************
 Gaussian 09:  AM64L-G09RevA.02 11-Jun-2009
                 2-Oct-2021 
 ******************************************
 %nproc=3
 Will use up to    3 processors via shared memory.
 %mem=6gb
 %chk=C8H10LiN_4800_conf_0.chk
 -----------------------------------
 #p opt b3lyp/6-31G* scf=(xqc,tight)
 -----------------------------------
 1/14=-1,18=20,19=15,26=3,38=1/1,3;
 2/9=110,12=2,17=6,18=5,40=1/2;
 3/5=1,6=6,7=1,11=2,16=1,25=1,30=1,71=1,74=-5/1,2,3;
 4//1;
 5/5=2,8=3,13=1,32=2,38=5/2,8;
 6/7=2,8=2,9=2,10=2,28=1/1;
 7//1,2,3,16;
 1/14=-1,18=20,19=15/3(2);
 2/9=110/2;
 99//99;
 2/9=110/2;
 3/5=1,6=6,7=1,11=2,16=1,25=1,30=1,71=1,74=-5/1,2,3;
 4/5=5,16=3/1;
 5/5=2,8=3,13=1,32=2,38=5/2,8;
 7//1,2,3,16;
 1/14=-1,18=20,19=15/3(-5);
 2/9=110/2;
 6/7=2,8=2,9=2,10=2,19=2,28=1/1;
 99/9=1/99;
 Leave Link    1 at Sat Oct  2 17:41:06 2021, MaxMem=  805306368 cpu:       0.1
 (Enter /sw/target/amd/app/gaussian/Gaussian09RevA.02_gcc-4.9.2/g09/l101.exe)
 --------------------------
 CN(c1ccc(cc1)[Li])C_conf_0
 --------------------------
 Symbolic Z-matrix:
 Charge =  0 Multiplicity = 1
 C                     2.87519  -0.18343   1.42823 
 N                     2.51776   0.0275    0.02952 
 C                     3.19105  -0.61406  -1.08492 
 C                     2.74468  -0.39422  -2.41393 
 C                     3.37676  -1.00025  -3.50276 
 C                     4.46862  -1.83743  -3.3023 
 C                     4.93342  -2.07208  -2.01262 
 C                     4.30916  -1.47306  -0.91359 
 Li                    5.38054  -2.71077  -4.8833 
 C                     1.41203   0.94454  -0.21289 
 H                     3.69759  -0.89075   1.5979 
 H                     1.99516  -0.58177   1.97704 
 H                     3.17212   0.78445   1.88525 
 H                     1.90228   0.24562  -2.63232 
 H                     3.01883  -0.82003  -4.50775 
 H                     5.78505  -2.72298  -1.86409 
 H                     4.73547  -1.70563   0.04463 
 H                     1.00564   1.3588    0.73594 
 H                     0.58287   0.41412  -0.72698 
 H                     1.75831   1.79984  -0.83121 
 
 NAtoms=     20 NQM=     20 NQMF=      0 NMic=      0 NMicF=      0 NTot=     20.
                    Isotopes and Nuclear Properties:
 (Nuclear quadrupole moments (NQMom) in fm**2, nuclear magnetic moments (NMagM)
  in nuclear magnetons)

  Atom         1           2           3           4           5           6           7           8           9          10
 IAtWgt=          12          14          12          12          12          12          12          12           7          12
 AtmWgt=  12.0000000  14.0030740  12.0000000  12.0000000  12.0000000  12.0000000  12.0000000  12.0000000   7.0160045  12.0000000
 NucSpn=           0           2           0           0           0           0           0           0           3           0
 AtZEff=   0.0000000   0.0000000   0.0000000   0.0000000   0.0000000   0.0000000   0.0000000   0.0000000   0.0000000   0.0000000
 NQMom=    0.0000000   2.0440000   0.0000000   0.0000000   0.0000000   0.0000000   0.0000000   0.0000000  -4.0100000   0.0000000
 NMagM=    0.0000000   0.4037610   0.0000000   0.0000000   0.0000000   0.0000000   0.0000000   0.0000000   3.2564240   0.0000000

  Atom        11          12          13          14          15          16          17          18          19          20
 IAtWgt=           1           1           1           1           1           1           1           1           1           1
 AtmWgt=   1.0078250   1.0078250   1.0078250   1.0078250   1.0078250   1.0078250   1.0078250   1.0078250   1.0078250   1.0078250
 NucSpn=           1           1           1           1           1           1           1           1           1           1
 AtZEff=   0.0000000   0.0000000   0.0000000   0.0000000   0.0000000   0.0000000   0.0000000   0.0000000   0.0000000   0.0000000
 NQMom=    0.0000000   0.0000000   0.0000000   0.0000000   0.0000000   0.0000000   0.0000000   0.0000000   0.0000000   0.0000000
 NMagM=    2.7928460   2.7928460   2.7928460   2.7928460   2.7928460   2.7928460   2.7928460   2.7928460   2.7928460   2.7928460
 Leave Link  101 at Sat Oct  2 17:41:07 2021, MaxMem=  805306368 cpu:       0.2
 (Enter /sw/target/amd/app/gaussian/Gaussian09RevA.02_gcc-4.9.2/g09/l103.exe)

 GradGradGradGradGradGradGradGradGradGradGradGradGradGradGradGradGradGrad
 Berny optimization.
 Initialization pass.
                           ----------------------------
                           !    Initial Parameters    !
                           ! (Angstroms and Degrees)  !
 --------------------------                            --------------------------
 ! Name  Definition              Value          Derivative Info.                !
 --------------------------------------------------------------------------------
 ! R1    R(1,2)                  1.459          estimate D2E/DX2                !
 ! R2    R(1,11)                 1.0979         estimate D2E/DX2                !
 ! R3    R(1,12)                 1.111          estimate D2E/DX2                !
 ! R4    R(1,13)                 1.1108         estimate D2E/DX2                !
 ! R5    R(2,3)                  1.4515         estimate D2E/DX2                !
 ! R6    R(2,10)                 1.4568         estimate D2E/DX2                !
 ! R7    R(3,4)                  1.4191         estimate D2E/DX2                !
 ! R8    R(3,8)                  1.4204         estimate D2E/DX2                !
 ! R9    R(4,5)                  1.3973         estimate D2E/DX2                !
 ! R10   R(4,14)                 1.0802         estimate D2E/DX2                !
 ! R11   R(5,6)                  1.3904         estimate D2E/DX2                !
 ! R12   R(5,15)                 1.0819         estimate D2E/DX2                !
 ! R13   R(6,7)                  1.3908         estimate D2E/DX2                !
 ! R14   R(6,9)                  2.0233         estimate D2E/DX2                !
 ! R15   R(7,8)                  1.3987         estimate D2E/DX2                !
 ! R16   R(7,16)                 1.0821         estimate D2E/DX2                !
 ! R17   R(8,17)                 1.0743         estimate D2E/DX2                !
 ! R18   R(10,18)                1.1122         estimate D2E/DX2                !
 ! R19   R(10,19)                1.1105         estimate D2E/DX2                !
 ! R20   R(10,20)                1.1108         estimate D2E/DX2                !
 ! A1    A(2,1,11)             115.1377         estimate D2E/DX2                !
 ! A2    A(2,1,12)             109.3514         estimate D2E/DX2                !
 ! A3    A(2,1,13)             109.5089         estimate D2E/DX2                !
 ! A4    A(11,1,12)            106.6188         estimate D2E/DX2                !
 ! A5    A(11,1,13)            107.3095         estimate D2E/DX2                !
 ! A6    A(12,1,13)            108.7189         estimate D2E/DX2                !
 ! A7    A(1,2,3)              123.9537         estimate D2E/DX2                !
 ! A8    A(1,2,10)             115.8788         estimate D2E/DX2                !
 ! A9    A(3,2,10)             120.1675         estimate D2E/DX2                !
 ! A10   A(2,3,4)              120.3091         estimate D2E/DX2                !
 ! A11   A(2,3,8)              122.673          estimate D2E/DX2                !
 ! A12   A(4,3,8)              117.0176         estimate D2E/DX2                !
 ! A13   A(3,4,5)              121.353          estimate D2E/DX2                !
 ! A14   A(3,4,14)             121.7644         estimate D2E/DX2                !
 ! A15   A(5,4,14)             116.8825         estimate D2E/DX2                !
 ! A16   A(4,5,6)              120.2678         estimate D2E/DX2                !
 ! A17   A(4,5,15)             120.1276         estimate D2E/DX2                !
 ! A18   A(6,5,15)             119.6045         estimate D2E/DX2                !
 ! A19   A(5,6,7)              119.8486         estimate D2E/DX2                !
 ! A20   A(5,6,9)              120.0773         estimate D2E/DX2                !
 ! A21   A(7,6,9)              120.0741         estimate D2E/DX2                !
 ! A22   A(6,7,8)              120.4773         estimate D2E/DX2                !
 ! A23   A(6,7,16)             119.4566         estimate D2E/DX2                !
 ! A24   A(8,7,16)             120.0661         estimate D2E/DX2                !
 ! A25   A(3,8,7)              121.0355         estimate D2E/DX2                !
 ! A26   A(3,8,17)             123.4307         estimate D2E/DX2                !
 ! A27   A(7,8,17)             115.5333         estimate D2E/DX2                !
 ! A28   A(2,10,18)            111.7051         estimate D2E/DX2                !
 ! A29   A(2,10,19)            110.0652         estimate D2E/DX2                !
 ! A30   A(2,10,20)            109.9206         estimate D2E/DX2                !
 ! A31   A(18,10,19)           107.4587         estimate D2E/DX2                !
 ! A32   A(18,10,20)           107.5776         estimate D2E/DX2                !
 ! A33   A(19,10,20)           110.0518         estimate D2E/DX2                !
 ! D1    D(11,1,2,3)            -1.0287         estimate D2E/DX2                !
 ! D2    D(11,1,2,10)          178.9187         estimate D2E/DX2                !
 ! D3    D(12,1,2,3)          -121.0049         estimate D2E/DX2                !
 ! D4    D(12,1,2,10)           58.9426         estimate D2E/DX2                !
 ! D5    D(13,1,2,3)           119.9638         estimate D2E/DX2                !
 ! D6    D(13,1,2,10)          -60.0888         estimate D2E/DX2                !
 ! D7    D(1,2,3,4)            177.4732         estimate D2E/DX2                !
 ! D8    D(1,2,3,8)             -2.7321         estimate D2E/DX2                !
 ! D9    D(10,2,3,4)            -2.4721         estimate D2E/DX2                !
 ! D10   D(10,2,3,8)           177.3226         estimate D2E/DX2                !
 ! D11   D(1,2,10,18)            0.4236         estimate D2E/DX2                !
 ! D12   D(1,2,10,19)         -118.8626         estimate D2E/DX2                !
 ! D13   D(1,2,10,20)          119.7631         estimate D2E/DX2                !
 ! D14   D(3,2,10,18)         -179.6268         estimate D2E/DX2                !
 ! D15   D(3,2,10,19)           61.087          estimate D2E/DX2                !
 ! D16   D(3,2,10,20)          -60.2873         estimate D2E/DX2                !
 ! D17   D(2,3,4,5)            179.9811         estimate D2E/DX2                !
 ! D18   D(2,3,4,14)            -0.1262         estimate D2E/DX2                !
 ! D19   D(8,3,4,5)              0.1751         estimate D2E/DX2                !
 ! D20   D(8,3,4,14)          -179.9322         estimate D2E/DX2                !
 ! D21   D(2,3,8,7)           -179.9051         estimate D2E/DX2                !
 ! D22   D(2,3,8,17)            -0.1903         estimate D2E/DX2                !
 ! D23   D(4,3,8,7)             -0.1041         estimate D2E/DX2                !
 ! D24   D(4,3,8,17)           179.6107         estimate D2E/DX2                !
 ! D25   D(3,4,5,6)             -0.119          estimate D2E/DX2                !
 ! D26   D(3,4,5,15)           179.8997         estimate D2E/DX2                !
 ! D27   D(14,4,5,6)           179.9833         estimate D2E/DX2                !
 ! D28   D(14,4,5,15)            0.002          estimate D2E/DX2                !
 ! D29   D(4,5,6,7)             -0.0152         estimate D2E/DX2                !
 ! D30   D(4,5,6,9)           -179.9486         estimate D2E/DX2                !
 ! D31   D(15,5,6,7)           179.9663         estimate D2E/DX2                !
 ! D32   D(15,5,6,9)             0.0328         estimate D2E/DX2                !
 ! D33   D(5,6,7,8)              0.0856         estimate D2E/DX2                !
 ! D34   D(5,6,7,16)          -179.8628         estimate D2E/DX2                !
 ! D35   D(9,6,7,8)           -179.9809         estimate D2E/DX2                !
 ! D36   D(9,6,7,16)             0.0707         estimate D2E/DX2                !
 ! D37   D(6,7,8,3)             -0.0236         estimate D2E/DX2                !
 ! D38   D(6,7,8,17)          -179.7598         estimate D2E/DX2                !
 ! D39   D(16,7,8,3)           179.9245         estimate D2E/DX2                !
 ! D40   D(16,7,8,17)            0.1883         estimate D2E/DX2                !
 --------------------------------------------------------------------------------
 Trust Radius=3.00D-01 FncErr=1.00D-07 GrdErr=1.00D-06
 Number of steps in this run= 103 maximum allowed number of steps= 120.
 GradGradGradGradGradGradGradGradGradGradGradGradGradGradGradGradGradGrad

 Leave Link  103 at Sat Oct  2 17:41:08 2021, MaxMem=  805306368 cpu:       0.0
 (Enter /sw/target/amd/app/gaussian/Gaussian09RevA.02_gcc-4.9.2/g09/l202.exe)
                          Input orientation:                          
 ---------------------------------------------------------------------
 Center     Atomic      Atomic             Coordinates (Angstroms)
 Number     Number       Type             X           Y           Z
 ---------------------------------------------------------------------
      1          6           0        2.875185   -0.183431    1.428232
      2          7           0        2.517761    0.027502    0.029523
      3          6           0        3.191047   -0.614057   -1.084915
      4          6           0        2.744677   -0.394222   -2.413927
      5          6           0        3.376765   -1.000252   -3.502763
      6          6           0        4.468622   -1.837432   -3.302302
      7          6           0        4.933420   -2.072084   -2.012619
      8          6           0        4.309157   -1.473057   -0.913588
      9          3           0        5.380541   -2.710774   -4.883299
     10          6           0        1.412032    0.944539   -0.212890
     11          1           0        3.697588   -0.890748    1.597898
     12          1           0        1.995163   -0.581774    1.977044
     13          1           0        3.172125    0.784452    1.885248
     14          1           0        1.902281    0.245621   -2.632323
     15          1           0        3.018826   -0.820035   -4.507746
     16          1           0        5.785045   -2.722978   -1.864090
     17          1           0        4.735470   -1.705630    0.044632
     18          1           0        1.005640    1.358796    0.735937
     19          1           0        0.582866    0.414120   -0.726984
     20          1           0        1.758312    1.799842   -0.831211
 ---------------------------------------------------------------------
                    Distance matrix (angstroms):
                    1          2          3          4          5
     1  C    0.000000
     2  N    1.458983   0.000000
     3  C    2.569263   1.451511   0.000000
     4  C    3.850149   2.489937   1.419100   0.000000
     5  C    5.023294   3.777725   2.455529   1.397273   0.000000
     6  C    5.258585   4.287761   2.836486   2.417447   1.390398
     7  C    4.432019   3.796579   2.454046   2.786909   2.406767
     8  C    3.033732   2.519967   1.420354   2.421259   2.792262
     9  Li   7.245667   6.311060   4.859818   4.290919   2.974371
    10  C    2.471115   1.456831   2.520822   2.900481   4.297168
    11  H    1.097921   2.166790   2.744200   4.153230   5.111914
    12  H    1.110995   2.106458   3.287366   4.458427   5.666765
    13  H    1.110781   2.108289   3.282995   4.478268   5.679587
    14  H    4.197468   2.740769   2.189620   1.080152   2.117538
    15  H    5.971744   4.642864   3.433345   2.154194   1.081938
    16  H    5.075034   4.671836   3.432709   3.869013   3.384206
    17  H    2.773464   2.814642   2.202874   3.424552   3.863632
    18  H    2.520503   2.134918   3.461742   4.002370   5.399437
    19  H    3.202616   2.113195   2.826282   2.858779   4.184646
    20  H    3.207158   2.111591   2.818511   2.879552   4.194891
                    6          7          8          9         10
     6  C    0.000000
     7  C    1.390820   0.000000
     8  C    2.421602   1.398716   0.000000
     9  Li   2.023332   2.974667   4.293997   0.000000
    10  C    5.160094   4.973853   3.837848   7.136042   0.000000
    11  H    5.050017   3.994831   2.649654   6.939074   3.445431
    12  H    5.963738   5.174146   3.808504   7.940890   2.732303
    13  H    5.955322   5.143475   3.771296   7.931390   2.743307
    14  H    3.372549   3.865694   3.420666   5.089740   2.565636
    15  H    2.142452   3.385108   3.874192   3.048546   4.913379
    16  H    2.141405   1.082123   2.154995   3.046210   5.941413
    17  H    3.360141   2.098989   1.074253   5.070595   4.258516
    18  H    6.206086   5.895164   4.653337   8.202254   1.112221
    19  H    5.176954   5.173141   4.181088   7.075139   1.110475
    20  H    5.165446   5.144788   4.150357   7.062975   1.110754
                   11         12         13         14         15
    11  H    0.000000
    12  H    1.771290   0.000000
    13  H    1.779039   1.805613   0.000000
    14  H    4.733840   4.683959   4.723483   0.000000
    15  H    6.143664   6.569410   6.593046   2.428889   0.000000
    16  H    4.438458   5.805366   5.760812   4.947587   4.273415
    17  H    2.038104   3.536461   3.468779   4.358949   4.945229
    18  H    3.612480   2.507053   2.518817   3.659003   6.024652
    19  H    4.099909   3.209074   3.696642   2.323696   4.663818
    20  H    4.111039   3.689782   3.226304   2.383346   4.687169
                   16         17         18         19         20
    16  H    0.000000
    17  H    2.404126   0.000000
    18  H    6.801745   4.876499   0.000000
    19  H    6.180377   4.725765   1.792008   0.000000
    20  H    6.143071   4.681764   1.793597   1.820100   0.000000
 Stoichiometry    C8H10LiN
 Framework group  C1[X(C8H10LiN)]
 Deg. of freedom    54
 Full point group                 C1      NOp   1
 Largest Abelian subgroup         C1      NOp   1
 Largest concise Abelian subgroup C1      NOp   1
                         Standard orientation:                         
 ---------------------------------------------------------------------
 Center     Atomic      Atomic             Coordinates (Angstroms)
 Number     Number       Type             X           Y           Z
 ---------------------------------------------------------------------
      1          6           0        2.582472    1.210230   -0.034993
      2          7           0        1.753689    0.010014    0.000084
      3          6           0        0.302275    0.026733   -0.001084
      4          6           0       -0.427944   -1.189937   -0.019511
      5          6           0       -1.825185   -1.199301   -0.020612
      6          6           0       -2.534051   -0.003337   -0.000989
      7          6           0       -1.849203    1.207001    0.020136
      8          6           0       -0.450691    1.230893    0.020002
      9          3           0       -4.557281   -0.023651   -0.001126
     10          6           0        2.471209   -1.257339    0.036660
     11          1           0        2.029548    2.157638   -0.081095
     12          1           0        3.236390    1.179959   -0.932648
     13          1           0        3.223138    1.245257    0.871735
     14          1           0        0.066917   -2.149937   -0.035032
     15          1           0       -2.361945   -2.138571   -0.036456
     16          1           0       -2.407259    2.133963    0.037594
     17          1           0       -0.004268    2.207765    0.041158
     18          1           0        3.573114   -1.106232    0.039597
     19          1           0        2.220394   -1.863159   -0.859570
     20          1           0        2.206702   -1.815482    0.959854
 ---------------------------------------------------------------------
 Rotational constants (GHZ):      3.5014108      0.8920065      0.7177246
 Leave Link  202 at Sat Oct  2 17:41:08 2021, MaxMem=  805306368 cpu:       0.0
 (Enter /sw/target/amd/app/gaussian/Gaussian09RevA.02_gcc-4.9.2/g09/l301.exe)
 Standard basis: 6-31G(d) (6D, 7F)
 Ernie: Thresh=  0.10000D-02 Tol=  0.10000D-05 Strict=F.
 There are   170 symmetry adapted basis functions of A   symmetry.
 Integral buffers will be    131072 words long.
 Raffenetti 2 integral format.
 Two-electron integral symmetry is turned on.
   170 basis functions,   320 primitive gaussians,   170 cartesian basis functions
    34 alpha electrons       34 beta electrons
       nuclear repulsion energy       436.9427984211 Hartrees.
 IExCor=  402 DFT=T Ex+Corr=B3LYP ExCW=0 ScaHFX=  0.200000
 ScaDFX=  0.800000  0.720000  1.000000  0.810000 ScalE2=  1.000000  1.000000
 IRadAn=      0 IRanWt=     -1 IRanGd=            0 ICorTp=0
 NAtoms=   20 NActive=   20 NUniq=   20 SFac= 7.50D-01 NAtFMM=   80 NAOKFM=F Big=F
 Leave Link  301 at Sat Oct  2 17:41:09 2021, MaxMem=  805306368 cpu:       0.1
 (Enter /sw/target/amd/app/gaussian/Gaussian09RevA.02_gcc-4.9.2/g09/l302.exe)
 NPDir=0 NMtPBC=     1 NCelOv=     1 NCel=       1 NClECP=     1 NCelD=      1
         NCelK=      1 NCelE2=     1 NClLst=     1 CellRange=     0.0.
 One-electron integrals computed using PRISM.
 NBasis=   170 RedAO= T  NBF=   170
 NBsUse=   170 1.00D-06 NBFU=   170
 Precomputing XC quadrature grid using
 IXCGrd= 2 IRadAn=           0 IRanWt=          -1 IRanGd=           0 AccXCQ= 1.00D-10.
 NRdTot=    1292 NPtTot=      163892 NUsed=      173209 NTot=      173241
 NSgBfM=   170   170   170   170   170 NAtAll=    20    20.
 Leave Link  302 at Sat Oct  2 17:41:15 2021, MaxMem=  805306368 cpu:       1.2
 (Enter /sw/target/amd/app/gaussian/Gaussian09RevA.02_gcc-4.9.2/g09/l303.exe)
 DipDrv:  MaxL=1.
 Leave Link  303 at Sat Oct  2 17:41:16 2021, MaxMem=  805306368 cpu:       0.1
 (Enter /sw/target/amd/app/gaussian/Gaussian09RevA.02_gcc-4.9.2/g09/l401.exe)
 Harris functional with IExCor=  402 diagonalized for initial guess.
 ExpMin= 3.60D-02 ExpMax= 4.17D+03 ExpMxC= 6.27D+02 IAcc=3 IRadAn=         0 AccDes= 0.00D+00
 HarFok:  IExCor=  402 AccDes= 0.00D+00 IRadAn=         0 IDoV= 1
 ScaDFX=  1.000000  1.000000  1.000000  1.000000
 FoFCou: FMM=F IPFlag=           0 FMFlag=      100000 FMFlg1=           0
         NFxFlg=           0 DoJE=T BraDBF=F KetDBF=T FulRan=T
         Omega=  0.000000  0.000000  1.000000  0.000000  0.000000 ICntrl=     500 IOpCl=  0
         NMat0=    1 NMatS0=    1 NMatT0=    0 NMatD0=    1 NMtDS0=    0 NMtDT0=    0
         I1Cent=           4 NGrid=           0.
 Petite list used in FoFCou.
 Harris En= -373.239950100700    
 Initial guess orbital symmetries:
       Occupied  (A) (A) (A) (A) (A) (A) (A) (A) (A) (A) (A) (A)
                 (A) (A) (A) (A) (A) (A) (A) (A) (A) (A) (A) (A)
                 (A) (A) (A) (A) (A) (A) (A) (A) (A) (A)
       Virtual   (A) (A) (A) (A) (A) (A) (A) (A) (A) (A) (A) (A)
                 (A) (A) (A) (A) (A) (A) (A) (A) (A) (A) (A) (A)
                 (A) (A) (A) (A) (A) (A) (A) (A) (A) (A) (A) (A)
                 (A) (A) (A) (A) (A) (A) (A) (A) (A) (A) (A) (A)
                 (A) (A) (A) (A) (A) (A) (A) (A) (A) (A) (A) (A)
                 (A) (A) (A) (A) (A) (A) (A) (A) (A) (A) (A) (A)
                 (A) (A) (A) (A) (A) (A) (A) (A) (A) (A) (A) (A)
                 (A) (A) (A) (A) (A) (A) (A) (A) (A) (A) (A) (A)
                 (A) (A) (A) (A) (A) (A) (A) (A) (A) (A) (A) (A)
                 (A) (A) (A) (A) (A) (A) (A) (A) (A) (A) (A) (A)
                 (A) (A) (A) (A) (A) (A) (A) (A) (A) (A) (A) (A)
                 (A) (A) (A) (A)
 The electronic state of the initial guess is 1-A.
 Leave Link  401 at Sat Oct  2 17:41:50 2021, MaxMem=  805306368 cpu:      11.7
 (Enter /sw/target/amd/app/gaussian/Gaussian09RevA.02_gcc-4.9.2/g09/l502.exe)
 Closed shell SCF:
 Requested convergence on RMS density matrix=1.00D-08 within  64 cycles.
 Requested convergence on MAX density matrix=1.00D-06.
 Requested convergence on             energy=1.00D-06.
 No special actions if energy rises.
 Using DIIS extrapolation, IDIIS=  1040.
 Integral symmetry usage will be decided dynamically.
       173016 words used for storage of precomputed grid.
 Keep R1 ints in memory in canonical form, NReq=108407978.
 IEnd=      267564 IEndB=      267564 NGot=   805306368 MDV=   699431691
 LenX=   699431691 LenY=   699402350
 Symmetry not used in FoFDir.
 MinBra= 0 MaxBra= 2 Meth= 1.
 IRaf=       0 NMat=   1 IRICut=       1 DoRegI=T DoRafI=F ISym2E= 0 JSym2E=0.

 Cycle   1  Pass 1  IDiag  1:
 E= -372.713182184070    
 DIIS: error= 4.57D-02 at cycle   1 NSaved=   1.
 NSaved= 1 IEnMin= 1 EnMin= -372.713182184070     IErMin= 1 ErrMin= 4.57D-02
 ErrMax= 4.57D-02 EMaxC= 1.00D-01 BMatC= 3.10D-01 BMatP= 3.10D-01
 IDIUse=3 WtCom= 5.43D-01 WtEn= 4.57D-01
 Coeff-Com:  0.100D+01
 Coeff-En:   0.100D+01
 Coeff:      0.100D+01
 Gap=     0.262 Goal=   None    Shift=    0.000
 GapD=    0.262 DampG=1.000 DampE=0.500 DampFc=0.5000 IDamp=-1.
 Damping current iteration by 5.00D-01
 RMSDP=1.07D-02 MaxDP=4.94D-01              OVMax= 9.64D-01

 Cycle   2  Pass 1  IDiag  1:
 E= -372.624379594784     Delta-E=        0.088802589286 Rises=F Damp=T
 DIIS: error= 2.42D-02 at cycle   2 NSaved=   2.
 NSaved= 2 IEnMin= 1 EnMin= -372.713182184070     IErMin= 2 ErrMin= 2.42D-02
 ErrMax= 2.42D-02 EMaxC= 1.00D-01 BMatC= 8.05D-02 BMatP= 3.10D-01
 IDIUse=3 WtCom= 7.58D-01 WtEn= 2.42D-01
 Coeff-Com:  0.293D+00 0.707D+00
 Coeff-En:   0.573D+00 0.427D+00
 Coeff:      0.360D+00 0.640D+00
 Gap=     0.183 Goal=   None    Shift=    0.000
 RMSDP=4.40D-03 MaxDP=2.48D-01 DE= 8.88D-02 OVMax= 9.28D-01

 Cycle   3  Pass 1  IDiag  1:
 E= -373.009077165933     Delta-E=       -0.384697571149 Rises=F Damp=F
 DIIS: error= 2.70D-02 at cycle   3 NSaved=   3.
 NSaved= 3 IEnMin= 3 EnMin= -373.009077165933     IErMin= 2 ErrMin= 2.42D-02
 ErrMax= 2.70D-02 EMaxC= 1.00D-01 BMatC= 6.69D-02 BMatP= 8.05D-02
 IDIUse=3 WtCom= 7.30D-01 WtEn= 2.70D-01
 Coeff-Com:  0.994D-01 0.475D+00 0.426D+00
 Coeff-En:   0.000D+00 0.000D+00 0.100D+01
 Coeff:      0.726D-01 0.347D+00 0.581D+00
 Gap=     0.154 Goal=   None    Shift=    0.000
 RMSDP=2.48D-03 MaxDP=6.66D-02 DE=-3.85D-01 OVMax= 1.66D-01

 Cycle   4  Pass 1  IDiag  1:
 E= -373.070965343350     Delta-E=       -0.061888177417 Rises=F Damp=F
 DIIS: error= 1.26D-02 at cycle   4 NSaved=   4.
 NSaved= 4 IEnMin= 4 EnMin= -373.070965343350     IErMin= 4 ErrMin= 1.26D-02
 ErrMax= 1.26D-02 EMaxC= 1.00D-01 BMatC= 1.66D-02 BMatP= 6.69D-02
 IDIUse=3 WtCom= 8.74D-01 WtEn= 1.26D-01
 Coeff-Com: -0.254D-01 0.103D+00 0.346D+00 0.576D+00
 Coeff-En:   0.000D+00 0.000D+00 0.205D+00 0.795D+00
 Coeff:     -0.222D-01 0.904D-01 0.328D+00 0.604D+00
 Gap=     0.123 Goal=   None    Shift=    0.000
 RMSDP=1.28D-03 MaxDP=2.22D-02 DE=-6.19D-02 OVMax= 6.95D-02

 Cycle   5  Pass 1  IDiag  1:
 E= -373.087600755876     Delta-E=       -0.016635412526 Rises=F Damp=F
 DIIS: error= 5.18D-03 at cycle   5 NSaved=   5.
 NSaved= 5 IEnMin= 5 EnMin= -373.087600755876     IErMin= 5 ErrMin= 5.18D-03
 ErrMax= 5.18D-03 EMaxC= 1.00D-01 BMatC= 2.41D-03 BMatP= 1.66D-02
 IDIUse=3 WtCom= 9.48D-01 WtEn= 5.18D-02
 Coeff-Com: -0.217D-01 0.372D-01 0.140D+00 0.354D+00 0.490D+00
 Coeff-En:   0.000D+00 0.000D+00 0.000D+00 0.103D+00 0.897D+00
 Coeff:     -0.205D-01 0.353D-01 0.133D+00 0.341D+00 0.511D+00
 Gap=     0.103 Goal=   None    Shift=    0.000
 RMSDP=3.91D-04 MaxDP=9.75D-03 DE=-1.66D-02 OVMax= 2.23D-02

 Cycle   6  Pass 1  IDiag  1:
 E= -373.090195443919     Delta-E=       -0.002594688042 Rises=F Damp=F
 DIIS: error= 8.06D-04 at cycle   6 NSaved=   6.
 NSaved= 6 IEnMin= 6 EnMin= -373.090195443919     IErMin= 6 ErrMin= 8.06D-04
 ErrMax= 8.06D-04 EMaxC= 1.00D-01 BMatC= 1.43D-04 BMatP= 2.41D-03
 IDIUse=3 WtCom= 9.92D-01 WtEn= 8.06D-03
 Coeff-Com: -0.236D-02-0.125D-03-0.498D-02 0.456D-01 0.238D+00 0.724D+00
 Coeff-En:   0.000D+00 0.000D+00 0.000D+00 0.000D+00 0.000D+00 0.100D+01
 Coeff:     -0.234D-02-0.124D-03-0.494D-02 0.453D-01 0.236D+00 0.726D+00
 Gap=     0.100 Goal=   None    Shift=    0.000
 RMSDP=1.04D-04 MaxDP=3.03D-03 DE=-2.59D-03 OVMax= 9.79D-03

 Cycle   7  Pass 1  IDiag  1:
 E= -373.090331111609     Delta-E=       -0.000135667691 Rises=F Damp=F
 DIIS: error= 3.51D-04 at cycle   7 NSaved=   7.
 NSaved= 7 IEnMin= 7 EnMin= -373.090331111609     IErMin= 7 ErrMin= 3.51D-04
 ErrMax= 3.51D-04 EMaxC= 1.00D-01 BMatC= 2.02D-05 BMatP= 1.43D-04
 IDIUse=3 WtCom= 9.96D-01 WtEn= 3.51D-03
 Coeff-Com:  0.158D-02-0.135D-02-0.287D-02 0.554D-02 0.849D-01 0.342D+00
 Coeff-Com:  0.570D+00
 Coeff-En:   0.000D+00 0.000D+00 0.000D+00 0.000D+00 0.000D+00 0.000D+00
 Coeff-En:   0.100D+01
 Coeff:      0.157D-02-0.134D-02-0.286D-02 0.552D-02 0.846D-01 0.341D+00
 Coeff:      0.571D+00
 Gap=     0.101 Goal=   None    Shift=    0.000
 RMSDP=2.75D-05 MaxDP=7.25D-04 DE=-1.36D-04 OVMax= 1.03D-03

 Cycle   8  Pass 1  IDiag  1:
 E= -373.090349039876     Delta-E=       -0.000017928267 Rises=F Damp=F
 DIIS: error= 1.33D-04 at cycle   8 NSaved=   8.
 NSaved= 8 IEnMin= 8 EnMin= -373.090349039876     IErMin= 8 ErrMin= 1.33D-04
 ErrMax= 1.33D-04 EMaxC= 1.00D-01 BMatC= 3.28D-06 BMatP= 2.02D-05
 IDIUse=3 WtCom= 9.99D-01 WtEn= 1.33D-03
 Coeff-Com:  0.161D-02-0.112D-02 0.252D-02-0.203D-02 0.866D-02 0.582D-01
 Coeff-Com:  0.239D+00 0.693D+00
 Coeff-En:   0.000D+00 0.000D+00 0.000D+00 0.000D+00 0.000D+00 0.000D+00
 Coeff-En:   0.000D+00 0.100D+01
 Coeff:      0.160D-02-0.111D-02 0.252D-02-0.203D-02 0.865D-02 0.582D-01
 Coeff:      0.239D+00 0.693D+00
 Gap=     0.101 Goal=   None    Shift=    0.000
 RMSDP=1.35D-05 MaxDP=3.18D-04 DE=-1.79D-05 OVMax= 6.48D-04

 Cycle   9  Pass 1  IDiag  1:
 E= -373.090352643236     Delta-E=       -0.000003603361 Rises=F Damp=F
 DIIS: error= 6.22D-05 at cycle   9 NSaved=   9.
 NSaved= 9 IEnMin= 9 EnMin= -373.090352643236     IErMin= 9 ErrMin= 6.22D-05
 ErrMax= 6.22D-05 EMaxC= 1.00D-01 BMatC= 4.33D-07 BMatP= 3.28D-06
 IDIUse=1 WtCom= 1.00D+00 WtEn= 0.00D+00
 Coeff-Com:  0.642D-03-0.586D-03 0.213D-02 0.220D-03 0.697D-03 0.694D-02
 Coeff-Com:  0.279D-01 0.247D+00 0.715D+00
 Coeff:      0.642D-03-0.586D-03 0.213D-02 0.220D-03 0.697D-03 0.694D-02
 Coeff:      0.279D-01 0.247D+00 0.715D+00
 Gap=     0.101 Goal=   None    Shift=    0.000
 RMSDP=4.03D-06 MaxDP=1.10D-04 DE=-3.60D-06 OVMax= 1.85D-04

 Cycle  10  Pass 1  IDiag  1:
 E= -373.090353030662     Delta-E=       -0.000000387425 Rises=F Damp=F
 DIIS: error= 2.48D-05 at cycle  10 NSaved=  10.
 NSaved=10 IEnMin=10 EnMin= -373.090353030662     IErMin=10 ErrMin= 2.48D-05
 ErrMax= 2.48D-05 EMaxC= 1.00D-01 BMatC= 1.15D-07 BMatP= 4.33D-07
 IDIUse=1 WtCom= 1.00D+00 WtEn= 0.00D+00
 Coeff-Com:  0.153D-03-0.253D-03 0.110D-02 0.774D-03-0.656D-03-0.502D-02
 Coeff-Com: -0.397D-01 0.104D-01 0.474D+00 0.559D+00
 Coeff:      0.153D-03-0.253D-03 0.110D-02 0.774D-03-0.656D-03-0.502D-02
 Coeff:     -0.397D-01 0.104D-01 0.474D+00 0.559D+00
 Gap=     0.101 Goal=   None    Shift=    0.000
 RMSDP=1.96D-06 MaxDP=5.51D-05 DE=-3.87D-07 OVMax= 9.81D-05

 Cycle  11  Pass 1  IDiag  1:
 E= -373.090353144944     Delta-E=       -0.000000114283 Rises=F Damp=F
 DIIS: error= 7.93D-06 at cycle  11 NSaved=  11.
 NSaved=11 IEnMin=11 EnMin= -373.090353144944     IErMin=11 ErrMin= 7.93D-06
 ErrMax= 7.93D-06 EMaxC= 1.00D-01 BMatC= 8.50D-09 BMatP= 1.15D-07
 IDIUse=1 WtCom= 1.00D+00 WtEn= 0.00D+00
 Coeff-Com:  0.770D-05-0.322D-04 0.182D-03 0.287D-03 0.231D-03-0.125D-03
 Coeff-Com: -0.136D-01-0.273D-01 0.315D-01 0.907D-01 0.918D+00
 Coeff:      0.770D-05-0.322D-04 0.182D-03 0.287D-03 0.231D-03-0.125D-03
 Coeff:     -0.136D-01-0.273D-01 0.315D-01 0.907D-01 0.918D+00
 Gap=     0.101 Goal=   None    Shift=    0.000
 RMSDP=8.28D-07 MaxDP=1.94D-05 DE=-1.14D-07 OVMax= 4.28D-05

 Cycle  12  Pass 1  IDiag  1:
 E= -373.090353156296     Delta-E=       -0.000000011352 Rises=F Damp=F
 DIIS: error= 1.09D-06 at cycle  12 NSaved=  12.
 NSaved=12 IEnMin=12 EnMin= -373.090353156296     IErMin=12 ErrMin= 1.09D-06
 ErrMax= 1.09D-06 EMaxC= 1.00D-01 BMatC= 2.23D-10 BMatP= 8.50D-09
 IDIUse=1 WtCom= 1.00D+00 WtEn= 0.00D+00
 Coeff-Com: -0.258D-05-0.249D-05 0.272D-04 0.946D-04 0.171D-03 0.277D-03
 Coeff-Com: -0.427D-02-0.140D-01-0.121D-01 0.912D-02 0.441D+00 0.580D+00
 Coeff:     -0.258D-05-0.249D-05 0.272D-04 0.946D-04 0.171D-03 0.277D-03
 Coeff:     -0.427D-02-0.140D-01-0.121D-01 0.912D-02 0.441D+00 0.580D+00
 Gap=     0.101 Goal=   None    Shift=    0.000
 RMSDP=1.41D-07 MaxDP=3.67D-06 DE=-1.14D-08 OVMax= 9.00D-06

 Cycle  13  Pass 1  IDiag  1:
 E= -373.090353156488     Delta-E=       -0.000000000191 Rises=F Damp=F
 DIIS: error= 7.05D-07 at cycle  13 NSaved=  13.
 NSaved=13 IEnMin=13 EnMin= -373.090353156488     IErMin=13 ErrMin= 7.05D-07
 ErrMax= 7.05D-07 EMaxC= 1.00D-01 BMatC= 5.35D-11 BMatP= 2.23D-10
 IDIUse=1 WtCom= 1.00D+00 WtEn= 0.00D+00
 Coeff-Com: -0.624D-06 0.507D-06-0.503D-05 0.172D-04 0.937D-04 0.268D-03
 Coeff-Com: -0.397D-03-0.342D-02-0.825D-02-0.480D-02 0.125D+00 0.356D+00
 Coeff-Com:  0.535D+00
 Coeff:     -0.624D-06 0.507D-06-0.503D-05 0.172D-04 0.937D-04 0.268D-03
 Coeff:     -0.397D-03-0.342D-02-0.825D-02-0.480D-02 0.125D+00 0.356D+00
 Coeff:      0.535D+00
 Gap=     0.101 Goal=   None    Shift=    0.000
 RMSDP=5.50D-08 MaxDP=1.17D-06 DE=-1.91D-10 OVMax= 3.55D-06

 Cycle  14  Pass 1  IDiag  1:
 E= -373.090353156544     Delta-E=       -0.000000000057 Rises=F Damp=F
 DIIS: error= 1.54D-07 at cycle  14 NSaved=  14.
 NSaved=14 IEnMin=14 EnMin= -373.090353156544     IErMin=14 ErrMin= 1.54D-07
 ErrMax= 1.54D-07 EMaxC= 1.00D-01 BMatC= 4.64D-12 BMatP= 5.35D-11
 IDIUse=1 WtCom= 1.00D+00 WtEn= 0.00D+00
 Coeff-Com:  0.134D-06 0.191D-07-0.407D-05 0.405D-05 0.504D-04 0.161D-03
 Coeff-Com:  0.103D-03-0.866D-03-0.329D-02-0.275D-02 0.434D-01 0.174D+00
 Coeff-Com:  0.314D+00 0.475D+00
 Coeff:      0.134D-06 0.191D-07-0.407D-05 0.405D-05 0.504D-04 0.161D-03
 Coeff:      0.103D-03-0.866D-03-0.329D-02-0.275D-02 0.434D-01 0.174D+00
 Coeff:      0.314D+00 0.475D+00
 Gap=     0.101 Goal=   None    Shift=    0.000
 RMSDP=1.53D-08 MaxDP=4.43D-07 DE=-5.65D-11 OVMax= 1.05D-06

 Cycle  15  Pass 1  IDiag  1:
 E= -373.090353156531     Delta-E=        0.000000000013 Rises=F Damp=F
 DIIS: error= 2.46D-08 at cycle  15 NSaved=  15.
 NSaved=15 IEnMin=14 EnMin= -373.090353156544     IErMin=15 ErrMin= 2.46D-08
 ErrMax= 2.46D-08 EMaxC= 1.00D-01 BMatC= 1.65D-13 BMatP= 4.64D-12
 IDIUse=1 WtCom= 1.00D+00 WtEn= 0.00D+00
 Coeff-Com:  0.555D-08 0.128D-06-0.145D-05-0.108D-05 0.737D-05 0.232D-04
 Coeff-Com:  0.764D-04 0.414D-04-0.222D-03-0.414D-03 0.176D-02 0.237D-01
 Coeff-Com:  0.499D-01 0.185D+00 0.740D+00
 Coeff:      0.555D-08 0.128D-06-0.145D-05-0.108D-05 0.737D-05 0.232D-04
 Coeff:      0.764D-04 0.414D-04-0.222D-03-0.414D-03 0.176D-02 0.237D-01
 Coeff:      0.499D-01 0.185D+00 0.740D+00
 Gap=     0.101 Goal=   None    Shift=    0.000
 RMSDP=3.87D-09 MaxDP=9.70D-08 DE= 1.30D-11 OVMax= 1.75D-07

 SCF Done:  E(RB3LYP) =  -373.090353157     A.U. after   15 cycles
             Convg  =    0.3870D-08             -V/T =  2.0104
 KE= 3.692475364343D+02 PE=-1.739958473461D+03 EE= 5.606777854491D+02
 Leave Link  502 at Sat Oct  2 17:49:49 2021, MaxMem=  805306368 cpu:     149.3
 (Enter /sw/target/amd/app/gaussian/Gaussian09RevA.02_gcc-4.9.2/g09/l508.exe)
 QCSCF skips out because SCF is already converged.
 Leave Link  508 at Sat Oct  2 17:49:51 2021, MaxMem=  805306368 cpu:       0.0
 (Enter /sw/target/amd/app/gaussian/Gaussian09RevA.02_gcc-4.9.2/g09/l601.exe)
 Copying SCF densities to generalized density rwf, IOpCl= 0 IROHF=0.

 **********************************************************************

            Population analysis using the SCF density.

 **********************************************************************

 Orbital symmetries:
       Occupied  (A) (A) (A) (A) (A) (A) (A) (A) (A) (A) (A) (A)
                 (A) (A) (A) (A) (A) (A) (A) (A) (A) (A) (A) (A)
                 (A) (A) (A) (A) (A) (A) (A) (A) (A) (A)
       Virtual   (A) (A) (A) (A) (A) (A) (A) (A) (A) (A) (A) (A)
                 (A) (A) (A) (A) (A) (A) (A) (A) (A) (A) (A) (A)
                 (A) (A) (A) (A) (A) (A) (A) (A) (A) (A) (A) (A)
                 (A) (A) (A) (A) (A) (A) (A) (A) (A) (A) (A) (A)
                 (A) (A) (A) (A) (A) (A) (A) (A) (A) (A) (A) (A)
                 (A) (A) (A) (A) (A) (A) (A) (A) (A) (A) (A) (A)
                 (A) (A) (A) (A) (A) (A) (A) (A) (A) (A) (A) (A)
                 (A) (A) (A) (A) (A) (A) (A) (A) (A) (A) (A) (A)
                 (A) (A) (A) (A) (A) (A) (A) (A) (A) (A) (A) (A)
                 (A) (A) (A) (A) (A) (A) (A) (A) (A) (A) (A) (A)
                 (A) (A) (A) (A) (A) (A) (A) (A) (A) (A) (A) (A)
                 (A) (A) (A) (A)
 The electronic state is 1-A.
 Alpha  occ. eigenvalues --  -14.32029 -10.19904 -10.19888 -10.19605 -10.14232
 Alpha  occ. eigenvalues --  -10.14109 -10.13836 -10.13789 -10.09633  -1.99110
 Alpha  occ. eigenvalues --   -0.89826  -0.79058  -0.70472  -0.69105  -0.68517
 Alpha  occ. eigenvalues --   -0.60955  -0.55466  -0.52833  -0.48644  -0.43820
 Alpha  occ. eigenvalues --   -0.43607  -0.41139  -0.39307  -0.38346  -0.38230
 Alpha  occ. eigenvalues --   -0.37400  -0.35420  -0.35310  -0.31924  -0.29277
 Alpha  occ. eigenvalues --   -0.23715  -0.20307  -0.16833  -0.14884
 Alpha virt. eigenvalues --   -0.04811   0.00720   0.00752   0.04439   0.06153
 Alpha virt. eigenvalues --    0.06682   0.10848   0.12118   0.12200   0.13737
 Alpha virt. eigenvalues --    0.14161   0.14919   0.15779   0.16470   0.16564
 Alpha virt. eigenvalues --    0.19317   0.20682   0.20893   0.22731   0.22741
 Alpha virt. eigenvalues --    0.25513   0.25833   0.26608   0.31725   0.35758
 Alpha virt. eigenvalues --    0.37210   0.38939   0.40237   0.45344   0.46028
 Alpha virt. eigenvalues --    0.50015   0.50184   0.53899   0.54307   0.56762
 Alpha virt. eigenvalues --    0.57939   0.59758   0.60376   0.60501   0.61350
 Alpha virt. eigenvalues --    0.61944   0.65862   0.66093   0.67113   0.70290
 Alpha virt. eigenvalues --    0.72376   0.73930   0.74441   0.76060   0.77106
 Alpha virt. eigenvalues --    0.79368   0.83820   0.85532   0.85759   0.86963
 Alpha virt. eigenvalues --    0.87173   0.87477   0.88741   0.89991   0.91917
 Alpha virt. eigenvalues --    0.93066   0.93628   0.95501   0.96731   0.96876
 Alpha virt. eigenvalues --    1.00195   1.03589   1.05665   1.06650   1.12305
 Alpha virt. eigenvalues --    1.13699   1.18279   1.19692   1.23700   1.25589
 Alpha virt. eigenvalues --    1.26517   1.30770   1.35959   1.36116   1.40116
 Alpha virt. eigenvalues --    1.43799   1.49579   1.49831   1.53986   1.56463
 Alpha virt. eigenvalues --    1.58045   1.61761   1.63564   1.76152   1.82072
 Alpha virt. eigenvalues --    1.82569   1.85876   1.86469   1.94847   1.97734
 Alpha virt. eigenvalues --    1.99462   2.03353   2.04363   2.05151   2.09563
 Alpha virt. eigenvalues --    2.11787   2.14119   2.18806   2.19831   2.20375
 Alpha virt. eigenvalues --    2.21876   2.24058   2.29046   2.30928   2.33764
 Alpha virt. eigenvalues --    2.35850   2.38950   2.42967   2.51896   2.52182
 Alpha virt. eigenvalues --    2.59882   2.61672   2.68198   2.69927   2.70609
 Alpha virt. eigenvalues --    2.78433   2.82195   2.84077   2.94426   2.95805
 Alpha virt. eigenvalues --    3.19476   3.41324   4.03615   4.15296   4.16403
 Alpha virt. eigenvalues --    4.22955   4.27506   4.35722   4.38323   4.47347
 Alpha virt. eigenvalues --    4.75260
          Condensed to atoms (all electrons):
              1          2          3          4          5          6
     1  C    4.947975   0.327828  -0.028850   0.005199  -0.000076  -0.000010
     2  N    0.327828   6.933745   0.300103  -0.067855   0.004395   0.000098
     3  C   -0.028850   0.300103   4.551080   0.521949  -0.010238  -0.050207
     4  C    0.005199  -0.067855   0.521949   5.026833   0.540191  -0.035719
     5  C   -0.000076   0.004395  -0.010238   0.540191   4.945025   0.522960
     6  C   -0.000010   0.000098  -0.050207  -0.035719   0.522960   4.877654
     7  C    0.000256   0.003867  -0.010318  -0.039978  -0.056885   0.521103
     8  C   -0.010117  -0.064429   0.520668  -0.058146  -0.040312  -0.036925
     9  Li   0.000001  -0.000098   0.002520   0.004049  -0.024537   0.362588
    10  C   -0.059421   0.324489  -0.034188  -0.010374  -0.000119   0.000022
    11  H    0.370220  -0.023144  -0.007191  -0.000097  -0.000004   0.000011
    12  H    0.373199  -0.053374   0.001407  -0.000055   0.000002   0.000000
    13  H    0.374001  -0.053488   0.001438  -0.000065   0.000002   0.000000
    14  H    0.000020  -0.012834  -0.047182   0.338395  -0.049743   0.007016
    15  H    0.000002  -0.000102   0.002653  -0.053459   0.349020  -0.047013
    16  H   -0.000001  -0.000102   0.002492   0.000982   0.006692  -0.046829
    17  H    0.000324  -0.008914  -0.049639   0.006407   0.000228   0.007153
    18  H   -0.002763  -0.031705   0.002363   0.000390  -0.000004   0.000000
    19  H    0.002919  -0.050618  -0.002763   0.004149   0.000050  -0.000006
    20  H    0.002970  -0.050529  -0.002437   0.004699   0.000054  -0.000007
              7          8          9         10         11         12
     1  C    0.000256  -0.010117   0.000001  -0.059421   0.370220   0.373199
     2  N    0.003867  -0.064429  -0.000098   0.324489  -0.023144  -0.053374
     3  C   -0.010318   0.520668   0.002520  -0.034188  -0.007191   0.001407
     4  C   -0.039978  -0.058146   0.004049  -0.010374  -0.000097  -0.000055
     5  C   -0.056885  -0.040312  -0.024537  -0.000119  -0.000004   0.000002
     6  C    0.521103  -0.036925   0.362588   0.000022   0.000011   0.000000
     7  C    4.942886   0.542127  -0.025380  -0.000082   0.000063  -0.000005
     8  C    0.542127   5.025528   0.004403   0.004893   0.004449   0.000532
     9  Li  -0.025380   0.004403   2.397662   0.000028   0.000023  -0.000001
    10  C   -0.000082   0.004893   0.000028   4.960890   0.004682  -0.002908
    11  H    0.000063   0.004449   0.000023   0.004682   0.539243  -0.030190
    12  H   -0.000005   0.000532  -0.000001  -0.002908  -0.030190   0.620751
    13  H   -0.000007   0.000533  -0.000001  -0.002621  -0.030851  -0.050972
    14  H    0.000237   0.006497  -0.000493   0.007900   0.000004  -0.000005
    15  H    0.006758   0.000934  -0.017394  -0.000000   0.000000  -0.000000
    16  H    0.348826  -0.053623  -0.017613   0.000002   0.000010  -0.000000
    17  H   -0.047689   0.334228  -0.000523  -0.000049   0.007050  -0.000063
    18  H    0.000002  -0.000086   0.000002   0.372532   0.000269   0.001383
    19  H   -0.000003  -0.000019  -0.000004   0.367213  -0.000191   0.002478
    20  H   -0.000007   0.000036  -0.000002   0.367657  -0.000209  -0.000786
             13         14         15         16         17         18
     1  C    0.374001   0.000020   0.000002  -0.000001   0.000324  -0.002763
     2  N   -0.053488  -0.012834  -0.000102  -0.000102  -0.008914  -0.031705
     3  C    0.001438  -0.047182   0.002653   0.002492  -0.049639   0.002363
     4  C   -0.000065   0.338395  -0.053459   0.000982   0.006407   0.000390
     5  C    0.000002  -0.049743   0.349020   0.006692   0.000228  -0.000004
     6  C    0.000000   0.007016  -0.047013  -0.046829   0.007153   0.000000
     7  C   -0.000007   0.000237   0.006758   0.348826  -0.047689   0.000002
     8  C    0.000533   0.006497   0.000934  -0.053623   0.334228  -0.000086
     9  Li  -0.000001  -0.000493  -0.017394  -0.017613  -0.000523   0.000002
    10  C   -0.002621   0.007900  -0.000000   0.000002  -0.000049   0.372532
    11  H   -0.030851   0.000004   0.000000   0.000010   0.007050   0.000269
    12  H   -0.050972  -0.000005  -0.000000  -0.000000  -0.000063   0.001383
    13  H    0.620435  -0.000005  -0.000000  -0.000000  -0.000055   0.001551
    14  H   -0.000005   0.656014  -0.004538   0.000028  -0.000115   0.000073
    15  H   -0.000000  -0.004538   0.675871  -0.000175   0.000028  -0.000000
    16  H   -0.000000   0.000028  -0.000175   0.676608  -0.004678  -0.000000
    17  H   -0.000055  -0.000115   0.000028  -0.004678   0.661455  -0.000004
    18  H    0.001551   0.000073  -0.000000  -0.000000  -0.000004   0.570590
    19  H   -0.000804   0.000864  -0.000000   0.000000   0.000004  -0.031067
    20  H    0.002350   0.000587  -0.000002   0.000000   0.000005  -0.030162
             19         20
     1  C    0.002919   0.002970
     2  N   -0.050618  -0.050529
     3  C   -0.002763  -0.002437
     4  C    0.004149   0.004699
     5  C    0.000050   0.000054
     6  C   -0.000006  -0.000007
     7  C   -0.000003  -0.000007
     8  C   -0.000019   0.000036
     9  Li  -0.000004  -0.000002
    10  C    0.367213   0.367657
    11  H   -0.000191  -0.000209
    12  H    0.002478  -0.000786
    13  H   -0.000804   0.002350
    14  H    0.000864   0.000587
    15  H   -0.000000  -0.000002
    16  H    0.000000   0.000000
    17  H    0.000004   0.000005
    18  H   -0.031067  -0.030162
    19  H    0.609444  -0.049821
    20  H   -0.049821   0.606882
 Mulliken atomic charges:
              1
     1  C   -0.303676
     2  N   -0.477333
     3  C    0.336340
     4  C   -0.187495
     5  C   -0.186702
     6  C   -0.081892
     7  C   -0.185773
     8  C   -0.181171
     9  Li   0.314769
    10  C   -0.300545
    11  H    0.165853
    12  H    0.138608
    13  H    0.138558
    14  H    0.097281
    15  H    0.087416
    16  H    0.087381
    17  H    0.094846
    18  H    0.146637
    19  H    0.148176
    20  H    0.148723
 Sum of Mulliken atomic charges =  -0.00000
 Mulliken charges with hydrogens summed into heavy atoms:
              1
     1  C    0.139342
     2  N   -0.477333
     3  C    0.336340
     4  C   -0.090214
     5  C   -0.099286
     6  C   -0.081892
     7  C   -0.098392
     8  C   -0.086325
     9  Li   0.314769
    10  C    0.142991
 Sum of Mulliken charges with hydrogens summed into heavy atoms =  -0.00000
 Electronic spatial extent (au):  <R**2>=           1495.5387
 Charge=             -0.0000 electrons
 Dipole moment (field-independent basis, Debye):
    X=             -4.5281    Y=              0.0306    Z=             -0.0057  Tot=              4.5282
 Quadrupole moment (field-independent basis, Debye-Ang):
   XX=            -11.1930   YY=            -54.9917   ZZ=            -62.0469
   XY=              0.2489   XZ=              0.0020   YZ=              0.0056
 Traceless Quadrupole moment (field-independent basis, Debye-Ang):
   XX=             31.5508   YY=            -12.2478   ZZ=            -19.3030
   XY=              0.2489   XZ=              0.0020   YZ=              0.0056
 Octapole moment (field-independent basis, Debye-Ang**2):
  XXX=           -227.3668  YYY=              2.3052  ZZZ=              0.0626  XYY=              6.4149
  XXY=             -2.3277  XXZ=             -0.0397  XZZ=             11.4591  YZZ=             -0.5278
  YYZ=             -0.1130  XYZ=             -0.3152
 Hexadecapole moment (field-independent basis, Debye-Ang**3):
 XXXX=           -174.4872 YYYY=           -481.3678 ZZZZ=            -87.4832 XXXY=              3.2571
 XXXZ=              0.4898 YYYX=              3.4211 YYYZ=              0.2943 ZZZX=              0.0391
 ZZZY=             -0.2625 XXYY=           -332.7126 XXZZ=           -296.8496 YYZZ=           -101.6643
 XXYZ=              0.2926 YYXZ=             -0.2147 ZZXY=             -0.3467
 N-N= 4.369427984211D+02 E-N=-1.739958470983D+03  KE= 3.692475364343D+02
 No NMR shielding tensors so no spin-rotation constants.
 Leave Link  601 at Sat Oct  2 17:49:54 2021, MaxMem=  805306368 cpu:       0.8
 (Enter /sw/target/amd/app/gaussian/Gaussian09RevA.02_gcc-4.9.2/g09/l701.exe)
 Compute integral first derivatives.
 ... and contract with generalized density number  0.
 Leave Link  701 at Sat Oct  2 17:49:57 2021, MaxMem=  805306368 cpu:       0.9
 (Enter /sw/target/amd/app/gaussian/Gaussian09RevA.02_gcc-4.9.2/g09/l702.exe)
 L702 exits ... SP integral derivatives will be done elsewhere.
 Leave Link  702 at Sat Oct  2 17:49:58 2021, MaxMem=  805306368 cpu:       0.1
 (Enter /sw/target/amd/app/gaussian/Gaussian09RevA.02_gcc-4.9.2/g09/l703.exe)
 Compute integral first derivatives, UseDBF=F ICtDFT=           0.
 Integral derivatives from FoFDir, PRISM(SPDF).
 Calling FoFJK, ICntrl=      2127 FMM=F ISym2X=0 I1Cent= 0 IOpClX= 0 NMat=1 NMatS=1 NMatT=0.
 FoFCou: FMM=F IPFlag=           0 FMFlag=      100000 FMFlg1=         800
         NFxFlg=           0 DoJE=F BraDBF=F KetDBF=F FulRan=T
         Omega=  0.000000  0.000000  1.000000  0.000000  0.000000 ICntrl=    2127 IOpCl=  0
         NMat0=    1 NMatS0=    1 NMatT0=    0 NMatD0=    1 NMtDS0=    0 NMtDT0=    0
         I1Cent=           0 NGrid=           0.
 Symmetry not used in FoFCou.
 Leave Link  703 at Sat Oct  2 17:52:28 2021, MaxMem=  805306368 cpu:      47.7
 (Enter /sw/target/amd/app/gaussian/Gaussian09RevA.02_gcc-4.9.2/g09/l716.exe)
 Dipole        =-1.78148994D+00 1.20494709D-02-2.23861649D-03
 ***** Axes restored to original set *****
 -------------------------------------------------------------------
 Center     Atomic                   Forces (Hartrees/Bohr)
 Number     Number              X              Y              Z
 -------------------------------------------------------------------
      1        6          -0.006573973    0.004798192    0.000139054
      2        7           0.017743085   -0.015862547   -0.014314916
      3        6          -0.010302974    0.010243766    0.018387014
      4        6          -0.002348019    0.002050273    0.001616559
      5        6           0.001296452    0.001315335    0.022085937
      6        6           0.022308062   -0.021509978   -0.040074050
      7        6          -0.017898808    0.014428953    0.006526401
      8        6          -0.001054546    0.000463837   -0.003668864
      9        3          -0.002347502    0.002241161    0.003997120
     10        6           0.002390623   -0.002326989   -0.002792713
     11        1          -0.003408235    0.003039985   -0.007909548
     12        1           0.006006279    0.003474607    0.000237207
     13        1          -0.001764493   -0.006739594    0.001067899
     14        1          -0.004414824    0.003936185    0.004680669
     15        1          -0.005486601    0.004012821   -0.003127099
     16        1           0.003804374   -0.002379261    0.006119233
     17        1          -0.001848246    0.002751508    0.012018790
     18        1           0.007837127   -0.007071832   -0.007762314
     19        1           0.003068013    0.007585929    0.000967907
     20        1          -0.007005795   -0.004452352    0.001805717
 -------------------------------------------------------------------
 Cartesian Forces:  Max     0.040074050 RMS     0.009922107
 Leave Link  716 at Sat Oct  2 17:52:29 2021, MaxMem=  805306368 cpu:       0.1
 (Enter /sw/target/amd/app/gaussian/Gaussian09RevA.02_gcc-4.9.2/g09/l103.exe)

 GradGradGradGradGradGradGradGradGradGradGradGradGradGradGradGradGradGrad
 Berny optimization.
 Internal  Forces:  Max     0.038173106 RMS     0.007309844
 Search for a local minimum.
 Step number   1 out of a maximum of  103
 All quantities printed in internal units (Hartrees-Bohrs-Radians)
 RMS Force = .73098D-02 SwitMx=.10000D-02 MixMth= 1
 Mixed Optimization -- RFO/linear search
 Second derivative matrix not updated -- first step.
     Eigenvalues ---    0.00912   0.00940   0.00948   0.01010   0.01581
     Eigenvalues ---    0.01870   0.01947   0.01979   0.02078   0.02153
     Eigenvalues ---    0.02168   0.02188   0.02213   0.06936   0.07384
     Eigenvalues ---    0.07458   0.07544   0.08443   0.16000   0.16000
     Eigenvalues ---    0.16000   0.16000   0.16000   0.16000   0.16000
     Eigenvalues ---    0.16000   0.16000   0.16000   0.22000   0.22962
     Eigenvalues ---    0.24000   0.25000   0.25000   0.25000   0.25000
     Eigenvalues ---    0.32366   0.32495   0.32517   0.32520   0.32550
     Eigenvalues ---    0.33913   0.35739   0.35761   0.35976   0.36698
     Eigenvalues ---    0.37092   0.37364   0.38048   0.40298   0.40642
     Eigenvalues ---    0.43775   0.45839   0.45957   0.470191000.00000
     Eigenvalues --- 1000.000001000.000001000.000001000.000001000.00000
     Eigenvalues --- 1000.000001000.000001000.000001000.000001000.00000
     Eigenvalues --- 1000.000001000.000001000.000001000.000001000.00000
     Eigenvalues --- 1000.000001000.000001000.000001000.000001000.00000
     Eigenvalues --- 1000.000001000.000001000.000001000.000001000.00000
     Eigenvalues --- 1000.000001000.000001000.000001000.000001000.00000
     Eigenvalues --- 1000.000001000.000001000.000001000.000001000.00000
     Eigenvalues --- 1000.000001000.000001000.00000
 RFO step:  Lambda=-1.69059588D-02 EMin= 9.11547055D-03
 Linear search not attempted -- first point.
 Iteration  1 RMS(Cart)=  0.05372640 RMS(Int)=  0.00112782
 Iteration  2 RMS(Cart)=  0.00125672 RMS(Int)=  0.00030747
 Iteration  3 RMS(Cart)=  0.00000091 RMS(Int)=  0.00030747
 Variable       Old X    -DE/DX   Delta X   Delta X   Delta X     New X
                                 (Linear)    (Quad)   (Total)
    R1        2.75708  -0.00827   0.00000  -0.02132  -0.02132   2.73576
    R2        2.07477  -0.00574   0.00000  -0.01611  -0.01611   2.05866
    R3        2.09948  -0.00589   0.00000  -0.01722  -0.01722   2.08226
    R4        2.09907  -0.00590   0.00000  -0.01726  -0.01726   2.08181
    R5        2.74296  -0.03817   0.00000  -0.09606  -0.09606   2.64690
    R6        2.75301  -0.00742   0.00000  -0.01900  -0.01900   2.73401
    R7        2.68171  -0.01052   0.00000  -0.02554  -0.02579   2.65592
    R8        2.68408  -0.01256   0.00000  -0.03045  -0.03070   2.65338
    R9        2.64046   0.00347   0.00000   0.00742   0.00742   2.64788
   R10        2.04119   0.00483   0.00000   0.01282   0.01282   2.05401
   R11        2.62747   0.01510   0.00000   0.03265   0.03289   2.66036
   R12        2.04457   0.00539   0.00000   0.01438   0.01438   2.05895
   R13        2.62827   0.01614   0.00000   0.03469   0.03492   2.66319
   R14        3.82354  -0.00515   0.00000  -0.05081  -0.05081   3.77273
   R15        2.64319   0.00172   0.00000   0.00348   0.00348   2.64667
   R16        2.04492   0.00527   0.00000   0.01407   0.01407   2.05898
   R17        2.03004   0.00939   0.00000   0.02447   0.02447   2.05451
   R18        2.10179  -0.01212   0.00000  -0.03559  -0.03559   2.06620
   R19        2.09849  -0.00636   0.00000  -0.01858  -0.01858   2.07991
   R20        2.09902  -0.00662   0.00000  -0.01934  -0.01934   2.07968
    A1        2.00953  -0.01267   0.00000  -0.07594  -0.07543   1.93411
    A2        1.90854   0.00624   0.00000   0.03806   0.03770   1.94624
    A3        1.91129   0.00671   0.00000   0.03924   0.03884   1.95013
    A4        1.86085   0.00231   0.00000   0.01024   0.01076   1.87161
    A5        1.87290   0.00157   0.00000   0.00357   0.00401   1.87691
    A6        1.89750  -0.00424   0.00000  -0.01499  -0.01615   1.88136
    A7        2.16340  -0.00161   0.00000  -0.00603  -0.00604   2.15736
    A8        2.02247   0.00476   0.00000   0.01785   0.01785   2.04031
    A9        2.09732  -0.00315   0.00000  -0.01181  -0.01182   2.08550
   A10        2.09979  -0.00219   0.00000  -0.00427  -0.00401   2.09578
   A11        2.14105  -0.00377   0.00000  -0.01019  -0.00993   2.13112
   A12        2.04234   0.00596   0.00000   0.01445   0.01394   2.05628
   A13        2.11801  -0.00190   0.00000  -0.01258  -0.01282   2.10518
   A14        2.12519  -0.00496   0.00000  -0.02713  -0.02701   2.09818
   A15        2.03998   0.00686   0.00000   0.03971   0.03984   2.07982
   A16        2.09907   0.01017   0.00000   0.04560   0.04585   2.14492
   A17        2.09662  -0.01039   0.00000  -0.05278  -0.05291   2.04371
   A18        2.08749   0.00022   0.00000   0.00719   0.00706   2.09455
   A19        2.09175  -0.02350   0.00000  -0.08289  -0.08237   2.00938
   A20        2.09574   0.01168   0.00000   0.04117   0.04091   2.13666
   A21        2.09569   0.01182   0.00000   0.04172   0.04146   2.13714
   A22        2.10273   0.01051   0.00000   0.04613   0.04637   2.14910
   A23        2.08491   0.00033   0.00000   0.00853   0.00841   2.09332
   A24        2.09555  -0.01084   0.00000  -0.05466  -0.05478   2.04077
   A25        2.11247  -0.00124   0.00000  -0.01071  -0.01097   2.10150
   A26        2.15427  -0.00770   0.00000  -0.04170  -0.04157   2.11270
   A27        2.01644   0.00895   0.00000   0.05242   0.05254   2.06898
   A28        1.94962  -0.00969   0.00000  -0.05681  -0.05625   1.89337
   A29        1.92100   0.00707   0.00000   0.04095   0.04066   1.96166
   A30        1.91848   0.00705   0.00000   0.04090   0.04061   1.95909
   A31        1.87551   0.00075   0.00000   0.00223   0.00277   1.87828
   A32        1.87758   0.00076   0.00000   0.00229   0.00283   1.88041
   A33        1.92077  -0.00638   0.00000  -0.03208  -0.03305   1.88771
    D1       -0.01795   0.00018   0.00000   0.00037   0.00034  -0.01762
    D2        3.12272   0.00013   0.00000  -0.00127  -0.00131   3.12141
    D3       -2.11193   0.00111   0.00000   0.01012   0.01078  -2.10115
    D4        1.02874   0.00107   0.00000   0.00848   0.00913   1.03788
    D5        2.09376  -0.00148   0.00000  -0.01794  -0.01856   2.07520
    D6       -1.04875  -0.00152   0.00000  -0.01958  -0.02021  -1.06896
    D7        3.09749   0.00013   0.00000   0.00498   0.00498   3.10248
    D8       -0.04768   0.00014   0.00000   0.00488   0.00488  -0.04280
    D9       -0.04315   0.00017   0.00000   0.00667   0.00666  -0.03649
   D10        3.09486   0.00018   0.00000   0.00657   0.00656   3.10142
   D11        0.00739   0.00012   0.00000   0.00471   0.00471   0.01210
   D12       -2.07454   0.00072   0.00000   0.01131   0.01190  -2.06264
   D13        2.09026  -0.00047   0.00000  -0.00175  -0.00233   2.08793
   D14       -3.13508   0.00008   0.00000   0.00314   0.00314  -3.13194
   D15        1.06617   0.00068   0.00000   0.00974   0.01033   1.07650
   D16       -1.05221  -0.00051   0.00000  -0.00332  -0.00391  -1.05612
   D17        3.14126  -0.00002   0.00000  -0.00042  -0.00040   3.14087
   D18       -0.00220   0.00002   0.00000   0.00042   0.00043  -0.00178
   D19        0.00306  -0.00001   0.00000  -0.00028  -0.00025   0.00280
   D20       -3.14041   0.00003   0.00000   0.00056   0.00057  -3.13984
   D21       -3.13994  -0.00006   0.00000  -0.00157  -0.00153  -3.14147
   D22       -0.00332   0.00000   0.00000  -0.00020  -0.00020  -0.00353
   D23       -0.00182  -0.00007   0.00000  -0.00170  -0.00166  -0.00348
   D24        3.13480  -0.00001   0.00000  -0.00033  -0.00034   3.13446
   D25       -0.00208   0.00006   0.00000   0.00157   0.00158  -0.00050
   D26        3.13984   0.00003   0.00000   0.00072   0.00074   3.14058
   D27        3.14130   0.00004   0.00000   0.00083   0.00083  -3.14105
   D28        0.00004   0.00001   0.00000  -0.00001  -0.00000   0.00003
   D29       -0.00026  -0.00003   0.00000  -0.00084  -0.00085  -0.00112
   D30       -3.14070  -0.00003   0.00000  -0.00076  -0.00077  -3.14146
   D31        3.14100   0.00001   0.00000  -0.00001  -0.00000   3.14100
   D32        0.00057   0.00001   0.00000   0.00007   0.00008   0.00065
   D33        0.00149  -0.00004   0.00000  -0.00108  -0.00109   0.00040
   D34       -3.13920   0.00001   0.00000   0.00020   0.00022  -3.13898
   D35       -3.14126  -0.00004   0.00000  -0.00116  -0.00117   3.14075
   D36        0.00123   0.00001   0.00000   0.00012   0.00013   0.00137
   D37       -0.00041   0.00008   0.00000   0.00233   0.00234   0.00193
   D38       -3.13740   0.00006   0.00000   0.00131   0.00130  -3.13610
   D39        3.14027   0.00003   0.00000   0.00108   0.00110   3.14138
   D40        0.00329   0.00001   0.00000   0.00005   0.00006   0.00334
         Item               Value     Threshold  Converged?
 Maximum Force            0.038173     0.000450     NO 
 RMS     Force            0.007310     0.000300     NO 
 Maximum Displacement     0.243489     0.001800     NO 
 RMS     Displacement     0.053593     0.001200     NO 
 Predicted change in Energy=-9.020598D-03
 GradGradGradGradGradGradGradGradGradGradGradGradGradGradGradGradGradGrad

 Leave Link  103 at Sat Oct  2 17:52:39 2021, MaxMem=  805306368 cpu:       2.7
 (Enter /sw/target/amd/app/gaussian/Gaussian09RevA.02_gcc-4.9.2/g09/l202.exe)
                          Input orientation:                          
 ---------------------------------------------------------------------
 Center     Atomic      Atomic             Coordinates (Angstroms)
 Number     Number       Type             X           Y           Z
 ---------------------------------------------------------------------
      1          6           0        2.891461   -0.195425    1.388269
      2          7           0        2.529124    0.016709    0.002793
      3          6           0        3.179245   -0.602715   -1.072174
      4          6           0        2.735527   -0.379578   -2.386947
      5          6           0        3.378052   -0.992727   -3.470724
      6          6           0        4.483473   -1.851045   -3.318280
      7          6           0        4.905495   -2.053033   -1.988909
      8          6           0        4.282002   -1.452165   -0.888099
      9          3           0        5.388517   -2.717157   -4.872802
     10          6           0        1.429507    0.920838   -0.255200
     11          1           0        3.713579   -0.905622    1.469049
     12          1           0        2.048557   -0.604383    1.968285
     13          1           0        3.211908    0.740014    1.873957
     14          1           0        1.886250    0.272341   -2.574442
     15          1           0        2.985943   -0.780513   -4.464874
     16          1           0        5.756115   -2.701396   -1.780997
     17          1           0        4.673019   -1.656096    0.105642
     18          1           0        1.065275    1.305446    0.701308
     19          1           0        0.585954    0.422739   -0.756929
     20          1           0        1.733522    1.782163   -0.869073
 ---------------------------------------------------------------------
                    Distance matrix (angstroms):
                    1          2          3          4          5
     1  C    0.000000
     2  N    1.447700   0.000000
     3  C    2.510476   1.400677   0.000000
     4  C    3.782920   2.431152   1.405454   0.000000
     5  C    4.947957   3.715502   2.438170   1.401200   0.000000
     6  C    5.237098   4.282232   2.881724   2.467369   1.407801
     7  C    4.348836   3.727981   2.433878   2.769051   2.377626
     8  C    2.948704   2.454356   1.404109   2.405945   2.774555
     9  Li   7.196905   6.278661   4.878168   4.322281   2.996908
    10  C    2.466646   1.446778   2.459724   2.817998   4.218785
    11  H    1.089396   2.098461   2.614399   4.012731   4.951921
    12  H    1.101885   2.116568   3.243894   4.414806   5.612592
    13  H    1.101647   2.119109   3.237851   4.431222   5.620997
    14  H    4.114892   2.668477   2.166649   1.086934   2.151556
    15  H    5.883072   4.561172   3.402850   2.131018   1.089550
    16  H    4.952816   4.580772   3.398110   3.857715   3.380815
    17  H    2.636786   2.721239   2.174448   3.405345   3.861009
    18  H    2.461602   2.071623   3.354875   3.894402   5.294940
    19  H    3.209262   2.125546   2.806437   2.814487   4.142950
    20  H    3.216717   2.123666   2.796249   2.825080   4.144041
                    6          7          8          9         10
     6  C    0.000000
     7  C    1.409301   0.000000
     8  C    2.470926   1.400559   0.000000
     9  Li   1.996445   2.998535   4.324631   0.000000
    10  C    5.137364   4.892049   3.764098   7.087385   0.000000
    11  H    4.940151   3.833365   2.485551   6.804863   3.394993
    12  H    5.952374   5.091175   3.723701   7.900609   2.766480
    13  H    5.940522   5.058763   3.685065   7.887232   2.782618
    14  H    3.436223   3.855652   3.399603   5.146400   2.451131
    15  H    2.168712   3.381477   3.863185   3.112774   4.799837
    16  H    2.169322   1.089568   2.128580   3.113621   5.845355
    17  H    3.434702   2.144469   1.087200   5.140301   4.158265
    18  H    6.148545   5.767490   4.525259   8.120497   1.093388
    19  H    5.188571   5.128903   4.146474   7.061443   1.100644
    20  H    5.173108   5.101389   4.117765   7.045049   1.100520
                   11         12         13         14         15
    11  H    0.000000
    12  H    1.764166   0.000000
    13  H    1.767411   1.780362   0.000000
    14  H    4.590920   4.629402   4.665227   0.000000
    15  H    5.979678   6.503479   6.522564   2.427253   0.000000
    16  H    4.237872   5.674554   5.628053   4.944545   4.308926
    17  H    1.828282   3.385755   3.317096   4.320625   4.949999
    18  H    3.534369   2.493897   2.510548   3.531550   5.893185
    19  H    4.062211   3.258984   3.730665   2.239809   4.577840
    20  H    4.075737   3.720947   3.285714   2.282799   4.589733
                   16         17         18         19         20
    16  H    0.000000
    17  H    2.413536   0.000000
    18  H    6.649857   4.705461   0.000000
    19  H    6.126949   4.665799   1.770699   0.000000
    20  H    6.092221   4.627347   1.771979   1.782560   0.000000
 Stoichiometry    C8H10LiN
 Framework group  C1[X(C8H10LiN)]
 Deg. of freedom    54
 Full point group                 C1      NOp   1
 Largest Abelian subgroup         C1      NOp   1
 Largest concise Abelian subgroup C1      NOp   1
                         Standard orientation:                         
 ---------------------------------------------------------------------
 Center     Atomic      Atomic             Coordinates (Angstroms)
 Number     Number       Type             X           Y           Z
 ---------------------------------------------------------------------
      1          6           0       -2.536724   -1.205646   -0.030635
      2          7           0       -1.722761   -0.008848    0.000538
      3          6           0       -0.322162   -0.023572   -0.000603
      4          6           0        0.394980    1.185043   -0.016644
      5          6           0        1.796180    1.183503   -0.017076
      6          6           0        2.559460    0.000686   -0.001261
      7          6           0        1.811839   -1.193832    0.016624
      8          6           0        0.411536   -1.220591    0.018296
      9          3           0        4.555854    0.014991   -0.001884
     10          6           0       -2.421682    1.257543    0.031050
     11          1           0       -1.912438   -2.097443   -0.072466
     12          1           0       -3.193201   -1.224872   -0.915406
     13          1           0       -3.174596   -1.288580    0.863718
     14          1           0       -0.133671    2.134663   -0.029881
     15          1           0        2.293514    2.152826   -0.030894
     16          1           0        2.323745   -2.155534    0.032086
     17          1           0       -0.089601   -2.185206    0.037888
     18          1           0       -3.497042    1.059901    0.036966
     19          1           0       -2.202053    1.879056   -0.850370
     20          1           0       -2.183450    1.843339    0.931735
 ---------------------------------------------------------------------
 Rotational constants (GHZ):      3.5387902      0.9110719      0.7313489
 Leave Link  202 at Sat Oct  2 17:52:39 2021, MaxMem=  805306368 cpu:       0.0
 (Enter /sw/target/amd/app/gaussian/Gaussian09RevA.02_gcc-4.9.2/g09/l301.exe)
 Standard basis: 6-31G(d) (6D, 7F)
 Ernie: Thresh=  0.10000D-02 Tol=  0.10000D-05 Strict=F.
 There are   170 symmetry adapted basis functions of A   symmetry.
 Integral buffers will be    131072 words long.
 Raffenetti 2 integral format.
 Two-electron integral symmetry is turned on.
   170 basis functions,   320 primitive gaussians,   170 cartesian basis functions
    34 alpha electrons       34 beta electrons
       nuclear repulsion energy       440.5348946483 Hartrees.
 IExCor=  402 DFT=T Ex+Corr=B3LYP ExCW=0 ScaHFX=  0.200000
 ScaDFX=  0.800000  0.720000  1.000000  0.810000 ScalE2=  1.000000  1.000000
 IRadAn=      0 IRanWt=     -1 IRanGd=            0 ICorTp=0
 NAtoms=   20 NActive=   20 NUniq=   20 SFac= 7.50D-01 NAtFMM=   80 NAOKFM=F Big=F
 Leave Link  301 at Sat Oct  2 17:52:40 2021, MaxMem=  805306368 cpu:       0.1
 (Enter /sw/target/amd/app/gaussian/Gaussian09RevA.02_gcc-4.9.2/g09/l302.exe)
 NPDir=0 NMtPBC=     1 NCelOv=     1 NCel=       1 NClECP=     1 NCelD=      1
         NCelK=      1 NCelE2=     1 NClLst=     1 CellRange=     0.0.
 One-electron integrals computed using PRISM.
 NBasis=   170 RedAO= T  NBF=   170
 NBsUse=   170 1.00D-06 NBFU=   170
 Precomputing XC quadrature grid using
 IXCGrd= 2 IRadAn=           0 IRanWt=          -1 IRanGd=           0 AccXCQ= 1.00D-10.
 NRdTot=    1292 NPtTot=      163892 NUsed=      173209 NTot=      173241
 NSgBfM=   170   170   170   170   170 NAtAll=    20    20.
 Leave Link  302 at Sat Oct  2 17:52:46 2021, MaxMem=  805306368 cpu:       1.2
 (Enter /sw/target/amd/app/gaussian/Gaussian09RevA.02_gcc-4.9.2/g09/l303.exe)
 DipDrv:  MaxL=1.
 Leave Link  303 at Sat Oct  2 17:52:47 2021, MaxMem=  805306368 cpu:       0.1
 (Enter /sw/target/amd/app/gaussian/Gaussian09RevA.02_gcc-4.9.2/g09/l401.exe)
 Initial guess read from the read-write file.
 B after Tr=     0.000000    0.000000    0.000000
         Rot=    1.000000    0.000000    0.000000    0.000000 Ang=   0.00 deg.
 Guess basis will be translated and rotated to current coordinates.
 Initial guess orbital symmetries:
       Occupied  (A) (A) (A) (A) (A) (A) (A) (A) (A) (A) (A) (A)
                 (A) (A) (A) (A) (A) (A) (A) (A) (A) (A) (A) (A)
                 (A) (A) (A) (A) (A) (A) (A) (A) (A) (A)
       Virtual   (A) (A) (A) (A) (A) (A) (A) (A) (A) (A) (A) (A)
                 (A) (A) (A) (A) (A) (A) (A) (A) (A) (A) (A) (A)
                 (A) (A) (A) (A) (A) (A) (A) (A) (A) (A) (A) (A)
                 (A) (A) (A) (A) (A) (A) (A) (A) (A) (A) (A) (A)
                 (A) (A) (A) (A) (A) (A) (A) (A) (A) (A) (A) (A)
                 (A) (A) (A) (A) (A) (A) (A) (A) (A) (A) (A) (A)
                 (A) (A) (A) (A) (A) (A) (A) (A) (A) (A) (A) (A)
                 (A) (A) (A) (A) (A) (A) (A) (A) (A) (A) (A) (A)
                 (A) (A) (A) (A) (A) (A) (A) (A) (A) (A) (A) (A)
                 (A) (A) (A) (A) (A) (A) (A) (A) (A) (A) (A) (A)
                 (A) (A) (A) (A) (A) (A) (A) (A) (A) (A) (A) (A)
                 (A) (A) (A) (A)
 The electronic state of the initial guess is 1-A.
 Generating alternative initial guess.
 Harris functional with IExCor=  402 diagonalized for initial guess.
 ExpMin= 3.60D-02 ExpMax= 4.17D+03 ExpMxC= 6.27D+02 IAcc=3 IRadAn=         0 AccDes= 0.00D+00
 HarFok:  IExCor=  402 AccDes= 0.00D+00 IRadAn=         0 IDoV= 1
 ScaDFX=  1.000000  1.000000  1.000000  1.000000
 FoFCou: FMM=F IPFlag=           0 FMFlag=      100000 FMFlg1=           0
         NFxFlg=           0 DoJE=T BraDBF=F KetDBF=T FulRan=T
         Omega=  0.000000  0.000000  1.000000  0.000000  0.000000 ICntrl=     500 IOpCl=  0
         NMat0=    1 NMatS0=    1 NMatT0=    0 NMatD0=    1 NMtDS0=    0 NMtDT0=    0
         I1Cent=           4 NGrid=           0.
 Petite list used in FoFCou.
 Harris En= -373.246809245867    
 Leave Link  401 at Sat Oct  2 17:53:25 2021, MaxMem=  805306368 cpu:      12.6
 (Enter /sw/target/amd/app/gaussian/Gaussian09RevA.02_gcc-4.9.2/g09/l502.exe)
 Closed shell SCF:
 Requested convergence on RMS density matrix=1.00D-08 within  64 cycles.
 Requested convergence on MAX density matrix=1.00D-06.
 Requested convergence on             energy=1.00D-06.
 No special actions if energy rises.
 Using DIIS extrapolation, IDIIS=  1040.
 Integral symmetry usage will be decided dynamically.
       173016 words used for storage of precomputed grid.
 Keep R1 ints in memory in canonical form, NReq=108407978.
 IEnd=      267564 IEndB=      267564 NGot=   805306368 MDV=   699431691
 LenX=   699431691 LenY=   699402350
 Symmetry not used in FoFDir.
 MinBra= 0 MaxBra= 2 Meth= 1.
 IRaf=       0 NMat=   1 IRICut=       1 DoRegI=T DoRafI=F ISym2E= 0 JSym2E=0.

 Cycle   1  Pass 1  IDiag  1:
 E= -362.239766421262    
 DIIS: error= 1.31D-01 at cycle   1 NSaved=   1.
 NSaved= 1 IEnMin= 1 EnMin= -362.239766421262     IErMin= 1 ErrMin= 1.31D-01
 ErrMax= 1.31D-01 EMaxC= 1.00D-01 BMatC= 2.95D+00 BMatP= 2.95D+00
 IDIUse=3 WtCom= 0.00D+00 WtEn= 1.00D+00
 Coeff-Com:  0.100D+01
 Coeff-En:   0.100D+01
 Coeff:      0.100D+01
 Recover alternate guess density for next cycle.
 RMSDP=2.96D-02 MaxDP=6.04D-01              OVMax= 0.00D+00

 Cycle   2  Pass 1  IDiag  1:
 E= -372.732622299914     Delta-E=      -10.492855878652 Rises=F Damp=F
 DIIS: error= 4.61D-02 at cycle   2 NSaved=   2.
 NSaved= 2 IEnMin= 2 EnMin= -372.732622299914     IErMin= 2 ErrMin= 4.61D-02
 ErrMax= 4.61D-02 EMaxC= 1.00D-01 BMatC= 3.01D-01 BMatP= 2.95D+00
 IDIUse=3 WtCom= 5.39D-01 WtEn= 4.61D-01
 Coeff-Com:  0.723D-01 0.928D+00
 Coeff-En:   0.000D+00 0.100D+01
 Coeff:      0.389D-01 0.961D+00
 Gap=     0.244 Goal=   None    Shift=    0.000
 RMSDP=1.04D-02 MaxDP=4.70D-01 DE=-1.05D+01 OVMax= 9.47D-01

 Cycle   3  Pass 1  IDiag  1:
 E= -371.406749184194     Delta-E=        1.325873115720 Rises=F Damp=F
 DIIS: error= 9.26D-02 at cycle   3 NSaved=   3.
 NSaved= 3 IEnMin= 2 EnMin= -372.732622299914     IErMin= 2 ErrMin= 4.61D-02
 ErrMax= 9.26D-02 EMaxC= 1.00D-01 BMatC= 9.81D-01 BMatP= 3.01D-01
 IDIUse=2 WtCom= 0.00D+00 WtEn= 1.00D+00
 Coeff-En:   0.000D+00 0.789D+00 0.211D+00
 Coeff:      0.000D+00 0.789D+00 0.211D+00
 Gap=     0.022 Goal=   None    Shift=    0.000
 RMSDP=7.46D-03 MaxDP=4.63D-01 DE= 1.33D+00 OVMax= 8.77D-01

 Cycle   4  Pass 1  IDiag  1:
 E= -373.049281888976     Delta-E=       -1.642532704782 Rises=F Damp=F
 DIIS: error= 2.48D-02 at cycle   4 NSaved=   4.
 NSaved= 4 IEnMin= 4 EnMin= -373.049281888976     IErMin= 4 ErrMin= 2.48D-02
 ErrMax= 2.48D-02 EMaxC= 1.00D-01 BMatC= 4.84D-02 BMatP= 3.01D-01
 IDIUse=3 WtCom= 7.52D-01 WtEn= 2.48D-01
 Coeff-Com:  0.268D-02 0.289D+00 0.229D-01 0.685D+00
 Coeff-En:   0.000D+00 0.294D-01 0.000D+00 0.971D+00
 Coeff:      0.201D-02 0.225D+00 0.172D-01 0.756D+00
 Gap=     0.115 Goal=   None    Shift=    0.000
 RMSDP=1.77D-03 MaxDP=4.32D-02 DE=-1.64D+00 OVMax= 5.10D-02

 Cycle   5  Pass 1  IDiag  1:
 E= -373.089958976881     Delta-E=       -0.040677087905 Rises=F Damp=F
 DIIS: error= 1.12D-02 at cycle   5 NSaved=   5.
 NSaved= 5 IEnMin= 5 EnMin= -373.089958976881     IErMin= 5 ErrMin= 1.12D-02
 ErrMax= 1.12D-02 EMaxC= 1.00D-01 BMatC= 8.97D-03 BMatP= 4.84D-02
 IDIUse=3 WtCom= 8.88D-01 WtEn= 1.12D-01
 Coeff-Com: -0.530D-03 0.835D-01-0.135D-01 0.405D+00 0.526D+00
 Coeff-En:   0.000D+00 0.000D+00 0.000D+00 0.824D-01 0.918D+00
 Coeff:     -0.471D-03 0.741D-01-0.120D-01 0.369D+00 0.570D+00
 Gap=     0.095 Goal=   None    Shift=    0.000
 RMSDP=7.33D-04 MaxDP=1.56D-02 DE=-4.07D-02 OVMax= 3.52D-02

 Cycle   6  Pass 1  IDiag  1:
 E= -373.098710250477     Delta-E=       -0.008751273596 Rises=F Damp=F
 DIIS: error= 1.80D-03 at cycle   6 NSaved=   6.
 NSaved= 6 IEnMin= 6 EnMin= -373.098710250477     IErMin= 6 ErrMin= 1.80D-03
 ErrMax= 1.80D-03 EMaxC= 1.00D-01 BMatC= 4.36D-04 BMatP= 8.97D-03
 IDIUse=3 WtCom= 9.82D-01 WtEn= 1.80D-02
 Coeff-Com:  0.512D-04 0.199D-01-0.301D-02 0.883D-01 0.230D+00 0.665D+00
 Coeff-En:   0.000D+00 0.000D+00 0.000D+00 0.000D+00 0.000D+00 0.100D+01
 Coeff:      0.503D-04 0.195D-01-0.295D-02 0.867D-01 0.226D+00 0.671D+00
 Gap=     0.102 Goal=   None    Shift=    0.000
 RMSDP=2.23D-04 MaxDP=5.05D-03 DE=-8.75D-03 OVMax= 1.40D-02

 Cycle   7  Pass 1  IDiag  1:
 E= -373.099096476647     Delta-E=       -0.000386226170 Rises=F Damp=F
 DIIS: error= 1.20D-03 at cycle   7 NSaved=   7.
 NSaved= 7 IEnMin= 7 EnMin= -373.099096476647     IErMin= 7 ErrMin= 1.20D-03
 ErrMax= 1.20D-03 EMaxC= 1.00D-01 BMatC= 1.11D-04 BMatP= 4.36D-04
 IDIUse=3 WtCom= 9.88D-01 WtEn= 1.20D-02
 Coeff-Com:  0.490D-05 0.381D-02-0.113D-02 0.659D-02 0.764D-01 0.441D+00
 Coeff-Com:  0.473D+00
[...]
    16  H    0.368380  -0.060538  -0.008805   0.000003  -0.000001   0.000000
    17  H   -0.034102   0.346009   0.000994  -0.000057  -0.000035   0.000217
    18  H    0.000002  -0.000126   0.000002   0.376115   0.000178   0.006492
    19  H   -0.000001  -0.000144  -0.000009   0.377489   0.000118   0.000177
    20  H   -0.000001  -0.000144  -0.000004   0.377490  -0.000206   0.000178
             13         14         15         16         17         18
     1  C    0.377488  -0.000058   0.000003  -0.000007   0.008651  -0.005696
     2  N   -0.036362  -0.012733  -0.000115  -0.000115  -0.012734  -0.030924
     3  C   -0.004032  -0.053207   0.003062   0.003065  -0.053216   0.003523
     4  C   -0.000145   0.346026  -0.060512   0.000766   0.005872   0.000536
     5  C   -0.000001  -0.034117   0.368418   0.007342   0.000139  -0.000005
     6  C    0.000000   0.004907  -0.039074  -0.039035   0.004910   0.000001
     7  C    0.000120   0.000138   0.007339   0.368380  -0.034102   0.000002
     8  C    0.001846   0.005873   0.000767  -0.060538   0.346009  -0.000126
     9  Li  -0.000004   0.000994  -0.008871  -0.008805   0.000994   0.000002
    10  C    0.002906   0.008651  -0.000007   0.000003  -0.000057   0.376115
    11  H   -0.036512  -0.000001   0.000000  -0.000001  -0.000035   0.000178
    12  H   -0.025575   0.000002  -0.000000   0.000000   0.000217   0.006492
    13  H    0.518596  -0.000001   0.000000  -0.000001  -0.000040   0.000177
    14  H   -0.000001   0.598953  -0.003554   0.000025  -0.000099   0.000216
    15  H    0.000000  -0.003554   0.578884  -0.000109   0.000025   0.000000
    16  H   -0.000001   0.000025  -0.000109   0.578898  -0.003561  -0.000000
    17  H   -0.000040  -0.000099   0.000025  -0.003561   0.598979   0.000002
    18  H    0.000177   0.000216   0.000000  -0.000000   0.000002   0.517690
    19  H   -0.000206  -0.000034  -0.000001   0.000000  -0.000001  -0.025576
    20  H    0.000118  -0.000039  -0.000001   0.000000  -0.000001  -0.025578
             19         20
     1  C    0.002905   0.002906
     2  N   -0.036373  -0.036361
     3  C   -0.004019  -0.004030
     4  C    0.001842   0.001845
     5  C    0.000118   0.000120
     6  C    0.000000   0.000000
     7  C   -0.000001  -0.000001
     8  C   -0.000144  -0.000144
     9  Li  -0.000009  -0.000004
    10  C    0.377489   0.377490
    11  H    0.000118  -0.000206
    12  H    0.000177   0.000178
    13  H   -0.000206   0.000118
    14  H   -0.000034  -0.000039
    15  H   -0.000001  -0.000001
    16  H    0.000000   0.000000
    17  H   -0.000001  -0.000001
    18  H   -0.025576  -0.025578
    19  H    0.518601  -0.036510
    20  H   -0.036510   0.518591
 Mulliken atomic charges:
              1
     1  C   -0.336455
     2  N   -0.415127
     3  C    0.355672
     4  C   -0.146323
     5  C   -0.195142
     6  C   -0.023717
     7  C   -0.195374
     8  C   -0.146326
     9  Li  -0.316739
    10  C   -0.336460
    11  H    0.201621
    12  H    0.182971
    13  H    0.201627
    14  H    0.138060
    15  H    0.153748
    16  H    0.153694
    17  H    0.138048
    18  H    0.182971
    19  H    0.201624
    20  H    0.201629
 Sum of Mulliken atomic charges =  -0.00000
 Mulliken charges with hydrogens summed into heavy atoms:
              1
     1  C    0.249763
     2  N   -0.415127
     3  C    0.355672
     4  C   -0.008263
     5  C   -0.041394
     6  C   -0.023717
     7  C   -0.041680
     8  C   -0.008277
     9  Li  -0.316739
    10  C    0.249764
 Sum of Mulliken charges with hydrogens summed into heavy atoms =  -0.00000
 Electronic spatial extent (au):  <R**2>=           1545.4246
 Charge=             -0.0000 electrons
 Dipole moment (field-independent basis, Debye):
    X=            -16.8751    Y=              0.0056    Z=              0.0065  Tot=             16.8751
 Quadrupole moment (field-independent basis, Debye-Ang):
   XX=           -125.0498   YY=            -53.5589   ZZ=            -64.2114
   XY=              0.0388   XZ=              0.0403   YZ=             -0.0000
 Traceless Quadrupole moment (field-independent basis, Debye-Ang):
   XX=            -44.1098   YY=             27.3811   ZZ=             16.7286
   XY=              0.0388   XZ=              0.0403   YZ=             -0.0000
 Octapole moment (field-independent basis, Debye-Ang**2):
  XXX=           -603.6486  YYY=              0.0502  ZZZ=              0.0391  XYY=            -46.6897
  XXY=              0.2385  XXZ=              0.2432  XZZ=            -45.5608  YZZ=              0.0170
  YYZ=              0.0130  XYZ=             -0.0003
 Hexadecapole moment (field-independent basis, Debye-Ang**3):
 XXXX=          -5182.4774 YYYY=           -475.1211 ZZZZ=           -113.2112 XXXY=              1.5373
 XXXZ=              1.4936 YYYX=              0.2926 YYYZ=             -0.0001 ZZZX=              0.2190
 ZZZY=              0.0002 XXYY=           -506.5059 XXZZ=           -484.4986 YYZZ=           -104.0808
 XXYZ=             -0.0005 YYXZ=              0.0769 ZZXY=              0.0960
 N-N= 4.408191677668D+02 E-N=-1.742771058544D+03  KE= 3.694552191616D+02
 No NMR shielding tensors so no spin-rotation constants.
 Leave Link  601 at Sun Oct  3 03:38:20 2021, MaxMem=  805306368 cpu:       0.8
 (Enter /sw/target/amd/app/gaussian/Gaussian09RevA.02_gcc-4.9.2/g09/l604.exe)
 Evaluate density.
 Using the total density.
 Monte-Carlo method of calculating molar volume:
 based on  0.001 e/bohr**3 density envelope.
 Number of points per bohr**3 =   20 CutOff= 1.00D-04
 Using the CI density.
 There are       496 points.  Will hold       496 in memory.
 LenV=   805190994 MDV=   805306368.
 Box volume =15332.999 fraction occupied=0.097
 Integrated density= 4.9615113393957529D+01 error=-1.8384886606042471D+01
 Molar volume = 1483.839 bohr**3/mol (132.416 cm**3/mol)
 Recommended a0 for SCRF calculation =  4.62 angstrom (  8.73 bohr)
 Leave Link  604 at Sun Oct  3 03:38:22 2021, MaxMem=  805306368 cpu:       0.3
 (Enter /sw/target/amd/app/gaussian/Gaussian09RevA.02_gcc-4.9.2/g09/l607.exe)
 ******************************Gaussian NBO Version 3.1******************************
             N A T U R A L   A T O M I C   O R B I T A L   A N D
          N A T U R A L   B O N D   O R B I T A L   A N A L Y S I S
 ******************************Gaussian NBO Version 3.1******************************
       /RESON  / : Allow strongly delocalized NBO set

 Analyzing the CI density

 Job title: CN(c1ccc(cc1)[Li])C_conf_0                                      

 Storage needed:     88090 in NPA ( 805304168 available)


 NATURAL POPULATIONS:  Natural atomic orbital occupancies 
                                                          
   NAO  Atom  No  lang   Type(AO)    Occupancy
 --------------------------------------------
     1    C    1  S      Cor( 1S)     1.99945
     2    C    1  S      Val( 2S)     1.08792
     3    C    1  S      Ryd( 3S)     0.00116
     4    C    1  S      Ryd( 4S)     0.00002
     5    C    1  px     Val( 2p)     1.15488
     6    C    1  px     Ryd( 3p)     0.00327
     7    C    1  py     Val( 2p)     0.97435
     8    C    1  py     Ryd( 3p)     0.00257
     9    C    1  pz     Val( 2p)     1.25775
    10    C    1  pz     Ryd( 3p)     0.00076
    11    C    1  dxy    Ryd( 3d)     0.00094
    12    C    1  dxz    Ryd( 3d)     0.00036
    13    C    1  dyz    Ryd( 3d)     0.00150
    14    C    1  dx2y2  Ryd( 3d)     0.00092
    15    C    1  dz2    Ryd( 3d)     0.00090

    16    N    2  S      Cor( 1S)     1.99935
    17    N    2  S      Val( 2S)     1.19208
    18    N    2  S      Ryd( 3S)     0.00068
    19    N    2  S      Ryd( 4S)     0.00002
    20    N    2  px     Val( 2p)     1.29855
    21    N    2  px     Ryd( 3p)     0.00070
    22    N    2  py     Val( 2p)     1.28573
    23    N    2  py     Ryd( 3p)     0.00159
    24    N    2  pz     Val( 2p)     1.51148
    25    N    2  pz     Ryd( 3p)     0.00394
    26    N    2  dxy    Ryd( 3d)     0.00069
    27    N    2  dxz    Ryd( 3d)     0.00052
    28    N    2  dyz    Ryd( 3d)     0.00047
    29    N    2  dx2y2  Ryd( 3d)     0.00079
    30    N    2  dz2    Ryd( 3d)     0.00049

    31    C    3  S      Cor( 1S)     1.99900
    32    C    3  S      Val( 2S)     0.83998
    33    C    3  S      Ryd( 3S)     0.00126
    34    C    3  S      Ryd( 4S)     0.00008
    35    C    3  px     Val( 2p)     0.87829
    36    C    3  px     Ryd( 3p)     0.00407
    37    C    3  py     Val( 2p)     1.11561
    38    C    3  py     Ryd( 3p)     0.00703
    39    C    3  pz     Val( 2p)     0.95797
    40    C    3  pz     Ryd( 3p)     0.00113
    41    C    3  dxy    Ryd( 3d)     0.00079
    42    C    3  dxz    Ryd( 3d)     0.00127
    43    C    3  dyz    Ryd( 3d)     0.00079
    44    C    3  dx2y2  Ryd( 3d)     0.00120
    45    C    3  dz2    Ryd( 3d)     0.00038

    46    C    4  S      Cor( 1S)     1.99905
    47    C    4  S      Val( 2S)     0.96488
    48    C    4  S      Ryd( 3S)     0.00074
    49    C    4  S      Ryd( 4S)     0.00003
    50    C    4  px     Val( 2p)     1.12399
    51    C    4  px     Ryd( 3p)     0.00396
    52    C    4  py     Val( 2p)     1.14103
    53    C    4  py     Ryd( 3p)     0.00386
    54    C    4  pz     Val( 2p)     1.00431
    55    C    4  pz     Ryd( 3p)     0.00055
    56    C    4  dxy    Ryd( 3d)     0.00099
    57    C    4  dxz    Ryd( 3d)     0.00045
    58    C    4  dyz    Ryd( 3d)     0.00032
    59    C    4  dx2y2  Ryd( 3d)     0.00051
    60    C    4  dz2    Ryd( 3d)     0.00043

    61    C    5  S      Cor( 1S)     1.99917
    62    C    5  S      Val( 2S)     0.98376
    63    C    5  S      Ryd( 3S)     0.00102
    64    C    5  S      Ryd( 4S)     0.00004
    65    C    5  px     Val( 2p)     1.07943
    66    C    5  px     Ryd( 3p)     0.00561
    67    C    5  py     Val( 2p)     1.20567
    68    C    5  py     Ryd( 3p)     0.00665
    69    C    5  pz     Val( 2p)     0.94892
    70    C    5  pz     Ryd( 3p)     0.00041
    71    C    5  dxy    Ryd( 3d)     0.00089
    72    C    5  dxz    Ryd( 3d)     0.00042
    73    C    5  dyz    Ryd( 3d)     0.00034
    74    C    5  dx2y2  Ryd( 3d)     0.00113
    75    C    5  dz2    Ryd( 3d)     0.00042

    76    C    6  S      Cor( 1S)     1.99934
    77    C    6  S      Val( 2S)     1.21362
    78    C    6  S      Ryd( 3S)     0.00406
    79    C    6  S      Ryd( 4S)     0.00001
    80    C    6  px     Val( 2p)     1.53389
    81    C    6  px     Ryd( 3p)     0.01014
    82    C    6  py     Val( 2p)     0.95558
    83    C    6  py     Ryd( 3p)     0.00619
    84    C    6  pz     Val( 2p)     0.61003
    85    C    6  pz     Ryd( 3p)     0.00000
    86    C    6  dxy    Ryd( 3d)     0.00122
    87    C    6  dxz    Ryd( 3d)     0.00089
    88    C    6  dyz    Ryd( 3d)     0.00030
    89    C    6  dx2y2  Ryd( 3d)     0.00035
    90    C    6  dz2    Ryd( 3d)     0.00044

    91    C    7  S      Cor( 1S)     1.99917
    92    C    7  S      Val( 2S)     0.98376
    93    C    7  S      Ryd( 3S)     0.00102
    94    C    7  S      Ryd( 4S)     0.00004
    95    C    7  px     Val( 2p)     1.07940
    96    C    7  px     Ryd( 3p)     0.00562
    97    C    7  py     Val( 2p)     1.20567
    98    C    7  py     Ryd( 3p)     0.00665
    99    C    7  pz     Val( 2p)     0.94889
   100    C    7  pz     Ryd( 3p)     0.00042
   101    C    7  dxy    Ryd( 3d)     0.00089
   102    C    7  dxz    Ryd( 3d)     0.00042
   103    C    7  dyz    Ryd( 3d)     0.00034
   104    C    7  dx2y2  Ryd( 3d)     0.00113
   105    C    7  dz2    Ryd( 3d)     0.00042

   106    C    8  S      Cor( 1S)     1.99905
   107    C    8  S      Val( 2S)     0.96487
   108    C    8  S      Ryd( 3S)     0.00074
   109    C    8  S      Ryd( 4S)     0.00003
   110    C    8  px     Val( 2p)     1.12402
   111    C    8  px     Ryd( 3p)     0.00396
   112    C    8  py     Val( 2p)     1.14099
   113    C    8  py     Ryd( 3p)     0.00386
   114    C    8  pz     Val( 2p)     1.00436
   115    C    8  pz     Ryd( 3p)     0.00056
   116    C    8  dxy    Ryd( 3d)     0.00099
   117    C    8  dxz    Ryd( 3d)     0.00045
   118    C    8  dyz    Ryd( 3d)     0.00032
   119    C    8  dx2y2  Ryd( 3d)     0.00051
   120    C    8  dz2    Ryd( 3d)     0.00043

   121   Li    9  S      Cor( 1S)     1.99877
   122   Li    9  S      Val( 2S)     0.88842
   123   Li    9  S      Ryd( 3S)     0.00239
   124   Li    9  S      Ryd( 4S)     0.00002
   125   Li    9  px     Val( 2p)     0.18177
   126   Li    9  px     Ryd( 3p)     0.00000
   127   Li    9  py     Val( 2p)     0.00206
   128   Li    9  py     Ryd( 3p)     0.00000
   129   Li    9  pz     Val( 2p)     0.00092
   130   Li    9  pz     Ryd( 3p)     0.00000
   131   Li    9  dxy    Ryd( 3d)     0.00008
   132   Li    9  dxz    Ryd( 3d)     0.00000
   133   Li    9  dyz    Ryd( 3d)     0.00000
   134   Li    9  dx2y2  Ryd( 3d)     0.00000
   135   Li    9  dz2    Ryd( 3d)     0.00000

   136    C   10  S      Cor( 1S)     1.99945
   137    C   10  S      Val( 2S)     1.08792
   138    C   10  S      Ryd( 3S)     0.00116
   139    C   10  S      Ryd( 4S)     0.00002
   140    C   10  px     Val( 2p)     1.15496
   141    C   10  px     Ryd( 3p)     0.00327
   142    C   10  py     Val( 2p)     0.97428
   143    C   10  py     Ryd( 3p)     0.00257
   144    C   10  pz     Val( 2p)     1.25775
   145    C   10  pz     Ryd( 3p)     0.00076
   146    C   10  dxy    Ryd( 3d)     0.00094
   147    C   10  dxz    Ryd( 3d)     0.00036
   148    C   10  dyz    Ryd( 3d)     0.00150
   149    C   10  dx2y2  Ryd( 3d)     0.00092
   150    C   10  dz2    Ryd( 3d)     0.00090

   151    H   11  S      Val( 1S)     0.74712
   152    H   11  S      Ryd( 2S)     0.00093

   153    H   12  S      Val( 1S)     0.75274
   154    H   12  S      Ryd( 2S)     0.00040

   155    H   13  S      Val( 1S)     0.74711
   156    H   13  S      Ryd( 2S)     0.00093

   157    H   14  S      Val( 1S)     0.76444
   158    H   14  S      Ryd( 2S)     0.00133

   159    H   15  S      Val( 1S)     0.76177
   160    H   15  S      Ryd( 2S)     0.00092

   161    H   16  S      Val( 1S)     0.76177
   162    H   16  S      Ryd( 2S)     0.00092

   163    H   17  S      Val( 1S)     0.76444
   164    H   17  S      Ryd( 2S)     0.00133

   165    H   18  S      Val( 1S)     0.75274
   166    H   18  S      Ryd( 2S)     0.00040

   167    H   19  S      Val( 1S)     0.74712
   168    H   19  S      Ryd( 2S)     0.00093

   169    H   20  S      Val( 1S)     0.74711
   170    H   20  S      Ryd( 2S)     0.00093

 WARNING:  1 low occupancy (<1.9990e) core orbital  found on Li    9


 Summary of Natural Population Analysis:                  
                                                          
                                       Natural Population 
                Natural  -----------------------------------------------
    Atom  No    Charge         Core      Valence    Rydberg      Total
 -----------------------------------------------------------------------
      C    1   -0.48675      1.99945     4.47490    0.01239     6.48675
      N    2   -0.29709      1.99935     5.28785    0.00989     7.29709
      C    3    0.19115      1.99900     3.79185    0.01799     5.80885
      C    4   -0.24510      1.99905     4.23421    0.01185     6.24510
      C    5   -0.23388      1.99917     4.21777    0.01694     6.23388
      C    6   -0.33607      1.99934     4.31312    0.02361     6.33607
      C    7   -0.23384      1.99917     4.21772    0.01695     6.23384
      C    8   -0.24513      1.99905     4.23424    0.01185     6.24513
     Li    9   -0.07443      1.99877     1.07317    0.00248     3.07443
      C   10   -0.48675      1.99945     4.47491    0.01239     6.48675
      H   11    0.25196      0.00000     0.74712    0.00093     0.74804
      H   12    0.24686      0.00000     0.75274    0.00040     0.75314
      H   13    0.25196      0.00000     0.74711    0.00093     0.74804
      H   14    0.23423      0.00000     0.76444    0.00133     0.76577
      H   15    0.23731      0.00000     0.76177    0.00092     0.76269
      H   16    0.23731      0.00000     0.76177    0.00092     0.76269
      H   17    0.23423      0.00000     0.76444    0.00133     0.76577
      H   18    0.24686      0.00000     0.75274    0.00040     0.75314
      H   19    0.25196      0.00000     0.74712    0.00093     0.74804
      H   20    0.25196      0.00000     0.74711    0.00093     0.74804
 =======================================================================
   * Total *   -0.00325     19.99178    47.86610    0.14537    68.00325

                                 Natural Population      
 --------------------------------------------------------
   Core                      19.99178 ( 99.9589% of  20)
   Valence                   47.86610 ( 99.7210% of  48)
   Natural Minimal Basis     67.85789 ( 99.7910% of  68)
   Natural Rydberg Basis      0.14537 (  0.2138% of  68)
 --------------------------------------------------------

    Atom  No          Natural Electron Configuration
 ----------------------------------------------------------------------------
      C    1      [core]2S( 1.09)2p( 3.39)3p( 0.01)
      N    2      [core]2S( 1.19)2p( 4.10)3p( 0.01)
      C    3      [core]2S( 0.84)2p( 2.95)3p( 0.01)
      C    4      [core]2S( 0.96)2p( 3.27)3p( 0.01)
      C    5      [core]2S( 0.98)2p( 3.23)3p( 0.01)
      C    6      [core]2S( 1.21)2p( 3.10)3p( 0.02)
      C    7      [core]2S( 0.98)2p( 3.23)3p( 0.01)
      C    8      [core]2S( 0.96)2p( 3.27)3p( 0.01)
     Li    9      [core]2S( 0.89)2p( 0.18)
      C   10      [core]2S( 1.09)2p( 3.39)3p( 0.01)
      H   11            1S( 0.75)
      H   12            1S( 0.75)
      H   13            1S( 0.75)
      H   14            1S( 0.76)
      H   15            1S( 0.76)
      H   16            1S( 0.76)
      H   17            1S( 0.76)
      H   18            1S( 0.75)
      H   19            1S( 0.75)
      H   20            1S( 0.75)


 NBO analysis skipped by request.
 Leave Link  607 at Sun Oct  3 03:38:50 2021, MaxMem=  805306368 cpu:      10.0
 (Enter /sw/target/amd/app/gaussian/Gaussian09RevA.02_gcc-4.9.2/g09/l9999.exe)
 1\1\GINC-HERMITE\SP\RTD-B3LYP-FC\6-31G(d)\C8H10Li1N1\JSCHLEINITZ\03-Oc
 t-2021\0\\#p TD(NStates=10, Root=1) b3lyp/6-31G* volume pop=NPA densit
 y=current Geom=AllCheck Guess=Read\\CN(c1ccc(cc1)[Li])C_conf_0\\0,1\C,
 0,2.946362398,-0.2143071966,1.352156697\N,0,2.4838383707,0.0114815249,
 -0.000360231\C,0,3.1510124195,-0.5785428638,-1.0720429256\C,0,2.728121
 5431,-0.3805653355,-2.4036994622\C,0,3.4107965946,-0.9809830784,-3.463
 1390133\C,0,4.545716953,-1.8118301405,-3.3121460684\C,0,4.9345696597,-
 1.9829278995,-1.962850004\C,0,4.2804850727,-1.4013167854,-0.8752788184
 \Li,0,5.4847931535,-2.6414494286,-4.8231512574\C,0,1.3286691799,0.8493
 940024,-0.2405387982\H,0,2.9208326719,-1.2801149775,1.6271115046\H,0,2
 .3019370912,0.3261917353,2.0490840154\H,0,3.9777163904,0.1403969213,1.
 5027648495\H,0,1.8649023184,0.2428537853,-2.6160772484\H,0,3.018075521
 4,-0.7764264236,-4.4628124058\H,0,5.8004840286,-2.6059844747,-1.723318
 9193\H,0,4.6515399723,-1.5894953242,0.1276222298\H,0,0.945338546,1.218
 0128885,0.7135656862\H,0,0.515426391,0.30160347,-0.7412941521\H,0,1.57
 19063006,1.7224077644,-0.8657400461\\Version=AM64L-G09RevA.02\State=1-
 A\HF=-373.1029984\RMSD=8.393e-09\Dipole=-3.1786843,2.8073972,5.1081585
 \Quadrupole=5.3685388,5.7891578,-11.1576966,6.9803388,19.9119496,-16.8
 424494\PG=C01 [X(C8H10Li1N1)]\\@


 I DO NOT DEFINE TIME, SPACE, PLACE, AND MOTION, AS BEING WELL KNOWN TO ALL.
                                            -- NEWTON (1642-1726), PRINCIPIA
 Job cpu time:  0 days  1 hours  9 minutes 47.3 seconds.
 File lengths (MBytes):  RWF=     83 Int=      0 D2E=      0 Chk=     14 Scr=      1
 Normal termination of Gaussian 09 at Sun Oct  3 03:38:55 2021.
