 Entering Gaussian System, Link 0=g09
 Input=C8H10O_2118_conf_0.com
 Output=C8H10O_2118_conf_0.log
 Initial command:
 /sw/target/amd/app/gaussian/Gaussian09RevA.02_gcc-4.9.2/g09/l1.exe /home/jschleinitz/gaussian/Gau-2573669.inp -scrdir=/home/jschleinitz/gaussian/
 Entering Link 1 = /sw/target/amd/app/gaussian/Gaussian09RevA.02_gcc-4.9.2/g09/l1.exe PID=   2573677.
  
 Copyright (c) 1988,1990,1992,1993,1995,1998,2003,2009, Gaussian, Inc.
                  All Rights Reserved.
  
 This is part of the Gaussian(R) 09 program.  It is based on
 the Gaussian(R) 03 system (copyright 2003, Gaussian, Inc.),
 the Gaussian(R) 98 system (copyright 1998, Gaussian, Inc.),
 the Gaussian(R) 94 system (copyright 1995, Gaussian, Inc.),
 the Gaussian 92(TM) system (copyright 1992, Gaussian, Inc.),
 the Gaussian 90(TM) system (copyright 1990, Gaussian, Inc.),
 the Gaussian 88(TM) system (copyright 1988, Gaussian, Inc.),
 the Gaussian 86(TM) system (copyright 1986, Carnegie Mellon
 University), and the Gaussian 82(TM) system (copyright 1983,
 Carnegie Mellon University). Gaussian is a federally registered
 trademark of Gaussian, Inc.
  
 This software contains proprietary and confidential information,
 including trade secrets, belonging to Gaussian, Inc.
  
 This software is provided under written license and may be
 used, copied, transmitted, or stored only in accord with that
 written license.
  
 The following legend is applicable only to US Government
 contracts under FAR:
  
                    RESTRICTED RIGHTS LEGEND
  
 Use, reproduction and disclosure by the US Government is
 subject to restrictions as set forth in subparagraphs (a)
 and (c) of the Commercial Computer Software - Restricted
 Rights clause in FAR 52.227-19.
  
 Gaussian, Inc.
 340 Quinnipiac St., Bldg. 40, Wallingford CT 06492
  
  
 ---------------------------------------------------------------
 Warning -- This program may not be used in any manner that
 competes with the business of Gaussian, Inc. or will provide
 assistance to any competitor of Gaussian, Inc.  The licensee
 of this program is prohibited from giving any competitor of
 Gaussian, Inc. access to this program.  By using this program,
 the user acknowledges that Gaussian, Inc. is engaged in the
 business of creating and licensing software in the field of
 computational chemistry and represents and warrants to the
 licensee that it is not a competitor of Gaussian, Inc. and that
 it will not use this program in any manner prohibited above.
 ---------------------------------------------------------------
  

 Cite this work as:
 Gaussian 09, Revision A.02,
 M. J. Frisch, G. W. Trucks, H. B. Schlegel, G. E. Scuseria, 
 M. A. Robb, J. R. Cheeseman, G. Scalmani, V. Barone, B. Mennucci, 
 G. A. Petersson, H. Nakatsuji, M. Caricato, X. Li, H. P. Hratchian, 
 A. F. Izmaylov, J. Bloino, G. Zheng, J. L. Sonnenberg, M. Hada, 
 M. Ehara, K. Toyota, R. Fukuda, J. Hasegawa, M. Ishida, T. Nakajima, 
 Y. Honda, O. Kitao, H. Nakai, T. Vreven, J. A. Montgomery, Jr., 
 J. E. Peralta, F. Ogliaro, M. Bearpark, J. J. Heyd, E. Brothers, 
 K. N. Kudin, V. N. Staroverov, R. Kobayashi, J. Normand, 
 K. Raghavachari, A. Rendell, J. C. Burant, S. S. Iyengar, J. Tomasi, 
 M. Cossi, N. Rega, J. M. Millam, M. Klene, J. E. Knox, J. B. Cross, 
 V. Bakken, C. Adamo, J. Jaramillo, R. Gomperts, R. E. Stratmann, 
 O. Yazyev, A. J. Austin, R. Cammi, C. Pomelli, J. W. Ochterski, 
 R. L. Martin, K. Morokuma, V. G. Zakrzewski, G. A. Voth, 
 P. Salvador, J. J. Dannenberg, S. Dapprich, A. D. Daniels, 
 O. Farkas, J. B. Foresman, J. V. Ortiz, J. Cioslowski, 
 and D. J. Fox, Gaussian, Inc., Wallingford CT, 2009.
 
 ******************************************
 Gaussian 09:  AM64L-G09RevA.02 11-Jun-2009
                30-Sep-2021 
 ******************************************
 %nproc=3
 Will use up to    3 processors via shared memory.
 %mem=6gb
 %chk=C8H10O_2118_conf_0.chk
 -----------------------------------
 #p opt b3lyp/6-31G* scf=(xqc,tight)
 -----------------------------------
 1/14=-1,18=20,19=15,26=3,38=1/1,3;
 2/9=110,12=2,17=6,18=5,40=1/2;
 3/5=1,6=6,7=1,11=2,16=1,25=1,30=1,71=1,74=-5/1,2,3;
 4//1;
 5/5=2,8=3,13=1,32=2,38=5/2,8;
 6/7=2,8=2,9=2,10=2,28=1/1;
 7//1,2,3,16;
 1/14=-1,18=20,19=15/3(2);
 2/9=110/2;
 99//99;
 2/9=110/2;
 3/5=1,6=6,7=1,11=2,16=1,25=1,30=1,71=1,74=-5/1,2,3;
 4/5=5,16=3/1;
 5/5=2,8=3,13=1,32=2,38=5/2,8;
 7//1,2,3,16;
 1/14=-1,18=20,19=15/3(-5);
 2/9=110/2;
 6/7=2,8=2,9=2,10=2,19=2,28=1/1;
 99/9=1/99;
 Leave Link    1 at Thu Sep 30 09:08:55 2021, MaxMem=  805306368 cpu:       0.1
 (Enter /sw/target/amd/app/gaussian/Gaussian09RevA.02_gcc-4.9.2/g09/l101.exe)
 ------------------
 CCOc1ccccc1_conf_0
 ------------------
 Symbolic Z-matrix:
 Charge =  0 Multiplicity = 1
 C                     3.2117    1.39027  -0.02086 
 C                     4.59969   0.82704   0.22519 
 O                     4.52268  -0.59654   0.16898 
 C                     5.688    -1.28555   0.37243 
 C                     6.9407   -0.72075   0.62049 
 C                     8.05685  -1.54093   0.81327 
 C                     7.92663  -2.92727   0.7589 
 C                     6.67993  -3.49618   0.51075 
 C                     5.56602  -2.67611   0.31836 
 H                     3.22629   2.48355   0.01002 
 H                     2.5071    1.02503   0.73346 
 H                     2.8316    1.06933  -0.99624 
 H                     4.94389   1.1496    1.21465 
 H                     5.27745   1.20109  -0.55079 
 H                     7.08545   0.35275   0.67072 
 H                     9.02906  -1.0948    1.00633 
 H                     8.7956   -3.56244   0.90944 
 H                     6.57216  -4.57646   0.46671 
 H                     4.59463  -3.12433   0.12512 
 
 NAtoms=     19 NQM=     19 NQMF=      0 NMic=      0 NMicF=      0 NTot=     19.
                    Isotopes and Nuclear Properties:
 (Nuclear quadrupole moments (NQMom) in fm**2, nuclear magnetic moments (NMagM)
  in nuclear magnetons)

  Atom         1           2           3           4           5           6           7           8           9          10
 IAtWgt=          12          12          16          12          12          12          12          12          12           1
 AtmWgt=  12.0000000  12.0000000  15.9949146  12.0000000  12.0000000  12.0000000  12.0000000  12.0000000  12.0000000   1.0078250
 NucSpn=           0           0           0           0           0           0           0           0           0           1
 AtZEff=   0.0000000   0.0000000   0.0000000   0.0000000   0.0000000   0.0000000   0.0000000   0.0000000   0.0000000   0.0000000
 NQMom=    0.0000000   0.0000000   0.0000000   0.0000000   0.0000000   0.0000000   0.0000000   0.0000000   0.0000000   0.0000000
 NMagM=    0.0000000   0.0000000   0.0000000   0.0000000   0.0000000   0.0000000   0.0000000   0.0000000   0.0000000   2.7928460

  Atom        11          12          13          14          15          16          17          18          19
 IAtWgt=           1           1           1           1           1           1           1           1           1
 AtmWgt=   1.0078250   1.0078250   1.0078250   1.0078250   1.0078250   1.0078250   1.0078250   1.0078250   1.0078250
 NucSpn=           1           1           1           1           1           1           1           1           1
 AtZEff=   0.0000000   0.0000000   0.0000000   0.0000000   0.0000000   0.0000000   0.0000000   0.0000000   0.0000000
 NQMom=    0.0000000   0.0000000   0.0000000   0.0000000   0.0000000   0.0000000   0.0000000   0.0000000   0.0000000
 NMagM=    2.7928460   2.7928460   2.7928460   2.7928460   2.7928460   2.7928460   2.7928460   2.7928460   2.7928460
 Leave Link  101 at Thu Sep 30 09:08:56 2021, MaxMem=  805306368 cpu:       0.2
 (Enter /sw/target/amd/app/gaussian/Gaussian09RevA.02_gcc-4.9.2/g09/l103.exe)

 GradGradGradGradGradGradGradGradGradGradGradGradGradGradGradGradGradGrad
 Berny optimization.
 Initialization pass.
                           ----------------------------
                           !    Initial Parameters    !
                           ! (Angstroms and Degrees)  !
 --------------------------                            --------------------------
 ! Name  Definition              Value          Derivative Info.                !
 --------------------------------------------------------------------------------
 ! R1    R(1,2)                  1.518          estimate D2E/DX2                !
 ! R2    R(1,10)                 1.0938         estimate D2E/DX2                !
 ! R3    R(1,11)                 1.0949         estimate D2E/DX2                !
 ! R4    R(1,12)                 1.0949         estimate D2E/DX2                !
 ! R5    R(2,3)                  1.4268         estimate D2E/DX2                !
 ! R6    R(2,13)                 1.0961         estimate D2E/DX2                !
 ! R7    R(2,14)                 1.0961         estimate D2E/DX2                !
 ! R8    R(3,4)                  1.369          estimate D2E/DX2                !
 ! R9    R(4,5)                  1.3964         estimate D2E/DX2                !
 ! R10   R(4,9)                  1.3969         estimate D2E/DX2                !
 ! R11   R(5,6)                  1.3984         estimate D2E/DX2                !
 ! R12   R(5,15)                 1.0844         estimate D2E/DX2                !
 ! R13   R(6,7)                  1.3935         estimate D2E/DX2                !
 ! R14   R(6,16)                 1.087          estimate D2E/DX2                !
 ! R15   R(7,8)                  1.3927         estimate D2E/DX2                !
 ! R16   R(7,17)                 1.0868         estimate D2E/DX2                !
 ! R17   R(8,9)                  1.3965         estimate D2E/DX2                !
 ! R18   R(8,18)                 1.0865         estimate D2E/DX2                !
 ! R19   R(9,19)                 1.0871         estimate D2E/DX2                !
 ! A1    A(2,1,10)             110.7373         estimate D2E/DX2                !
 ! A2    A(2,1,11)             110.669          estimate D2E/DX2                !
 ! A3    A(2,1,12)             110.6744         estimate D2E/DX2                !
 ! A4    A(10,1,11)            108.8169         estimate D2E/DX2                !
 ! A5    A(10,1,12)            108.8296         estimate D2E/DX2                !
 ! A6    A(11,1,12)            107.01           estimate D2E/DX2                !
 ! A7    A(1,2,3)              108.3288         estimate D2E/DX2                !
 ! A8    A(1,2,13)             108.9201         estimate D2E/DX2                !
 ! A9    A(1,2,14)             108.9061         estimate D2E/DX2                !
 ! A10   A(3,2,13)             110.2503         estimate D2E/DX2                !
 ! A11   A(3,2,14)             110.2414         estimate D2E/DX2                !
 ! A12   A(13,2,14)            110.1486         estimate D2E/DX2                !
 ! A13   A(2,3,4)              116.7682         estimate D2E/DX2                !
 ! A14   A(3,4,5)              125.9078         estimate D2E/DX2                !
 ! A15   A(3,4,9)              114.893          estimate D2E/DX2                !
 ! A16   A(5,4,9)              119.1991         estimate D2E/DX2                !
 ! A17   A(4,5,6)              120.2179         estimate D2E/DX2                !
 ! A18   A(4,5,15)             121.8983         estimate D2E/DX2                !
 ! A19   A(6,5,15)             117.8838         estimate D2E/DX2                !
 ! A20   A(5,6,7)              120.2332         estimate D2E/DX2                !
 ! A21   A(5,6,16)             119.8438         estimate D2E/DX2                !
 ! A22   A(7,6,16)             119.923          estimate D2E/DX2                !
 ! A23   A(6,7,8)              119.802          estimate D2E/DX2                !
 ! A24   A(6,7,17)             120.0859         estimate D2E/DX2                !
 ! A25   A(8,7,17)             120.1121         estimate D2E/DX2                !
 ! A26   A(7,8,9)              119.9142         estimate D2E/DX2                !
 ! A27   A(7,8,18)             120.1433         estimate D2E/DX2                !
 ! A28   A(9,8,18)             119.9426         estimate D2E/DX2                !
 ! A29   A(4,9,8)              120.6336         estimate D2E/DX2                !
 ! A30   A(4,9,19)             119.6904         estimate D2E/DX2                !
 ! A31   A(8,9,19)             119.676          estimate D2E/DX2                !
 ! D1    D(10,1,2,3)          -179.7878         estimate D2E/DX2                !
 ! D2    D(10,1,2,13)           60.2786         estimate D2E/DX2                !
 ! D3    D(10,1,2,14)          -59.873          estimate D2E/DX2                !
 ! D4    D(11,1,2,3)            59.4519         estimate D2E/DX2                !
 ! D5    D(11,1,2,13)          -60.4817         estimate D2E/DX2                !
 ! D6    D(11,1,2,14)          179.3667         estimate D2E/DX2                !
 ! D7    D(12,1,2,3)           -59.008          estimate D2E/DX2                !
 ! D8    D(12,1,2,13)         -178.9416         estimate D2E/DX2                !
 ! D9    D(12,1,2,14)           60.9068         estimate D2E/DX2                !
 ! D10   D(1,2,3,4)           -179.8531         estimate D2E/DX2                !
 ! D11   D(13,2,3,4)           -60.7555         estimate D2E/DX2                !
 ! D12   D(14,2,3,4)            61.0716         estimate D2E/DX2                !
 ! D13   D(2,3,4,5)             -0.4297         estimate D2E/DX2                !
 ! D14   D(2,3,4,9)            179.5648         estimate D2E/DX2                !
 ! D15   D(3,4,5,6)            179.9292         estimate D2E/DX2                !
 ! D16   D(3,4,5,15)            -0.0686         estimate D2E/DX2                !
 ! D17   D(9,4,5,6)             -0.0651         estimate D2E/DX2                !
 ! D18   D(9,4,5,15)           179.9371         estimate D2E/DX2                !
 ! D19   D(3,4,9,8)           -179.9278         estimate D2E/DX2                !
 ! D20   D(3,4,9,19)             0.0437         estimate D2E/DX2                !
 ! D21   D(5,4,9,8)              0.0671         estimate D2E/DX2                !
 ! D22   D(5,4,9,19)          -179.9613         estimate D2E/DX2                !
 ! D23   D(4,5,6,7)              0.012          estimate D2E/DX2                !
 ! D24   D(4,5,6,16)          -179.9781         estimate D2E/DX2                !
 ! D25   D(15,5,6,7)          -179.9902         estimate D2E/DX2                !
 ! D26   D(15,5,6,16)            0.0198         estimate D2E/DX2                !
 ! D27   D(5,6,7,8)              0.0401         estimate D2E/DX2                !
 ! D28   D(5,6,7,17)          -179.9767         estimate D2E/DX2                !
 ! D29   D(16,6,7,8)          -179.9698         estimate D2E/DX2                !
 ! D30   D(16,6,7,17)            0.0133         estimate D2E/DX2                !
 ! D31   D(6,7,8,9)             -0.0383         estimate D2E/DX2                !
 ! D32   D(6,7,8,18)           179.9715         estimate D2E/DX2                !
 ! D33   D(17,7,8,9)           179.9786         estimate D2E/DX2                !
 ! D34   D(17,7,8,18)           -0.0116         estimate D2E/DX2                !
 ! D35   D(7,8,9,4)             -0.0156         estimate D2E/DX2                !
 ! D36   D(7,8,9,19)          -179.9872         estimate D2E/DX2                !
 ! D37   D(18,8,9,4)           179.9746         estimate D2E/DX2                !
 ! D38   D(18,8,9,19)            0.003          estimate D2E/DX2                !
 --------------------------------------------------------------------------------
 Trust Radius=3.00D-01 FncErr=1.00D-07 GrdErr=1.00D-06
 Number of steps in this run=  98 maximum allowed number of steps= 114.
 GradGradGradGradGradGradGradGradGradGradGradGradGradGradGradGradGradGrad

 Leave Link  103 at Thu Sep 30 09:08:56 2021, MaxMem=  805306368 cpu:       0.0
 (Enter /sw/target/amd/app/gaussian/Gaussian09RevA.02_gcc-4.9.2/g09/l202.exe)
                          Input orientation:                          
 ---------------------------------------------------------------------
 Center     Atomic      Atomic             Coordinates (Angstroms)
 Number     Number       Type             X           Y           Z
 ---------------------------------------------------------------------
      1          6           0        3.211701    1.390268   -0.020860
      2          6           0        4.599689    0.827038    0.225192
      3          8           0        4.522680   -0.596537    0.168981
      4          6           0        5.687996   -1.285552    0.372428
      5          6           0        6.940696   -0.720751    0.620495
      6          6           0        8.056846   -1.540931    0.813274
      7          6           0        7.926634   -2.927273    0.758895
      8          6           0        6.679930   -3.496176    0.510753
      9          6           0        5.566018   -2.676115    0.318357
     10          1           0        3.226291    2.483549    0.010024
     11          1           0        2.507099    1.025027    0.733456
     12          1           0        2.831604    1.069333   -0.996243
     13          1           0        4.943891    1.149600    1.214647
     14          1           0        5.277450    1.201086   -0.550788
     15          1           0        7.085454    0.352750    0.670717
     16          1           0        9.029062   -1.094796    1.006331
     17          1           0        8.795604   -3.562439    0.909443
     18          1           0        6.572159   -4.576457    0.466711
     19          1           0        4.594625   -3.124332    0.125119
 ---------------------------------------------------------------------
                    Distance matrix (angstroms):
                    1          2          3          4          5
     1  C    0.000000
     2  C    1.517986   0.000000
     3  O    2.387907   1.426765   0.000000
     4  C    3.666978   2.380994   1.368976   0.000000
     5  C    4.332799   2.834119   2.462945   1.396351   0.000000
     6  C    5.723909   4.231436   3.714475   2.423017   1.398445
     7  C    6.440480   5.044627   4.167401   2.802874   2.420737
     8  C    6.015693   4.806155   3.630212   2.426916   2.789808
     9  C    4.710981   3.635183   2.331418   1.396949   2.409248
    10  H    1.093814   2.162533   3.345568   4.516354   4.943382
    11  H    1.094924   2.162513   2.647766   3.948066   4.766266
    12  H    1.094917   2.162576   2.644354   3.946863   4.764754
    13  H    2.141234   1.096149   2.078420   2.681975   2.799725
    14  H    2.141012   1.096092   2.078267   2.684073   2.798526
    15  H    4.069482   2.569527   2.778614   2.173913   1.084381
    16  H    6.408772   4.891112   4.610520   3.406015   2.156398
    17  H    7.521618   6.110762   5.253830   3.889707   3.405783
    18  H    6.865291   5.757320   4.486510   3.408913   3.876331
    19  H    4.723918   3.952640   2.529199   2.153540   3.395092
                    6          7          8          9         10
     6  C    0.000000
     7  C    1.393505   0.000000
     8  C    2.410477   1.392658   0.000000
     9  C    2.781692   2.414470   1.396537   0.000000
    10  H    6.338447   7.206319   6.923544   5.673757   0.000000
    11  H    6.114753   6.707658   6.156573   4.819516   1.779853
    12  H    6.114817   6.709151   6.158289   4.820122   1.779988
    13  H    4.134071   5.072017   5.009244   3.978249   2.486099
    14  H    4.135742   5.077085   5.015784   3.983889   2.483239
    15  H    2.133062   3.387317   3.873535   3.406885   4.457573
    16  H    1.086974   2.152799   3.395681   3.868663   6.889799
    17  H    2.154415   1.086834   2.153932   3.400761   8.269230
    18  H    3.396884   2.154016   1.086537   2.155373   7.826052
    19  H    3.868810   3.397468   2.153016   1.087126   5.773553
                   11         12         13         14         15
    11  H    0.000000
    12  H    1.760433   0.000000
    13  H    2.486970   3.058796   0.000000
    14  H    3.058615   2.489569   1.797407   0.000000
    15  H    4.627875   4.624661   2.348855   2.341073   0.000000
    16  H    6.863244   6.863108   4.665762   4.665864   2.446557
    17  H    7.785955   7.788083   6.093615   6.099250   4.279055
    18  H    6.926218   6.928704   5.999866   6.007627   4.960058
    19  H    4.684551   4.685352   4.424426   4.430840   4.311845
                   16         17         18         19
    16  H    0.000000
    17  H    2.480555   0.000000
    18  H    4.295292   2.483536   0.000000
    19  H    4.955783   4.295966   2.477094   0.000000
 Stoichiometry    C8H10O
 Framework group  C1[X(C8H10O)]
 Deg. of freedom    51
 Full point group                 C1      NOp   1
 Largest Abelian subgroup         C1      NOp   1
 Largest concise Abelian subgroup C1      NOp   1
                         Standard orientation:                         
 ---------------------------------------------------------------------
 Center     Atomic      Atomic             Coordinates (Angstroms)
 Number     Number       Type             X           Y           Z
 ---------------------------------------------------------------------
      1          6           0       -3.615871   -0.111475    0.002930
      2          6           0       -2.223158    0.492370    0.002546
      3          8           0       -1.272755   -0.571743   -0.004982
      4          6           0        0.049571   -0.217419   -0.003290
      5          6           0        0.547875    1.086992   -0.003372
      6          6           0        1.927893    1.313236   -0.000025
      7          6           0        2.815084    0.238648    0.003163
      8          6           0        2.323852   -1.064497    0.002163
      9          6           0        0.945517   -1.289213   -0.001216
     10          1           0       -4.378133    0.672988    0.004839
     11          1           0       -3.761203   -0.747266    0.882422
     12          1           0       -3.762827   -0.744876   -0.878008
     13          1           0       -2.100722    1.104048    0.903879
     14          1           0       -2.105192    1.112530   -0.893503
     15          1           0       -0.107648    1.950800   -0.005951
     16          1           0        2.309154    2.331152    0.000252
     17          1           0        3.887141    0.417236    0.006142
     18          1           0        3.010606   -1.906475    0.004167
     19          1           0        0.566286   -2.308050   -0.001774
 ---------------------------------------------------------------------
 Rotational constants (GHZ):      4.8745068      0.9177487      0.7799433
 Leave Link  202 at Thu Sep 30 09:08:56 2021, MaxMem=  805306368 cpu:       0.0
 (Enter /sw/target/amd/app/gaussian/Gaussian09RevA.02_gcc-4.9.2/g09/l301.exe)
 Standard basis: 6-31G(d) (6D, 7F)
 Ernie: Thresh=  0.10000D-02 Tol=  0.10000D-05 Strict=F.
 There are   155 symmetry adapted basis functions of A   symmetry.
 Integral buffers will be    131072 words long.
 Raffenetti 2 integral format.
 Two-electron integral symmetry is turned on.
   155 basis functions,   292 primitive gaussians,   155 cartesian basis functions
    33 alpha electrons       33 beta electrons
       nuclear repulsion energy       418.6732664469 Hartrees.
 IExCor=  402 DFT=T Ex+Corr=B3LYP ExCW=0 ScaHFX=  0.200000
 ScaDFX=  0.800000  0.720000  1.000000  0.810000 ScalE2=  1.000000  1.000000
 IRadAn=      0 IRanWt=     -1 IRanGd=            0 ICorTp=0
 NAtoms=   19 NActive=   19 NUniq=   19 SFac= 7.50D-01 NAtFMM=   80 NAOKFM=F Big=F
 Leave Link  301 at Thu Sep 30 09:08:57 2021, MaxMem=  805306368 cpu:       0.1
 (Enter /sw/target/amd/app/gaussian/Gaussian09RevA.02_gcc-4.9.2/g09/l302.exe)
 NPDir=0 NMtPBC=     1 NCelOv=     1 NCel=       1 NClECP=     1 NCelD=      1
         NCelK=      1 NCelE2=     1 NClLst=     1 CellRange=     0.0.
 One-electron integrals computed using PRISM.
 NBasis=   155 RedAO= T  NBF=   155
 NBsUse=   155 1.00D-06 NBFU=   155
 Precomputing XC quadrature grid using
 IXCGrd= 2 IRadAn=           0 IRanWt=          -1 IRanGd=           0 AccXCQ= 1.00D-10.
 NRdTot=    1194 NPtTot=      151758 NUsed=      160376 NTot=      160408
 NSgBfM=   155   155   155   155   155 NAtAll=    19    19.
 Leave Link  302 at Thu Sep 30 09:09:00 2021, MaxMem=  805306368 cpu:       1.0
 (Enter /sw/target/amd/app/gaussian/Gaussian09RevA.02_gcc-4.9.2/g09/l303.exe)
 DipDrv:  MaxL=1.
 Leave Link  303 at Thu Sep 30 09:09:00 2021, MaxMem=  805306368 cpu:       0.1
 (Enter /sw/target/amd/app/gaussian/Gaussian09RevA.02_gcc-4.9.2/g09/l401.exe)
 Harris functional with IExCor=  402 diagonalized for initial guess.
 ExpMin= 1.61D-01 ExpMax= 5.48D+03 ExpMxC= 8.25D+02 IAcc=1 IRadAn=         1 AccDes= 0.00D+00
 HarFok:  IExCor=  402 AccDes= 0.00D+00 IRadAn=         1 IDoV= 1
 ScaDFX=  1.000000  1.000000  1.000000  1.000000
 FoFCou: FMM=F IPFlag=           0 FMFlag=      100000 FMFlg1=           0
         NFxFlg=           0 DoJE=T BraDBF=F KetDBF=T FulRan=T
         Omega=  0.000000  0.000000  1.000000  0.000000  0.000000 ICntrl=     500 IOpCl=  0
         NMat0=    1 NMatS0=    1 NMatT0=    0 NMatD0=    1 NMtDS0=    0 NMtDT0=    0
         I1Cent=           4 NGrid=           0.
 Petite list used in FoFCou.
 Harris En= -386.157368343271    
 Initial guess orbital symmetries:
       Occupied  (A) (A) (A) (A) (A) (A) (A) (A) (A) (A) (A) (A)
                 (A) (A) (A) (A) (A) (A) (A) (A) (A) (A) (A) (A)
                 (A) (A) (A) (A) (A) (A) (A) (A) (A)
       Virtual   (A) (A) (A) (A) (A) (A) (A) (A) (A) (A) (A) (A)
                 (A) (A) (A) (A) (A) (A) (A) (A) (A) (A) (A) (A)
                 (A) (A) (A) (A) (A) (A) (A) (A) (A) (A) (A) (A)
                 (A) (A) (A) (A) (A) (A) (A) (A) (A) (A) (A) (A)
                 (A) (A) (A) (A) (A) (A) (A) (A) (A) (A) (A) (A)
                 (A) (A) (A) (A) (A) (A) (A) (A) (A) (A) (A) (A)
                 (A) (A) (A) (A) (A) (A) (A) (A) (A) (A) (A) (A)
                 (A) (A) (A) (A) (A) (A) (A) (A) (A) (A) (A) (A)
                 (A) (A) (A) (A) (A) (A) (A) (A) (A) (A) (A) (A)
                 (A) (A) (A) (A) (A) (A) (A) (A) (A) (A) (A) (A)
                 (A) (A)
 The electronic state of the initial guess is 1-A.
 Leave Link  401 at Thu Sep 30 09:09:08 2021, MaxMem=  805306368 cpu:       4.8
 (Enter /sw/target/amd/app/gaussian/Gaussian09RevA.02_gcc-4.9.2/g09/l502.exe)
 Closed shell SCF:
 Requested convergence on RMS density matrix=1.00D-08 within  64 cycles.
 Requested convergence on MAX density matrix=1.00D-06.
 Requested convergence on             energy=1.00D-06.
 No special actions if energy rises.
 Using DIIS extrapolation, IDIIS=  1040.
 Integral symmetry usage will be decided dynamically.
       160192 words used for storage of precomputed grid.
 Keep R1 ints in memory in canonical form, NReq=75228153.
 IEnd=      239914 IEndB=      239914 NGot=   805306368 MDV=   732004736
 LenX=   732004736 LenY=   731980270
 Symmetry not used in FoFDir.
 MinBra= 0 MaxBra= 2 Meth= 1.
 IRaf=       0 NMat=   1 IRICut=       1 DoRegI=T DoRafI=F ISym2E= 0 JSym2E=0.
 Integral accuracy reduced to 1.0D-05 until final iterations.

 Cycle   1  Pass 0  IDiag  1:
 E= -385.838452479779    
 DIIS: error= 3.73D-02 at cycle   1 NSaved=   1.
 NSaved= 1 IEnMin= 1 EnMin= -385.838452479779     IErMin= 1 ErrMin= 3.73D-02
 ErrMax= 3.73D-02 EMaxC= 1.00D-01 BMatC= 2.30D-01 BMatP= 2.30D-01
 IDIUse=3 WtCom= 6.27D-01 WtEn= 3.73D-01
 Coeff-Com:  0.100D+01
 Coeff-En:   0.100D+01
 Coeff:      0.100D+01
 Gap=     0.248 Goal=   None    Shift=    0.000
 GapD=    0.248 DampG=1.000 DampE=0.500 DampFc=0.5000 IDamp=-1.
 Damping current iteration by 5.00D-01
 RMSDP=6.89D-03 MaxDP=1.39D-01              OVMax= 2.00D-01

 Cycle   2  Pass 0  IDiag  1:
 E= -385.954465277443     Delta-E=       -0.116012797664 Rises=F Damp=T
 DIIS: error= 8.05D-03 at cycle   2 NSaved=   2.
 NSaved= 2 IEnMin= 2 EnMin= -385.954465277443     IErMin= 2 ErrMin= 8.05D-03
 ErrMax= 8.05D-03 EMaxC= 1.00D-01 BMatC= 1.14D-02 BMatP= 2.30D-01
 IDIUse=3 WtCom= 9.20D-01 WtEn= 8.05D-02
 Coeff-Com:  0.417D-01 0.958D+00
 Coeff-En:   0.647D-01 0.935D+00
 Coeff:      0.436D-01 0.956D+00
 Gap=     0.228 Goal=   None    Shift=    0.000
 RMSDP=1.51D-03 MaxDP=3.72D-02 DE=-1.16D-01 OVMax= 1.50D-01

 Cycle   3  Pass 0  IDiag  1:
 E= -386.081444061557     Delta-E=       -0.126978784114 Rises=F Damp=F
 DIIS: error= 8.09D-03 at cycle   3 NSaved=   3.
 NSaved= 3 IEnMin= 3 EnMin= -386.081444061557     IErMin= 2 ErrMin= 8.05D-03
 ErrMax= 8.09D-03 EMaxC= 1.00D-01 BMatC= 7.57D-03 BMatP= 1.14D-02
 IDIUse=3 WtCom= 9.19D-01 WtEn= 8.09D-02
 Coeff-Com: -0.112D-01 0.438D+00 0.573D+00
 Coeff-En:   0.000D+00 0.000D+00 0.100D+01
 Coeff:     -0.103D-01 0.403D+00 0.607D+00
 Gap=     0.224 Goal=   None    Shift=    0.000
 RMSDP=1.02D-03 MaxDP=2.95D-02 DE=-1.27D-01 OVMax= 6.86D-02

 Cycle   4  Pass 0  IDiag  1:
 E= -386.085452590096     Delta-E=       -0.004008528539 Rises=F Damp=F
 DIIS: error= 6.39D-03 at cycle   4 NSaved=   4.
 NSaved= 4 IEnMin= 4 EnMin= -386.085452590096     IErMin= 4 ErrMin= 6.39D-03
 ErrMax= 6.39D-03 EMaxC= 1.00D-01 BMatC= 3.71D-03 BMatP= 7.57D-03
 IDIUse=3 WtCom= 9.36D-01 WtEn= 6.39D-02
 Coeff-Com: -0.108D-01 0.902D-01 0.413D+00 0.507D+00
 Coeff-En:   0.000D+00 0.000D+00 0.369D+00 0.631D+00
 Coeff:     -0.101D-01 0.844D-01 0.410D+00 0.515D+00
 Gap=     0.220 Goal=   None    Shift=    0.000
 RMSDP=4.89D-04 MaxDP=1.08D-02 DE=-4.01D-03 OVMax= 2.95D-02

 Cycle   5  Pass 0  IDiag  1:
 E= -386.089577559643     Delta-E=       -0.004124969546 Rises=F Damp=F
 DIIS: error= 5.72D-04 at cycle   5 NSaved=   5.
 NSaved= 5 IEnMin= 5 EnMin= -386.089577559643     IErMin= 5 ErrMin= 5.72D-04
 ErrMax= 5.72D-04 EMaxC= 1.00D-01 BMatC= 6.49D-05 BMatP= 3.71D-03
 IDIUse=3 WtCom= 9.94D-01 WtEn= 5.72D-03
 Coeff-Com: -0.255D-02 0.111D-01 0.130D+00 0.215D+00 0.646D+00
 Coeff-En:   0.000D+00 0.000D+00 0.000D+00 0.000D+00 0.100D+01
 Coeff:     -0.254D-02 0.110D-01 0.129D+00 0.214D+00 0.648D+00
 Gap=     0.219 Goal=   None    Shift=    0.000
 RMSDP=6.35D-05 MaxDP=1.75D-03 DE=-4.12D-03 OVMax= 3.90D-03

 Cycle   6  Pass 0  IDiag  1:
 E= -386.089633251146     Delta-E=       -0.000055691503 Rises=F Damp=F
 DIIS: error= 2.11D-04 at cycle   6 NSaved=   6.
 NSaved= 6 IEnMin= 6 EnMin= -386.089633251146     IErMin= 6 ErrMin= 2.11D-04
 ErrMax= 2.11D-04 EMaxC= 1.00D-01 BMatC= 1.05D-05 BMatP= 6.49D-05
 IDIUse=3 WtCom= 9.98D-01 WtEn= 2.11D-03
 Coeff-Com: -0.728D-03 0.526D-03 0.461D-01 0.872D-01 0.368D+00 0.499D+00
 Coeff-En:   0.000D+00 0.000D+00 0.000D+00 0.000D+00 0.612D-01 0.939D+00
 Coeff:     -0.726D-03 0.525D-03 0.460D-01 0.870D-01 0.367D+00 0.500D+00
 Gap=     0.219 Goal=   None    Shift=    0.000
 RMSDP=2.20D-05 MaxDP=7.31D-04 DE=-5.57D-05 OVMax= 1.21D-03

 Cycle   7  Pass 0  IDiag  1:
 E= -386.089642972022     Delta-E=       -0.000009720877 Rises=F Damp=F
 DIIS: error= 5.73D-05 at cycle   7 NSaved=   7.
 NSaved= 7 IEnMin= 7 EnMin= -386.089642972022     IErMin= 7 ErrMin= 5.73D-05
 ErrMax= 5.73D-05 EMaxC= 1.00D-01 BMatC= 3.01D-07 BMatP= 1.05D-05
 IDIUse=1 WtCom= 1.00D+00 WtEn= 0.00D+00
 Coeff-Com: -0.144D-03-0.401D-03 0.146D-01 0.287D-01 0.136D+00 0.228D+00
 Coeff-Com:  0.593D+00
 Coeff:     -0.144D-03-0.401D-03 0.146D-01 0.287D-01 0.136D+00 0.228D+00
 Coeff:      0.593D+00
 Gap=     0.219 Goal=   None    Shift=    0.000
 RMSDP=5.70D-06 MaxDP=1.47D-04 DE=-9.72D-06 OVMax= 3.54D-04

 Initial convergence to 1.0D-05 achieved.  Increase integral accuracy.
 Cycle   8  Pass 1  IDiag  1:
 E= -386.089605887232     Delta-E=        0.000037084791 Rises=F Damp=F
 DIIS: error= 2.78D-05 at cycle   1 NSaved=   1.
 NSaved= 1 IEnMin= 1 EnMin= -386.089605887232     IErMin= 1 ErrMin= 2.78D-05
 ErrMax= 2.78D-05 EMaxC= 1.00D-01 BMatC= 1.25D-07 BMatP= 1.25D-07
 IDIUse=1 WtCom= 1.00D+00 WtEn= 0.00D+00
 Coeff-Com:  0.100D+01
 Coeff:      0.100D+01
 Gap=     0.219 Goal=   None    Shift=    0.000
 RMSDP=5.70D-06 MaxDP=1.47D-04 DE= 3.71D-05 OVMax= 3.98D-04

 Cycle   9  Pass 1  IDiag  1:
 E= -386.089605659804     Delta-E=        0.000000227428 Rises=F Damp=F
 DIIS: error= 5.64D-05 at cycle   2 NSaved=   2.
 NSaved= 2 IEnMin= 1 EnMin= -386.089605887232     IErMin= 1 ErrMin= 2.78D-05
 ErrMax= 5.64D-05 EMaxC= 1.00D-01 BMatC= 3.26D-07 BMatP= 1.25D-07
 IDIUse=1 WtCom= 1.00D+00 WtEn= 0.00D+00
 Coeff-Com:  0.627D+00 0.373D+00
 Coeff:      0.627D+00 0.373D+00
 Gap=     0.219 Goal=   None    Shift=    0.000
 RMSDP=4.34D-06 MaxDP=1.13D-04 DE= 2.27D-07 OVMax= 2.88D-04

 Cycle  10  Pass 1  IDiag  1:
 E= -386.089606027383     Delta-E=       -0.000000367579 Rises=F Damp=F
 DIIS: error= 5.77D-06 at cycle   3 NSaved=   3.
 NSaved= 3 IEnMin= 3 EnMin= -386.089606027383     IErMin= 3 ErrMin= 5.77D-06
 ErrMax= 5.77D-06 EMaxC= 1.00D-01 BMatC= 4.32D-09 BMatP= 1.25D-07
 IDIUse=1 WtCom= 1.00D+00 WtEn= 0.00D+00
 Coeff-Com:  0.848D-01 0.118D+00 0.797D+00
 Coeff:      0.848D-01 0.118D+00 0.797D+00
 Gap=     0.219 Goal=   None    Shift=    0.000
 RMSDP=6.32D-07 MaxDP=1.77D-05 DE=-3.68D-07 OVMax= 3.69D-05

 Cycle  11  Pass 1  IDiag  1:
 E= -386.089606030488     Delta-E=       -0.000000003105 Rises=F Damp=F
 DIIS: error= 2.68D-06 at cycle   4 NSaved=   4.
 NSaved= 4 IEnMin= 4 EnMin= -386.089606030488     IErMin= 4 ErrMin= 2.68D-06
 ErrMax= 2.68D-06 EMaxC= 1.00D-01 BMatC= 1.75D-09 BMatP= 4.32D-09
 IDIUse=1 WtCom= 1.00D+00 WtEn= 0.00D+00
 Coeff-Com: -0.124D-01 0.332D-01 0.475D+00 0.504D+00
 Coeff:     -0.124D-01 0.332D-01 0.475D+00 0.504D+00
 Gap=     0.219 Goal=   None    Shift=    0.000
 RMSDP=2.46D-07 MaxDP=7.26D-06 DE=-3.11D-09 OVMax= 1.37D-05

 Cycle  12  Pass 1  IDiag  1:
 E= -386.089606032042     Delta-E=       -0.000000001554 Rises=F Damp=F
 DIIS: error= 3.87D-07 at cycle   5 NSaved=   5.
 NSaved= 5 IEnMin= 5 EnMin= -386.089606032042     IErMin= 5 ErrMin= 3.87D-07
 ErrMax= 3.87D-07 EMaxC= 1.00D-01 BMatC= 2.79D-11 BMatP= 1.75D-09
 IDIUse=1 WtCom= 1.00D+00 WtEn= 0.00D+00
 Coeff-Com: -0.780D-02 0.121D-01 0.198D+00 0.234D+00 0.563D+00
 Coeff:     -0.780D-02 0.121D-01 0.198D+00 0.234D+00 0.563D+00
 Gap=     0.219 Goal=   None    Shift=    0.000
 RMSDP=5.85D-08 MaxDP=1.01D-06 DE=-1.55D-09 OVMax= 3.24D-06

 Cycle  13  Pass 1  IDiag  1:
 E= -386.089606032064     Delta-E=       -0.000000000022 Rises=F Damp=F
 DIIS: error= 2.29D-07 at cycle   6 NSaved=   6.
 NSaved= 6 IEnMin= 6 EnMin= -386.089606032064     IErMin= 6 ErrMin= 2.29D-07
 ErrMax= 2.29D-07 EMaxC= 1.00D-01 BMatC= 7.22D-12 BMatP= 2.79D-11
 IDIUse=1 WtCom= 1.00D+00 WtEn= 0.00D+00
 Coeff-Com: -0.383D-02 0.386D-02 0.727D-01 0.909D-01 0.346D+00 0.491D+00
 Coeff:     -0.383D-02 0.386D-02 0.727D-01 0.909D-01 0.346D+00 0.491D+00
 Gap=     0.219 Goal=   None    Shift=    0.000
 RMSDP=2.12D-08 MaxDP=6.55D-07 DE=-2.16D-11 OVMax= 1.53D-06

 Cycle  14  Pass 1  IDiag  1:
 E= -386.089606032073     Delta-E=       -0.000000000009 Rises=F Damp=F
 DIIS: error= 5.22D-08 at cycle   7 NSaved=   7.
 NSaved= 7 IEnMin= 7 EnMin= -386.089606032073     IErMin= 7 ErrMin= 5.22D-08
 ErrMax= 5.22D-08 EMaxC= 1.00D-01 BMatC= 3.68D-13 BMatP= 7.22D-12
 IDIUse=1 WtCom= 1.00D+00 WtEn= 0.00D+00
 Coeff-Com: -0.797D-03 0.425D-03 0.105D-01 0.143D-01 0.950D-01 0.237D+00
 Coeff-Com:  0.643D+00
 Coeff:     -0.797D-03 0.425D-03 0.105D-01 0.143D-01 0.950D-01 0.237D+00
 Coeff:      0.643D+00
 Gap=     0.219 Goal=   None    Shift=    0.000
 RMSDP=4.94D-09 MaxDP=1.39D-07 DE=-8.87D-12 OVMax= 2.69D-07

 SCF Done:  E(RB3LYP) =  -386.089606032     A.U. after   14 cycles
             Convg  =    0.4938D-08             -V/T =  2.0096
 KE= 3.824325454243D+02 PE=-1.733823287900D+03 EE= 5.466278699970D+02
 Leave Link  502 at Thu Sep 30 09:11:47 2021, MaxMem=  805306368 cpu:      71.5
 (Enter /sw/target/amd/app/gaussian/Gaussian09RevA.02_gcc-4.9.2/g09/l508.exe)
 QCSCF skips out because SCF is already converged.
 Leave Link  508 at Thu Sep 30 09:11:48 2021, MaxMem=  805306368 cpu:       0.0
 (Enter /sw/target/amd/app/gaussian/Gaussian09RevA.02_gcc-4.9.2/g09/l601.exe)
 Copying SCF densities to generalized density rwf, IOpCl= 0 IROHF=0.

 **********************************************************************

            Population analysis using the SCF density.

 **********************************************************************

 Orbital symmetries:
       Occupied  (A) (A) (A) (A) (A) (A) (A) (A) (A) (A) (A) (A)
                 (A) (A) (A) (A) (A) (A) (A) (A) (A) (A) (A) (A)
                 (A) (A) (A) (A) (A) (A) (A) (A) (A)
       Virtual   (A) (A) (A) (A) (A) (A) (A) (A) (A) (A) (A) (A)
                 (A) (A) (A) (A) (A) (A) (A) (A) (A) (A) (A) (A)
                 (A) (A) (A) (A) (A) (A) (A) (A) (A) (A) (A) (A)
                 (A) (A) (A) (A) (A) (A) (A) (A) (A) (A) (A) (A)
                 (A) (A) (A) (A) (A) (A) (A) (A) (A) (A) (A) (A)
                 (A) (A) (A) (A) (A) (A) (A) (A) (A) (A) (A) (A)
                 (A) (A) (A) (A) (A) (A) (A) (A) (A) (A) (A) (A)
                 (A) (A) (A) (A) (A) (A) (A) (A) (A) (A) (A) (A)
                 (A) (A) (A) (A) (A) (A) (A) (A) (A) (A) (A) (A)
                 (A) (A) (A) (A) (A) (A) (A) (A) (A) (A) (A) (A)
                 (A) (A)
 The electronic state is 1-A.
 Alpha  occ. eigenvalues --  -19.17235 -10.24173 -10.24076 -10.18662 -10.18483
 Alpha  occ. eigenvalues --  -10.18341 -10.18222 -10.17876 -10.17736  -1.05806
 Alpha  occ. eigenvalues --   -0.84415  -0.77446  -0.73999  -0.72059  -0.63892
 Alpha  occ. eigenvalues --   -0.59856  -0.58040  -0.53394  -0.48435  -0.48183
 Alpha  occ. eigenvalues --   -0.46261  -0.43951  -0.41618  -0.39581  -0.39461
 Alpha  occ. eigenvalues --   -0.39051  -0.35660  -0.35628  -0.34893  -0.32254
 Alpha  occ. eigenvalues --   -0.31190  -0.24469  -0.21527
 Alpha virt. eigenvalues --    0.00416   0.01986   0.09367   0.09911   0.13339
 Alpha virt. eigenvalues --    0.13890   0.15162   0.15430   0.16731   0.17321
 Alpha virt. eigenvalues --    0.17848   0.19102   0.19290   0.20626   0.23166
 Alpha virt. eigenvalues --    0.25286   0.31037   0.31634   0.34574   0.36173
 Alpha virt. eigenvalues --    0.47163   0.50801   0.52782   0.53353   0.54869
 Alpha virt. eigenvalues --    0.55830   0.56450   0.57819   0.59267   0.59741
 Alpha virt. eigenvalues --    0.60549   0.60730   0.61949   0.62539   0.63850
 Alpha virt. eigenvalues --    0.64961   0.67213   0.68126   0.71644   0.77467
 Alpha virt. eigenvalues --    0.77478   0.84197   0.84378   0.85485   0.86564
 Alpha virt. eigenvalues --    0.86985   0.88360   0.90698   0.90897   0.93225
 Alpha virt. eigenvalues --    0.93610   0.94666   0.96976   0.98080   1.02651
 Alpha virt. eigenvalues --    1.06339   1.08178   1.09812   1.13223   1.18152
 Alpha virt. eigenvalues --    1.20531   1.26092   1.26595   1.33804   1.36661
 Alpha virt. eigenvalues --    1.40607   1.43252   1.45303   1.45992   1.48541
 Alpha virt. eigenvalues --    1.49942   1.50522   1.51938   1.64660   1.74342
 Alpha virt. eigenvalues --    1.78469   1.83808   1.85465   1.89014   1.90435
 Alpha virt. eigenvalues --    1.92508   1.96734   1.96760   1.97646   1.98658
 Alpha virt. eigenvalues --    2.07159   2.07493   2.11847   2.12276   2.15743
 Alpha virt. eigenvalues --    2.16429   2.17338   2.22969   2.24580   2.28641
 Alpha virt. eigenvalues --    2.30410   2.31194   2.39187   2.39696   2.52791
 Alpha virt. eigenvalues --    2.54665   2.57870   2.62542   2.66210   2.67421
 Alpha virt. eigenvalues --    2.67702   2.74203   2.75651   2.80527   2.89320
 Alpha virt. eigenvalues --    3.02568   3.18739   3.43515   4.06421   4.09791
 Alpha virt. eigenvalues --    4.12004   4.17288   4.27472   4.33369   4.42860
 Alpha virt. eigenvalues --    4.46138   4.75881
          Condensed to atoms (all electrons):
              1          2          3          4          5          6
     1  C    5.092285   0.382954  -0.046853   0.003011   0.000479  -0.000007
     2  C    0.382954   4.805549   0.233694  -0.035919  -0.007591   0.000456
     3  O   -0.046853   0.233694   8.242766   0.276179  -0.061230   0.003487
     4  C    0.003011  -0.035919   0.276179   4.505163   0.466727   0.000339
     5  C    0.000479  -0.007591  -0.061230   0.466727   5.100620   0.503363
     6  C   -0.000007   0.000456   0.003487   0.000339   0.503363   4.858171
     7  C    0.000000   0.000012   0.000157  -0.040011  -0.034734   0.557104
     8  C    0.000004  -0.000128   0.003134  -0.012939  -0.040836  -0.028403
     9  C   -0.000221   0.003734  -0.054768   0.539644  -0.067291  -0.037921
    10  H    0.362394  -0.027147   0.002908  -0.000077   0.000011  -0.000000
    11  H    0.373905  -0.030492   0.001771   0.000109   0.000015   0.000000
    12  H    0.373897  -0.030509   0.001764   0.000115   0.000015   0.000000
    13  H   -0.041035   0.363688  -0.038601  -0.004084   0.005141  -0.000105
    14  H   -0.041199   0.363809  -0.038553  -0.004200   0.005059  -0.000099
    15  H   -0.000108   0.005944  -0.007236  -0.047697   0.353944  -0.041650
    16  H   -0.000000  -0.000011  -0.000044   0.003111  -0.039626   0.357840
    17  H   -0.000000  -0.000000   0.000002   0.000676   0.005221  -0.043710
    18  H   -0.000000   0.000003  -0.000059   0.004246   0.000423   0.005088
    19  H   -0.000020  -0.000272  -0.000271  -0.038291   0.007616   0.000077
              7          8          9         10         11         12
     1  C    0.000000   0.000004  -0.000221   0.362394   0.373905   0.373897
     2  C    0.000012  -0.000128   0.003734  -0.027147  -0.030492  -0.030509
     3  O    0.000157   0.003134  -0.054768   0.002908   0.001771   0.001764
     4  C   -0.040011  -0.012939   0.539644  -0.000077   0.000109   0.000115
     5  C   -0.034734  -0.040836  -0.067291   0.000011   0.000015   0.000015
     6  C    0.557104  -0.028403  -0.037921  -0.000000   0.000000   0.000000
     7  C    4.860768   0.547015  -0.036785  -0.000000   0.000000   0.000000
     8  C    0.547015   4.846063   0.537200  -0.000000  -0.000000  -0.000000
     9  C   -0.036785   0.537200   4.983415   0.000003  -0.000023  -0.000023
    10  H   -0.000000  -0.000000   0.000003   0.567779  -0.026888  -0.026844
    11  H    0.000000  -0.000000  -0.000023  -0.026888   0.552995  -0.031709
    12  H    0.000000  -0.000000  -0.000023  -0.026844  -0.031709   0.552784
    13  H   -0.000007  -0.000001   0.000151  -0.000146  -0.006974   0.005763
    14  H   -0.000007  -0.000001   0.000133  -0.000185   0.005766  -0.006908
    15  H    0.004689   0.000568   0.004702   0.000025   0.000005   0.000005
    16  H   -0.041593   0.004702   0.000745   0.000000   0.000000   0.000000
    17  H    0.358498  -0.044268   0.004820  -0.000000   0.000000   0.000000
    18  H   -0.044351   0.359326  -0.040718   0.000000  -0.000000  -0.000000
    19  H    0.005301  -0.044239   0.345800   0.000000   0.000009   0.000009
             13         14         15         16         17         18
     1  C   -0.041035  -0.041199  -0.000108  -0.000000  -0.000000  -0.000000
     2  C    0.363688   0.363809   0.005944  -0.000011  -0.000000   0.000003
     3  O   -0.038601  -0.038553  -0.007236  -0.000044   0.000002  -0.000059
     4  C   -0.004084  -0.004200  -0.047697   0.003111   0.000676   0.004246
     5  C    0.005141   0.005059   0.353944  -0.039626   0.005221   0.000423
     6  C   -0.000105  -0.000099  -0.041650   0.357840  -0.043710   0.005088
     7  C   -0.000007  -0.000007   0.004689  -0.041593   0.358498  -0.044351
     8  C   -0.000001  -0.000001   0.000568   0.004702  -0.044268   0.359326
     9  C    0.000151   0.000133   0.004702   0.000745   0.004820  -0.040718
    10  H   -0.000146  -0.000185   0.000025   0.000000  -0.000000   0.000000
    11  H   -0.006974   0.005766   0.000005   0.000000   0.000000  -0.000000
    12  H    0.005763  -0.006908   0.000005   0.000000   0.000000  -0.000000
    13  H    0.629384  -0.056088   0.001925   0.000001   0.000000  -0.000000
    14  H   -0.056088   0.629621   0.001966   0.000002   0.000000  -0.000000
    15  H    0.001925   0.001966   0.598239  -0.006014  -0.000186   0.000015
    16  H    0.000001   0.000002  -0.006014   0.597605  -0.005638  -0.000202
    17  H    0.000000   0.000000  -0.000186  -0.005638   0.608354  -0.005799
    18  H   -0.000000  -0.000000   0.000015  -0.000202  -0.005799   0.599467
    19  H    0.000030   0.000029  -0.000159   0.000015  -0.000169  -0.006567
             19
     1  C   -0.000020
     2  C   -0.000272
     3  O   -0.000271
     4  C   -0.038291
     5  C    0.007616
     6  C    0.000077
     7  C    0.005301
     8  C   -0.044239
     9  C    0.345800
    10  H    0.000000
    11  H    0.000009
    12  H    0.000009
    13  H    0.000030
    14  H    0.000029
    15  H   -0.000159
    16  H    0.000015
    17  H   -0.000169
    18  H   -0.006567
    19  H    0.596876
 Mulliken atomic charges:
              1
     1  C   -0.459486
     2  C   -0.027773
     3  O   -0.518247
     4  C    0.383898
     5  C   -0.197326
     6  C   -0.134031
     7  C   -0.136056
     8  C   -0.127196
     9  C   -0.182597
    10  H    0.148167
    11  H    0.161511
    12  H    0.161642
    13  H    0.140958
    14  H    0.140854
    15  H    0.131023
    16  H    0.129107
    17  H    0.122199
    18  H    0.129128
    19  H    0.134227
 Sum of Mulliken atomic charges =  -0.00000
 Mulliken charges with hydrogens summed into heavy atoms:
              1
     1  C    0.011833
     2  C    0.254039
     3  O   -0.518247
     4  C    0.383898
     5  C   -0.066303
     6  C   -0.004924
     7  C   -0.013857
     8  C    0.001932
     9  C   -0.048370
 Sum of Mulliken charges with hydrogens summed into heavy atoms =  -0.00000
 Electronic spatial extent (au):  <R**2>=           1475.4605
 Charge=             -0.0000 electrons
 Dipole moment (field-independent basis, Debye):
    X=             -0.8083    Y=              1.0288    Z=              0.0085  Tot=              1.3084
 Quadrupole moment (field-independent basis, Debye-Ang):
   XX=            -47.2086   YY=            -50.1163   ZZ=            -56.2881
   XY=             -2.3584   XZ=             -0.0005   YZ=             -0.0093
 Traceless Quadrupole moment (field-independent basis, Debye-Ang):
   XX=              3.9957   YY=              1.0880   ZZ=             -5.0838
   XY=             -2.3584   XZ=             -0.0005   YZ=             -0.0093
 Octapole moment (field-independent basis, Debye-Ang**2):
  XXX=             -7.6614  YYY=             -1.8651  ZZZ=             -0.0090  XYY=              2.6108
  XXY=              2.6473  XXZ=              0.0707  XZZ=             -9.5176  YZZ=             -1.0345
  YYZ=             -0.0118  XYZ=              0.0029
 Hexadecapole moment (field-independent basis, Debye-Ang**3):
 XXXX=          -1498.1846 YYYY=           -320.9703 ZZZZ=            -70.0346 XXXY=             -9.1177
 XXXZ=              0.2135 YYYX=              0.9270 YYYZ=             -0.0260 ZZZX=             -0.0038
 ZZZY=              0.0183 XXYY=           -304.4387 XXZZ=           -287.5356 YYZZ=            -73.4871
 XXYZ=             -0.0067 YYXZ=              0.0305 ZZXY=              1.7968
 N-N= 4.186732664469D+02 E-N=-1.733823288670D+03  KE= 3.824325454243D+02
 No NMR shielding tensors so no spin-rotation constants.
 Leave Link  601 at Thu Sep 30 09:11:50 2021, MaxMem=  805306368 cpu:       0.8
 (Enter /sw/target/amd/app/gaussian/Gaussian09RevA.02_gcc-4.9.2/g09/l701.exe)
 Compute integral first derivatives.
 ... and contract with generalized density number  0.
 Leave Link  701 at Thu Sep 30 09:11:52 2021, MaxMem=  805306368 cpu:       0.8
 (Enter /sw/target/amd/app/gaussian/Gaussian09RevA.02_gcc-4.9.2/g09/l702.exe)
 L702 exits ... SP integral derivatives will be done elsewhere.
 Leave Link  702 at Thu Sep 30 09:11:52 2021, MaxMem=  805306368 cpu:       0.0
 (Enter /sw/target/amd/app/gaussian/Gaussian09RevA.02_gcc-4.9.2/g09/l703.exe)
 Compute integral first derivatives, UseDBF=F ICtDFT=           0.
 Integral derivatives from FoFDir, PRISM(SPDF).
 Calling FoFJK, ICntrl=      2127 FMM=F ISym2X=0 I1Cent= 0 IOpClX= 0 NMat=1 NMatS=1 NMatT=0.
 FoFCou: FMM=F IPFlag=           0 FMFlag=      100000 FMFlg1=         800
         NFxFlg=           0 DoJE=F BraDBF=F KetDBF=F FulRan=T
         Omega=  0.000000  0.000000  1.000000  0.000000  0.000000 ICntrl=    2127 IOpCl=  0
         NMat0=    1 NMatS0=    1 NMatT0=    0 NMatD0=    1 NMtDS0=    0 NMtDT0=    0
         I1Cent=           0 NGrid=           0.
 Symmetry not used in FoFCou.
 Leave Link  703 at Thu Sep 30 09:12:39 2021, MaxMem=  805306368 cpu:      26.6
 (Enter /sw/target/amd/app/gaussian/Gaussian09RevA.02_gcc-4.9.2/g09/l716.exe)
 Dipole        =-3.18020471D-01 4.04747458D-01 3.34009472D-03
 ***** Axes restored to original set *****
 -------------------------------------------------------------------
 Center     Atomic                   Forces (Hartrees/Bohr)
 Number     Number              X              Y              Z
 -------------------------------------------------------------------
      1        6          -0.005253502   -0.005538413   -0.001078507
      2        6          -0.008651128    0.003061341   -0.001640274
      3        8           0.005201895    0.005875371    0.001180479
      4        6          -0.004431868   -0.004533726   -0.000929346
      5        6           0.006029461    0.007227744    0.001323313
      6        6          -0.003607718   -0.004225590   -0.000768213
      7        6           0.007591336   -0.000673708    0.001391100
      8        6          -0.005618932    0.004964404   -0.000970075
      9        6           0.001985246   -0.013008131    0.000094217
     10        1           0.000661258    0.000553075    0.000137986
     11        1           0.000318361    0.001049122    0.001210808
     12        1           0.000768388    0.001131579   -0.000979874
     13        1           0.004970944   -0.000301999    0.000213563
     14        1           0.004704346   -0.000295035    0.001551273
     15        1          -0.002569984    0.000431072   -0.000445565
     16        1          -0.000846825    0.000976564   -0.000140934
     17        1           0.000087320    0.000109121    0.000014618
     18        1          -0.000865872    0.000117827   -0.000159322
     19        1          -0.000472727    0.003079381   -0.000005248
 -------------------------------------------------------------------
 Cartesian Forces:  Max     0.013008131 RMS     0.003596895
 Leave Link  716 at Thu Sep 30 09:12:39 2021, MaxMem=  805306368 cpu:       0.0
 (Enter /sw/target/amd/app/gaussian/Gaussian09RevA.02_gcc-4.9.2/g09/l103.exe)

 GradGradGradGradGradGradGradGradGradGradGradGradGradGradGradGradGradGrad
 Berny optimization.
 Internal  Forces:  Max     0.007969846 RMS     0.001989481
 Search for a local minimum.
 Step number   1 out of a maximum of   98
 All quantities printed in internal units (Hartrees-Bohrs-Radians)
 RMS Force = .19895D-02 SwitMx=.10000D-02 MixMth= 1
 Mixed Optimization -- RFO/linear search
 Second derivative matrix not updated -- first step.
     Eigenvalues ---    0.00528   0.01338   0.02102   0.02121   0.02126
     Eigenvalues ---    0.02131   0.02132   0.02137   0.02144   0.02160
     Eigenvalues ---    0.02169   0.02180   0.05472   0.05638   0.05735
     Eigenvalues ---    0.06108   0.11038   0.13612   0.16000   0.16000
     Eigenvalues ---    0.16000   0.16000   0.16000   0.16000   0.16000
     Eigenvalues ---    0.16000   0.22000   0.22000   0.22087   0.23480
     Eigenvalues ---    0.25000   0.25000   0.30561   0.34112   0.34118
     Eigenvalues ---    0.34250   0.34250   0.34376   0.35147   0.35165
     Eigenvalues ---    0.35181   0.35216   0.35470   0.41458   0.41838
     Eigenvalues ---    0.42357   0.46003   0.46185   0.46487   0.46700
     Eigenvalues ---    0.511741000.000001000.000001000.000001000.00000
     Eigenvalues --- 1000.000001000.000001000.000001000.000001000.00000
     Eigenvalues --- 1000.000001000.000001000.000001000.000001000.00000
     Eigenvalues --- 1000.000001000.000001000.000001000.000001000.00000
     Eigenvalues --- 1000.000001000.000001000.000001000.000001000.00000
     Eigenvalues --- 1000.000001000.000001000.000001000.000001000.00000
     Eigenvalues --- 1000.000001000.000001000.000001000.000001000.00000
     Eigenvalues --- 1000.000001000.000001000.00000
 RFO step:  Lambda=-1.71065006D-03 EMin= 5.28032336D-03
 Linear search not attempted -- first point.
 Iteration  1 RMS(Cart)=  0.01618450 RMS(Int)=  0.00022731
 Iteration  2 RMS(Cart)=  0.00029057 RMS(Int)=  0.00009346
 Iteration  3 RMS(Cart)=  0.00000008 RMS(Int)=  0.00009346
 Variable       Old X    -DE/DX   Delta X   Delta X   Delta X     New X
                                 (Linear)    (Quad)   (Total)
    R1        2.86858   0.00227   0.00000   0.00740   0.00740   2.87598
    R2        2.06701   0.00057   0.00000   0.00165   0.00165   2.06866
    R3        2.06911   0.00028   0.00000   0.00080   0.00080   2.06991
    R4        2.06909   0.00027   0.00000   0.00079   0.00079   2.06989
    R5        2.69619  -0.00048   0.00000  -0.00115  -0.00115   2.69504
    R6        2.07142   0.00167   0.00000   0.00486   0.00486   2.07628
    R7        2.07131   0.00171   0.00000   0.00499   0.00499   2.07630
    R8        2.58699   0.00037   0.00000   0.00073   0.00073   2.58772
    R9        2.63872   0.00267   0.00000   0.00595   0.00594   2.64466
   R10        2.63985   0.00469   0.00000   0.01026   0.01025   2.65010
   R11        2.64268   0.00044   0.00000   0.00102   0.00103   2.64371
   R12        2.04918   0.00006   0.00000   0.00017   0.00017   2.04936
   R13        2.63334   0.00044   0.00000   0.00081   0.00082   2.63416
   R14        2.05408  -0.00038   0.00000  -0.00109  -0.00109   2.05300
   R15        2.63174   0.00511   0.00000   0.01066   0.01067   2.64241
   R16        2.05382   0.00001   0.00000   0.00002   0.00002   2.05384
   R17        2.63907  -0.00388   0.00000  -0.00843  -0.00844   2.63063
   R18        2.05326  -0.00002   0.00000  -0.00007  -0.00007   2.05319
   R19        2.05437  -0.00084   0.00000  -0.00239  -0.00239   2.05198
    A1        1.93273  -0.00134   0.00000  -0.01366  -0.01369   1.91904
    A2        1.93154   0.00015   0.00000   0.00363   0.00357   1.93511
    A3        1.93163   0.00010   0.00000   0.00319   0.00312   1.93476
    A4        1.89921   0.00004   0.00000  -0.00473  -0.00476   1.89445
    A5        1.89943   0.00004   0.00000  -0.00494  -0.00498   1.89446
    A6        1.86768   0.00110   0.00000   0.01729   0.01720   1.88488
    A7        1.89069  -0.00354   0.00000  -0.01190  -0.01177   1.87893
    A8        1.90101   0.00433   0.00000   0.03283   0.03265   1.93366
    A9        1.90077   0.00430   0.00000   0.03280   0.03262   1.93339
   A10        1.92423  -0.00058   0.00000  -0.00999  -0.00996   1.91427
   A11        1.92408  -0.00053   0.00000  -0.00930  -0.00927   1.91481
   A12        1.92246  -0.00383   0.00000  -0.03289  -0.03356   1.88890
   A13        2.03799   0.00797   0.00000   0.03166   0.03166   2.06965
   A14        2.19751  -0.00485   0.00000  -0.01966  -0.01966   2.17785
   A15        2.00526   0.00324   0.00000   0.01248   0.01249   2.01775
   A16        2.08042   0.00162   0.00000   0.00718   0.00717   2.08758
   A17        2.09820  -0.00260   0.00000  -0.01100  -0.01100   2.08720
   A18        2.12753  -0.00141   0.00000  -0.01123  -0.01123   2.11629
   A19        2.05746   0.00401   0.00000   0.02224   0.02223   2.07969
   A20        2.09847   0.00272   0.00000   0.01230   0.01231   2.11078
   A21        2.09167  -0.00263   0.00000  -0.01402  -0.01403   2.07764
   A22        2.09305  -0.00009   0.00000   0.00172   0.00172   2.09477
   A23        2.09094  -0.00227   0.00000  -0.01075  -0.01074   2.08020
   A24        2.09589   0.00099   0.00000   0.00452   0.00451   2.10041
   A25        2.09635   0.00127   0.00000   0.00624   0.00623   2.10258
   A26        2.09290   0.00208   0.00000   0.00898   0.00898   2.10188
   A27        2.09690  -0.00012   0.00000   0.00117   0.00117   2.09807
   A28        2.09339  -0.00196   0.00000  -0.01016  -0.01016   2.08324
   A29        2.10545  -0.00155   0.00000  -0.00670  -0.00672   2.09874
   A30        2.08899  -0.00231   0.00000  -0.01571  -0.01570   2.07329
   A31        2.08874   0.00386   0.00000   0.02241   0.02242   2.11116
    D1       -3.13789  -0.00002   0.00000  -0.00152  -0.00152  -3.13941
    D2        1.05206   0.00026   0.00000  -0.00153  -0.00137   1.05069
    D3       -1.04498  -0.00024   0.00000  -0.00070  -0.00086  -1.04584
    D4        1.03763   0.00073   0.00000   0.01109   0.01111   1.04874
    D5       -1.05560   0.00100   0.00000   0.01109   0.01126  -1.04434
    D6        3.13054   0.00051   0.00000   0.01192   0.01177  -3.14087
    D7       -1.02988  -0.00079   0.00000  -0.01471  -0.01472  -1.04460
    D8       -3.12312  -0.00052   0.00000  -0.01471  -0.01457  -3.13769
    D9        1.06302  -0.00101   0.00000  -0.01388  -0.01405   1.04897
   D10       -3.13903   0.00002   0.00000   0.00157   0.00157  -3.13746
   D11       -1.06038   0.00279   0.00000   0.02842   0.02825  -1.03214
   D12        1.06590  -0.00275   0.00000  -0.02565  -0.02548   1.04042
   D13       -0.00750   0.00006   0.00000   0.00273   0.00273  -0.00477
   D14        3.13400   0.00008   0.00000   0.00348   0.00348   3.13748
   D15        3.14036   0.00004   0.00000   0.00176   0.00176  -3.14107
   D16       -0.00120   0.00003   0.00000   0.00149   0.00149   0.00029
   D17       -0.00114   0.00002   0.00000   0.00098   0.00098  -0.00015
   D18        3.14050   0.00002   0.00000   0.00071   0.00071   3.14121
   D19       -3.14033  -0.00004   0.00000  -0.00183  -0.00183   3.14102
   D20        0.00076  -0.00003   0.00000  -0.00118  -0.00119  -0.00043
   D21        0.00117  -0.00003   0.00000  -0.00113  -0.00113   0.00004
   D22       -3.14092  -0.00001   0.00000  -0.00048  -0.00049  -3.14141
   D23        0.00021  -0.00000   0.00000  -0.00009  -0.00009   0.00012
   D24       -3.14121  -0.00001   0.00000  -0.00040  -0.00039   3.14158
   D25       -3.14142   0.00000   0.00000   0.00017   0.00018  -3.14125
   D26        0.00035  -0.00000   0.00000  -0.00013  -0.00013   0.00021
   D27        0.00070  -0.00002   0.00000  -0.00068  -0.00068   0.00002
   D28       -3.14119  -0.00001   0.00000  -0.00025  -0.00026  -3.14144
   D29       -3.14107  -0.00001   0.00000  -0.00037  -0.00037  -3.14144
   D30        0.00023   0.00000   0.00000   0.00005   0.00005   0.00028
   D31       -0.00067   0.00001   0.00000   0.00053   0.00053  -0.00014
   D32        3.14110   0.00001   0.00000   0.00044   0.00043   3.14153
   D33        3.14122   0.00000   0.00000   0.00011   0.00011   3.14133
   D34       -0.00020   0.00000   0.00000   0.00001   0.00001  -0.00019
   D35       -0.00027   0.00001   0.00000   0.00039   0.00038   0.00011
   D36       -3.14137  -0.00000   0.00000  -0.00025  -0.00026   3.14155
   D37        3.14115   0.00001   0.00000   0.00048   0.00048  -3.14156
   D38        0.00005  -0.00000   0.00000  -0.00016  -0.00017  -0.00012
         Item               Value     Threshold  Converged?
 Maximum Force            0.007970     0.000450     NO 
 RMS     Force            0.001989     0.000300     NO 
 Maximum Displacement     0.054613     0.001800     NO 
 RMS     Displacement     0.016117     0.001200     NO 
 Predicted change in Energy=-8.635723D-04
 GradGradGradGradGradGradGradGradGradGradGradGradGradGradGradGradGradGrad

 Leave Link  103 at Thu Sep 30 09:12:45 2021, MaxMem=  805306368 cpu:       2.5
 (Enter /sw/target/amd/app/gaussian/Gaussian09RevA.02_gcc-4.9.2/g09/l202.exe)
                          Input orientation:                          
 ---------------------------------------------------------------------
 Center     Atomic      Atomic             Coordinates (Angstroms)
 Number     Number       Type             X           Y           Z
 ---------------------------------------------------------------------
      1          6           0        3.195074    1.376839   -0.024301
      2          6           0        4.600414    0.848073    0.223911
      3          8           0        4.541715   -0.576017    0.174516
      4          6           0        5.694844   -1.286610    0.375769
      5          6           0        6.949374   -0.718646    0.625094
      6          6           0        8.058578   -1.549844    0.814692
      7          6           0        7.932574   -2.936948    0.758731
      8          6           0        6.676339   -3.498009    0.509063
      9          6           0        5.564833   -2.681782    0.318826
     10          1           0        3.197391    2.471172    0.003383
     11          1           0        2.499828    1.010534    0.738749
     12          1           0        2.824179    1.053912   -1.003032
     13          1           0        4.969882    1.169270    1.207533
     14          1           0        5.296544    1.217045   -0.541907
     15          1           0        7.080395    0.356752    0.674422
     16          1           0        9.028219   -1.099482    1.007652
     17          1           0        8.800762   -3.573596    0.907600
     18          1           0        6.559153   -4.577140    0.461857
     19          1           0        4.585331   -3.108232    0.124375
 ---------------------------------------------------------------------
                    Distance matrix (angstroms):
                    1          2          3          4          5
     1  C    0.000000
     2  C    1.521902   0.000000
     3  O    2.380466   1.426155   0.000000
     4  C    3.674625   2.403686   1.369362   0.000000
     5  C    4.348280   2.851871   2.453607   1.399496   0.000000
     6  C    5.737862   4.249462   3.704928   2.418508   1.398989
     7  C    6.454906   5.071066   4.172916   2.806726   2.430104
     8  C    6.013969   4.824853   3.634086   2.423094   2.795151
     9  C    4.712313   3.660463   2.345600   1.402373   2.421705
    10  H    1.094685   2.156747   3.334944   4.527347   4.963753
    11  H    1.095350   2.168851   2.646659   3.951804   4.775086
    12  H    1.095336   2.168587   2.644469   3.952196   4.775981
    13  H    2.170356   1.098720   2.072794   2.692350   2.796757
    14  H    2.170168   1.098733   2.073186   2.696119   2.800113
    15  H    4.077317   2.568008   2.750429   2.170157   1.084472
    16  H    6.420489   4.900273   4.593131   3.397893   2.147786
    17  H    7.536510   6.136897   5.259504   3.893569   3.414409
    18  H    6.855892   5.772886   4.490168   3.403239   3.881610
    19  H    4.697955   3.957585   2.533087   2.147679   3.398461
                    6          7          8          9         10
     6  C    0.000000
     7  C    1.393939   0.000000
     8  C    2.408181   1.398302   0.000000
     9  C    2.783151   2.421740   1.392072   0.000000
    10  H    6.360655   7.227744   6.927475   5.679544   0.000000
    11  H    6.120540   6.715486   6.150037   4.817031   1.777870
    12  H    6.122303   6.717624   6.151874   4.818080   1.777860
    13  H    4.133757   5.083305   5.018301   3.996794   2.507320
    14  H    4.138220   5.088808   5.023953   4.001710   2.505319
    15  H    2.147469   3.403201   3.879405   3.414098   4.472001
    16  H    1.086399   2.153760   3.396006   3.869522   6.910621
    17  H    2.157554   1.086845   2.162804   3.407819   8.291839
    18  H    3.396659   2.159780   1.086502   2.145114   7.822426
    19  H    3.868921   3.411126   2.161533   1.085861   5.750718
                   11         12         13         14         15
    11  H    0.000000
    12  H    1.772255   0.000000
    13  H    2.519151   3.082848   0.000000
    14  H    3.082913   2.520286   1.780318   0.000000
    15  H    4.627436   4.627663   2.323501   2.324153   0.000000
    16  H    6.866175   6.868047   4.653739   4.657556   2.454725
    17  H    7.793878   7.796403   6.104128   6.109898   4.296704
    18  H    6.912083   6.914093   6.008581   6.014508   4.965901
    19  H    4.657361   4.657912   4.429236   4.433709   4.305114
                   16         17         18         19
    16  H    0.000000
    17  H    2.486561   0.000000
    18  H    4.299801   2.496117   0.000000
    19  H    4.955250   4.312756   2.483457   0.000000
 Stoichiometry    C8H10O
 Framework group  C1[X(C8H10O)]
 Deg. of freedom    51
 Full point group                 C1      NOp   1
 Largest Abelian subgroup         C1      NOp   1
 Largest concise Abelian subgroup C1      NOp   1
                         Standard orientation:                         
 ---------------------------------------------------------------------
 Center     Atomic      Atomic             Coordinates (Angstroms)
 Number     Number       Type             X           Y           Z
 ---------------------------------------------------------------------
      1          6           0       -3.619310   -0.135404    0.002692
      2          6           0       -2.238772    0.505139    0.000143
      3          8           0       -1.274456   -0.545574   -0.003679
      4          6           0        0.054447   -0.215174   -0.001556
      5          6           0        0.551864    1.092942   -0.001316
      6          6           0        1.934504    1.306196    0.000322
      7          6           0        2.825029    0.233802    0.001573
      8          6           0        2.321487   -1.070688    0.001146
      9          6           0        0.947800   -1.296177   -0.000340
     10          1           0       -4.391248    0.640770    0.003421
     11          1           0       -3.756338   -0.763834    0.889308
     12          1           0       -3.758831   -0.764644   -0.882944
     13          1           0       -2.098461    1.132890    0.890889
     14          1           0       -2.103335    1.135653   -0.889420
     15          1           0       -0.114695    1.948382   -0.002590
     16          1           0        2.310918    2.325302    0.000487
     17          1           0        3.897396    0.410604    0.002983
     18          1           0        3.000557   -1.918834    0.002044
     19          1           0        0.547389   -2.305516   -0.000720
 ---------------------------------------------------------------------
 Rotational constants (GHZ):      4.8678574      0.9141181      0.7771253
 Leave Link  202 at Thu Sep 30 09:12:45 2021, MaxMem=  805306368 cpu:       0.0
 (Enter /sw/target/amd/app/gaussian/Gaussian09RevA.02_gcc-4.9.2/g09/l301.exe)
 Standard basis: 6-31G(d) (6D, 7F)
 Ernie: Thresh=  0.10000D-02 Tol=  0.10000D-05 Strict=F.
 There are   155 symmetry adapted basis functions of A   symmetry.
 Integral buffers will be    131072 words long.
 Raffenetti 2 integral format.
 Two-electron integral symmetry is turned on.
   155 basis functions,   292 primitive gaussians,   155 cartesian basis functions
    33 alpha electrons       33 beta electrons
       nuclear repulsion energy       418.1119956743 Hartrees.
 IExCor=  402 DFT=T Ex+Corr=B3LYP ExCW=0 ScaHFX=  0.200000
 ScaDFX=  0.800000  0.720000  1.000000  0.810000 ScalE2=  1.000000  1.000000
 IRadAn=      0 IRanWt=     -1 IRanGd=            0 ICorTp=0
 NAtoms=   19 NActive=   19 NUniq=   19 SFac= 7.50D-01 NAtFMM=   80 NAOKFM=F Big=F
 Leave Link  301 at Thu Sep 30 09:12:46 2021, MaxMem=  805306368 cpu:       0.1
 (Enter /sw/target/amd/app/gaussian/Gaussian09RevA.02_gcc-4.9.2/g09/l302.exe)
 NPDir=0 NMtPBC=     1 NCelOv=     1 NCel=       1 NClECP=     1 NCelD=      1
         NCelK=      1 NCelE2=     1 NClLst=     1 CellRange=     0.0.
 One-electron integrals computed using PRISM.
 NBasis=   155 RedAO= T  NBF=   155
 NBsUse=   155 1.00D-06 NBFU=   155
 Precomputing XC quadrature grid using
 IXCGrd= 2 IRadAn=           0 IRanWt=          -1 IRanGd=           0 AccXCQ= 1.00D-10.
 NRdTot=    1194 NPtTot=      151758 NUsed=      160376 NTot=      160408
 NSgBfM=   155   155   155   155   155 NAtAll=    19    19.
 Leave Link  302 at Thu Sep 30 09:12:48 2021, MaxMem=  805306368 cpu:       1.1
 (Enter /sw/target/amd/app/gaussian/Gaussian09RevA.02_gcc-4.9.2/g09/l303.exe)
 DipDrv:  MaxL=1.
 Leave Link  303 at Thu Sep 30 09:12:48 2021, MaxMem=  805306368 cpu:       0.1
 (Enter /sw/target/amd/app/gaussian/Gaussian09RevA.02_gcc-4.9.2/g09/l401.exe)
 Initial guess read from the read-write file.
 B after Tr=     0.000000    0.000000    0.000000
         Rot=    1.000000    0.000000    0.000000    0.000000 Ang=   0.00 deg.
 Guess basis will be translated and rotated to current coordinates.
 Initial guess orbital symmetries:
       Occupied  (A) (A) (A) (A) (A) (A) (A) (A) (A) (A) (A) (A)
                 (A) (A) (A) (A) (A) (A) (A) (A) (A) (A) (A) (A)
                 (A) (A) (A) (A) (A) (A) (A) (A) (A)
       Virtual   (A) (A) (A) (A) (A) (A) (A) (A) (A) (A) (A) (A)
                 (A) (A) (A) (A) (A) (A) (A) (A) (A) (A) (A) (A)
                 (A) (A) (A) (A) (A) (A) (A) (A) (A) (A) (A) (A)
                 (A) (A) (A) (A) (A) (A) (A) (A) (A) (A) (A) (A)
                 (A) (A) (A) (A) (A) (A) (A) (A) (A) (A) (A) (A)
                 (A) (A) (A) (A) (A) (A) (A) (A) (A) (A) (A) (A)
                 (A) (A) (A) (A) (A) (A) (A) (A) (A) (A) (A) (A)
                 (A) (A) (A) (A) (A) (A) (A) (A) (A) (A) (A) (A)
                 (A) (A) (A) (A) (A) (A) (A) (A) (A) (A) (A) (A)
                 (A) (A) (A) (A) (A) (A) (A) (A) (A) (A) (A) (A)
                 (A) (A)
 The electronic state of the initial guess is 1-A.
 Generating alternative initial guess.
 Harris functional with IExCor=  402 diagonalized for initial guess.
 ExpMin= 1.61D-01 ExpMax= 5.48D+03 ExpMxC= 8.25D+02 IAcc=1 IRadAn=         1 AccDes= 0.00D+00
 HarFok:  IExCor=  402 AccDes= 0.00D+00 IRadAn=         1 IDoV= 1
 ScaDFX=  1.000000  1.000000  1.000000  1.000000
 FoFCou: FMM=F IPFlag=           0 FMFlag=      100000 FMFlg1=           0
         NFxFlg=           0 DoJE=T BraDBF=F KetDBF=T FulRan=T
         Omega=  0.000000  0.000000  1.000000  0.000000  0.000000 ICntrl=     500 IOpCl=  0
         NMat0=    1 NMatS0=    1 NMatT0=    0 NMatD0=    1 NMtDS0=    0 NMtDT0=    0
         I1Cent=           4 NGrid=           0.
 Petite list used in FoFCou.
 Harris En= -386.156845455426    
 Leave Link  401 at Thu Sep 30 09:12:57 2021, MaxMem=  805306368 cpu:       4.8
 (Enter /sw/target/amd/app/gaussian/Gaussian09RevA.02_gcc-4.9.2/g09/l502.exe)
 Closed shell SCF:
 Requested convergence on RMS density matrix=1.00D-08 within  64 cycles.
 Requested convergence on MAX density matrix=1.00D-06.
 Requested convergence on             energy=1.00D-06.
 No special actions if energy rises.
 Using DIIS extrapolation, IDIIS=  1040.
 Integral symmetry usage will be decided dynamically.
       160192 words used for storage of precomputed grid.
 Keep R1 ints in memory in canonical form, NReq=75228153.
 IEnd=      239914 IEndB=      239914 NGot=   805306368 MDV=   732004736
 LenX=   732004736 LenY=   731980270
 Symmetry not used in FoFDir.
 MinBra= 0 MaxBra= 2 Meth= 1.
 IRaf=       0 NMat=   1 IRICut=       1 DoRegI=T DoRafI=F ISym2E= 0 JSym2E=0.
 Integral accuracy reduced to 1.0D-05 until final iterations.

 Cycle   1  Pass 0  IDiag  1:
 E= -386.090115197681    
 DIIS: error= 8.52D-04 at cycle   1 NSaved=   1.
 NSaved= 1 IEnMin= 1 EnMin= -386.090115197681     IErMin= 1 ErrMin= 8.52D-04
 ErrMax= 8.52D-04 EMaxC= 1.00D-01 BMatC= 2.72D-04 BMatP= 2.72D-04
 IDIUse=3 WtCom= 9.91D-01 WtEn= 8.52D-03
 Coeff-Com:  0.100D+01
 Coeff-En:   0.100D+01
 Coeff:      0.100D+01
 Gap=     0.219 Goal=   None    Shift=    0.000
 RMSDP=2.21D-04 MaxDP=2.97D-03              OVMax= 5.84D-03

 Cycle   2  Pass 0  IDiag  1:
 E= -386.090559705953     Delta-E=       -0.000444508272 Rises=F Damp=F
 DIIS: error= 1.83D-04 at cycle   2 NSaved=   2.
 NSaved= 2 IEnMin= 2 EnMin= -386.090559705953     IErMin= 2 ErrMin= 1.83D-04
 ErrMax= 1.83D-04 EMaxC= 1.00D-01 BMatC= 1.18D-05 BMatP= 2.72D-04
 IDIUse=3 WtCom= 9.98D-01 WtEn= 1.83D-03
 Coeff-Com:  0.109D-01 0.989D+00
 Coeff-En:   0.000D+00 0.100D+01
 Coeff:      0.109D-01 0.989D+00
 Gap=     0.219 Goal=   None    Shift=    0.000
 RMSDP=5.28D-05 MaxDP=1.75D-03 DE=-4.45D-04 OVMax= 3.07D-03

 Cycle   3  Pass 0  IDiag  1:
 E= -386.090549984944     Delta-E=        0.000009721009 Rises=F Damp=F
 DIIS: error= 3.07D-04 at cycle   3 NSaved=   3.
 NSaved= 3 IEnMin= 2 EnMin= -386.090559705953     IErMin= 2 ErrMin= 1.83D-04
 ErrMax= 3.07D-04 EMaxC= 1.00D-01 BMatC= 2.17D-05 BMatP= 1.18D-05
 IDIUse=3 WtCom= 3.63D-01 WtEn= 6.37D-01
 Coeff-Com: -0.314D-01 0.599D+00 0.433D+00
 Coeff-En:   0.000D+00 0.631D+00 0.369D+00
 Coeff:     -0.114D-01 0.620D+00 0.392D+00
 Gap=     0.219 Goal=   None    Shift=    0.000
 RMSDP=3.37D-05 MaxDP=1.11D-03 DE= 9.72D-06 OVMax= 2.37D-03

 Cycle   4  Pass 0  IDiag  1:
 E= -386.090572526683     Delta-E=       -0.000022541739 Rises=F Damp=F
 DIIS: error= 4.39D-05 at cycle   4 NSaved=   4.
 NSaved= 4 IEnMin= 4 EnMin= -386.090572526683     IErMin= 4 ErrMin= 4.39D-05
 ErrMax= 4.39D-05 EMaxC= 1.00D-01 BMatC= 3.97D-07 BMatP= 1.18D-05
 IDIUse=1 WtCom= 1.00D+00 WtEn= 0.00D+00
 Coeff-Com: -0.166D-01 0.233D+00 0.183D+00 0.600D+00
 Coeff:     -0.166D-01 0.233D+00 0.183D+00 0.600D+00
 Gap=     0.219 Goal=   None    Shift=    0.000
 RMSDP=6.29D-06 MaxDP=1.42D-04 DE=-2.25D-05 OVMax= 3.69D-04

 Initial convergence to 1.0D-05 achieved.  Increase integral accuracy.
 Cycle   5  Pass 1  IDiag  1:
 E= -386.090527744999     Delta-E=        0.000044781684 Rises=F Damp=F
 DIIS: error= 1.90D-05 at cycle   1 NSaved=   1.
 NSaved= 1 IEnMin= 1 EnMin= -386.090527744999     IErMin= 1 ErrMin= 1.90D-05
 ErrMax= 1.90D-05 EMaxC= 1.00D-01 BMatC= 1.29D-07 BMatP= 1.29D-07
 IDIUse=1 WtCom= 1.00D+00 WtEn= 0.00D+00
 Coeff-Com:  0.100D+01
 Coeff:      0.100D+01
 Gap=     0.219 Goal=   None    Shift=    0.000
 RMSDP=6.29D-06 MaxDP=1.42D-04 DE= 4.48D-05 OVMax= 3.14D-04

 Cycle   6  Pass 1  IDiag  1:
 E= -386.090527604261     Delta-E=        0.000000140738 Rises=F Damp=F
 DIIS: error= 3.75D-05 at cycle   2 NSaved=   2.
 NSaved= 2 IEnMin= 1 EnMin= -386.090527744999     IErMin= 1 ErrMin= 1.90D-05
 ErrMax= 3.75D-05 EMaxC= 1.00D-01 BMatC= 2.69D-07 BMatP= 1.29D-07
 IDIUse=1 WtCom= 1.00D+00 WtEn= 0.00D+00
 Coeff-Com:  0.598D+00 0.402D+00
 Coeff:      0.598D+00 0.402D+00
 Gap=     0.219 Goal=   None    Shift=    0.000
 RMSDP=3.76D-06 MaxDP=1.05D-04 DE= 1.41D-07 OVMax= 2.45D-04

 Cycle   7  Pass 1  IDiag  1:
 E= -386.090527879284     Delta-E=       -0.000000275023 Rises=F Damp=F
 DIIS: error= 8.82D-06 at cycle   3 NSaved=   3.
 NSaved= 3 IEnMin= 3 EnMin= -386.090527879284     IErMin= 3 ErrMin= 8.82D-06
 ErrMax= 8.82D-06 EMaxC= 1.00D-01 BMatC= 7.25D-09 BMatP= 1.29D-07
 IDIUse=1 WtCom= 1.00D+00 WtEn= 0.00D+00
 Coeff-Com:  0.150D+00 0.167D+00 0.683D+00
 Coeff:      0.150D+00 0.167D+00 0.683D+00
 Gap=     0.219 Goal=   None    Shift=    0.000
 RMSDP=9.89D-07 MaxDP=3.00D-05 DE=-2.75D-07 OVMax= 6.60D-05

 Cycle   8  Pass 1  IDiag  1:
 E= -386.090527884139     Delta-E=       -0.000000004854 Rises=F Damp=F
 DIIS: error= 4.82D-06 at cycle   4 NSaved=   4.
 NSaved= 4 IEnMin= 4 EnMin= -386.090527884139     IErMin= 4 ErrMin= 4.82D-06
 ErrMax= 4.82D-06 EMaxC= 1.00D-01 BMatC= 3.20D-09 BMatP= 7.25D-09
 IDIUse=1 WtCom= 1.00D+00 WtEn= 0.00D+00
 Coeff-Com: -0.136D-01 0.342D-01 0.447D+00 0.533D+00
 Coeff:     -0.136D-01 0.342D-01 0.447D+00 0.533D+00
 Gap=     0.219 Goal=   None    Shift=    0.000
 RMSDP=4.10D-07 MaxDP=1.53D-05 DE=-4.85D-09 OVMax= 2.61D-05

 Cycle   9  Pass 1  IDiag  1:
 E= -386.090527887530     Delta-E=       -0.000000003392 Rises=F Damp=F
 DIIS: error= 4.17D-07 at cycle   5 NSaved=   5.
 NSaved= 5 IEnMin= 5 EnMin= -386.090527887530     IErMin= 5 ErrMin= 4.17D-07
 ErrMax= 4.17D-07 EMaxC= 1.00D-01 BMatC= 4.49D-11 BMatP= 3.20D-09
 IDIUse=1 WtCom= 1.00D+00 WtEn= 0.00D+00
 Coeff-Com: -0.927D-02 0.143D-01 0.207D+00 0.265D+00 0.523D+00
 Coeff:     -0.927D-02 0.143D-01 0.207D+00 0.265D+00 0.523D+00
 Gap=     0.219 Goal=   None    Shift=    0.000
 RMSDP=5.00D-08 MaxDP=1.26D-06 DE=-3.39D-09 OVMax= 2.22D-06

 Cycle  10  Pass 1  IDiag  1:
 E= -386.090527887588     Delta-E=       -0.000000000058 Rises=F Damp=F
 DIIS: error= 1.38D-07 at cycle   6 NSaved=   6.
 NSaved= 6 IEnMin= 6 EnMin= -386.090527887588     IErMin= 6 ErrMin= 1.38D-07
 ErrMax= 1.38D-07 EMaxC= 1.00D-01 BMatC= 2.85D-12 BMatP= 4.49D-11
 IDIUse=1 WtCom= 1.00D+00 WtEn= 0.00D+00
 Coeff-Com: -0.251D-02 0.311D-02 0.441D-01 0.617D-01 0.229D+00 0.665D+00
 Coeff:     -0.251D-02 0.311D-02 0.441D-01 0.617D-01 0.229D+00 0.665D+00
 Gap=     0.219 Goal=   None    Shift=    0.000
 RMSDP=1.79D-08 MaxDP=3.43D-07 DE=-5.79D-11 OVMax= 1.03D-06

 Cycle  11  Pass 1  IDiag  1:
 E= -386.090527887581     Delta-E=        0.000000000008 Rises=F Damp=F
 DIIS: error= 8.12D-08 at cycle   7 NSaved=   7.
 NSaved= 7 IEnMin= 6 EnMin= -386.090527887588     IErMin= 7 ErrMin= 8.12D-08
 ErrMax= 8.12D-08 EMaxC= 1.00D-01 BMatC= 1.08D-12 BMatP= 2.85D-12
 IDIUse=1 WtCom= 1.00D+00 WtEn= 0.00D+00
 Coeff-Com: -0.553D-03 0.302D-03 0.362D-02 0.763D-02 0.831D-01 0.431D+00
 Coeff-Com:  0.475D+00
 Coeff:     -0.553D-03 0.302D-03 0.362D-02 0.763D-02 0.831D-01 0.431D+00
 Coeff:      0.475D+00
 Gap=     0.219 Goal=   None    Shift=    0.000
 RMSDP=7.76D-09 MaxDP=1.51D-07 DE= 7.62D-12 OVMax= 5.12D-07

 SCF Done:  E(RB3LYP) =  -386.090527888     A.U. after   11 cycles
             Convg  =    0.7756D-08             -V/T =  2.0097
 KE= 3.823839012457D+02 PE=-1.732671740261D+03 EE= 5.460853154538D+02
 Leave Link  502 at Thu Sep 30 09:14:58 2021, MaxMem=  805306368 cpu:      60.3
 (Enter /sw/target/amd/app/gaussian/Gaussian09RevA.02_gcc-4.9.2/g09/l508.exe)
 QCSCF skips out because SCF is already converged.
 Leave Link  508 at Thu Sep 30 09:14:58 2021, MaxMem=  805306368 cpu:       0.0
 (Enter /sw/target/amd/app/gaussian/Gaussian09RevA.02_gcc-4.9.2/g09/l701.exe)
 Compute integral first derivatives.
 ... and contract with generalized density number  0.
 Leave Link  701 at Thu Sep 30 09:15:01 2021, MaxMem=  805306368 cpu:       0.8
 (Enter /sw/target/amd/app/gaussian/Gaussian09RevA.02_gcc-4.9.2/g09/l702.exe)
 L702 exits ... SP integral derivatives will be done elsewhere.
 Leave Link  702 at Thu Sep 30 09:15:01 2021, MaxMem=  805306368 cpu:       0.1
 (Enter /sw/target/amd/app/gaussian/Gaussian09RevA.02_gcc-4.9.2/g09/l703.exe)
 Compute integral first derivatives, UseDBF=F ICtDFT=           0.
 Integral derivatives from FoFDir, PRISM(SPDF).
 Calling FoFJK, ICntrl=      2127 FMM=F ISym2X=0 I1Cent= 0 IOpClX= 0 NMat=1 NMatS=1 NMatT=0.
 FoFCou: FMM=F IPFlag=           0 FMFlag=      100000 FMFlg1=         800
         NFxFlg=           0 DoJE=F BraDBF=F KetDBF=F FulRan=T
         Omega=  0.000000  0.000000  1.000000  0.000000  0.000000 ICntrl=    2127 IOpCl=  0
         NMat0=    1 NMatS0=    1 NMatT0=    0 NMatD0=    1 NMtDS0=    0 NMtDT0=    0
         I1Cent=           0 NGrid=           0.
 Symmetry not used in FoFCou.
 Leave Link  703 at Thu Sep 30 09:15:49 2021, MaxMem=  805306368 cpu:      26.9
 (Enter /sw/target/amd/app/gaussian/Gaussian09RevA.02_gcc-4.9.2/g09/l716.exe)
 Dipole        =-3.38682269D-01 3.92269278D-01 1.86465330D-03
 ***** Axes restored to original set *****
 -------------------------------------------------------------------
 Center     Atomic                   Forces (Hartrees/Bohr)
 Number     Number              X              Y              Z
 -------------------------------------------------------------------
      1        6           0.000267405   -0.001135079    0.000024295
      2        6          -0.002384498   -0.000911436   -0.000437787
      3        8           0.001836932   -0.001192890    0.000355929
      4        6          -0.002157732    0.000580964   -0.000451502
      5        6           0.001423205    0.001122162    0.000303864
      6        6          -0.000992192   -0.001494349   -0.000220178
      7        6           0.001384057    0.000620904    0.000284902
      8        6          -0.001218768    0.001828427   -0.000179952
      9        6           0.000467540   -0.002523851    0.000016170
[...]
    18  H   -0.000000   0.000003  -0.000062   0.004703   0.000499   0.005143
    19  H   -0.000018  -0.000259  -0.001121  -0.041501   0.007462   0.000021
              7          8          9         10         11         12
     1  C    0.000000   0.000003  -0.000214   0.363413   0.375205   0.375187
     2  C    0.000007  -0.000122   0.004129  -0.027525  -0.030978  -0.030975
     3  O    0.000078   0.002964  -0.045651   0.002969   0.001234   0.001231
     4  C   -0.034019  -0.011035   0.494181  -0.000064   0.000100   0.000100
     5  C   -0.029865  -0.021111  -0.103491   0.000011   0.000022   0.000022
     6  C    0.495881  -0.057157  -0.015543  -0.000000  -0.000000  -0.000000
     7  C    4.928282   0.498613  -0.033245  -0.000000   0.000000   0.000000
     8  C    0.498613   5.042868   0.426297  -0.000000  -0.000000  -0.000000
     9  C   -0.033245   0.426297   5.147344   0.000003  -0.000027  -0.000027
    10  H   -0.000000  -0.000000   0.000003   0.559161  -0.026260  -0.026263
    11  H    0.000000  -0.000000  -0.000027  -0.026260   0.542766  -0.029848
    12  H    0.000000  -0.000000  -0.000027  -0.026263  -0.029848   0.542780
    13  H    0.000005   0.000008  -0.000187  -0.000168  -0.005660   0.004963
    14  H    0.000005   0.000008  -0.000187  -0.000166   0.004964  -0.005656
    15  H    0.004726   0.000488   0.004627   0.000020   0.000003   0.000003
    16  H   -0.042145   0.004754   0.000814   0.000000   0.000000   0.000000
    17  H    0.358137  -0.042521   0.004533  -0.000000   0.000000   0.000000
    18  H   -0.044783   0.360796  -0.040900   0.000000  -0.000000  -0.000000
    19  H    0.005481  -0.042733   0.347916   0.000000   0.000010   0.000010
             13         14         15         16         17         18
     1  C   -0.038608  -0.038658  -0.000001  -0.000000  -0.000000  -0.000000
     2  C    0.364279   0.364341   0.006258  -0.000010  -0.000000   0.000003
     3  O   -0.033767  -0.033754  -0.007655  -0.000051   0.000002  -0.000062
     4  C   -0.002301  -0.002318  -0.048929   0.003561   0.000678   0.004703
     5  C    0.003855   0.003818   0.352230  -0.039612   0.004949   0.000499
     6  C   -0.000183  -0.000180  -0.038370   0.358580  -0.043387   0.005143
     7  C    0.000005   0.000005   0.004726  -0.042145   0.358137  -0.044783
     8  C    0.000008   0.000008   0.000488   0.004754  -0.042521   0.360796
     9  C   -0.000187  -0.000187   0.004627   0.000814   0.004533  -0.040900
    10  H   -0.000168  -0.000166   0.000020   0.000000  -0.000000   0.000000
    11  H   -0.005660   0.004964   0.000003   0.000000   0.000000  -0.000000
    12  H    0.004963  -0.005656   0.000003   0.000000   0.000000  -0.000000
    13  H    0.596536  -0.052325   0.001607   0.000002   0.000000  -0.000000
    14  H   -0.052325   0.596565   0.001615   0.000002   0.000000  -0.000000
    15  H    0.001607   0.001615   0.608476  -0.006420  -0.000172   0.000015
    16  H    0.000002   0.000002  -0.006420   0.608121  -0.005771  -0.000209
    17  H    0.000000   0.000000  -0.000172  -0.005771   0.598249  -0.005791
    18  H   -0.000000  -0.000000   0.000015  -0.000209  -0.005791   0.609504
    19  H    0.000024   0.000024  -0.000177   0.000015  -0.000156  -0.007055
             19
     1  C   -0.000018
     2  C   -0.000259
     3  O   -0.001121
     4  C   -0.041501
     5  C    0.007462
     6  C    0.000021
     7  C    0.005481
     8  C   -0.042733
     9  C    0.347916
    10  H    0.000000
    11  H    0.000010
    12  H    0.000010
    13  H    0.000024
    14  H    0.000024
    15  H   -0.000177
    16  H    0.000015
    17  H   -0.000156
    18  H   -0.007055
    19  H    0.608101
 Mulliken atomic charges:
              1
     1  C   -0.460582
     2  C   -0.044876
     3  O   -0.453125
     4  C    0.354827
     5  C   -0.197011
     6  C   -0.168584
     7  C   -0.107159
     8  C   -0.162119
     9  C   -0.190372
    10  H    0.154869
    11  H    0.168470
    12  H    0.168475
    13  H    0.161920
    14  H    0.161901
    15  H    0.121658
    16  H    0.118369
    17  H    0.131249
    18  H    0.118136
    19  H    0.123955
 Sum of Mulliken atomic charges =  -0.00000
 Mulliken charges with hydrogens summed into heavy atoms:
              1
     1  C    0.031231
     2  C    0.278945
     3  O   -0.453125
     4  C    0.354827
     5  C   -0.075354
     6  C   -0.050216
     7  C    0.024090
     8  C   -0.043983
     9  C   -0.066416
 Sum of Mulliken charges with hydrogens summed into heavy atoms =  -0.00000
 Electronic spatial extent (au):  <R**2>=           1477.9963
 Charge=              0.0000 electrons
 Dipole moment (field-independent basis, Debye):
    X=             -2.2955    Y=              1.1137    Z=              0.0020  Tot=              2.5514
 Quadrupole moment (field-independent basis, Debye-Ang):
   XX=            -45.9800   YY=            -51.8791   ZZ=            -56.4020
   XY=             -1.9585   XZ=              0.0004   YZ=             -0.0026
 Traceless Quadrupole moment (field-independent basis, Debye-Ang):
   XX=              5.4404   YY=             -0.4587   ZZ=             -4.9817
   XY=             -1.9585   XZ=              0.0004   YZ=             -0.0026
 Octapole moment (field-independent basis, Debye-Ang**2):
  XXX=            -16.5579  YYY=             -1.4748  ZZZ=             -0.0071  XYY=             -2.4485
  XXY=              4.3038  XXZ=              0.0155  XZZ=            -10.9911  YZZ=             -0.7869
  YYZ=             -0.0018  XYZ=              0.0028
 Hexadecapole moment (field-independent basis, Debye-Ang**3):
 XXXX=          -1474.6840 YYYY=           -331.2169 ZZZZ=            -70.1886 XXXY=             -4.3694
 XXXZ=              0.0602 YYYX=             -0.4958 YYYZ=             -0.0036 ZZZX=              0.0028
 ZZZY=              0.0033 XXYY=           -311.5662 XXZZ=           -286.8292 YYZZ=            -75.2243
 XXYZ=              0.0012 YYXZ=              0.0080 ZZXY=              2.0749
 N-N= 4.183521970076D+02 E-N=-1.732964593670D+03  KE= 3.825982856691D+02
 No NMR shielding tensors so no spin-rotation constants.
 Leave Link  601 at Thu Sep 30 11:50:34 2021, MaxMem=  805306368 cpu:       0.6
 (Enter /sw/target/amd/app/gaussian/Gaussian09RevA.02_gcc-4.9.2/g09/l604.exe)
 Evaluate density.
 Using the total density.
 Monte-Carlo method of calculating molar volume:
 based on  0.001 e/bohr**3 density envelope.
 Number of points per bohr**3 =   20 CutOff= 1.00D-04
 Using the CI density.
 There are       361 points.  Will hold       361 in memory.
 LenV=   805224789 MDV=   805306368.
 Box volume = 5890.023 fraction occupied=0.244
 Integrated density= 6.3026084022345408D+01 error=-2.9739159776545918D+00
 Molar volume = 1435.795 bohr**3/mol (128.129 cm**3/mol)
 Recommended a0 for SCRF calculation =  4.58 angstrom (  8.65 bohr)
 Leave Link  604 at Thu Sep 30 11:50:35 2021, MaxMem=  805306368 cpu:       0.2
 (Enter /sw/target/amd/app/gaussian/Gaussian09RevA.02_gcc-4.9.2/g09/l607.exe)
 ******************************Gaussian NBO Version 3.1******************************
             N A T U R A L   A T O M I C   O R B I T A L   A N D
          N A T U R A L   B O N D   O R B I T A L   A N A L Y S I S
 ******************************Gaussian NBO Version 3.1******************************
       /RESON  / : Allow strongly delocalized NBO set

 Analyzing the CI density

 Job title: CCOc1ccccc1_conf_0                                              

 Storage needed:     73332 in NPA ( 805304373 available)


 NATURAL POPULATIONS:  Natural atomic orbital occupancies 
                                                          
   NAO  Atom  No  lang   Type(AO)    Occupancy
 --------------------------------------------
     1    C    1  S      Cor( 1S)     1.99945
     2    C    1  S      Val( 2S)     1.11285
     3    C    1  S      Ryd( 3S)     0.00051
     4    C    1  S      Ryd( 4S)     0.00001
     5    C    1  px     Val( 2p)     1.10233
     6    C    1  px     Ryd( 3p)     0.00163
     7    C    1  py     Val( 2p)     1.21947
     8    C    1  py     Ryd( 3p)     0.00163
     9    C    1  pz     Val( 2p)     1.25562
    10    C    1  pz     Ryd( 3p)     0.00136
    11    C    1  dxy    Ryd( 3d)     0.00088
    12    C    1  dxz    Ryd( 3d)     0.00017
    13    C    1  dyz    Ryd( 3d)     0.00108
    14    C    1  dx2y2  Ryd( 3d)     0.00029
    15    C    1  dz2    Ryd( 3d)     0.00073

    16    C    2  S      Cor( 1S)     1.99927
    17    C    2  S      Val( 2S)     1.03363
    18    C    2  S      Ryd( 3S)     0.00248
    19    C    2  S      Ryd( 4S)     0.00004
    20    C    2  px     Val( 2p)     0.88780
    21    C    2  px     Ryd( 3p)     0.00189
    22    C    2  py     Val( 2p)     0.94333
    23    C    2  py     Ryd( 3p)     0.00261
    24    C    2  pz     Val( 2p)     1.23671
    25    C    2  pz     Ryd( 3p)     0.00147
    26    C    2  dxy    Ryd( 3d)     0.00184
    27    C    2  dxz    Ryd( 3d)     0.00082
    28    C    2  dyz    Ryd( 3d)     0.00181
    29    C    2  dx2y2  Ryd( 3d)     0.00112
    30    C    2  dz2    Ryd( 3d)     0.00102

    31    O    3  S      Cor( 1S)     1.99974
    32    O    3  S      Val( 2S)     1.59912
    33    O    3  S      Ryd( 3S)     0.00109
    34    O    3  S      Ryd( 4S)     0.00009
    35    O    3  px     Val( 2p)     1.41826
    36    O    3  px     Ryd( 3p)     0.00111
    37    O    3  py     Val( 2p)     1.70604
    38    O    3  py     Ryd( 3p)     0.00231
    39    O    3  pz     Val( 2p)     1.69727
    40    O    3  pz     Ryd( 3p)     0.00237
    41    O    3  dxy    Ryd( 3d)     0.00135
    42    O    3  dxz    Ryd( 3d)     0.00058
    43    O    3  dyz    Ryd( 3d)     0.00138
    44    O    3  dx2y2  Ryd( 3d)     0.00132
    45    O    3  dz2    Ryd( 3d)     0.00073

    46    C    4  S      Cor( 1S)     1.99881
    47    C    4  S      Val( 2S)     0.84307
    48    C    4  S      Ryd( 3S)     0.00154
    49    C    4  S      Ryd( 4S)     0.00013
    50    C    4  px     Val( 2p)     0.75275
    51    C    4  px     Ryd( 3p)     0.00631
    52    C    4  py     Val( 2p)     1.07819
    53    C    4  py     Ryd( 3p)     0.00652
    54    C    4  pz     Val( 2p)     0.97704
    55    C    4  pz     Ryd( 3p)     0.00192
    56    C    4  dxy    Ryd( 3d)     0.00147
    57    C    4  dxz    Ryd( 3d)     0.00162
    58    C    4  dyz    Ryd( 3d)     0.00141
    59    C    4  dx2y2  Ryd( 3d)     0.00169
    60    C    4  dz2    Ryd( 3d)     0.00049

    61    C    5  S      Cor( 1S)     1.99906
    62    C    5  S      Val( 2S)     0.96063
    63    C    5  S      Ryd( 3S)     0.00062
    64    C    5  S      Ryd( 4S)     0.00005
    65    C    5  px     Val( 2p)     1.12408
    66    C    5  px     Ryd( 3p)     0.00369
    67    C    5  py     Val( 2p)     1.13092
    68    C    5  py     Ryd( 3p)     0.00405
    69    C    5  pz     Val( 2p)     1.10124
    70    C    5  pz     Ryd( 3p)     0.00586
    71    C    5  dxy    Ryd( 3d)     0.00082
    72    C    5  dxz    Ryd( 3d)     0.00059
    73    C    5  dyz    Ryd( 3d)     0.00047
    74    C    5  dx2y2  Ryd( 3d)     0.00056
    75    C    5  dz2    Ryd( 3d)     0.00047

    76    C    6  S      Cor( 1S)     1.99915
    77    C    6  S      Val( 2S)     0.95863
    78    C    6  S      Ryd( 3S)     0.00071
    79    C    6  S      Ryd( 4S)     0.00003
    80    C    6  px     Val( 2p)     1.06221
    81    C    6  px     Ryd( 3p)     0.00532
    82    C    6  py     Val( 2p)     1.17400
    83    C    6  py     Ryd( 3p)     0.00504
    84    C    6  pz     Val( 2p)     1.07735
    85    C    6  pz     Ryd( 3p)     0.00595
    86    C    6  dxy    Ryd( 3d)     0.00070
    87    C    6  dxz    Ryd( 3d)     0.00060
    88    C    6  dyz    Ryd( 3d)     0.00037
    89    C    6  dx2y2  Ryd( 3d)     0.00076
    90    C    6  dz2    Ryd( 3d)     0.00044

    91    C    7  S      Cor( 1S)     1.99911
    92    C    7  S      Val( 2S)     0.97392
    93    C    7  S      Ryd( 3S)     0.00053
    94    C    7  S      Ryd( 4S)     0.00003
    95    C    7  px     Val( 2p)     1.18558
    96    C    7  px     Ryd( 3p)     0.00467
    97    C    7  py     Val( 2p)     1.06321
    98    C    7  py     Ryd( 3p)     0.00472
    99    C    7  pz     Val( 2p)     0.92388
   100    C    7  pz     Ryd( 3p)     0.00255
   101    C    7  dxy    Ryd( 3d)     0.00070
   102    C    7  dxz    Ryd( 3d)     0.00033
   103    C    7  dyz    Ryd( 3d)     0.00099
   104    C    7  dx2y2  Ryd( 3d)     0.00089
   105    C    7  dz2    Ryd( 3d)     0.00044

   106    C    8  S      Cor( 1S)     1.99914
   107    C    8  S      Val( 2S)     0.96039
   108    C    8  S      Ryd( 3S)     0.00059
   109    C    8  S      Ryd( 4S)     0.00004
   110    C    8  px     Val( 2p)     1.10530
   111    C    8  px     Ryd( 3p)     0.00506
   112    C    8  py     Val( 2p)     1.13443
   113    C    8  py     Ryd( 3p)     0.00500
   114    C    8  pz     Val( 2p)     1.07434
   115    C    8  pz     Ryd( 3p)     0.00551
   116    C    8  dxy    Ryd( 3d)     0.00080
   117    C    8  dxz    Ryd( 3d)     0.00059
   118    C    8  dyz    Ryd( 3d)     0.00042
   119    C    8  dx2y2  Ryd( 3d)     0.00065
   120    C    8  dz2    Ryd( 3d)     0.00045

   121    C    9  S      Cor( 1S)     1.99907
   122    C    9  S      Val( 2S)     0.96137
   123    C    9  S      Ryd( 3S)     0.00083
   124    C    9  S      Ryd( 4S)     0.00004
   125    C    9  px     Val( 2p)     1.07795
   126    C    9  px     Ryd( 3p)     0.00543
   127    C    9  py     Val( 2p)     1.16121
   128    C    9  py     Ryd( 3p)     0.00434
   129    C    9  pz     Val( 2p)     1.09309
   130    C    9  pz     Ryd( 3p)     0.00684
   131    C    9  dxy    Ryd( 3d)     0.00085
   132    C    9  dxz    Ryd( 3d)     0.00065
   133    C    9  dyz    Ryd( 3d)     0.00040
   134    C    9  dx2y2  Ryd( 3d)     0.00054
   135    C    9  dz2    Ryd( 3d)     0.00046

   136    H   10  S      Val( 1S)     0.75904
   137    H   10  S      Ryd( 2S)     0.00066

   138    H   11  S      Val( 1S)     0.75817
   139    H   11  S      Ryd( 2S)     0.00129

   140    H   12  S      Val( 1S)     0.75816
   141    H   12  S      Ryd( 2S)     0.00129

   142    H   13  S      Val( 1S)     0.77444
   143    H   13  S      Ryd( 2S)     0.00262

   144    H   14  S      Val( 1S)     0.77446
   145    H   14  S      Ryd( 2S)     0.00261

   146    H   15  S      Val( 1S)     0.77385
   147    H   15  S      Ryd( 2S)     0.00097

   148    H   16  S      Val( 1S)     0.77185
   149    H   16  S      Ryd( 2S)     0.00087

   150    H   17  S      Val( 1S)     0.77018
   151    H   17  S      Ryd( 2S)     0.00086

   152    H   18  S      Val( 1S)     0.77109
   153    H   18  S      Ryd( 2S)     0.00083

   154    H   19  S      Val( 1S)     0.76422
   155    H   19  S      Ryd( 2S)     0.00128

 WARNING:  1 low occupancy (<1.9990e) core orbital  found on  C    4


 Summary of Natural Population Analysis:                  
                                                          
                                       Natural Population 
                Natural  -----------------------------------------------
    Atom  No    Charge         Core      Valence    Rydberg      Total
 -----------------------------------------------------------------------
      C    1   -0.69802      1.99945     4.69026    0.00830     6.69802
      C    2   -0.11584      1.99927     4.10147    0.01510     6.11584
      O    3   -0.43277      1.99974     6.42069    0.01234     8.43277
      C    4    0.32705      1.99881     3.65105    0.02309     5.67295
      C    5   -0.33309      1.99906     4.31686    0.01718     6.33309
      C    6   -0.29126      1.99915     4.27219    0.01992     6.29126
      C    7   -0.16155      1.99911     4.14660    0.01584     6.16155
      C    8   -0.29272      1.99914     4.27447    0.01911     6.29272
      C    9   -0.31306      1.99907     4.29362    0.02037     6.31306
      H   10    0.24030      0.00000     0.75904    0.00066     0.75970
      H   11    0.24054      0.00000     0.75817    0.00129     0.75946
      H   12    0.24055      0.00000     0.75816    0.00129     0.75945
      H   13    0.22294      0.00000     0.77444    0.00262     0.77706
      H   14    0.22293      0.00000     0.77446    0.00261     0.77707
      H   15    0.22518      0.00000     0.77385    0.00097     0.77482
      H   16    0.22728      0.00000     0.77185    0.00087     0.77272
      H   17    0.22896      0.00000     0.77018    0.00086     0.77104
      H   18    0.22808      0.00000     0.77109    0.00083     0.77192
      H   19    0.23451      0.00000     0.76422    0.00128     0.76549
 =======================================================================
   * Total *   -0.00000     17.99281    47.84266    0.16453    66.00000

                                 Natural Population      
 --------------------------------------------------------
   Core                      17.99281 ( 99.9601% of  18)
   Valence                   47.84266 ( 99.6722% of  48)
   Natural Minimal Basis     65.83547 ( 99.7507% of  66)
   Natural Rydberg Basis      0.16453 (  0.2493% of  66)
 --------------------------------------------------------

    Atom  No          Natural Electron Configuration
 ----------------------------------------------------------------------------
      C    1      [core]2S( 1.11)2p( 3.58)
      C    2      [core]2S( 1.03)2p( 3.07)3p( 0.01)3d( 0.01)
      O    3      [core]2S( 1.60)2p( 4.82)3p( 0.01)3d( 0.01)
      C    4      [core]2S( 0.84)2p( 2.81)3p( 0.01)3d( 0.01)
      C    5      [core]2S( 0.96)2p( 3.36)3p( 0.01)
      C    6      [core]2S( 0.96)2p( 3.31)3p( 0.02)
      C    7      [core]2S( 0.97)2p( 3.17)3p( 0.01)
      C    8      [core]2S( 0.96)2p( 3.31)3p( 0.02)
      C    9      [core]2S( 0.96)2p( 3.33)3p( 0.02)
      H   10            1S( 0.76)
      H   11            1S( 0.76)
      H   12            1S( 0.76)
      H   13            1S( 0.77)
      H   14            1S( 0.77)
      H   15            1S( 0.77)
      H   16            1S( 0.77)
      H   17            1S( 0.77)
      H   18            1S( 0.77)
      H   19            1S( 0.76)


 NBO analysis skipped by request.
 Leave Link  607 at Thu Sep 30 11:50:55 2021, MaxMem=  805306368 cpu:       9.4
 (Enter /sw/target/amd/app/gaussian/Gaussian09RevA.02_gcc-4.9.2/g09/l9999.exe)
 1\1\GINC-HERMITE\SP\RTD-B3LYP-FC\6-31G(d)\C8H10O1\JSCHLEINITZ\30-Sep-2
 021\0\\#p TD(NStates=10, Root=1) b3lyp/6-31G* volume pop=NPA density=c
 urrent Geom=AllCheck Guess=Read\\CCOc1ccccc1_conf_0\\0,1\C,0,3.1971463
 994,1.3710597418,-0.0247221794\C,0,4.6015832025,0.8487876243,0.2245896
 388\O,0,4.5453987148,-0.5751396789,0.1775993706\C,0,5.6949325251,-1.28
 59782063,0.3768206213\C,0,6.9499857224,-0.7172923969,0.6259586855\C,0,
 8.0580058659,-1.5501548923,0.8143635866\C,0,7.9313035141,-2.9359147241
 ,0.7577669358\C,0,6.6732170572,-3.4956632352,0.5082114681\C,0,5.562265
 8428,-2.6818206429,0.3188525604\H,0,3.1917781079,2.4661164771,0.001818
 3341\H,0,2.5070677561,1.0011098269,0.7400254926\H,0,2.8330732061,1.045
 0195917,-1.0040421342\H,0,4.972863314,1.1764510962,1.2065198283\H,0,5.
 29934531,1.2212597005,-0.5394955742\H,0,7.0754008109,0.358225831,0.674
 848085\H,0,9.0283279329,-1.0994699446,1.0072476629\H,0,8.7976091272,-3
 .574138054,0.9053773218\H,0,6.5568415717,-4.5754115939,0.4608089227\H,
 0,4.57928182,-3.0997538583,0.1243832392\\Version=AM64L-G09RevA.02\Stat
 e=1-A\HF=-386.0905771\RMSD=4.788e-09\Dipole=-0.3237054,0.9494626,-0.03
 68771\Quadrupole=0.2589928,3.3216749,-3.5806677,-2.1736339,0.6889549,-
 0.2389835\PG=C01 [X(C8H10O1)]\\@


 Fatherhood is pretending the present you love most is soap-on-a-rope.
 -- Bill Cosby
 Job cpu time:  0 days  1 hours  9 minutes 30.7 seconds.
 File lengths (MBytes):  RWF=     85 Int=      0 D2E=      0 Chk=     12 Scr=      1
 Normal termination of Gaussian 09 at Thu Sep 30 11:50:59 2021.
