 Entering Gaussian System, Link 0=g09
 Input=C8H7NO_9f83_conf_0.com
 Output=C8H7NO_9f83_conf_0.log
 Initial command:
 /sw/target/amd/app/gaussian/Gaussian09RevA.02_gcc-4.9.2/g09/l1.exe /home/jschleinitz/gaussian/Gau-3755388.inp -scrdir=/home/jschleinitz/gaussian/
 Entering Link 1 = /sw/target/amd/app/gaussian/Gaussian09RevA.02_gcc-4.9.2/g09/l1.exe PID=   3755390.
  
 Copyright (c) 1988,1990,1992,1993,1995,1998,2003,2009, Gaussian, Inc.
                  All Rights Reserved.
  
 This is part of the Gaussian(R) 09 program.  It is based on
 the Gaussian(R) 03 system (copyright 2003, Gaussian, Inc.),
 the Gaussian(R) 98 system (copyright 1998, Gaussian, Inc.),
 the Gaussian(R) 94 system (copyright 1995, Gaussian, Inc.),
 the Gaussian 92(TM) system (copyright 1992, Gaussian, Inc.),
 the Gaussian 90(TM) system (copyright 1990, Gaussian, Inc.),
 the Gaussian 88(TM) system (copyright 1988, Gaussian, Inc.),
 the Gaussian 86(TM) system (copyright 1986, Carnegie Mellon
 University), and the Gaussian 82(TM) system (copyright 1983,
 Carnegie Mellon University). Gaussian is a federally registered
 trademark of Gaussian, Inc.
  
 This software contains proprietary and confidential information,
 including trade secrets, belonging to Gaussian, Inc.
  
 This software is provided under written license and may be
 used, copied, transmitted, or stored only in accord with that
 written license.
  
 The following legend is applicable only to US Government
 contracts under FAR:
  
                    RESTRICTED RIGHTS LEGEND
  
 Use, reproduction and disclosure by the US Government is
 subject to restrictions as set forth in subparagraphs (a)
 and (c) of the Commercial Computer Software - Restricted
 Rights clause in FAR 52.227-19.
  
 Gaussian, Inc.
 340 Quinnipiac St., Bldg. 40, Wallingford CT 06492
  
  
 ---------------------------------------------------------------
 Warning -- This program may not be used in any manner that
 competes with the business of Gaussian, Inc. or will provide
 assistance to any competitor of Gaussian, Inc.  The licensee
 of this program is prohibited from giving any competitor of
 Gaussian, Inc. access to this program.  By using this program,
 the user acknowledges that Gaussian, Inc. is engaged in the
 business of creating and licensing software in the field of
 computational chemistry and represents and warrants to the
 licensee that it is not a competitor of Gaussian, Inc. and that
 it will not use this program in any manner prohibited above.
 ---------------------------------------------------------------
  

 Cite this work as:
 Gaussian 09, Revision A.02,
 M. J. Frisch, G. W. Trucks, H. B. Schlegel, G. E. Scuseria, 
 M. A. Robb, J. R. Cheeseman, G. Scalmani, V. Barone, B. Mennucci, 
 G. A. Petersson, H. Nakatsuji, M. Caricato, X. Li, H. P. Hratchian, 
 A. F. Izmaylov, J. Bloino, G. Zheng, J. L. Sonnenberg, M. Hada, 
 M. Ehara, K. Toyota, R. Fukuda, J. Hasegawa, M. Ishida, T. Nakajima, 
 Y. Honda, O. Kitao, H. Nakai, T. Vreven, J. A. Montgomery, Jr., 
 J. E. Peralta, F. Ogliaro, M. Bearpark, J. J. Heyd, E. Brothers, 
 K. N. Kudin, V. N. Staroverov, R. Kobayashi, J. Normand, 
 K. Raghavachari, A. Rendell, J. C. Burant, S. S. Iyengar, J. Tomasi, 
 M. Cossi, N. Rega, J. M. Millam, M. Klene, J. E. Knox, J. B. Cross, 
 V. Bakken, C. Adamo, J. Jaramillo, R. Gomperts, R. E. Stratmann, 
 O. Yazyev, A. J. Austin, R. Cammi, C. Pomelli, J. W. Ochterski, 
 R. L. Martin, K. Morokuma, V. G. Zakrzewski, G. A. Voth, 
 P. Salvador, J. J. Dannenberg, S. Dapprich, A. D. Daniels, 
 O. Farkas, J. B. Foresman, J. V. Ortiz, J. Cioslowski, 
 and D. J. Fox, Gaussian, Inc., Wallingford CT, 2009.
 
 ******************************************
 Gaussian 09:  AM64L-G09RevA.02 11-Jun-2009
                 4-Oct-2021 
 ******************************************
 %nproc=2
 Will use up to    2 processors via shared memory.
 %mem=4gb
 %chk=C8H7NO_9f83_conf_0.chk
 -----------------------------------
 #p opt b3lyp/6-31G* scf=(xqc,tight)
 -----------------------------------
 1/14=-1,18=20,19=15,26=3,38=1/1,3;
 2/9=110,12=2,17=6,18=5,40=1/2;
 3/5=1,6=6,7=1,11=2,16=1,25=1,30=1,71=1,74=-5/1,2,3;
 4//1;
 5/5=2,8=3,13=1,32=2,38=5/2,8;
 6/7=2,8=2,9=2,10=2,28=1/1;
 7//1,2,3,16;
 1/14=-1,18=20,19=15/3(2);
 2/9=110/2;
 99//99;
 2/9=110/2;
 3/5=1,6=6,7=1,11=2,16=1,25=1,30=1,71=1,74=-5/1,2,3;
 4/5=5,16=3/1;
 5/5=2,8=3,13=1,32=2,38=5/2,8;
 7//1,2,3,16;
 1/14=-1,18=20,19=15/3(-5);
 2/9=110/2;
 6/7=2,8=2,9=2,10=2,19=2,28=1/1;
 99/9=1/99;
 Leave Link    1 at Mon Oct  4 02:51:47 2021, MaxMem=  536870912 cpu:       0.1
 (Enter /sw/target/amd/app/gaussian/Gaussian09RevA.02_gcc-4.9.2/g09/l101.exe)
 ---------------------
 O=C=NCc1ccccc1_conf_0
 ---------------------
 Symbolic Z-matrix:
 Charge =  0 Multiplicity = 1
 O                     3.91841  -0.05554  -3.95976 
 C                     4.02267   0.66939  -3.04008 
 N                     4.11296   1.38396  -2.11496 
 C                     4.39055   0.68003  -0.85426 
 C                     5.86913   0.53908  -0.57474 
 C                     6.6768    1.67699  -0.43258 
 C                     8.04365   1.54839  -0.17957 
 C                     8.617     0.28307  -0.07043 
 C                     7.8238   -0.85431  -0.20856 
 C                     6.45564  -0.72836  -0.45634 
 H                     3.89524  -0.30186  -0.81907 
 H                     3.94498   1.2576   -0.03408 
 H                     6.24328   2.67107  -0.52342 
 H                     8.66201   2.43571  -0.07069 
 H                     9.68224   0.1831    0.12098 
 H                     8.27168  -1.84123  -0.1249 
 H                     5.85397  -1.62882  -0.55755 
 
 NAtoms=     17 NQM=     17 NQMF=      0 NMic=      0 NMicF=      0 NTot=     17.
                    Isotopes and Nuclear Properties:
 (Nuclear quadrupole moments (NQMom) in fm**2, nuclear magnetic moments (NMagM)
  in nuclear magnetons)

  Atom         1           2           3           4           5           6           7           8           9          10
 IAtWgt=          16          12          14          12          12          12          12          12          12          12
 AtmWgt=  15.9949146  12.0000000  14.0030740  12.0000000  12.0000000  12.0000000  12.0000000  12.0000000  12.0000000  12.0000000
 NucSpn=           0           0           2           0           0           0           0           0           0           0
 AtZEff=   0.0000000   0.0000000   0.0000000   0.0000000   0.0000000   0.0000000   0.0000000   0.0000000   0.0000000   0.0000000
 NQMom=    0.0000000   0.0000000   2.0440000   0.0000000   0.0000000   0.0000000   0.0000000   0.0000000   0.0000000   0.0000000
 NMagM=    0.0000000   0.0000000   0.4037610   0.0000000   0.0000000   0.0000000   0.0000000   0.0000000   0.0000000   0.0000000

  Atom        11          12          13          14          15          16          17
 IAtWgt=           1           1           1           1           1           1           1
 AtmWgt=   1.0078250   1.0078250   1.0078250   1.0078250   1.0078250   1.0078250   1.0078250
 NucSpn=           1           1           1           1           1           1           1
 AtZEff=   0.0000000   0.0000000   0.0000000   0.0000000   0.0000000   0.0000000   0.0000000
 NQMom=    0.0000000   0.0000000   0.0000000   0.0000000   0.0000000   0.0000000   0.0000000
 NMagM=    2.7928460   2.7928460   2.7928460   2.7928460   2.7928460   2.7928460   2.7928460
 Leave Link  101 at Mon Oct  4 02:51:48 2021, MaxMem=  536870912 cpu:       0.2
 (Enter /sw/target/amd/app/gaussian/Gaussian09RevA.02_gcc-4.9.2/g09/l103.exe)

 GradGradGradGradGradGradGradGradGradGradGradGradGradGradGradGradGradGrad
 Berny optimization.
 Initialization pass.
                           ----------------------------
                           !    Initial Parameters    !
                           ! (Angstroms and Degrees)  !
 --------------------------                            --------------------------
 ! Name  Definition              Value          Derivative Info.                !
 --------------------------------------------------------------------------------
 ! R1    R(1,2)                  1.1757         estimate D2E/DX2                !
 ! R2    R(2,3)                  1.1724         estimate D2E/DX2                !
 ! R3    R(3,4)                  1.4703         estimate D2E/DX2                !
 ! R4    R(4,5)                  1.5114         estimate D2E/DX2                !
 ! R5    R(4,11)                 1.1003         estimate D2E/DX2                !
 ! R6    R(4,12)                 1.0976         estimate D2E/DX2                !
 ! R7    R(5,6)                  1.4026         estimate D2E/DX2                !
 ! R8    R(5,10)                 1.4016         estimate D2E/DX2                !
 ! R9    R(6,7)                  1.396          estimate D2E/DX2                !
 ! R10   R(6,13)                 1.0883         estimate D2E/DX2                !
 ! R11   R(7,8)                  1.3934         estimate D2E/DX2                !
 ! R12   R(7,14)                 1.087          estimate D2E/DX2                !
 ! R13   R(8,9)                  1.3935         estimate D2E/DX2                !
 ! R14   R(8,15)                 1.0869         estimate D2E/DX2                !
 ! R15   R(9,10)                 1.3961         estimate D2E/DX2                !
 ! R16   R(9,16)                 1.087          estimate D2E/DX2                !
 ! R17   R(10,17)                1.0877         estimate D2E/DX2                !
 ! A1    A(2,3,4)              113.5348         estimate D2E/DX2                !
 ! A2    A(3,4,5)              112.8251         estimate D2E/DX2                !
 ! A3    A(3,4,11)             111.6946         estimate D2E/DX2                !
 ! A4    A(3,4,12)             108.1882         estimate D2E/DX2                !
 ! A5    A(5,4,11)             110.5637         estimate D2E/DX2                !
 ! A6    A(5,4,12)             107.9391         estimate D2E/DX2                !
 ! A7    A(11,4,12)            105.2439         estimate D2E/DX2                !
 ! A8    A(4,5,6)              120.4259         estimate D2E/DX2                !
 ! A9    A(4,5,10)             120.6205         estimate D2E/DX2                !
 ! A10   A(6,5,10)             118.9535         estimate D2E/DX2                !
 ! A11   A(5,6,7)              120.4932         estimate D2E/DX2                !
 ! A12   A(5,6,13)             120.2112         estimate D2E/DX2                !
 ! A13   A(7,6,13)             119.295          estimate D2E/DX2                !
 ! A14   A(6,7,8)              120.0473         estimate D2E/DX2                !
 ! A15   A(6,7,14)             119.9962         estimate D2E/DX2                !
 ! A16   A(8,7,14)             119.9562         estimate D2E/DX2                !
 ! A17   A(7,8,9)              119.9455         estimate D2E/DX2                !
 ! A18   A(7,8,15)             120.0381         estimate D2E/DX2                !
 ! A19   A(9,8,15)             120.0164         estimate D2E/DX2                !
 ! A20   A(8,9,10)             120.1177         estimate D2E/DX2                !
 ! A21   A(8,9,16)             119.9254         estimate D2E/DX2                !
 ! A22   A(10,9,16)            119.9567         estimate D2E/DX2                !
 ! A23   A(5,10,9)             120.4415         estimate D2E/DX2                !
 ! A24   A(5,10,17)            120.617          estimate D2E/DX2                !
 ! A25   A(9,10,17)            118.9415         estimate D2E/DX2                !
 ! A26   L(1,2,3,4,-1)         179.5564         estimate D2E/DX2                !
 ! A27   L(1,2,3,4,-2)         181.2345         estimate D2E/DX2                !
 ! D1    D(2,3,4,5)             90.6464         estimate D2E/DX2                !
 ! D2    D(2,3,4,11)           -34.6345         estimate D2E/DX2                !
 ! D3    D(2,3,4,12)          -150.011          estimate D2E/DX2                !
 ! D4    D(3,4,5,6)             60.6766         estimate D2E/DX2                !
 ! D5    D(3,4,5,10)          -119.1853         estimate D2E/DX2                !
 ! D6    D(11,4,5,6)          -173.4318         estimate D2E/DX2                !
 ! D7    D(11,4,5,10)            6.7063         estimate D2E/DX2                !
 ! D8    D(12,4,5,6)           -58.8101         estimate D2E/DX2                !
 ! D9    D(12,4,5,10)          121.328          estimate D2E/DX2                !
 ! D10   D(4,5,6,7)           -179.7482         estimate D2E/DX2                !
 ! D11   D(4,5,6,13)            -0.0381         estimate D2E/DX2                !
 ! D12   D(10,5,6,7)             0.116          estimate D2E/DX2                !
 ! D13   D(10,5,6,13)          179.8261         estimate D2E/DX2                !
 ! D14   D(4,5,10,9)           179.4929         estimate D2E/DX2                !
 ! D15   D(4,5,10,17)           -0.3954         estimate D2E/DX2                !
 ! D16   D(6,5,10,9)            -0.3711         estimate D2E/DX2                !
 ! D17   D(6,5,10,17)          179.7406         estimate D2E/DX2                !
 ! D18   D(5,6,7,8)              0.201          estimate D2E/DX2                !
 ! D19   D(5,6,7,14)          -179.9919         estimate D2E/DX2                !
 ! D20   D(13,6,7,8)          -179.5117         estimate D2E/DX2                !
 ! D21   D(13,6,7,14)            0.2954         estimate D2E/DX2                !
 ! D22   D(6,7,8,9)             -0.265          estimate D2E/DX2                !
 ! D23   D(6,7,8,15)           179.6554         estimate D2E/DX2                !
 ! D24   D(14,7,8,9)           179.9278         estimate D2E/DX2                !
 ! D25   D(14,7,8,15)           -0.1518         estimate D2E/DX2                !
 ! D26   D(7,8,9,10)             0.0106         estimate D2E/DX2                !
 ! D27   D(7,8,9,16)           179.905          estimate D2E/DX2                !
 ! D28   D(15,8,9,10)         -179.9098         estimate D2E/DX2                !
 ! D29   D(15,8,9,16)           -0.0154         estimate D2E/DX2                !
 ! D30   D(8,9,10,5)             0.3105         estimate D2E/DX2                !
 ! D31   D(8,9,10,17)         -179.7994         estimate D2E/DX2                !
 ! D32   D(16,9,10,5)         -179.5839         estimate D2E/DX2                !
 ! D33   D(16,9,10,17)           0.3063         estimate D2E/DX2                !
 --------------------------------------------------------------------------------
 Trust Radius=3.00D-01 FncErr=1.00D-07 GrdErr=1.00D-06
 Number of steps in this run=  87 maximum allowed number of steps= 102.
 GradGradGradGradGradGradGradGradGradGradGradGradGradGradGradGradGradGrad

 Leave Link  103 at Mon Oct  4 02:51:49 2021, MaxMem=  536870912 cpu:       0.0
 (Enter /sw/target/amd/app/gaussian/Gaussian09RevA.02_gcc-4.9.2/g09/l202.exe)
                          Input orientation:                          
 ---------------------------------------------------------------------
 Center     Atomic      Atomic             Coordinates (Angstroms)
 Number     Number       Type             X           Y           Z
 ---------------------------------------------------------------------
      1          8           0        3.918412   -0.055540   -3.959760
      2          6           0        4.022672    0.669391   -3.040080
      3          7           0        4.112961    1.383958   -2.114963
      4          6           0        4.390549    0.680035   -0.854263
      5          6           0        5.869130    0.539083   -0.574744
      6          6           0        6.676804    1.676995   -0.432576
      7          6           0        8.043653    1.548394   -0.179574
      8          6           0        8.617004    0.283070   -0.070434
      9          6           0        7.823798   -0.854308   -0.208561
     10          6           0        6.455639   -0.728362   -0.456335
     11          1           0        3.895242   -0.301862   -0.819074
     12          1           0        3.944981    1.257595   -0.034078
     13          1           0        6.243281    2.671066   -0.523417
     14          1           0        8.662007    2.435712   -0.070692
     15          1           0        9.682242    0.183097    0.120985
     16          1           0        8.271684   -1.841234   -0.124898
     17          1           0        5.853974   -1.628823   -0.557549
 ---------------------------------------------------------------------
                    Distance matrix (angstroms):
                    1          2          3          4          5
     1  O    0.000000
     2  C    1.175672   0.000000
     3  N    2.348037   1.172434   0.000000
     4  C    3.226158   2.216584   1.470350   0.000000
     5  C    3.951861   3.082899   2.483992   1.511357   0.000000
     6  C    4.801190   3.854706   3.080518   2.529567   1.402638
     7  C    5.820654   5.012327   4.384417   3.815026   2.429696
     8  C    6.108868   5.484152   5.067391   4.316814   2.805474
     9  C    5.473715   4.978726   4.734397   3.815539   2.428241
    10  C    4.377693   3.814286   3.563858   2.531112   1.401582
    11  H    3.150416   2.427435   2.137457   1.100313   2.159425
    12  H    4.139566   3.063996   2.091475   1.097638   2.123894
    13  H    4.964660   3.907864   2.954307   2.739759   2.165174
    14  H    6.620640   5.784512   5.096965   4.684201   3.413420
    15  H    7.066198   6.500734   6.120329   5.403709   3.892376
    16  H    6.070078   5.731983   5.626473   4.685294   3.411823
    17  H    4.218609   3.846871   3.812285   2.749632   2.168027
                    6          7          8          9         10
     6  C    0.000000
     7  C    1.396002   0.000000
     8  C    2.416308   1.393445   0.000000
     9  C    2.788058   2.412914   1.393515   0.000000
    10  C    2.415620   2.789624   2.417315   1.396106   0.000000
    11  H    3.435454   4.587126   4.816393   4.013910   2.620900
    12  H    2.792410   4.111550   4.772715   4.419932   3.228890
    13  H    1.088289   2.149409   3.397393   3.876265   3.406715
    14  H    2.155839   1.086991   2.153113   3.397916   3.876615
    15  H    3.401590   2.153915   1.086908   2.153747   3.402209
    16  H    3.875079   3.397729   2.152876   1.087025   2.155540
    17  H    3.408973   3.877147   3.395136   2.145197   1.087693
                   11         12         13         14         15
    11  H    0.000000
    12  H    1.746596   0.000000
    13  H    3.799869   2.742178   0.000000
    14  H    5.547651   4.862060   2.471960   0.000000
    15  H    5.882879   5.839071   4.293215   2.480301   0.000000
    16  H    4.690926   5.322720   4.963274   4.295062   2.479525
    17  H    2.380305   3.499955   4.317612   4.964124   4.289418
                   16         17
    16  H    0.000000
    17  H    2.465285   0.000000
 Stoichiometry    C8H7NO
 Framework group  C1[X(C8H7NO)]
 Deg. of freedom    45
 Full point group                 C1      NOp   1
 Largest Abelian subgroup         C1      NOp   1
 Largest concise Abelian subgroup C1      NOp   1
                         Standard orientation:                         
 ---------------------------------------------------------------------
 Center     Atomic      Atomic             Coordinates (Angstroms)
 Number     Number       Type             X           Y           Z
 ---------------------------------------------------------------------
      1          8           0        3.240900    0.905160   -0.932049
      2          6           0        2.657454    0.014883   -0.432848
      3          7           0        2.082145   -0.868094    0.080935
      4          6           0        1.119908   -0.426930    1.101427
      5          6           0       -0.261598   -0.184270    0.538617
      6          6           0       -0.973531   -1.227663   -0.071199
      7          6           0       -2.247543   -1.003821   -0.596186
      8          6           0       -2.820320    0.264224   -0.520853
      9          6           0       -2.122585    1.307855    0.084032
     10          6           0       -0.850526    1.085309    0.614551
     11          1           0        1.478791    0.461950    1.641598
     12          1           0        1.041632   -1.214654    1.861805
     13          1           0       -0.534614   -2.220865   -0.143818
     14          1           0       -2.792131   -1.818297   -1.066933
     15          1           0       -3.809949    0.439675   -0.934641
     16          1           0       -2.569078    2.297296    0.141245
     17          1           0       -0.324430    1.912750    1.085337
 ---------------------------------------------------------------------
 Rotational constants (GHZ):      3.0294133      0.7802690      0.7185028
 Leave Link  202 at Mon Oct  4 02:51:49 2021, MaxMem=  536870912 cpu:       0.0
 (Enter /sw/target/amd/app/gaussian/Gaussian09RevA.02_gcc-4.9.2/g09/l301.exe)
 Standard basis: 6-31G(d) (6D, 7F)
 Ernie: Thresh=  0.10000D-02 Tol=  0.10000D-05 Strict=F.
 There are   164 symmetry adapted basis functions of A   symmetry.
 Integral buffers will be    131072 words long.
 Raffenetti 2 integral format.
 Two-electron integral symmetry is turned on.
   164 basis functions,   308 primitive gaussians,   164 cartesian basis functions
    35 alpha electrons       35 beta electrons
       nuclear repulsion energy       457.6937525138 Hartrees.
 IExCor=  402 DFT=T Ex+Corr=B3LYP ExCW=0 ScaHFX=  0.200000
 ScaDFX=  0.800000  0.720000  1.000000  0.810000 ScalE2=  1.000000  1.000000
 IRadAn=      0 IRanWt=     -1 IRanGd=            0 ICorTp=0
 NAtoms=   17 NActive=   17 NUniq=   17 SFac= 7.50D-01 NAtFMM=   80 NAOKFM=F Big=F
 Leave Link  301 at Mon Oct  4 02:51:49 2021, MaxMem=  536870912 cpu:       0.1
 (Enter /sw/target/amd/app/gaussian/Gaussian09RevA.02_gcc-4.9.2/g09/l302.exe)
 NPDir=0 NMtPBC=     1 NCelOv=     1 NCel=       1 NClECP=     1 NCelD=      1
         NCelK=      1 NCelE2=     1 NClLst=     1 CellRange=     0.0.
 One-electron integrals computed using PRISM.
 NBasis=   164 RedAO= T  NBF=   164
 NBsUse=   164 1.00D-06 NBFU=   164
 Precomputing XC quadrature grid using
 IXCGrd= 2 IRadAn=           0 IRanWt=          -1 IRanGd=           0 AccXCQ= 1.00D-10.
 NRdTot=    1061 NPtTot=      134570 NUsed=      142231 NTot=      142263
 NSgBfM=   163   164   164   164   164 NAtAll=    17    17.
 Leave Link  302 at Mon Oct  4 02:51:53 2021, MaxMem=  536870912 cpu:       0.9
 (Enter /sw/target/amd/app/gaussian/Gaussian09RevA.02_gcc-4.9.2/g09/l303.exe)
 DipDrv:  MaxL=1.
 Leave Link  303 at Mon Oct  4 02:51:54 2021, MaxMem=  536870912 cpu:       0.1
 (Enter /sw/target/amd/app/gaussian/Gaussian09RevA.02_gcc-4.9.2/g09/l401.exe)
 Harris functional with IExCor=  402 diagonalized for initial guess.
 ExpMin= 1.61D-01 ExpMax= 5.48D+03 ExpMxC= 8.25D+02 IAcc=1 IRadAn=         1 AccDes= 0.00D+00
 HarFok:  IExCor=  402 AccDes= 0.00D+00 IRadAn=         1 IDoV= 1
 ScaDFX=  1.000000  1.000000  1.000000  1.000000
 FoFCou: FMM=F IPFlag=           0 FMFlag=      100000 FMFlg1=           0
         NFxFlg=           0 DoJE=T BraDBF=F KetDBF=T FulRan=T
         Omega=  0.000000  0.000000  1.000000  0.000000  0.000000 ICntrl=     500 IOpCl=  0
         NMat0=    1 NMatS0=    1 NMatT0=    0 NMatD0=    1 NMtDS0=    0 NMtDT0=    0
         I1Cent=           4 NGrid=           0.
 Petite list used in FoFCou.
 Harris En= -439.085439429853    
 Initial guess orbital symmetries:
       Occupied  (A) (A) (A) (A) (A) (A) (A) (A) (A) (A) (A) (A)
                 (A) (A) (A) (A) (A) (A) (A) (A) (A) (A) (A) (A)
                 (A) (A) (A) (A) (A) (A) (A) (A) (A) (A) (A)
       Virtual   (A) (A) (A) (A) (A) (A) (A) (A) (A) (A) (A) (A)
                 (A) (A) (A) (A) (A) (A) (A) (A) (A) (A) (A) (A)
                 (A) (A) (A) (A) (A) (A) (A) (A) (A) (A) (A) (A)
                 (A) (A) (A) (A) (A) (A) (A) (A) (A) (A) (A) (A)
                 (A) (A) (A) (A) (A) (A) (A) (A) (A) (A) (A) (A)
                 (A) (A) (A) (A) (A) (A) (A) (A) (A) (A) (A) (A)
                 (A) (A) (A) (A) (A) (A) (A) (A) (A) (A) (A) (A)
                 (A) (A) (A) (A) (A) (A) (A) (A) (A) (A) (A) (A)
                 (A) (A) (A) (A) (A) (A) (A) (A) (A) (A) (A) (A)
                 (A) (A) (A) (A) (A) (A) (A) (A) (A) (A) (A) (A)
                 (A) (A) (A) (A) (A) (A) (A) (A) (A)
 The electronic state of the initial guess is 1-A.
 Leave Link  401 at Mon Oct  4 02:52:06 2021, MaxMem=  536870912 cpu:       4.1
 (Enter /sw/target/amd/app/gaussian/Gaussian09RevA.02_gcc-4.9.2/g09/l502.exe)
 Closed shell SCF:
 Requested convergence on RMS density matrix=1.00D-08 within  64 cycles.
 Requested convergence on MAX density matrix=1.00D-06.
 Requested convergence on             energy=1.00D-06.
 No special actions if energy rises.
 Using DIIS extrapolation, IDIIS=  1040.
 Integral symmetry usage will be decided dynamically.
       142065 words used for storage of precomputed grid.
 Keep R1 ints in memory in canonical form, NReq=94013720.
 IEnd=      230511 IEndB=      230511 NGot=   536870912 MDV=   445134443
 LenX=   445134443 LenY=   445107106
 Symmetry not used in FoFDir.
 MinBra= 0 MaxBra= 2 Meth= 1.
 IRaf=       0 NMat=   1 IRICut=       1 DoRegI=T DoRafI=F ISym2E= 0 JSym2E=0.
 Integral accuracy reduced to 1.0D-05 until final iterations.

 Cycle   1  Pass 0  IDiag  1:
 E= -438.792757119004    
 DIIS: error= 4.77D-02 at cycle   1 NSaved=   1.
 NSaved= 1 IEnMin= 1 EnMin= -438.792757119004     IErMin= 1 ErrMin= 4.77D-02
 ErrMax= 4.77D-02 EMaxC= 1.00D-01 BMatC= 2.34D-01 BMatP= 2.34D-01
 IDIUse=3 WtCom= 5.23D-01 WtEn= 4.77D-01
 Coeff-Com:  0.100D+01
 Coeff-En:   0.100D+01
 Coeff:      0.100D+01
 Gap=     0.236 Goal=   None    Shift=    0.000
 GapD=    0.236 DampG=1.000 DampE=0.500 DampFc=0.5000 IDamp=-1.
 Damping current iteration by 5.00D-01
 RMSDP=6.54D-03 MaxDP=1.17D-01              OVMax= 1.51D-01

 Cycle   2  Pass 0  IDiag  1:
 E= -438.892165441235     Delta-E=       -0.099408322230 Rises=F Damp=T
 DIIS: error= 6.70D-03 at cycle   2 NSaved=   2.
 NSaved= 2 IEnMin= 2 EnMin= -438.892165441235     IErMin= 2 ErrMin= 6.70D-03
 ErrMax= 6.70D-03 EMaxC= 1.00D-01 BMatC= 1.72D-02 BMatP= 2.34D-01
 IDIUse=3 WtCom= 9.33D-01 WtEn= 6.70D-02
 Coeff-Com:  0.101D+00 0.899D+00
 Coeff-En:   0.139D+00 0.861D+00
 Coeff:      0.104D+00 0.896D+00
 Gap=     0.260 Goal=   None    Shift=    0.000
 RMSDP=1.44D-03 MaxDP=4.11D-02 DE=-9.94D-02 OVMax= 9.79D-02

 Cycle   3  Pass 0  IDiag  1:
 E= -439.016949321041     Delta-E=       -0.124783879807 Rises=F Damp=F
 DIIS: error= 7.22D-03 at cycle   3 NSaved=   3.
 NSaved= 3 IEnMin= 3 EnMin= -439.016949321041     IErMin= 2 ErrMin= 6.70D-03
 ErrMax= 7.22D-03 EMaxC= 1.00D-01 BMatC= 1.02D-02 BMatP= 1.72D-02
 IDIUse=3 WtCom= 9.28D-01 WtEn= 7.22D-02
 Coeff-Com: -0.374D-02 0.426D+00 0.578D+00
 Coeff-En:   0.000D+00 0.000D+00 0.100D+01
 Coeff:     -0.347D-02 0.395D+00 0.609D+00
 Gap=     0.236 Goal=   None    Shift=    0.000
 RMSDP=6.48D-04 MaxDP=2.40D-02 DE=-1.25D-01 OVMax= 2.62D-02

 Cycle   4  Pass 0  IDiag  1:
 E= -439.023785740114     Delta-E=       -0.006836419073 Rises=F Damp=F
 DIIS: error= 2.67D-03 at cycle   4 NSaved=   4.
 NSaved= 4 IEnMin= 4 EnMin= -439.023785740114     IErMin= 4 ErrMin= 2.67D-03
 ErrMax= 2.67D-03 EMaxC= 1.00D-01 BMatC= 2.06D-03 BMatP= 1.02D-02
 IDIUse=3 WtCom= 9.73D-01 WtEn= 2.67D-02
 Coeff-Com: -0.605D-02 0.936D-01 0.334D+00 0.578D+00
 Coeff-En:   0.000D+00 0.000D+00 0.165D+00 0.835D+00
 Coeff:     -0.589D-02 0.911D-01 0.330D+00 0.585D+00
 Gap=     0.235 Goal=   None    Shift=    0.000
 RMSDP=3.03D-04 MaxDP=8.30D-03 DE=-6.84D-03 OVMax= 9.59D-03

 Cycle   5  Pass 0  IDiag  1:
 E= -439.025303943772     Delta-E=       -0.001518203658 Rises=F Damp=F
 DIIS: error= 1.24D-03 at cycle   5 NSaved=   5.
 NSaved= 5 IEnMin= 5 EnMin= -439.025303943772     IErMin= 5 ErrMin= 1.24D-03
 ErrMax= 1.24D-03 EMaxC= 1.00D-01 BMatC= 2.80D-04 BMatP= 2.06D-03
 IDIUse=3 WtCom= 9.88D-01 WtEn= 1.24D-02
 Coeff-Com: -0.339D-02 0.283D-01 0.162D+00 0.361D+00 0.452D+00
 Coeff-En:   0.000D+00 0.000D+00 0.000D+00 0.469D-01 0.953D+00
 Coeff:     -0.335D-02 0.280D-01 0.160D+00 0.357D+00 0.459D+00
 Gap=     0.235 Goal=   None    Shift=    0.000
 RMSDP=1.14D-04 MaxDP=3.62D-03 DE=-1.52D-03 OVMax= 7.04D-03

 Cycle   6  Pass 0  IDiag  1:
 E= -439.025492640129     Delta-E=       -0.000188696357 Rises=F Damp=F
 DIIS: error= 6.12D-04 at cycle   6 NSaved=   6.
 NSaved= 6 IEnMin= 6 EnMin= -439.025492640129     IErMin= 6 ErrMin= 6.12D-04
 ErrMax= 6.12D-04 EMaxC= 1.00D-01 BMatC= 6.13D-05 BMatP= 2.80D-04
 IDIUse=3 WtCom= 9.94D-01 WtEn= 6.12D-03
 Coeff-Com: -0.132D-02 0.426D-02 0.596D-01 0.160D+00 0.333D+00 0.445D+00
 Coeff-En:   0.000D+00 0.000D+00 0.000D+00 0.000D+00 0.208D+00 0.792D+00
 Coeff:     -0.131D-02 0.424D-02 0.592D-01 0.159D+00 0.332D+00 0.447D+00
 Gap=     0.235 Goal=   None    Shift=    0.000
 RMSDP=4.33D-05 MaxDP=1.27D-03 DE=-1.89D-04 OVMax= 2.51D-03

 Cycle   7  Pass 0  IDiag  1:
 E= -439.025543739819     Delta-E=       -0.000051099690 Rises=F Damp=F
 DIIS: error= 9.05D-05 at cycle   7 NSaved=   7.
 NSaved= 7 IEnMin= 7 EnMin= -439.025543739819     IErMin= 7 ErrMin= 9.05D-05
 ErrMax= 9.05D-05 EMaxC= 1.00D-01 BMatC= 1.46D-06 BMatP= 6.13D-05
 IDIUse=1 WtCom= 1.00D+00 WtEn= 0.00D+00
 Coeff-Com: -0.512D-03 0.712D-03 0.221D-01 0.652D-01 0.149D+00 0.238D+00
 Coeff-Com:  0.525D+00
 Coeff:     -0.512D-03 0.712D-03 0.221D-01 0.652D-01 0.149D+00 0.238D+00
 Coeff:      0.525D+00
 Gap=     0.235 Goal=   None    Shift=    0.000
 RMSDP=9.65D-06 MaxDP=2.43D-04 DE=-5.11D-05 OVMax= 6.16D-04

 Initial convergence to 1.0D-05 achieved.  Increase integral accuracy.
 Cycle   8  Pass 1  IDiag  1:
 E= -439.025529612521     Delta-E=        0.000014127298 Rises=F Damp=F
 DIIS: error= 5.05D-05 at cycle   1 NSaved=   1.
 NSaved= 1 IEnMin= 1 EnMin= -439.025529612521     IErMin= 1 ErrMin= 5.05D-05
 ErrMax= 5.05D-05 EMaxC= 1.00D-01 BMatC= 2.47D-07 BMatP= 2.47D-07
 IDIUse=1 WtCom= 1.00D+00 WtEn= 0.00D+00
 Coeff-Com:  0.100D+01
 Coeff:      0.100D+01
 Gap=     0.235 Goal=   None    Shift=    0.000
 RMSDP=9.65D-06 MaxDP=2.43D-04 DE= 1.41D-05 OVMax= 6.23D-04

 Cycle   9  Pass 1  IDiag  1:
 E= -439.025528992200     Delta-E=        0.000000620321 Rises=F Damp=F
 DIIS: error= 1.02D-04 at cycle   2 NSaved=   2.
 NSaved= 2 IEnMin= 1 EnMin= -439.025529612521     IErMin= 1 ErrMin= 5.05D-05
 ErrMax= 1.02D-04 EMaxC= 1.00D-01 BMatC= 7.89D-07 BMatP= 2.47D-07
 IDIUse=3 WtCom= 4.98D-01 WtEn= 5.02D-01
 Coeff-Com:  0.647D+00 0.353D+00
 Coeff-En:   0.725D+00 0.275D+00
 Coeff:      0.686D+00 0.314D+00
 Gap=     0.235 Goal=   None    Shift=    0.000
 RMSDP=5.47D-06 MaxDP=1.26D-04 DE= 6.20D-07 OVMax= 3.85D-04

 Cycle  10  Pass 1  IDiag  1:
 E= -439.025529902425     Delta-E=       -0.000000910225 Rises=F Damp=F
 DIIS: error= 7.19D-06 at cycle   3 NSaved=   3.
 NSaved= 3 IEnMin= 3 EnMin= -439.025529902425     IErMin= 3 ErrMin= 7.19D-06
 ErrMax= 7.19D-06 EMaxC= 1.00D-01 BMatC= 6.08D-09 BMatP= 2.47D-07
 IDIUse=1 WtCom= 1.00D+00 WtEn= 0.00D+00
 Coeff-Com:  0.127D+00 0.130D-01 0.860D+00
 Coeff:      0.127D+00 0.130D-01 0.860D+00
 Gap=     0.235 Goal=   None    Shift=    0.000
 RMSDP=8.31D-07 MaxDP=2.39D-05 DE=-9.10D-07 OVMax= 3.77D-05

 Cycle  11  Pass 1  IDiag  1:
 E= -439.025529902863     Delta-E=       -0.000000000438 Rises=F Damp=F
 DIIS: error= 7.23D-06 at cycle   4 NSaved=   4.
 NSaved= 4 IEnMin= 4 EnMin= -439.025529902863     IErMin= 3 ErrMin= 7.19D-06
 ErrMax= 7.23D-06 EMaxC= 1.00D-01 BMatC= 7.18D-09 BMatP= 6.08D-09
 IDIUse=1 WtCom= 1.00D+00 WtEn= 0.00D+00
 Coeff-Com:  0.499D-02-0.390D-01 0.640D+00 0.394D+00
 Coeff:      0.499D-02-0.390D-01 0.640D+00 0.394D+00
 Gap=     0.235 Goal=   None    Shift=    0.000
 RMSDP=4.65D-07 MaxDP=1.40D-05 DE=-4.38D-10 OVMax= 2.79D-05

 Cycle  12  Pass 1  IDiag  1:
 E= -439.025529908623     Delta-E=       -0.000000005760 Rises=F Damp=F
 DIIS: error= 1.23D-06 at cycle   5 NSaved=   5.
 NSaved= 5 IEnMin= 5 EnMin= -439.025529908623     IErMin= 5 ErrMin= 1.23D-06
 ErrMax= 1.23D-06 EMaxC= 1.00D-01 BMatC= 3.72D-10 BMatP= 6.08D-09
 IDIUse=1 WtCom= 1.00D+00 WtEn= 0.00D+00
 Coeff-Com: -0.116D-01-0.266D-01 0.311D+00 0.245D+00 0.483D+00
 Coeff:     -0.116D-01-0.266D-01 0.311D+00 0.245D+00 0.483D+00
 Gap=     0.235 Goal=   None    Shift=    0.000
 RMSDP=1.18D-07 MaxDP=3.85D-06 DE=-5.76D-09 OVMax= 5.32D-06

 Cycle  13  Pass 1  IDiag  1:
 E= -439.025529908922     Delta-E=       -0.000000000299 Rises=F Damp=F
 DIIS: error= 1.77D-07 at cycle   6 NSaved=   6.
 NSaved= 6 IEnMin= 6 EnMin= -439.025529908922     IErMin= 6 ErrMin= 1.77D-07
 ErrMax= 1.77D-07 EMaxC= 1.00D-01 BMatC= 1.28D-11 BMatP= 3.72D-10
 IDIUse=1 WtCom= 1.00D+00 WtEn= 0.00D+00
 Coeff-Com: -0.604D-02-0.112D-01 0.120D+00 0.101D+00 0.245D+00 0.552D+00
 Coeff:     -0.604D-02-0.112D-01 0.120D+00 0.101D+00 0.245D+00 0.552D+00
 Gap=     0.235 Goal=   None    Shift=    0.000
 RMSDP=2.17D-08 MaxDP=5.98D-07 DE=-2.99D-10 OVMax= 1.03D-06

 Cycle  14  Pass 1  IDiag  1:
 E= -439.025529908943     Delta-E=       -0.000000000021 Rises=F Damp=F
 DIIS: error= 7.11D-08 at cycle   7 NSaved=   7.
 NSaved= 7 IEnMin= 7 EnMin= -439.025529908943     IErMin= 7 ErrMin= 7.11D-08
 ErrMax= 7.11D-08 EMaxC= 1.00D-01 BMatC= 1.17D-12 BMatP= 1.28D-11
 IDIUse=1 WtCom= 1.00D+00 WtEn= 0.00D+00
 Coeff-Com: -0.137D-02-0.203D-02 0.189D-01 0.174D-01 0.536D-01 0.268D+00
 Coeff-Com:  0.646D+00
 Coeff:     -0.137D-02-0.203D-02 0.189D-01 0.174D-01 0.536D-01 0.268D+00
 Coeff:      0.646D+00
 Gap=     0.235 Goal=   None    Shift=    0.000
 RMSDP=8.08D-09 MaxDP=2.22D-07 DE=-2.10D-11 OVMax= 3.87D-07

 SCF Done:  E(RB3LYP) =  -439.025529909     A.U. after   14 cycles
             Convg  =    0.8075D-08             -V/T =  2.0090
 KE= 4.351163269465D+02 PE=-1.935717174233D+03 EE= 6.038815648636D+02
 Leave Link  502 at Mon Oct  4 02:57:07 2021, MaxMem=  536870912 cpu:      80.5
 (Enter /sw/target/amd/app/gaussian/Gaussian09RevA.02_gcc-4.9.2/g09/l508.exe)
 QCSCF skips out because SCF is already converged.
 Leave Link  508 at Mon Oct  4 02:57:08 2021, MaxMem=  536870912 cpu:       0.0
 (Enter /sw/target/amd/app/gaussian/Gaussian09RevA.02_gcc-4.9.2/g09/l601.exe)
 Copying SCF densities to generalized density rwf, IOpCl= 0 IROHF=0.

 **********************************************************************

            Population analysis using the SCF density.

 **********************************************************************

 Orbital symmetries:
       Occupied  (A) (A) (A) (A) (A) (A) (A) (A) (A) (A) (A) (A)
                 (A) (A) (A) (A) (A) (A) (A) (A) (A) (A) (A) (A)
                 (A) (A) (A) (A) (A) (A) (A) (A) (A) (A) (A)
       Virtual   (A) (A) (A) (A) (A) (A) (A) (A) (A) (A) (A) (A)
                 (A) (A) (A) (A) (A) (A) (A) (A) (A) (A) (A) (A)
                 (A) (A) (A) (A) (A) (A) (A) (A) (A) (A) (A) (A)
                 (A) (A) (A) (A) (A) (A) (A) (A) (A) (A) (A) (A)
                 (A) (A) (A) (A) (A) (A) (A) (A) (A) (A) (A) (A)
                 (A) (A) (A) (A) (A) (A) (A) (A) (A) (A) (A) (A)
                 (A) (A) (A) (A) (A) (A) (A) (A) (A) (A) (A) (A)
                 (A) (A) (A) (A) (A) (A) (A) (A) (A) (A) (A) (A)
                 (A) (A) (A) (A) (A) (A) (A) (A) (A) (A) (A) (A)
                 (A) (A) (A) (A) (A) (A) (A) (A) (A) (A) (A) (A)
                 (A) (A) (A) (A) (A) (A) (A) (A) (A)
 The electronic state is 1-A.
 Alpha  occ. eigenvalues --  -19.19804 -14.35162 -10.31717 -10.24858 -10.20626
 Alpha  occ. eigenvalues --  -10.19831 -10.19649 -10.19618 -10.19593 -10.19514
 Alpha  occ. eigenvalues --   -1.10294  -0.97841  -0.86113  -0.78094  -0.75042
 Alpha  occ. eigenvalues --   -0.70369  -0.61311  -0.59777  -0.53395  -0.51750
 Alpha  occ. eigenvalues --   -0.49526  -0.49010  -0.47713  -0.45419  -0.44567
 Alpha  occ. eigenvalues --   -0.42592  -0.41966  -0.40319  -0.36475  -0.35717
 Alpha  occ. eigenvalues --   -0.34981  -0.31285  -0.28462  -0.25663  -0.25170
 Alpha virt. eigenvalues --   -0.01650  -0.00719   0.01682   0.06639   0.09408
 Alpha virt. eigenvalues --    0.10690   0.12492   0.14716   0.15203   0.16447
 Alpha virt. eigenvalues --    0.17025   0.18357   0.19145   0.23713   0.25102
 Alpha virt. eigenvalues --    0.30075   0.31023   0.31656   0.34143   0.41198
 Alpha virt. eigenvalues --    0.45397   0.47534   0.50997   0.52719   0.53639
 Alpha virt. eigenvalues --    0.53877   0.55238   0.56722   0.58326   0.59014
 Alpha virt. eigenvalues --    0.59557   0.60296   0.61241   0.61799   0.62851
 Alpha virt. eigenvalues --    0.64450   0.65440   0.69547   0.71536   0.75208
 Alpha virt. eigenvalues --    0.77889   0.78864   0.81338   0.82817   0.83474
 Alpha virt. eigenvalues --    0.83869   0.84686   0.86207   0.89671   0.91923
 Alpha virt. eigenvalues --    0.93936   0.94043   0.96799   0.99523   1.00009
 Alpha virt. eigenvalues --    1.03971   1.07902   1.10244   1.11054   1.14837
 Alpha virt. eigenvalues --    1.15774   1.17528   1.22160   1.25432   1.29962
 Alpha virt. eigenvalues --    1.37150   1.39148   1.42305   1.43230   1.44812
 Alpha virt. eigenvalues --    1.47262   1.48200   1.48945   1.50079   1.50739
 Alpha virt. eigenvalues --    1.58712   1.62227   1.72070   1.78543   1.78985
 Alpha virt. eigenvalues --    1.80475   1.85197   1.88225   1.89030   1.91188
 Alpha virt. eigenvalues --    1.94245   1.95018   1.96700   2.03615   2.04778
 Alpha virt. eigenvalues --    2.05938   2.09818   2.12131   2.13778   2.14664
 Alpha virt. eigenvalues --    2.15243   2.22928   2.24630   2.28355   2.30281
 Alpha virt. eigenvalues --    2.33416   2.37881   2.44281   2.55507   2.57105
 Alpha virt. eigenvalues --    2.59028   2.65045   2.65464   2.71827   2.73254
 Alpha virt. eigenvalues --    2.73936   2.76933   2.87254   2.93880   2.97424
 Alpha virt. eigenvalues --    3.05530   3.12355   3.23529   3.40318   3.92724
 Alpha virt. eigenvalues --    4.08428   4.11008   4.13387   4.28732   4.32737
 Alpha virt. eigenvalues --    4.37967   4.43435   4.65341   4.70812
          Condensed to atoms (all electrons):
              1          2          3          4          5          6
     1  O    7.829883   0.615505  -0.037841  -0.005316   0.000104   0.000026
     2  C    0.615505   4.239095   0.581067  -0.061267  -0.004845   0.000316
     3  N   -0.037841   0.581067   6.712297   0.300730  -0.066679   0.000247
     4  C   -0.005316  -0.061267   0.300730   5.096009   0.338583  -0.065323
     5  C    0.000104  -0.004845  -0.066679   0.338583   4.707975   0.535684
     6  C    0.000026   0.000316   0.000247  -0.065323   0.535684   4.955373
     7  C    0.000000  -0.000023  -0.000027   0.005385  -0.018864   0.531200
     8  C    0.000000  -0.000002   0.000012   0.000427  -0.035243  -0.035320
     9  C    0.000002  -0.000039  -0.000121   0.006302  -0.023203  -0.044509
    10  C   -0.000068   0.001345  -0.000486  -0.047846   0.551480  -0.044051
    11  H    0.002556  -0.007499  -0.039140   0.354129  -0.034256   0.006152
    12  H   -0.000021   0.004741  -0.047021   0.368248  -0.032970  -0.007818
    13  H   -0.000001   0.000297   0.003281  -0.009174  -0.045002   0.359552
    14  H   -0.000000   0.000000   0.000001  -0.000177   0.003696  -0.039765
    15  H    0.000000  -0.000000   0.000000   0.000008   0.000715   0.004720
    16  H   -0.000000   0.000001   0.000001  -0.000176   0.003888   0.000809
    17  H   -0.000009   0.000039   0.000059  -0.010155  -0.043046   0.005881
              7          8          9         10         11         12
     1  O    0.000000   0.000000   0.000002  -0.000068   0.002556  -0.000021
     2  C   -0.000023  -0.000002  -0.000039   0.001345  -0.007499   0.004741
     3  N   -0.000027   0.000012  -0.000121  -0.000486  -0.039140  -0.047021
     4  C    0.005385   0.000427   0.006302  -0.047846   0.354129   0.368248
     5  C   -0.018864  -0.035243  -0.023203   0.551480  -0.034256  -0.032970
     6  C    0.531200  -0.035320  -0.044509  -0.044051   0.006152  -0.007818
     7  C    4.858156   0.547741  -0.027057  -0.044655  -0.000140  -0.000082
     8  C    0.547741   4.846219   0.555691  -0.036707  -0.000004   0.000025
     9  C   -0.027057   0.555691   4.857443   0.525569   0.000170  -0.000276
    10  C   -0.044655  -0.036707   0.525569   4.953701  -0.005933   0.003280
    11  H   -0.000140  -0.000004   0.000170  -0.005933   0.595396  -0.041338
    12  H   -0.000082   0.000025  -0.000276   0.003280  -0.041338   0.575570
    13  H   -0.043594   0.004733   0.000408   0.005432   0.000134   0.002024
    14  H    0.358063  -0.042790   0.004610   0.000846   0.000003  -0.000000
    15  H   -0.043073   0.359146  -0.042987   0.004826  -0.000000  -0.000000
    16  H    0.004605  -0.042638   0.357232  -0.039443  -0.000007   0.000004
    17  H    0.000368   0.004779  -0.043756   0.353203   0.007383   0.000140
             13         14         15         16         17
     1  O   -0.000001  -0.000000   0.000000  -0.000000  -0.000009
     2  C    0.000297   0.000000  -0.000000   0.000001   0.000039
     3  N    0.003281   0.000001   0.000000   0.000001   0.000059
     4  C   -0.009174  -0.000177   0.000008  -0.000176  -0.010155
     5  C   -0.045002   0.003696   0.000715   0.003888  -0.043046
     6  C    0.359552  -0.039765   0.004720   0.000809   0.005881
     7  C   -0.043594   0.358063  -0.043073   0.004605   0.000368
     8  C    0.004733  -0.042790   0.359146  -0.042638   0.004779
     9  C    0.000408   0.004610  -0.042987   0.357232  -0.043756
    10  C    0.005432   0.000846   0.004826  -0.039443   0.353203
    11  H    0.000134   0.000003  -0.000000  -0.000007   0.007383
    12  H    0.002024  -0.000000  -0.000000   0.000004   0.000140
    13  H    0.587191  -0.005385  -0.000180   0.000017  -0.000158
    14  H   -0.005385   0.591620  -0.005587  -0.000187   0.000017
    15  H   -0.000180  -0.005587   0.595052  -0.005684  -0.000184
    16  H    0.000017  -0.000187  -0.005684   0.592978  -0.005562
    17  H   -0.000158   0.000017  -0.000184  -0.005562   0.600195
 Mulliken atomic charges:
              1
     1  O   -0.404822
     2  C    0.631269
     3  N   -0.406380
     4  C   -0.270387
     5  C    0.161984
     6  C   -0.163175
     7  C   -0.128003
     8  C   -0.126068
     9  C   -0.125477
    10  C   -0.180492
    11  H    0.162395
    12  H    0.175496
    13  H    0.140427
    14  H    0.135036
    15  H    0.133228
    16  H    0.134164
    17  H    0.130805
 Sum of Mulliken atomic charges =  -0.00000
 Mulliken charges with hydrogens summed into heavy atoms:
              1
     1  O   -0.404822
     2  C    0.631269
     3  N   -0.406380
     4  C    0.067503
     5  C    0.161984
     6  C   -0.022748
     7  C    0.007034
     8  C    0.007160
     9  C    0.008687
    10  C   -0.049687
 Sum of Mulliken charges with hydrogens summed into heavy atoms =  -0.00000
 Electronic spatial extent (au):  <R**2>=           1591.5805
 Charge=             -0.0000 electrons
 Dipole moment (field-independent basis, Debye):
    X=             -1.9211    Y=             -0.1331    Z=              1.3208  Tot=              2.3351
 Quadrupole moment (field-independent basis, Debye-Ang):
   XX=            -59.4087   YY=            -54.9937   ZZ=            -56.9956
   XY=             -1.8713   XZ=              5.6671   YZ=              2.4104
 Traceless Quadrupole moment (field-independent basis, Debye-Ang):
   XX=             -2.2761   YY=              2.1390   ZZ=              0.1371
   XY=             -1.8713   XZ=              5.6671   YZ=              2.4104
 Octapole moment (field-independent basis, Debye-Ang**2):
  XXX=            -18.5538  YYY=              3.8797  ZZZ=             -0.3710  XYY=             -7.4093
  XXY=             -4.2638  XXZ=             -1.3034  XZZ=              8.1446  YZZ=             -1.6624
  YYZ=              1.3477  XYZ=              2.2274
 Hexadecapole moment (field-independent basis, Debye-Ang**3):
 XXXX=          -1521.5608 YYYY=           -342.1881 ZZZZ=           -207.1200 XXXY=            -32.2057
 XXXZ=             48.7376 YYYX=              7.7940 YYYZ=              4.6131 ZZZX=             -5.6656
 ZZZY=             -3.6573 XXYY=           -316.1960 XXZZ=           -291.7310 YYZZ=            -93.5879
 XXYZ=             19.9451 YYXZ=              5.1359 ZZXY=              1.1686
 N-N= 4.576937525138D+02 E-N=-1.935717175485D+03  KE= 4.351163269465D+02
 No NMR shielding tensors so no spin-rotation constants.
 Leave Link  601 at Mon Oct  4 02:57:12 2021, MaxMem=  536870912 cpu:       0.5
 (Enter /sw/target/amd/app/gaussian/Gaussian09RevA.02_gcc-4.9.2/g09/l701.exe)
 Compute integral first derivatives.
 ... and contract with generalized density number  0.
 Leave Link  701 at Mon Oct  4 02:57:14 2021, MaxMem=  536870912 cpu:       0.6
 (Enter /sw/target/amd/app/gaussian/Gaussian09RevA.02_gcc-4.9.2/g09/l702.exe)
 L702 exits ... SP integral derivatives will be done elsewhere.
 Leave Link  702 at Mon Oct  4 02:57:15 2021, MaxMem=  536870912 cpu:       0.0
 (Enter /sw/target/amd/app/gaussian/Gaussian09RevA.02_gcc-4.9.2/g09/l703.exe)
 Compute integral first derivatives, UseDBF=F ICtDFT=           0.
 Integral derivatives from FoFDir, PRISM(SPDF).
 Calling FoFJK, ICntrl=      2127 FMM=F ISym2X=0 I1Cent= 0 IOpClX= 0 NMat=1 NMatS=1 NMatT=0.
 FoFCou: FMM=F IPFlag=           0 FMFlag=      100000 FMFlg1=         800
         NFxFlg=           0 DoJE=F BraDBF=F KetDBF=F FulRan=T
         Omega=  0.000000  0.000000  1.000000  0.000000  0.000000 ICntrl=    2127 IOpCl=  0
         NMat0=    1 NMatS0=    1 NMatT0=    0 NMatD0=    1 NMtDS0=    0 NMtDT0=    0
         I1Cent=           0 NGrid=           0.
 Symmetry not used in FoFCou.
 Leave Link  703 at Mon Oct  4 02:59:28 2021, MaxMem=  536870912 cpu:      36.2
 (Enter /sw/target/amd/app/gaussian/Gaussian09RevA.02_gcc-4.9.2/g09/l716.exe)
 Dipole        =-7.55827998D-01-5.23465902D-02 5.19624335D-01
 ***** Axes restored to original set *****
 -------------------------------------------------------------------
 Center     Atomic                   Forces (Hartrees/Bohr)
 Number     Number              X              Y              Z
 -------------------------------------------------------------------
      1        8          -0.001296779    0.000959063   -0.007759590
      2        6          -0.009353015   -0.055346250   -0.084487047
      3        7           0.006865151    0.048231417    0.072017666
      4        6          -0.000014401    0.004630684    0.028722247
      5        6           0.003583797   -0.003048793   -0.001763352
      6        6           0.002192133    0.000359599    0.000764873
      7        6          -0.002968103    0.001925413   -0.000851967
      8        6           0.002750583   -0.002090053    0.000409856
      9        6           0.000535075   -0.000566291    0.000799512
     10        6           0.001062241    0.001513679   -0.000393407
     11        1           0.002359047    0.001344130   -0.002967586
     12        1          -0.001776846    0.002216916   -0.003280474
     13        1          -0.001164075   -0.001395415   -0.000503482
     14        1          -0.000555731    0.000144534   -0.000055944
     15        1          -0.000039937   -0.000044034    0.000043692
     16        1          -0.000516544   -0.000011286    0.000041895
     17        1          -0.001662595    0.001176687   -0.000736894
 -------------------------------------------------------------------
 Cartesian Forces:  Max     0.084487047 RMS     0.019231671
 Leave Link  716 at Mon Oct  4 02:59:29 2021, MaxMem=  536870912 cpu:       0.1
 (Enter /sw/target/amd/app/gaussian/Gaussian09RevA.02_gcc-4.9.2/g09/l103.exe)

 GradGradGradGradGradGradGradGradGradGradGradGradGradGradGradGradGradGrad
 Berny optimization.
 Internal  Forces:  Max     0.106760287 RMS     0.013353532
 Search for a local minimum.
 Step number   1 out of a maximum of   87
 All quantities printed in internal units (Hartrees-Bohrs-Radians)
 RMS Force = .13354D-01 SwitMx=.10000D-02 MixMth= 1
 Mixed Optimization -- RFO/linear search
 Second derivative matrix not updated -- first step.
     Eigenvalues ---    0.00616   0.00761   0.01478   0.02071   0.02097
     Eigenvalues ---    0.02105   0.02132   0.02155   0.02159   0.02166
     Eigenvalues ---    0.02175   0.04702   0.04702   0.05650   0.07335
     Eigenvalues ---    0.11666   0.14156   0.16000   0.16000   0.16000
     Eigenvalues ---    0.16000   0.16000   0.22000   0.22000   0.22005
     Eigenvalues ---    0.23475   0.25000   0.25000   0.31215   0.33648
     Eigenvalues ---    0.33945   0.35011   0.35081   0.35159   0.35163
     Eigenvalues ---    0.35172   0.35698   0.41803   0.41889   0.45489
     Eigenvalues ---    0.46100   0.46281   0.46641   1.18063   1.19991
     Eigenvalues --- 1000.000001000.000001000.000001000.000001000.00000
     Eigenvalues --- 1000.000001000.000001000.000001000.000001000.00000
     Eigenvalues --- 1000.000001000.000001000.000001000.000001000.00000
     Eigenvalues --- 1000.000001000.000001000.000001000.000001000.00000
     Eigenvalues --- 1000.000001000.000001000.000001000.000001000.00000
     Eigenvalues --- 1000.000001000.000001000.000001000.000001000.00000
     Eigenvalues --- 1000.000001000.00000
 RFO step:  Lambda=-1.96599595D-02 EMin= 6.15722487D-03
 Linear search not attempted -- first point.
 Iteration  1 RMS(Cart)=  0.09818683 RMS(Int)=  0.00980070
 Iteration  2 RMS(Cart)=  0.01694877 RMS(Int)=  0.00032008
 Iteration  3 RMS(Cart)=  0.00044256 RMS(Int)=  0.00003861
 Iteration  4 RMS(Cart)=  0.00000044 RMS(Int)=  0.00003861
 Variable       Old X    -DE/DX   Delta X   Delta X   Delta X     New X
                                 (Linear)    (Quad)   (Total)
    R1        2.22170   0.00560   0.00000   0.00466   0.00466   2.22636
    R2        2.21558   0.10676   0.00000   0.08754   0.08754   2.30312
    R3        2.77856   0.01511   0.00000   0.04012   0.04012   2.81868
    R4        2.85605   0.00292   0.00000   0.00880   0.00880   2.86485
    R5        2.07929  -0.00236   0.00000  -0.00661  -0.00661   2.07268
    R6        2.07424  -0.00056   0.00000  -0.00157  -0.00157   2.07266
    R7        2.65060  -0.00166   0.00000  -0.00397  -0.00397   2.64663
    R8        2.64861  -0.00242   0.00000  -0.00550  -0.00550   2.64311
    R9        2.63806  -0.00150   0.00000  -0.00317  -0.00317   2.63489
   R10        2.05657  -0.00077   0.00000  -0.00208  -0.00208   2.05449
   R11        2.63323   0.00333   0.00000   0.00722   0.00722   2.64045
   R12        2.05412  -0.00020   0.00000  -0.00055  -0.00055   2.05357
   R13        2.63336   0.00087   0.00000   0.00223   0.00223   2.63559
   R14        2.05396  -0.00003   0.00000  -0.00007  -0.00007   2.05388
   R15        2.63826   0.00085   0.00000   0.00182   0.00182   2.64008
   R16        2.05418  -0.00020   0.00000  -0.00054  -0.00054   2.05364
   R17        2.05544   0.00001   0.00000   0.00004   0.00004   2.05548
    A1        1.98156   0.04252   0.00000   0.15768   0.15768   2.13924
    A2        1.96917   0.00007   0.00000  -0.00332  -0.00340   1.96577
    A3        1.94944  -0.00098   0.00000  -0.01474  -0.01490   1.93454
    A4        1.88824  -0.00316   0.00000  -0.01960  -0.01959   1.86865
    A5        1.92970  -0.00121   0.00000  -0.00916  -0.00934   1.92036
    A6        1.88389   0.00399   0.00000   0.03086   0.03084   1.91474
    A7        1.83685   0.00154   0.00000   0.01909   0.01893   1.85579
    A8        2.10183  -0.00043   0.00000  -0.00083  -0.00083   2.10100
    A9        2.10522   0.00000   0.00000   0.00076   0.00077   2.10599
   A10        2.07613   0.00043   0.00000   0.00008   0.00007   2.07620
   A11        2.10300   0.00040   0.00000   0.00069   0.00068   2.10368
   A12        2.09808  -0.00195   0.00000  -0.01007  -0.01006   2.08802
   A13        2.08209   0.00155   0.00000   0.00937   0.00938   2.09147
   A14        2.09522   0.00024   0.00000   0.00172   0.00172   2.09694
   A15        2.09433  -0.00068   0.00000  -0.00394  -0.00394   2.09039
   A16        2.09363   0.00043   0.00000   0.00223   0.00223   2.09586
   A17        2.09344  -0.00139   0.00000  -0.00409  -0.00409   2.08935
   A18        2.09506   0.00074   0.00000   0.00230   0.00230   2.09736
   A19        2.09468   0.00065   0.00000   0.00179   0.00179   2.09647
   A20        2.09645  -0.00065   0.00000  -0.00172  -0.00172   2.09473
   A21        2.09309   0.00080   0.00000   0.00347   0.00347   2.09657
   A22        2.09364  -0.00014   0.00000  -0.00176  -0.00176   2.09188
   A23        2.10210   0.00097   0.00000   0.00338   0.00337   2.10547
   A24        2.10516  -0.00267   0.00000  -0.01384  -0.01384   2.09133
   A25        2.07592   0.00170   0.00000   0.01046   0.01046   2.08638
   A26        3.13385   0.01247   0.00000   0.18701   0.18701   3.32086
   A27        3.16314  -0.00011   0.00000  -0.00163  -0.00163   3.16151
    D1        1.58208  -0.00179   0.00000  -0.01802  -0.01795   1.56413
    D2       -0.60449   0.00056   0.00000   0.00859   0.00857  -0.59591
    D3       -2.61819   0.00112   0.00000   0.00533   0.00527  -2.61292
    D4        1.05901   0.00039   0.00000   0.00956   0.00952   1.06852
    D5       -2.08018   0.00027   0.00000   0.00610   0.00606  -2.07412
    D6       -3.02696  -0.00182   0.00000  -0.01981  -0.01982  -3.04678
    D7        0.11705  -0.00194   0.00000  -0.02328  -0.02328   0.09376
    D8       -1.02643   0.00161   0.00000   0.01541   0.01545  -1.01098
    D9        2.11757   0.00149   0.00000   0.01194   0.01199   2.12957
   D10       -3.13720  -0.00025   0.00000  -0.00643  -0.00641   3.13957
   D11       -0.00067  -0.00032   0.00000  -0.00821  -0.00819  -0.00886
   D12        0.00202  -0.00013   0.00000  -0.00302  -0.00301  -0.00099
   D13        3.13856  -0.00020   0.00000  -0.00480  -0.00479   3.13377
   D14        3.13274   0.00051   0.00000   0.01283   0.01283  -3.13761
   D15       -0.00690   0.00031   0.00000   0.00804   0.00807   0.00117
   D16       -0.00648   0.00039   0.00000   0.00941   0.00942   0.00294
   D17        3.13707   0.00019   0.00000   0.00463   0.00466  -3.14146
   D18        0.00351  -0.00015   0.00000  -0.00382  -0.00382  -0.00032
   D19       -3.14145   0.00001   0.00000   0.00024   0.00022  -3.14123
   D20       -3.13307  -0.00008   0.00000  -0.00200  -0.00198  -3.13506
   D21        0.00516   0.00009   0.00000   0.00205   0.00206   0.00721
   D22       -0.00463   0.00018   0.00000   0.00433   0.00431  -0.00031
   D23        3.13558   0.00016   0.00000   0.00401   0.00400   3.13958
   D24        3.14033   0.00002   0.00000   0.00028   0.00027   3.14061
   D25       -0.00265   0.00000   0.00000  -0.00004  -0.00004  -0.00269
   D26        0.00018   0.00008   0.00000   0.00207   0.00207   0.00225
   D27        3.13993  -0.00004   0.00000  -0.00094  -0.00093   3.13900
   D28       -3.14002   0.00010   0.00000   0.00239   0.00238  -3.13764
   D29       -0.00027  -0.00003   0.00000  -0.00062  -0.00062  -0.00089
   D30        0.00542  -0.00037   0.00000  -0.00902  -0.00902  -0.00360
   D31       -3.13809  -0.00018   0.00000  -0.00434  -0.00430   3.14080
   D32       -3.13433  -0.00025   0.00000  -0.00602  -0.00604  -3.14037
   D33        0.00535  -0.00006   0.00000  -0.00134  -0.00132   0.00403
         Item               Value     Threshold  Converged?
 Maximum Force            0.106760     0.000450     NO 
 RMS     Force            0.013354     0.000300     NO 
 Maximum Displacement     0.568884     0.001800     NO 
 RMS     Displacement     0.110503     0.001200     NO 
 Predicted change in Energy=-1.056233D-02
 GradGradGradGradGradGradGradGradGradGradGradGradGradGradGradGradGradGrad

 Leave Link  103 at Mon Oct  4 02:59:33 2021, MaxMem=  536870912 cpu:       1.1
 (Enter /sw/target/amd/app/gaussian/Gaussian09RevA.02_gcc-4.9.2/g09/l202.exe)
                          Input orientation:                          
 ---------------------------------------------------------------------
 Center     Atomic      Atomic             Coordinates (Angstroms)
 Number     Number       Type             X           Y           Z
 ---------------------------------------------------------------------
      1          8           0        3.807742    0.245501   -4.231578
      2          6           0        3.969625    0.663833   -3.142173
      3          7           0        4.091774    1.290854   -2.104245
      4          6           0        4.395043    0.633627   -0.800062
      5          6           0        5.883695    0.510270   -0.541227
      6          6           0        6.684471    1.655863   -0.452471
      7          6           0        8.053544    1.546234   -0.212124
      8          6           0        8.640150    0.287609   -0.056847
      9          6           0        7.850197   -0.858574   -0.142945
     10          6           0        6.479092   -0.745811   -0.386161
     11          1           0        3.920401   -0.353390   -0.740795
     12          1           0        3.932796    1.245661   -0.016018
     13          1           0        6.234394    2.637451   -0.578556
     14          1           0        8.663172    2.443344   -0.145282
     15          1           0        9.707614    0.201615    0.128651
     16          1           0        8.299841   -1.840950   -0.025631
     17          1           0        5.870481   -1.644868   -0.452546
 ---------------------------------------------------------------------
                    Distance matrix (angstroms):
                    1          2          3          4          5
     1  O    0.000000
     2  C    1.178139   0.000000
     3  N    2.387254   1.218758   0.000000
     4  C    3.502980   2.380625   1.491580   0.000000
     5  C    4.242449   3.232981   2.502662   1.516013   0.000000
     6  C    4.954426   3.948292   3.095750   2.531258   1.400537
     7  C    5.989554   5.103157   4.397836   3.816170   2.426886
     8  C    6.386104   5.610221   5.087835   4.323544   2.807534
     9  C    5.854686   5.135361   4.753155   3.820544   2.428888
    10  C    4.786026   3.984987   3.577583   2.533263   1.398672
    11  H    3.543575   2.608406   2.142872   1.096814   2.154126
    12  H    4.334386   3.180051   2.094757   1.096806   2.150035
    13  H    4.995461   3.949237   2.954973   2.729026   2.156219
    14  H    6.715917   5.846144   5.105238   4.681959   3.408672
    15  H    7.336349   6.620910   6.140841   5.410412   3.894402
    16  H    6.497863   5.893856   5.642398   4.687293   3.410548
    17  H    4.702070   4.022119   3.809247   2.736644   2.157002
                    6          7          8          9         10
     6  C    0.000000
     7  C    1.394326   0.000000
     8  C    2.419363   1.397267   0.000000
     9  C    2.788749   2.414382   1.394696   0.000000
    10  C    2.411352   2.786155   2.417970   1.397068   0.000000
    11  H    3.429332   4.579404   4.811933   4.006986   2.612788
    12  H    2.816110   4.136347   4.804031   4.448590   3.253704
    13  H    1.087190   2.152750   3.403175   3.875922   3.397551
    14  H    2.151685   1.086702   2.157670   3.400529   3.872846
    15  H    3.404693   2.158721   1.086869   2.155867   3.403822
    16  H    3.875476   3.401243   2.155817   1.086740   2.155096
    17  H    3.399618   3.873848   3.400311   2.152531   1.087712
                   11         12         13         14         15
    11  H    0.000000
    12  H    1.755682   0.000000
    13  H    3.784972   2.747887   0.000000
    14  H    5.538072   4.881354   2.474747   0.000000
    15  H    5.878419   5.870221   4.300779   2.488222   0.000000
    16  H    4.680149   5.347742   4.962648   4.301337   2.485497
    17  H    2.356653   3.507183   4.299600   4.960545   4.297776
                   16         17
    16  H    0.000000
    17  H    2.474368   0.000000
 Stoichiometry    C8H7NO
 Framework group  C1[X(C8H7NO)]
 Deg. of freedom    45
 Full point group                 C1      NOp   1
 Largest Abelian subgroup         C1      NOp   1
 Largest concise Abelian subgroup C1      NOp   1
                         Standard orientation:                         
 ---------------------------------------------------------------------
 Center     Atomic      Atomic             Coordinates (Angstroms)
 Number     Number       Type             X           Y           Z
 ---------------------------------------------------------------------
      1          8           0        3.497987    0.641212   -1.092058
      2          6           0        2.751742    0.061566   -0.388396
      3          7           0        2.079196   -0.717480    0.264397
      4          6           0        1.033985   -0.264472    1.227273
      5          6           0       -0.328082   -0.110140    0.579779
      6          6           0       -0.964919   -1.213598   -0.001877
      7          6           0       -2.218716   -1.075798   -0.596139
      8          6           0       -2.852828    0.169137   -0.616011
      9          6           0       -2.226333    1.273290   -0.038495
     10          6           0       -0.969039    1.132761    0.554180
     11          1           0        1.329072    0.675150    1.710009
     12          1           0        0.981884   -1.017084    2.023417
     13          1           0       -0.473452   -2.183336    0.005316
     14          1           0       -2.701746   -1.940356   -1.043511
     15          1           0       -3.829327    0.277395   -1.080783
     16          1           0       -2.712353    2.245195   -0.052274
     17          1           0       -0.487206    1.999215    1.001630
 ---------------------------------------------------------------------
 Rotational constants (GHZ):      3.0178891      0.7231989      0.6890358
 Leave Link  202 at Mon Oct  4 02:59:33 2021, MaxMem=  536870912 cpu:       0.0
 (Enter /sw/target/amd/app/gaussian/Gaussian09RevA.02_gcc-4.9.2/g09/l301.exe)
 Standard basis: 6-31G(d) (6D, 7F)
 Ernie: Thresh=  0.10000D-02 Tol=  0.10000D-05 Strict=F.
 There are   164 symmetry adapted basis functions of A   symmetry.
 Integral buffers will be    131072 words long.
 Raffenetti 2 integral format.
 Two-electron integral symmetry is turned on.
   164 basis functions,   308 primitive gaussians,   164 cartesian basis functions
    35 alpha electrons       35 beta electrons
       nuclear repulsion energy       451.8682006707 Hartrees.
 IExCor=  402 DFT=T Ex+Corr=B3LYP ExCW=0 ScaHFX=  0.200000
 ScaDFX=  0.800000  0.720000  1.000000  0.810000 ScalE2=  1.000000  1.000000
 IRadAn=      0 IRanWt=     -1 IRanGd=            0 ICorTp=0
 NAtoms=   17 NActive=   17 NUniq=   17 SFac= 7.50D-01 NAtFMM=   80 NAOKFM=F Big=F
 Leave Link  301 at Mon Oct  4 02:59:34 2021, MaxMem=  536870912 cpu:       0.1
 (Enter /sw/target/amd/app/gaussian/Gaussian09RevA.02_gcc-4.9.2/g09/l302.exe)
 NPDir=0 NMtPBC=     1 NCelOv=     1 NCel=       1 NClECP=     1 NCelD=      1
         NCelK=      1 NCelE2=     1 NClLst=     1 CellRange=     0.0.
 One-electron integrals computed using PRISM.
 NBasis=   164 RedAO= T  NBF=   164
 NBsUse=   164 1.00D-06 NBFU=   164
 Precomputing XC quadrature grid using
 IXCGrd= 2 IRadAn=           0 IRanWt=          -1 IRanGd=           0 AccXCQ= 1.00D-10.
 NRdTot=    1061 NPtTot=      134570 NUsed=      142231 NTot=      142263
 NSgBfM=   163   163   163   163   163 NAtAll=    17    17.
 Leave Link  302 at Mon Oct  4 02:59:38 2021, MaxMem=  536870912 cpu:       0.9
 (Enter /sw/target/amd/app/gaussian/Gaussian09RevA.02_gcc-4.9.2/g09/l303.exe)
 DipDrv:  MaxL=1.
 Leave Link  303 at Mon Oct  4 02:59:38 2021, MaxMem=  536870912 cpu:       0.1
 (Enter /sw/target/amd/app/gaussian/Gaussian09RevA.02_gcc-4.9.2/g09/l401.exe)
 Initial guess read from the read-write file.
 B after Tr=     0.000000    0.000000    0.000000
         Rot=    1.000000    0.000000    0.000000    0.000000 Ang=   0.00 deg.
 Guess basis will be translated and rotated to current coordinates.
 Initial guess orbital symmetries:
       Occupied  (A) (A) (A) (A) (A) (A) (A) (A) (A) (A) (A) (A)
                 (A) (A) (A) (A) (A) (A) (A) (A) (A) (A) (A) (A)
                 (A) (A) (A) (A) (A) (A) (A) (A) (A) (A) (A)
       Virtual   (A) (A) (A) (A) (A) (A) (A) (A) (A) (A) (A) (A)
                 (A) (A) (A) (A) (A) (A) (A) (A) (A) (A) (A) (A)
                 (A) (A) (A) (A) (A) (A) (A) (A) (A) (A) (A) (A)
                 (A) (A) (A) (A) (A) (A) (A) (A) (A) (A) (A) (A)
                 (A) (A) (A) (A) (A) (A) (A) (A) (A) (A) (A) (A)
                 (A) (A) (A) (A) (A) (A) (A) (A) (A) (A) (A) (A)
                 (A) (A) (A) (A) (A) (A) (A) (A) (A) (A) (A) (A)
                 (A) (A) (A) (A) (A) (A) (A) (A) (A) (A) (A) (A)
                 (A) (A) (A) (A) (A) (A) (A) (A) (A) (A) (A) (A)
                 (A) (A) (A) (A) (A) (A) (A) (A) (A) (A) (A) (A)
                 (A) (A) (A) (A) (A) (A) (A) (A) (A)
 The electronic state of the initial guess is 1-A.
 Generating alternative initial guess.
 Harris functional with IExCor=  402 diagonalized for initial guess.
 ExpMin= 1.61D-01 ExpMax= 5.48D+03 ExpMxC= 8.25D+02 IAcc=1 IRadAn=         1 AccDes= 0.00D+00
 HarFok:  IExCor=  402 AccDes= 0.00D+00 IRadAn=         1 IDoV= 1
 ScaDFX=  1.000000  1.000000  1.000000  1.000000
 FoFCou: FMM=F IPFlag=           0 FMFlag=      100000 FMFlg1=           0
         NFxFlg=           0 DoJE=T BraDBF=F KetDBF=T FulRan=T
         Omega=  0.000000  0.000000  1.000000  0.000000  0.000000 ICntrl=     500 IOpCl=  0
         NMat0=    1 NMatS0=    1 NMatT0=    0 NMatD0=    1 NMtDS0=    0 NMtDT0=    0
         I1Cent=           4 NGrid=           0.
 Petite list used in FoFCou.
 Harris En= -439.092461824267    
 Leave Link  401 at Mon Oct  4 02:59:54 2021, MaxMem=  536870912 cpu:       4.2
 (Enter /sw/target/amd/app/gaussian/Gaussian09RevA.02_gcc-4.9.2/g09/l502.exe)
 Closed shell SCF:
 Requested convergence on RMS density matrix=1.00D-08 within  64 cycles.
 Requested convergence on MAX density matrix=1.00D-06.
 Requested convergence on             energy=1.00D-06.
 No special actions if energy rises.
 Using DIIS extrapolation, IDIIS=  1040.
 Integral symmetry usage will be decided dynamically.
       142065 words used for storage of precomputed grid.
 Keep R1 ints in memory in canonical form, NReq=94013720.
 IEnd=      230511 IEndB=      230511 NGot=   536870912 MDV=   445134443
 LenX=   445134443 LenY=   445107106
 Symmetry not used in FoFDir.
 MinBra= 0 MaxBra= 2 Meth= 1.
 IRaf=       0 NMat=   1 IRICut=       1 DoRegI=T DoRafI=F ISym2E= 0 JSym2E=0.
 Integral accuracy reduced to 1.0D-05 until final iterations.

 Cycle   1  Pass 0  IDiag  1:
 E= -438.928978970031    
 DIIS: error= 1.62D-02 at cycle   1 NSaved=   1.
 NSaved= 1 IEnMin= 1 EnMin= -438.928978970031     IErMin= 1 ErrMin= 1.62D-02
 ErrMax= 1.62D-02 EMaxC= 1.00D-01 BMatC= 6.59D-02 BMatP= 6.59D-02
 IDIUse=3 WtCom= 8.38D-01 WtEn= 1.62D-01
 Coeff-Com:  0.100D+01
 Coeff-En:   0.100D+01
 Coeff:      0.100D+01
 Recover alternate guess density for next cycle.
 RMSDP=4.06D-03 MaxDP=1.07D-01              OVMax= 0.00D+00

 Cycle   2  Pass 0  IDiag  1:
 E= -438.804938799694     Delta-E=        0.124040170337 Rises=F Damp=F
 Switch densities from cycles 1 and 2 for lowest energy.
 DIIS: error= 4.17D-02 at cycle   2 NSaved=   2.
 NSaved= 2 IEnMin= 1 EnMin= -438.928978970031     IErMin= 1 ErrMin= 1.62D-02
 ErrMax= 4.17D-02 EMaxC= 1.00D+00 BMatC= 2.31D-01 BMatP= 6.59D-02
 IDIUse=1 WtCom= 1.00D+00 WtEn= 0.00D+00
 Coeff-Com:  0.796D+00 0.204D+00
 Coeff:      0.796D+00 0.204D+00
 Gap=     0.243 Goal=   None    Shift=    0.000
 RMSDP=2.62D-03 MaxDP=9.76D-02 DE= 1.24D-01 OVMax= 9.19D-02

 Cycle   3  Pass 0  IDiag  1:
 E= -439.014953410236     Delta-E=       -0.210014610542 Rises=F Damp=F
 DIIS: error= 9.53D-03 at cycle   3 NSaved=   3.
 NSaved= 3 IEnMin= 3 EnMin= -439.014953410236     IErMin= 3 ErrMin= 9.53D-03
 ErrMax= 9.53D-03 EMaxC= 1.00D+00 BMatC= 2.49D-02 BMatP= 6.59D-02
 IDIUse=1 WtCom= 1.00D+00 WtEn= 0.00D+00
 Coeff-Com:  0.453D-01 0.219D+00 0.735D+00
 Coeff:      0.453D-01 0.219D+00 0.735D+00
 Gap=     0.237 Goal=   None    Shift=    0.000
 RMSDP=9.27D-04 MaxDP=2.97D-02 DE=-2.10D-01 OVMax= 4.09D-02

 Cycle   4  Pass 0  IDiag  1:
 E= -439.030813425903     Delta-E=       -0.015860015667 Rises=F Damp=F
 DIIS: error= 4.68D-03 at cycle   4 NSaved=   4.
 NSaved= 4 IEnMin= 4 EnMin= -439.030813425903     IErMin= 4 ErrMin= 4.68D-03
 ErrMax= 4.68D-03 EMaxC= 1.00D+00 BMatC= 6.13D-03 BMatP= 2.49D-02
 IDIUse=1 WtCom= 1.00D+00 WtEn= 0.00D+00
 Coeff-Com: -0.228D-01 0.990D-01 0.431D+00 0.493D+00
 Coeff:     -0.228D-01 0.990D-01 0.431D+00 0.493D+00
 Gap=     0.236 Goal=   None    Shift=    0.000
 RMSDP=4.00D-04 MaxDP=1.28D-02 DE=-1.59D-02 OVMax= 1.67D-02

 Cycle   5  Pass 0  IDiag  1:
 E= -439.035669428180     Delta-E=       -0.004856002277 Rises=F Damp=F
 DIIS: error= 8.19D-04 at cycle   5 NSaved=   5.
 NSaved= 5 IEnMin= 5 EnMin= -439.035669428180     IErMin= 5 ErrMin= 8.19D-04
 ErrMax= 8.19D-04 EMaxC= 1.00D+00 BMatC= 1.63D-04 BMatP= 6.13D-03
 IDIUse=1 WtCom= 1.00D+00 WtEn= 0.00D+00
 Coeff-Com: -0.686D-02 0.147D-01 0.917D-01 0.187D+00 0.714D+00
 Coeff:     -0.686D-02 0.147D-01 0.917D-01 0.187D+00 0.714D+00
 Gap=     0.235 Goal=   None    Shift=    0.000
 RMSDP=1.08D-04 MaxDP=2.14D-03 DE=-4.86D-03 OVMax= 2.70D-03

 Cycle   6  Pass 0  IDiag  1:
 E= -439.035789764872     Delta-E=       -0.000120336692 Rises=F Damp=F
 DIIS: error= 4.63D-04 at cycle   6 NSaved=   6.
 NSaved= 6 IEnMin= 6 EnMin= -439.035789764872     IErMin= 6 ErrMin= 4.63D-04
 ErrMax= 4.63D-04 EMaxC= 1.00D+00 BMatC= 3.83D-05 BMatP= 1.63D-04
 IDIUse=1 WtCom= 1.00D+00 WtEn= 0.00D+00
 Coeff-Com: -0.312D-02 0.432D-02 0.344D-01 0.877D-01 0.420D+00 0.456D+00
 Coeff:     -0.312D-02 0.432D-02 0.344D-01 0.877D-01 0.420D+00 0.456D+00
 Gap=     0.235 Goal=   None    Shift=    0.000
 RMSDP=4.24D-05 MaxDP=1.27D-03 DE=-1.20D-04 OVMax= 2.78D-03

 Cycle   7  Pass 0  IDiag  1:
 E= -439.035812835012     Delta-E=       -0.000023070141 Rises=F Damp=F
 DIIS: error= 2.98D-04 at cycle   7 NSaved=   7.
 NSaved= 7 IEnMin= 7 EnMin= -439.035812835012     IErMin= 7 ErrMin= 2.98D-04
 ErrMax= 2.98D-04 EMaxC= 1.00D+00 BMatC= 1.15D-05 BMatP= 3.83D-05
 IDIUse=1 WtCom= 1.00D+00 WtEn= 0.00D+00
 Coeff-Com: -0.914D-03 0.336D-03 0.691D-02 0.285D-01 0.175D+00 0.349D+00
 Coeff-Com:  0.441D+00
 Coeff:     -0.914D-03 0.336D-03 0.691D-02 0.285D-01 0.175D+00 0.349D+00
 Coeff:      0.441D+00
 Gap=     0.235 Goal=   None    Shift=    0.000
 RMSDP=1.83D-05 MaxDP=5.70D-04 DE=-2.31D-05 OVMax= 1.16D-03

 Cycle   8  Pass 0  IDiag  1:
 E= -439.035822472630     Delta-E=       -0.000009637618 Rises=F Damp=F
 DIIS: error= 4.03D-05 at cycle   8 NSaved=   8.
 NSaved= 8 IEnMin= 8 EnMin= -439.035822472630     IErMin= 8 ErrMin= 4.03D-05
 ErrMax= 4.03D-05 EMaxC= 1.00D+00 BMatC= 3.61D-07 BMatP= 1.15D-05
 IDIUse=1 WtCom= 1.00D+00 WtEn= 0.00D+00
 Coeff-Com: -0.305D-03-0.977D-04 0.146D-02 0.966D-02 0.681D-01 0.158D+00
 Coeff-Com:  0.244D+00 0.519D+00
 Coeff:     -0.305D-03-0.977D-04 0.146D-02 0.966D-02 0.681D-01 0.158D+00
 Coeff:      0.244D+00 0.519D+00
 Gap=     0.235 Goal=   None    Shift=    0.000
 RMSDP=4.58D-06 MaxDP=1.20D-04 DE=-9.64D-06 OVMax= 2.88D-04

 Initial convergence to 1.0D-05 achieved.  Increase integral accuracy.
 Cycle   9  Pass 1  IDiag  1:
 E= -439.035796684450     Delta-E=        0.000025788180 Rises=F Damp=F
 DIIS: error= 5.45D-05 at cycle   1 NSaved=   1.
 NSaved= 1 IEnMin= 1 EnMin= -439.035796684450     IErMin= 1 ErrMin= 5.45D-05
 ErrMax= 5.45D-05 EMaxC= 1.00D+00 BMatC= 1.12D-07 BMatP= 1.12D-07
 IDIUse=1 WtCom= 1.00D+00 WtEn= 0.00D+00
 Coeff-Com:  0.100D+01
 Coeff:      0.100D+01
 Gap=     0.235 Goal=   None    Shift=    0.000
 RMSDP=4.58D-06 MaxDP=1.20D-04 DE= 2.58D-05 OVMax= 2.83D-04

 Cycle  10  Pass 1  IDiag  1:
 E= -439.035796658994     Delta-E=        0.000000025456 Rises=F Damp=F
 DIIS: error= 4.25D-05 at cycle   2 NSaved=   2.
 NSaved= 2 IEnMin= 1 EnMin= -439.035796684450     IErMin= 2 ErrMin= 4.25D-05
 ErrMax= 4.25D-05 EMaxC= 1.00D+00 BMatC= 1.52D-07 BMatP= 1.12D-07
 IDIUse=1 WtCom= 1.00D+00 WtEn= 0.00D+00
 Coeff-Com:  0.547D+00 0.453D+00
 Coeff:      0.547D+00 0.453D+00
 Gap=     0.235 Goal=   None    Shift=    0.000
 RMSDP=3.44D-06 MaxDP=8.19D-05 DE= 2.55D-08 OVMax= 2.46D-04

 Cycle  11  Pass 1  IDiag  1:
 E= -439.035796811483     Delta-E=       -0.000000152489 Rises=F Damp=F
 DIIS: error= 1.41D-05 at cycle   3 NSaved=   3.
 NSaved= 3 IEnMin= 3 EnMin= -439.035796811483     IErMin= 3 ErrMin= 1.41D-05
 ErrMax= 1.41D-05 EMaxC= 1.00D+00 BMatC= 2.04D-08 BMatP= 1.12D-07
 IDIUse=1 WtCom= 1.00D+00 WtEn= 0.00D+00
 Coeff-Com:  0.878D-02 0.264D+00 0.727D+00
 Coeff:      0.878D-02 0.264D+00 0.727D+00
 Gap=     0.235 Goal=   None    Shift=    0.000
 RMSDP=1.05D-06 MaxDP=2.19D-05 DE=-1.52D-07 OVMax= 6.04D-05

 Cycle  12  Pass 1  IDiag  1:
 E= -439.035796830099     Delta-E=       -0.000000018616 Rises=F Damp=F
 DIIS: error= 6.11D-06 at cycle   4 NSaved=   4.
 NSaved= 4 IEnMin= 4 EnMin= -439.035796830099     IErMin= 4 ErrMin= 6.11D-06
 ErrMax= 6.11D-06 EMaxC= 1.00D+00 BMatC= 5.22D-09 BMatP= 2.04D-08
 IDIUse=1 WtCom= 1.00D+00 WtEn= 0.00D+00
 Coeff-Com: -0.174D-01 0.169D+00 0.517D+00 0.331D+00
 Coeff:     -0.174D-01 0.169D+00 0.517D+00 0.331D+00
 Gap=     0.235 Goal=   None    Shift=    0.000
 RMSDP=3.71D-07 MaxDP=1.18D-05 DE=-1.86D-08 OVMax= 2.38D-05

 Cycle  13  Pass 1  IDiag  1:
 E= -439.035796834408     Delta-E=       -0.000000004309 Rises=F Damp=F
 DIIS: error= 9.04D-07 at cycle   5 NSaved=   5.
 NSaved= 5 IEnMin= 5 EnMin= -439.035796834408     IErMin= 5 ErrMin= 9.04D-07
 ErrMax= 9.04D-07 EMaxC= 1.00D+00 BMatC= 1.77D-10 BMatP= 5.22D-09
 IDIUse=1 WtCom= 1.00D+00 WtEn= 0.00D+00
 Coeff-Com: -0.113D-01 0.769D-01 0.244D+00 0.201D+00 0.490D+00
 Coeff:     -0.113D-01 0.769D-01 0.244D+00 0.201D+00 0.490D+00
 Gap=     0.235 Goal=   None    Shift=    0.000
 RMSDP=8.26D-08 MaxDP=2.39D-06 DE=-4.31D-09 OVMax= 4.05D-06

 Cycle  14  Pass 1  IDiag  1:
 E= -439.035796834558     Delta-E=       -0.000000000150 Rises=F Damp=F
 DIIS: error= 1.68D-07 at cycle   6 NSaved=   6.
 NSaved= 6 IEnMin= 6 EnMin= -439.035796834558     IErMin= 6 ErrMin= 1.68D-07
 ErrMax= 1.68D-07 EMaxC= 1.00D+00 BMatC= 1.04D-11 BMatP= 1.77D-10
 IDIUse=1 WtCom= 1.00D+00 WtEn= 0.00D+00
 Coeff-Com: -0.393D-02 0.235D-01 0.759D-01 0.724D-01 0.255D+00 0.577D+00
 Coeff:     -0.393D-02 0.235D-01 0.759D-01 0.724D-01 0.255D+00 0.577D+00
 Gap=     0.235 Goal=   None    Shift=    0.000
 RMSDP=1.94D-08 MaxDP=4.98D-07 DE=-1.50D-10 OVMax= 9.40D-07

 Cycle  15  Pass 1  IDiag  1:
 E= -439.035796834558     Delta-E=        0.000000000000 Rises=F Damp=F
 DIIS: error= 4.29D-08 at cycle   7 NSaved=   7.
 NSaved= 7 IEnMin= 6 EnMin= -439.035796834558     IErMin= 7 ErrMin= 4.29D-08
 ErrMax= 4.29D-08 EMaxC= 1.00D+00 BMatC= 6.09D-13 BMatP= 1.04D-11
 IDIUse=1 WtCom= 1.00D+00 WtEn= 0.00D+00
 Coeff-Com: -0.564D-03 0.220D-02 0.757D-02 0.990D-02 0.543D-01 0.241D+00
 Coeff-Com:  0.686D+00
 Coeff:     -0.564D-03 0.220D-02 0.757D-02 0.990D-02 0.543D-01 0.241D+00
 Coeff:      0.686D+00
 Gap=     0.235 Goal=   None    Shift=    0.000
 RMSDP=5.14D-09 MaxDP=1.87D-07 DE= 1.14D-13 OVMax= 2.17D-07

 SCF Done:  E(RB3LYP) =  -439.035796835     A.U. after   15 cycles
             Convg  =    0.5145D-08             -V/T =  2.0097
 KE= 4.348320056411D+02 PE=-1.923909858951D+03 EE= 5.981738558047D+02
 Leave Link  502 at Mon Oct  4 03:05:09 2021, MaxMem=  536870912 cpu:      79.8
 (Enter /sw/target/amd/app/gaussian/Gaussian09RevA.02_gcc-4.9.2/g09/l508.exe)
 QCSCF skips out because SCF is already converged.
 Leave Link  508 at Mon Oct  4 03:05:09 2021, MaxMem=  536870912 cpu:       0.0
 (Enter /sw/target/amd/app/gaussian/Gaussian09RevA.02_gcc-4.9.2/g09/l701.exe)
 Compute integral first derivatives.
 ... and contract with generalized density number  0.
 Leave Link  701 at Mon Oct  4 03:05:11 2021, MaxMem=  536870912 cpu:       0.5
 (Enter /sw/target/amd/app/gaussian/Gaussian09RevA.02_gcc-4.9.2/g09/l702.exe)
 L702 exits ... SP integral derivatives will be done elsewhere.
 Leave Link  702 at Mon Oct  4 03:05:12 2021, MaxMem=  536870912 cpu:       0.1
 (Enter /sw/target/amd/app/gaussian/Gaussian09RevA.02_gcc-4.9.2/g09/l703.exe)
 Compute integral first derivatives, UseDBF=F ICtDFT=           0.
 Integral derivatives from FoFDir, PRISM(SPDF).
 Calling FoFJK, ICntrl=      2127 FMM=F ISym2X=0 I1Cent= 0 IOpClX= 0 NMat=1 NMatS=1 NMatT=0.
 FoFCou: FMM=F IPFlag=           0 FMFlag=      100000 FMFlg1=         800
         NFxFlg=           0 DoJE=F BraDBF=F KetDBF=F FulRan=T
         Omega=  0.000000  0.000000  1.000000  0.000000  0.000000 ICntrl=    2127 IOpCl=  0
         NMat0=    1 NMatS0=    1 NMatT0=    0 NMatD0=    1 NMtDS0=    0 NMtDT0=    0
         I1Cent=           0 NGrid=           0.
 Symmetry not used in FoFCou.
 Leave Link  703 at Mon Oct  4 03:07:02 2021, MaxMem=  536870912 cpu:      33.1
 (Enter /sw/target/amd/app/gaussian/Gaussian09RevA.02_gcc-4.9.2/g09/l716.exe)
 Dipole        =-8.58269728D-01 9.46710768D-02 5.74806837D-01
 ***** Axes restored to original set *****
 -------------------------------------------------------------------
 Center     Atomic                   Forces (Hartrees/Bohr)
 Number     Number              X              Y              Z
 -------------------------------------------------------------------
      1        8           0.000901418   -0.003651866    0.003043348
      2        6          -0.003123345    0.010144747   -0.015407058
      3        7           0.003023431   -0.014402083    0.015707091
      4        6          -0.001042214    0.005276040    0.002620287
      5        6          -0.000479291   -0.000367725   -0.001469820
      6        6           0.001336071    0.000731149    0.000517105
      7        6          -0.000737270    0.000182472   -0.000235616
      8        6           0.000140908   -0.000505601   -0.000010370
      9        6           0.000206355    0.000292645    0.000078987
     10        6           0.000174415    0.000039616    0.000069791
     11        1           0.000455681    0.000932004   -0.001644221
     12        1           0.000168899    0.001346440   -0.002856051
     13        1          -0.000310136   -0.000176571   -0.000220640
     14        1           0.000016878    0.000021449   -0.000017076
     15        1          -0.000148125    0.000093628    0.000041058
     16        1          -0.000182443   -0.000033531    0.000050799
     17        1          -0.000401233    0.000077185   -0.000267615
 -------------------------------------------------------------------
 Cartesian Forces:  Max     0.015707091 RMS     0.004184417
 Leave Link  716 at Mon Oct  4 03:07:02 2021, MaxMem=  536870912 cpu:       0.1
 (Enter /sw/target/amd/app/gaussian/Gaussian09RevA.02_gcc-4.9.2/g09/l103.exe)

 GradGradGradGradGradGradGradGradGradGradGradGradGradGradGradGradGradGrad
 Berny optimization.
 Using GEDIIS/GDIIS optimizer.
 Internal  Forces:  Max     0.017556430 RMS     0.002629880
 Search for a local minimum.
 Step number   2 out of a maximum of   87
 All quantities printed in internal units (Hartrees-Bohrs-Radians)
 RMS Force = .26299D-02 SwitMx=.10000D-02 MixMth= 1
 Mixed Optimization -- RFO/linear search
 Update second derivatives using D2CorX and points    1    2
 DE= -1.03D-02 DEPred=-1.06D-02 R= 9.72D-01
 SS=  1.41D+00  RLast= 2.73D-01 DXNew= 5.0454D-01 8.1894D-01
 Trust test= 9.72D-01 RLast= 2.73D-01 DXMaxT set to 5.05D-01
 Use linear search instead of GDIIS.
     Eigenvalues ---    0.00616   0.00761   0.01478   0.02071   0.02097
     Eigenvalues ---    0.02106   0.02132   0.02155   0.02159   0.02166
     Eigenvalues ---    0.02175   0.04702   0.05691   0.06259   0.07181
     Eigenvalues ---    0.11609   0.14069   0.15961   0.16000   0.16000
     Eigenvalues ---    0.16000   0.16002   0.19381   0.22000   0.22002
     Eigenvalues ---    0.22035   0.23481   0.25004   0.31237   0.33634
     Eigenvalues ---    0.33943   0.35011   0.35081   0.35159   0.35163
     Eigenvalues ---    0.35172   0.37093   0.41810   0.41903   0.45483
     Eigenvalues ---    0.46100   0.46279   0.46636   1.14986   1.18417
[...]
     4  C   -0.000163  -0.057966   0.253949   5.027116   0.389284  -0.065303
     5  C   -0.000125  -0.007409  -0.059849   0.389284   4.829091   0.469903
     6  C   -0.000021   0.000821   0.002438  -0.065303   0.469903   5.109751
     7  C   -0.000000  -0.000014  -0.000023   0.005649  -0.029560   0.449852
     8  C    0.000001  -0.000028  -0.000013   0.000506  -0.020044  -0.046474
     9  C    0.000002  -0.000050  -0.000057   0.005703  -0.030927  -0.027806
    10  C   -0.000080   0.002579  -0.000219  -0.046161   0.469246  -0.055255
    11  H    0.000105  -0.002983  -0.043787   0.361841  -0.032839   0.005550
    12  H   -0.000031   0.003927  -0.060357   0.366975  -0.036907  -0.005132
    13  H   -0.000014   0.000357   0.001599  -0.008609  -0.045863   0.359893
    14  H   -0.000000   0.000001   0.000001  -0.000170   0.003815  -0.039313
    15  H    0.000000  -0.000000   0.000000   0.000007   0.000638   0.004714
    16  H   -0.000000   0.000001   0.000001  -0.000170   0.003916   0.000746
    17  H   -0.000003   0.000104   0.000085  -0.009593  -0.044095   0.006066
              7          8          9         10         11         12
     1  O   -0.000000   0.000001   0.000002  -0.000080   0.000105  -0.000031
     2  C   -0.000014  -0.000028  -0.000050   0.002579  -0.002983   0.003927
     3  N   -0.000023  -0.000013  -0.000057  -0.000219  -0.043787  -0.060357
     4  C    0.005649   0.000506   0.005703  -0.046161   0.361841   0.366975
     5  C   -0.029560  -0.020044  -0.030927   0.469246  -0.032839  -0.036907
     6  C    0.449852  -0.046474  -0.027806  -0.055255   0.005550  -0.005132
     7  C    5.011515   0.478091  -0.037090  -0.027578  -0.000159  -0.000060
     8  C    0.478091   4.994338   0.482710  -0.046529  -0.000001  -0.000009
     9  C   -0.037090   0.482710   5.009592   0.448886   0.000112  -0.000179
    10  C   -0.027578  -0.046529   0.448886   5.106049  -0.005417   0.004160
    11  H   -0.000159  -0.000001   0.000112  -0.005417   0.582596  -0.040725
    12  H   -0.000060  -0.000009  -0.000179   0.004160  -0.040725   0.593339
    13  H   -0.042531   0.004749   0.000308   0.005751   0.000144   0.003219
    14  H    0.360202  -0.041274   0.004571   0.000765   0.000003  -0.000001
    15  H   -0.041765   0.362031  -0.041866   0.004758  -0.000000  -0.000000
    16  H    0.004573  -0.041395   0.359795  -0.038964  -0.000006   0.000003
    17  H    0.000285   0.004745  -0.042998   0.356249   0.006880   0.000112
             13         14         15         16         17
     1  O   -0.000014  -0.000000   0.000000  -0.000000  -0.000003
     2  C    0.000357   0.000001  -0.000000   0.000001   0.000104
     3  N    0.001599   0.000001   0.000000   0.000001   0.000085
     4  C   -0.008609  -0.000170   0.000007  -0.000170  -0.009593
     5  C   -0.045863   0.003815   0.000638   0.003916  -0.044095
     6  C    0.359893  -0.039313   0.004714   0.000746   0.006066
     7  C   -0.042531   0.360202  -0.041765   0.004573   0.000285
     8  C    0.004749  -0.041274   0.362031  -0.041395   0.004745
     9  C    0.000308   0.004571  -0.041866   0.359795  -0.042998
    10  C    0.005751   0.000765   0.004758  -0.038964   0.356249
    11  H    0.000144   0.000003  -0.000000  -0.000006   0.006880
    12  H    0.003219  -0.000001  -0.000000   0.000003   0.000112
    13  H    0.585186  -0.005540  -0.000169   0.000017  -0.000162
    14  H   -0.005540   0.581323  -0.005556  -0.000176   0.000017
    15  H   -0.000169  -0.005556   0.584434  -0.005628  -0.000171
    16  H    0.000017  -0.000176  -0.005628   0.582420  -0.005561
    17  H   -0.000162   0.000017  -0.000171  -0.005561   0.591305
 Mulliken atomic charges:
              1
     1  O   -0.409152
     2  C    0.621010
     3  N   -0.427598
     4  C   -0.222895
     5  C    0.141723
     6  C   -0.170431
     7  C   -0.131386
     8  C   -0.131404
     9  C   -0.130707
    10  C   -0.178240
    11  H    0.168687
    12  H    0.171665
    13  H    0.141665
    14  H    0.141331
    15  H    0.138572
    16  H    0.140425
    17  H    0.136735
 Sum of Mulliken atomic charges =  -0.00000
 Mulliken charges with hydrogens summed into heavy atoms:
              1
     1  O   -0.409152
     2  C    0.621010
     3  N   -0.427598
     4  C    0.117458
     5  C    0.141723
     6  C   -0.028766
     7  C    0.009945
     8  C    0.007168
     9  C    0.009718
    10  C   -0.041505
 Sum of Mulliken charges with hydrogens summed into heavy atoms =  -0.00000
 Electronic spatial extent (au):  <R**2>=           1562.7304
 Charge=             -0.0000 electrons
 Dipole moment (field-independent basis, Debye):
    X=             -2.4601    Y=              1.6216    Z=             -0.0591  Tot=              2.9470
 Quadrupole moment (field-independent basis, Debye-Ang):
   XX=            -61.8156   YY=            -59.1679   ZZ=            -52.3889
   XY=              6.8000   XZ=              0.3721   YZ=             -1.8108
 Traceless Quadrupole moment (field-independent basis, Debye-Ang):
   XX=             -4.0248   YY=             -1.3771   ZZ=              5.4019
   XY=              6.8000   XZ=              0.3721   YZ=             -1.8108
 Octapole moment (field-independent basis, Debye-Ang**2):
  XXX=            -17.9380  YYY=              4.6841  ZZZ=             -1.1096  XYY=             -1.4585
  XXY=             -0.1883  XXZ=             -1.1858  XZZ=             -0.2087  YZZ=             -0.8909
  YYZ=              1.4165  XYZ=             -1.9365
 Hexadecapole moment (field-independent basis, Debye-Ang**3):
 XXXX=          -1434.8379 YYYY=           -324.9203 ZZZZ=           -295.1342 XXXY=             51.5472
 XXXZ=              6.8448 YYYX=              5.9477 YYYZ=              0.7696 ZZZX=             -1.3306
 ZZZY=             -3.5076 XXYY=           -316.2065 XXZZ=           -273.3523 YYZZ=           -105.1617
 XXYZ=            -11.7483 YYXZ=              0.5764 ZZXY=              1.7093
 N-N= 4.558555363211D+02 E-N=-1.931860980060D+03  KE= 4.351019052137D+02
 No NMR shielding tensors so no spin-rotation constants.
 Leave Link  601 at Mon Oct  4 10:21:24 2021, MaxMem=  536870912 cpu:       0.5
 (Enter /sw/target/amd/app/gaussian/Gaussian09RevA.02_gcc-4.9.2/g09/l604.exe)
 Evaluate density.
 Using the total density.
 Monte-Carlo method of calculating molar volume:
 based on  0.001 e/bohr**3 density envelope.
 Number of points per bohr**3 =   20 CutOff= 1.00D-04
 Using the CI density.
 There are       381 points.  Will hold       381 in memory.
 LenV=   536779844 MDV=   536870912.
 Box volume = 6949.144 fraction occupied=0.171
 Integrated density= 6.0717561492494987D+01 error=-9.2824385075050131D+00
 Molar volume = 1185.549 bohr**3/mol (105.797 cm**3/mol)
 Recommended a0 for SCRF calculation =  4.32 angstrom (  8.17 bohr)
 Leave Link  604 at Mon Oct  4 10:21:25 2021, MaxMem=  536870912 cpu:       0.2
 (Enter /sw/target/amd/app/gaussian/Gaussian09RevA.02_gcc-4.9.2/g09/l607.exe)
 ******************************Gaussian NBO Version 3.1******************************
             N A T U R A L   A T O M I C   O R B I T A L   A N D
          N A T U R A L   B O N D   O R B I T A L   A N A L Y S I S
 ******************************Gaussian NBO Version 3.1******************************
       /RESON  / : Allow strongly delocalized NBO set

 Analyzing the CI density

 Job title: O=C=NCc1ccccc1_conf_0                                           

 Storage needed:     81736 in NPA ( 536869297 available)


 NATURAL POPULATIONS:  Natural atomic orbital occupancies 
                                                          
   NAO  Atom  No  lang   Type(AO)    Occupancy
 --------------------------------------------
     1    O    1  S      Cor( 1S)     1.99980
     2    O    1  S      Val( 2S)     1.71324
     3    O    1  S      Ryd( 3S)     0.00239
     4    O    1  S      Ryd( 4S)     0.00001
     5    O    1  px     Val( 2p)     1.57997
     6    O    1  px     Ryd( 3p)     0.00111
     7    O    1  py     Val( 2p)     1.56807
     8    O    1  py     Ryd( 3p)     0.00121
     9    O    1  pz     Val( 2p)     1.62872
    10    O    1  pz     Ryd( 3p)     0.00156
    11    O    1  dxy    Ryd( 3d)     0.00467
    12    O    1  dxz    Ryd( 3d)     0.00116
    13    O    1  dyz    Ryd( 3d)     0.00472
    14    O    1  dx2y2  Ryd( 3d)     0.00507
    15    O    1  dz2    Ryd( 3d)     0.00187

    16    C    2  S      Cor( 1S)     1.99927
    17    C    2  S      Val( 2S)     0.70190
    18    C    2  S      Ryd( 3S)     0.00101
    19    C    2  S      Ryd( 4S)     0.00051
    20    C    2  px     Val( 2p)     0.79349
    21    C    2  px     Ryd( 3p)     0.00339
    22    C    2  py     Val( 2p)     0.81493
    23    C    2  py     Ryd( 3p)     0.01280
    24    C    2  pz     Val( 2p)     0.81526
    25    C    2  pz     Ryd( 3p)     0.00244
    26    C    2  dxy    Ryd( 3d)     0.00202
    27    C    2  dxz    Ryd( 3d)     0.00066
    28    C    2  dyz    Ryd( 3d)     0.00268
    29    C    2  dx2y2  Ryd( 3d)     0.00197
    30    C    2  dz2    Ryd( 3d)     0.00085

    31    N    3  S      Cor( 1S)     1.99915
    32    N    3  S      Val( 2S)     1.29390
    33    N    3  S      Ryd( 3S)     0.00249
    34    N    3  S      Ryd( 4S)     0.00006
    35    N    3  px     Val( 2p)     1.40081
    36    N    3  px     Ryd( 3p)     0.00223
    37    N    3  py     Val( 2p)     1.35277
    38    N    3  py     Ryd( 3p)     0.00315
    39    N    3  pz     Val( 2p)     1.49103
    40    N    3  pz     Ryd( 3p)     0.00312
    41    N    3  dxy    Ryd( 3d)     0.00137
    42    N    3  dxz    Ryd( 3d)     0.00058
    43    N    3  dyz    Ryd( 3d)     0.00157
    44    N    3  dx2y2  Ryd( 3d)     0.00095
    45    N    3  dz2    Ryd( 3d)     0.00106

    46    C    4  S      Cor( 1S)     1.99919
    47    C    4  S      Val( 2S)     1.02098
    48    C    4  S      Ryd( 3S)     0.00126
    49    C    4  S      Ryd( 4S)     0.00003
    50    C    4  px     Val( 2p)     0.91482
    51    C    4  px     Ryd( 3p)     0.00407
    52    C    4  py     Val( 2p)     1.07653
    53    C    4  py     Ryd( 3p)     0.00152
    54    C    4  pz     Val( 2p)     1.25693
    55    C    4  pz     Ryd( 3p)     0.00553
    56    C    4  dxy    Ryd( 3d)     0.00125
    57    C    4  dxz    Ryd( 3d)     0.00061
    58    C    4  dyz    Ryd( 3d)     0.00150
    59    C    4  dx2y2  Ryd( 3d)     0.00128
    60    C    4  dz2    Ryd( 3d)     0.00088

    61    C    5  S      Cor( 1S)     1.99904
    62    C    5  S      Val( 2S)     0.89561
    63    C    5  S      Ryd( 3S)     0.00078
    64    C    5  S      Ryd( 4S)     0.00005
    65    C    5  px     Val( 2p)     1.03015
    66    C    5  px     Ryd( 3p)     0.00466
    67    C    5  py     Val( 2p)     1.03115
    68    C    5  py     Ryd( 3p)     0.00360
    69    C    5  pz     Val( 2p)     1.08285
    70    C    5  pz     Ryd( 3p)     0.00452
    71    C    5  dxy    Ryd( 3d)     0.00049
    72    C    5  dxz    Ryd( 3d)     0.00078
    73    C    5  dyz    Ryd( 3d)     0.00082
    74    C    5  dx2y2  Ryd( 3d)     0.00048
    75    C    5  dz2    Ryd( 3d)     0.00062

    76    C    6  S      Cor( 1S)     1.99907
    77    C    6  S      Val( 2S)     0.96403
    78    C    6  S      Ryd( 3S)     0.00065
    79    C    6  S      Ryd( 4S)     0.00005
    80    C    6  px     Val( 2p)     1.07192
    81    C    6  px     Ryd( 3p)     0.00453
    82    C    6  py     Val( 2p)     1.00811
    83    C    6  py     Ryd( 3p)     0.00475
    84    C    6  pz     Val( 2p)     1.15619
    85    C    6  pz     Ryd( 3p)     0.00470
    86    C    6  dxy    Ryd( 3d)     0.00047
    87    C    6  dxz    Ryd( 3d)     0.00077
    88    C    6  dyz    Ryd( 3d)     0.00047
    89    C    6  dx2y2  Ryd( 3d)     0.00063
    90    C    6  dz2    Ryd( 3d)     0.00070

    91    C    7  S      Cor( 1S)     1.99915
    92    C    7  S      Val( 2S)     0.97250
    93    C    7  S      Ryd( 3S)     0.00062
    94    C    7  S      Ryd( 4S)     0.00003
    95    C    7  px     Val( 2p)     1.05492
    96    C    7  px     Ryd( 3p)     0.00492
    97    C    7  py     Val( 2p)     1.01825
    98    C    7  py     Ryd( 3p)     0.00458
    99    C    7  pz     Val( 2p)     1.15045
   100    C    7  pz     Ryd( 3p)     0.00499
   101    C    7  dxy    Ryd( 3d)     0.00053
   102    C    7  dxz    Ryd( 3d)     0.00067
   103    C    7  dyz    Ryd( 3d)     0.00061
   104    C    7  dx2y2  Ryd( 3d)     0.00056
   105    C    7  dz2    Ryd( 3d)     0.00070

   106    C    8  S      Cor( 1S)     1.99915
   107    C    8  S      Val( 2S)     0.97361
   108    C    8  S      Ryd( 3S)     0.00058
   109    C    8  S      Ryd( 4S)     0.00003
   110    C    8  px     Val( 2p)     1.14184
   111    C    8  px     Ryd( 3p)     0.00457
   112    C    8  py     Val( 2p)     1.04820
   113    C    8  py     Ryd( 3p)     0.00433
   114    C    8  pz     Val( 2p)     1.05184
   115    C    8  pz     Ryd( 3p)     0.00502
   116    C    8  dxy    Ryd( 3d)     0.00060
   117    C    8  dxz    Ryd( 3d)     0.00067
   118    C    8  dyz    Ryd( 3d)     0.00067
   119    C    8  dx2y2  Ryd( 3d)     0.00044
   120    C    8  dz2    Ryd( 3d)     0.00065

   121    C    9  S      Cor( 1S)     1.99915
   122    C    9  S      Val( 2S)     0.97193
   123    C    9  S      Ryd( 3S)     0.00062
   124    C    9  S      Ryd( 4S)     0.00003
   125    C    9  px     Val( 2p)     1.06457
   126    C    9  px     Ryd( 3p)     0.00488
   127    C    9  py     Val( 2p)     1.00440
   128    C    9  py     Ryd( 3p)     0.00469
   129    C    9  pz     Val( 2p)     1.16012
   130    C    9  pz     Ryd( 3p)     0.00501
   131    C    9  dxy    Ryd( 3d)     0.00047
   132    C    9  dxz    Ryd( 3d)     0.00076
   133    C    9  dyz    Ryd( 3d)     0.00047
   134    C    9  dx2y2  Ryd( 3d)     0.00062
   135    C    9  dz2    Ryd( 3d)     0.00073

   136    C   10  S      Cor( 1S)     1.99906
   137    C   10  S      Val( 2S)     0.96408
   138    C   10  S      Ryd( 3S)     0.00059
   139    C   10  S      Ryd( 4S)     0.00004
   140    C   10  px     Val( 2p)     1.06281
   141    C   10  px     Ryd( 3p)     0.00442
   142    C   10  py     Val( 2p)     1.02594
   143    C   10  py     Ryd( 3p)     0.00452
   144    C   10  pz     Val( 2p)     1.14457
   145    C   10  pz     Ryd( 3p)     0.00464
   146    C   10  dxy    Ryd( 3d)     0.00053
   147    C   10  dxz    Ryd( 3d)     0.00069
   148    C   10  dyz    Ryd( 3d)     0.00063
   149    C   10  dx2y2  Ryd( 3d)     0.00057
   150    C   10  dz2    Ryd( 3d)     0.00066

   151    H   11  S      Val( 1S)     0.75351
   152    H   11  S      Ryd( 2S)     0.00186

   153    H   12  S      Val( 1S)     0.74771
   154    H   12  S      Ryd( 2S)     0.00239

   155    H   13  S      Val( 1S)     0.76553
   156    H   13  S      Ryd( 2S)     0.00113

   157    H   14  S      Val( 1S)     0.76570
   158    H   14  S      Ryd( 2S)     0.00087

   159    H   15  S      Val( 1S)     0.76592
   160    H   15  S      Ryd( 2S)     0.00083

   161    H   16  S      Val( 1S)     0.76548
   162    H   16  S      Ryd( 2S)     0.00087

   163    H   17  S      Val( 1S)     0.76921
   164    H   17  S      Ryd( 2S)     0.00108


 Summary of Natural Population Analysis:                  
                                                          
                                       Natural Population 
                Natural  -----------------------------------------------
    Atom  No    Charge         Core      Valence    Rydberg      Total
 -----------------------------------------------------------------------
      O    1   -0.51357      1.99980     6.49000    0.02376     8.51357
      C    2    0.84683      1.99927     3.12558    0.02832     5.15317
      N    3   -0.55426      1.99915     5.53852    0.01659     7.55426
      C    4   -0.28640      1.99919     4.26926    0.01795     6.28640
      C    5   -0.05561      1.99904     4.03976    0.01680     6.05561
      C    6   -0.21703      1.99907     4.20026    0.01771     6.21703
      C    7   -0.21347      1.99915     4.19611    0.01821     6.21347
      C    8   -0.23220      1.99915     4.21549    0.01756     6.23220
      C    9   -0.21846      1.99915     4.20102    0.01829     6.21846
      C   10   -0.21375      1.99906     4.19740    0.01729     6.21375
      H   11    0.24463      0.00000     0.75351    0.00186     0.75537
      H   12    0.24990      0.00000     0.74771    0.00239     0.75010
      H   13    0.23333      0.00000     0.76553    0.00113     0.76667
      H   14    0.23344      0.00000     0.76570    0.00087     0.76656
      H   15    0.23325      0.00000     0.76592    0.00083     0.76675
      H   16    0.23365      0.00000     0.76548    0.00087     0.76635
      H   17    0.22971      0.00000     0.76921    0.00108     0.77029
 =======================================================================
   * Total *   -0.00000     19.99203    49.80646    0.20151    70.00000

                                 Natural Population      
 --------------------------------------------------------
   Core                      19.99203 ( 99.9601% of  20)
   Valence                   49.80646 ( 99.6129% of  50)
   Natural Minimal Basis     69.79849 ( 99.7121% of  70)
   Natural Rydberg Basis      0.20151 (  0.2879% of  70)
 --------------------------------------------------------

    Atom  No          Natural Electron Configuration
 ----------------------------------------------------------------------------
      O    1      [core]2S( 1.71)2p( 4.78)3d( 0.02)
      C    2      [core]2S( 0.70)2p( 2.42)3p( 0.02)3d( 0.01)
      N    3      [core]2S( 1.29)2p( 4.24)3p( 0.01)3d( 0.01)
      C    4      [core]2S( 1.02)2p( 3.25)3p( 0.01)3d( 0.01)
      C    5      [core]2S( 0.90)2p( 3.14)3p( 0.01)
      C    6      [core]2S( 0.96)2p( 3.24)3p( 0.01)
      C    7      [core]2S( 0.97)2p( 3.22)3p( 0.01)
      C    8      [core]2S( 0.97)2p( 3.24)3p( 0.01)
      C    9      [core]2S( 0.97)2p( 3.23)3p( 0.01)
      C   10      [core]2S( 0.96)2p( 3.23)3p( 0.01)
      H   11            1S( 0.75)
      H   12            1S( 0.75)
      H   13            1S( 0.77)
      H   14            1S( 0.77)
      H   15            1S( 0.77)
      H   16            1S( 0.77)
      H   17            1S( 0.77)


 NBO analysis skipped by request.
 Leave Link  607 at Mon Oct  4 10:21:33 2021, MaxMem=  536870912 cpu:       5.6
 (Enter /sw/target/amd/app/gaussian/Gaussian09RevA.02_gcc-4.9.2/g09/l9999.exe)
 1\1\GINC-HERMITE\SP\RTD-B3LYP-FC\6-31G(d)\C8H7N1O1\JSCHLEINITZ\04-Oct-
 2021\0\\#p TD(NStates=10, Root=1) b3lyp/6-31G* volume pop=NPA density=
 current Geom=AllCheck Guess=Read\\O=C=NCc1ccccc1_conf_0\\0,1\O,0,4.506
 8976952,0.5215534075,-4.2806644481\C,0,4.2619984795,0.6742790495,-3.13
 61493575\N,0,3.89537985,0.9202374161,-2.0110592683\C,0,4.3117513672,0.
 5945630654,-0.6555406943\C,0,5.8142557612,0.4899825247,-0.4817294115\C
 ,0,6.6068761523,1.6451965233,-0.4581428867\C,0,7.9903708408,1.55141286
 16,-0.3167953275\C,0,8.5984935818,0.2992210585,-0.1941859978\C,0,7.816
 8175482,-0.8559666636,-0.2144997072\C,0,6.4311633212,-0.7593746449,-0.
 3589113332\H,0,3.8301925924,-0.3456351813,-0.3610188653\H,0,3.90577035
 32,1.3762653462,-0.0056235978\H,0,6.1354586814,2.6207103318,-0.5535873
 171\H,0,8.5943704722,2.4545632147,-0.2983213645\H,0,9.6767656178,0.226
 0347463,-0.0815936409\H,0,8.2831249993,-1.8326942774,-0.1178328587\H,0
 ,5.8243458103,-1.6620812349,-0.3743552178\\Version=AM64L-G09RevA.02\St
 ate=1-A\HF=-439.0389152\RMSD=9.921e-09\Dipole=0.3964763,-0.1405633,1.0
 804553\Quadrupole=2.5712956,4.1221561,-6.6934517,0.8516788,-2.3604071,
 -0.1203698\PG=C01 [X(C8H7N1O1)]\\@


 PICNIC:  A SNACK IN THE GRASS.
 Job cpu time:  0 days  0 hours 43 minutes 19.5 seconds.
 File lengths (MBytes):  RWF=     93 Int=      0 D2E=      0 Chk=     13 Scr=      1
 Normal termination of Gaussian 09 at Mon Oct  4 10:22:20 2021.
