 Entering Gaussian System, Link 0=g09
 Input=C8H7F3O_898c_conf_0.com
 Output=C8H7F3O_898c_conf_0.log
 Initial command:
 /sw/target/amd/app/gaussian/Gaussian09RevA.02_gcc-4.9.2/g09/l1.exe /home/jschleinitz/gaussian/Gau-445226.inp -scrdir=/home/jschleinitz/gaussian/
 Entering Link 1 = /sw/target/amd/app/gaussian/Gaussian09RevA.02_gcc-4.9.2/g09/l1.exe PID=    445228.
  
 Copyright (c) 1988,1990,1992,1993,1995,1998,2003,2009, Gaussian, Inc.
                  All Rights Reserved.
  
 This is part of the Gaussian(R) 09 program.  It is based on
 the Gaussian(R) 03 system (copyright 2003, Gaussian, Inc.),
 the Gaussian(R) 98 system (copyright 1998, Gaussian, Inc.),
 the Gaussian(R) 94 system (copyright 1995, Gaussian, Inc.),
 the Gaussian 92(TM) system (copyright 1992, Gaussian, Inc.),
 the Gaussian 90(TM) system (copyright 1990, Gaussian, Inc.),
 the Gaussian 88(TM) system (copyright 1988, Gaussian, Inc.),
 the Gaussian 86(TM) system (copyright 1986, Carnegie Mellon
 University), and the Gaussian 82(TM) system (copyright 1983,
 Carnegie Mellon University). Gaussian is a federally registered
 trademark of Gaussian, Inc.
  
 This software contains proprietary and confidential information,
 including trade secrets, belonging to Gaussian, Inc.
  
 This software is provided under written license and may be
 used, copied, transmitted, or stored only in accord with that
 written license.
  
 The following legend is applicable only to US Government
 contracts under FAR:
  
                    RESTRICTED RIGHTS LEGEND
  
 Use, reproduction and disclosure by the US Government is
 subject to restrictions as set forth in subparagraphs (a)
 and (c) of the Commercial Computer Software - Restricted
 Rights clause in FAR 52.227-19.
  
 Gaussian, Inc.
 340 Quinnipiac St., Bldg. 40, Wallingford CT 06492
  
  
 ---------------------------------------------------------------
 Warning -- This program may not be used in any manner that
 competes with the business of Gaussian, Inc. or will provide
 assistance to any competitor of Gaussian, Inc.  The licensee
 of this program is prohibited from giving any competitor of
 Gaussian, Inc. access to this program.  By using this program,
 the user acknowledges that Gaussian, Inc. is engaged in the
 business of creating and licensing software in the field of
 computational chemistry and represents and warrants to the
 licensee that it is not a competitor of Gaussian, Inc. and that
 it will not use this program in any manner prohibited above.
 ---------------------------------------------------------------
  

 Cite this work as:
 Gaussian 09, Revision A.02,
 M. J. Frisch, G. W. Trucks, H. B. Schlegel, G. E. Scuseria, 
 M. A. Robb, J. R. Cheeseman, G. Scalmani, V. Barone, B. Mennucci, 
 G. A. Petersson, H. Nakatsuji, M. Caricato, X. Li, H. P. Hratchian, 
 A. F. Izmaylov, J. Bloino, G. Zheng, J. L. Sonnenberg, M. Hada, 
 M. Ehara, K. Toyota, R. Fukuda, J. Hasegawa, M. Ishida, T. Nakajima, 
 Y. Honda, O. Kitao, H. Nakai, T. Vreven, J. A. Montgomery, Jr., 
 J. E. Peralta, F. Ogliaro, M. Bearpark, J. J. Heyd, E. Brothers, 
 K. N. Kudin, V. N. Staroverov, R. Kobayashi, J. Normand, 
 K. Raghavachari, A. Rendell, J. C. Burant, S. S. Iyengar, J. Tomasi, 
 M. Cossi, N. Rega, J. M. Millam, M. Klene, J. E. Knox, J. B. Cross, 
 V. Bakken, C. Adamo, J. Jaramillo, R. Gomperts, R. E. Stratmann, 
 O. Yazyev, A. J. Austin, R. Cammi, C. Pomelli, J. W. Ochterski, 
 R. L. Martin, K. Morokuma, V. G. Zakrzewski, G. A. Voth, 
 P. Salvador, J. J. Dannenberg, S. Dapprich, A. D. Daniels, 
 O. Farkas, J. B. Foresman, J. V. Ortiz, J. Cioslowski, 
 and D. J. Fox, Gaussian, Inc., Wallingford CT, 2009.
 
 ******************************************
 Gaussian 09:  AM64L-G09RevA.02 11-Jun-2009
                28-Sep-2021 
 ******************************************
 %nproc=3
 Will use up to    3 processors via shared memory.
 %mem=6gb
 %chk=C8H7F3O_898c_conf_0.chk
 -----------------------------------
 #p opt b3lyp/6-31G* scf=(xqc,tight)
 -----------------------------------
 1/14=-1,18=20,19=15,26=3,38=1/1,3;
 2/9=110,12=2,17=6,18=5,40=1/2;
 3/5=1,6=6,7=1,11=2,16=1,25=1,30=1,71=1,74=-5/1,2,3;
 4//1;
 5/5=2,8=3,13=1,32=2,38=5/2,8;
 6/7=2,8=2,9=2,10=2,28=1/1;
 7//1,2,3,16;
 1/14=-1,18=20,19=15/3(2);
 2/9=110/2;
 99//99;
 2/9=110/2;
 3/5=1,6=6,7=1,11=2,16=1,25=1,30=1,71=1,74=-5/1,2,3;
 4/5=5,16=3/1;
 5/5=2,8=3,13=1,32=2,38=5/2,8;
 7//1,2,3,16;
 1/14=-1,18=20,19=15/3(-5);
 2/9=110/2;
 6/7=2,8=2,9=2,10=2,19=2,28=1/1;
 99/9=1/99;
 Leave Link    1 at Tue Sep 28 23:51:04 2021, MaxMem=  805306368 cpu:       0.1
 (Enter /sw/target/amd/app/gaussian/Gaussian09RevA.02_gcc-4.9.2/g09/l101.exe)
 ---------------------------
 COc1ccc(cc1)C(F)(F)F_conf_0
 ---------------------------
 Symbolic Z-matrix:
 Charge =  0 Multiplicity = 1
 C                     1.26739   0.32362  -0.698 
 O                     2.42605  -0.16508  -0.03399 
 C                     3.11577  -1.17102  -0.65176 
 C                     2.78974  -1.7617   -1.87238 
 C                     3.58527  -2.79003  -2.39256 
 C                     4.71813  -3.24159  -1.69978 
 C                     5.03982  -2.64175  -0.47438 
 C                     4.24344  -1.61631   0.04148 
 C                     5.58313  -4.34959  -2.24801 
 F                     5.15108  -4.83755  -3.44477 
 F                     6.87071  -3.95454  -2.45088 
 F                     5.649    -5.42242  -1.41142 
 H                     0.83142   1.11008  -0.07444 
 H                     0.51576  -0.46433  -0.81331 
 H                     1.52564   0.76908  -1.66439 
 H                     1.92372  -1.4476   -2.44598 
 H                     3.31203  -3.2381   -3.34719 
 H                     5.91364  -2.97108   0.08579 
 H                     4.50351  -1.15934   0.99379 
 
 NAtoms=     19 NQM=     19 NQMF=      0 NMic=      0 NMicF=      0 NTot=     19.
                    Isotopes and Nuclear Properties:
 (Nuclear quadrupole moments (NQMom) in fm**2, nuclear magnetic moments (NMagM)
  in nuclear magnetons)

  Atom         1           2           3           4           5           6           7           8           9          10
 IAtWgt=          12          16          12          12          12          12          12          12          12          19
 AtmWgt=  12.0000000  15.9949146  12.0000000  12.0000000  12.0000000  12.0000000  12.0000000  12.0000000  12.0000000  18.9984032
 NucSpn=           0           0           0           0           0           0           0           0           0           1
 AtZEff=   0.0000000   0.0000000   0.0000000   0.0000000   0.0000000   0.0000000   0.0000000   0.0000000   0.0000000   0.0000000
 NQMom=    0.0000000   0.0000000   0.0000000   0.0000000   0.0000000   0.0000000   0.0000000   0.0000000   0.0000000   0.0000000
 NMagM=    0.0000000   0.0000000   0.0000000   0.0000000   0.0000000   0.0000000   0.0000000   0.0000000   0.0000000   2.6288670

  Atom        11          12          13          14          15          16          17          18          19
 IAtWgt=          19          19           1           1           1           1           1           1           1
 AtmWgt=  18.9984032  18.9984032   1.0078250   1.0078250   1.0078250   1.0078250   1.0078250   1.0078250   1.0078250
 NucSpn=           1           1           1           1           1           1           1           1           1
 AtZEff=   0.0000000   0.0000000   0.0000000   0.0000000   0.0000000   0.0000000   0.0000000   0.0000000   0.0000000
 NQMom=    0.0000000   0.0000000   0.0000000   0.0000000   0.0000000   0.0000000   0.0000000   0.0000000   0.0000000
 NMagM=    2.6288670   2.6288670   2.7928460   2.7928460   2.7928460   2.7928460   2.7928460   2.7928460   2.7928460
 Leave Link  101 at Tue Sep 28 23:51:05 2021, MaxMem=  805306368 cpu:       0.2
 (Enter /sw/target/amd/app/gaussian/Gaussian09RevA.02_gcc-4.9.2/g09/l103.exe)

 GradGradGradGradGradGradGradGradGradGradGradGradGradGradGradGradGradGrad
 Berny optimization.
 Initialization pass.
                           ----------------------------
                           !    Initial Parameters    !
                           ! (Angstroms and Degrees)  !
 --------------------------                            --------------------------
 ! Name  Definition              Value          Derivative Info.                !
 --------------------------------------------------------------------------------
 ! R1    R(1,2)                  1.4221         estimate D2E/DX2                !
 ! R2    R(1,13)                 1.0943         estimate D2E/DX2                !
 ! R3    R(1,14)                 1.095          estimate D2E/DX2                !
 ! R4    R(1,15)                 1.095          estimate D2E/DX2                !
 ! R5    R(2,3)                  1.3672         estimate D2E/DX2                !
 ! R6    R(3,4)                  1.3947         estimate D2E/DX2                !
 ! R7    R(3,8)                  1.3966         estimate D2E/DX2                !
 ! R8    R(4,5)                  1.4003         estimate D2E/DX2                !
 ! R9    R(4,16)                 1.0852         estimate D2E/DX2                !
 ! R10   R(5,6)                  1.4026         estimate D2E/DX2                !
 ! R11   R(5,17)                 1.0894         estimate D2E/DX2                !
 ! R12   R(6,7)                  1.4018         estimate D2E/DX2                !
 ! R13   R(6,9)                  1.5088         estimate D2E/DX2                !
 ! R14   R(7,8)                  1.3971         estimate D2E/DX2                !
 ! R15   R(7,18)                 1.0889         estimate D2E/DX2                !
 ! R16   R(8,19)                 1.0878         estimate D2E/DX2                !
 ! R17   R(9,10)                 1.3627         estimate D2E/DX2                !
 ! R18   R(9,11)                 1.362          estimate D2E/DX2                !
 ! R19   R(9,12)                 1.362          estimate D2E/DX2                !
 ! A1    A(2,1,13)             107.7897         estimate D2E/DX2                !
 ! A2    A(2,1,14)             111.171          estimate D2E/DX2                !
 ! A3    A(2,1,15)             111.0843         estimate D2E/DX2                !
 ! A4    A(13,1,14)            107.6799         estimate D2E/DX2                !
 ! A5    A(13,1,15)            107.7276         estimate D2E/DX2                !
 ! A6    A(14,1,15)            111.2027         estimate D2E/DX2                !
 ! A7    A(1,2,3)              116.9296         estimate D2E/DX2                !
 ! A8    A(2,3,4)              126.0961         estimate D2E/DX2                !
 ! A9    A(2,3,8)              114.6851         estimate D2E/DX2                !
 ! A10   A(4,3,8)              119.2188         estimate D2E/DX2                !
 ! A11   A(3,4,5)              120.2197         estimate D2E/DX2                !
 ! A12   A(3,4,16)             121.7742         estimate D2E/DX2                !
 ! A13   A(5,4,16)             118.0061         estimate D2E/DX2                !
 ! A14   A(4,5,6)              120.784          estimate D2E/DX2                !
 ! A15   A(4,5,17)             119.0171         estimate D2E/DX2                !
 ! A16   A(6,5,17)             120.199          estimate D2E/DX2                !
 ! A17   A(5,6,7)              118.6455         estimate D2E/DX2                !
 ! A18   A(5,6,9)              121.3333         estimate D2E/DX2                !
 ! A19   A(7,6,9)              120.0212         estimate D2E/DX2                !
 ! A20   A(6,7,8)              120.4009         estimate D2E/DX2                !
 ! A21   A(6,7,18)             120.2941         estimate D2E/DX2                !
 ! A22   A(8,7,18)             119.3049         estimate D2E/DX2                !
 ! A23   A(3,8,7)              120.731          estimate D2E/DX2                !
 ! A24   A(3,8,19)             119.5805         estimate D2E/DX2                !
 ! A25   A(7,8,19)             119.6884         estimate D2E/DX2                !
 ! A26   A(6,9,10)             113.5965         estimate D2E/DX2                !
 ! A27   A(6,9,11)             112.5254         estimate D2E/DX2                !
 ! A28   A(6,9,12)             112.5182         estimate D2E/DX2                !
 ! A29   A(10,9,11)            105.8292         estimate D2E/DX2                !
 ! A30   A(10,9,12)            105.8251         estimate D2E/DX2                !
 ! A31   A(11,9,12)            105.9164         estimate D2E/DX2                !
 ! D1    D(13,1,2,3)           179.4824         estimate D2E/DX2                !
 ! D2    D(14,1,2,3)            61.6878         estimate D2E/DX2                !
 ! D3    D(15,1,2,3)           -62.7142         estimate D2E/DX2                !
 ! D4    D(1,2,3,4)              0.0513         estimate D2E/DX2                !
 ! D5    D(1,2,3,8)           -179.9138         estimate D2E/DX2                !
 ! D6    D(2,3,4,5)           -179.8829         estimate D2E/DX2                !
 ! D7    D(2,3,4,16)             0.0865         estimate D2E/DX2                !
 ! D8    D(8,3,4,5)              0.0808         estimate D2E/DX2                !
 ! D9    D(8,3,4,16)          -179.9498         estimate D2E/DX2                !
 ! D10   D(2,3,8,7)            179.9041         estimate D2E/DX2                !
 ! D11   D(2,3,8,19)            -0.0678         estimate D2E/DX2                !
 ! D12   D(4,3,8,7)             -0.0636         estimate D2E/DX2                !
 ! D13   D(4,3,8,19)           179.9646         estimate D2E/DX2                !
 ! D14   D(3,4,5,6)             -0.0291         estimate D2E/DX2                !
 ! D15   D(3,4,5,17)           179.9475         estimate D2E/DX2                !
 ! D16   D(16,4,5,6)          -179.9997         estimate D2E/DX2                !
 ! D17   D(16,4,5,17)           -0.0231         estimate D2E/DX2                !
 ! D18   D(4,5,6,7)             -0.0403         estimate D2E/DX2                !
 ! D19   D(4,5,6,9)            179.9353         estimate D2E/DX2                !
 ! D20   D(17,5,6,7)           179.9834         estimate D2E/DX2                !
 ! D21   D(17,5,6,9)            -0.0409         estimate D2E/DX2                !
 ! D22   D(5,6,7,8)              0.0576         estimate D2E/DX2                !
 ! D23   D(5,6,7,18)          -179.971          estimate D2E/DX2                !
 ! D24   D(9,6,7,8)           -179.9184         estimate D2E/DX2                !
 ! D25   D(9,6,7,18)             0.053          estimate D2E/DX2                !
 ! D26   D(5,6,9,10)             0.0172         estimate D2E/DX2                !
 ! D27   D(5,6,9,11)           120.2427         estimate D2E/DX2                !
 ! D28   D(5,6,9,12)          -120.1976         estimate D2E/DX2                !
 ! D29   D(7,6,9,10)           179.9925         estimate D2E/DX2                !
 ! D30   D(7,6,9,11)           -59.782          estimate D2E/DX2                !
 ! D31   D(7,6,9,12)            59.7777         estimate D2E/DX2                !
 ! D32   D(6,7,8,3)             -0.006          estimate D2E/DX2                !
 ! D33   D(6,7,8,19)           179.9658         estimate D2E/DX2                !
 ! D34   D(18,7,8,3)          -179.9777         estimate D2E/DX2                !
 ! D35   D(18,7,8,19)           -0.0059         estimate D2E/DX2                !
 --------------------------------------------------------------------------------
 Trust Radius=3.00D-01 FncErr=1.00D-07 GrdErr=1.00D-06
 Number of steps in this run=  95 maximum allowed number of steps= 114.
 GradGradGradGradGradGradGradGradGradGradGradGradGradGradGradGradGradGrad

 Leave Link  103 at Tue Sep 28 23:51:05 2021, MaxMem=  805306368 cpu:       0.0
 (Enter /sw/target/amd/app/gaussian/Gaussian09RevA.02_gcc-4.9.2/g09/l202.exe)
                          Input orientation:                          
 ---------------------------------------------------------------------
 Center     Atomic      Atomic             Coordinates (Angstroms)
 Number     Number       Type             X           Y           Z
 ---------------------------------------------------------------------
      1          6           0        1.267390    0.323619   -0.698000
      2          8           0        2.426050   -0.165079   -0.033988
      3          6           0        3.115766   -1.171022   -0.651759
      4          6           0        2.789738   -1.761697   -1.872383
      5          6           0        3.585270   -2.790029   -2.392557
      6          6           0        4.718128   -3.241586   -1.699781
      7          6           0        5.039823   -2.641749   -0.474376
      8          6           0        4.243437   -1.616308    0.041475
      9          6           0        5.583129   -4.349593   -2.248006
     10          9           0        5.151075   -4.837552   -3.444770
     11          9           0        6.870708   -3.954536   -2.450884
     12          9           0        5.648996   -5.422417   -1.411419
     13          1           0        0.831423    1.110082   -0.074439
     14          1           0        0.515761   -0.464327   -0.813315
     15          1           0        1.525635    0.769082   -1.664391
     16          1           0        1.923723   -1.447602   -2.445982
     17          1           0        3.312028   -3.238105   -3.347190
     18          1           0        5.913636   -2.971081    0.085794
     19          1           0        4.503513   -1.159340    0.993788
 ---------------------------------------------------------------------
                    Distance matrix (angstroms):
                    1          2          3          4          5
     1  C    0.000000
     2  O    1.422051   0.000000
     3  C    2.377517   1.367214   0.000000
     4  C    2.836417   2.461942   1.394674   0.000000
     5  C    4.235433   3.714432   2.423220   1.400328   0.000000
     6  C    5.061802   4.182509   2.820132   2.436914   1.402572
     7  C    4.803609   3.627623   2.428270   2.791379   2.411872
     8  C    3.628636   2.326942   1.396601   2.407745   2.781244
     9  C    6.547291   5.690270   4.328878   3.826399   2.538616
    10  F    7.018934   6.394623   5.038534   4.184399   2.784106
    11  F    7.264461   6.321104   5.008432   4.668782   3.486199
    12  F    7.261155   6.318568   5.006864   4.667839   3.485837
    13  H    1.094267   2.042182   3.279476   3.913402   5.307373
    14  H    1.095036   2.084731   2.699175   2.824140   4.162305
    15  H    1.095006   2.083654   2.705170   2.836558   4.176074
    16  H    2.573604   2.777573   2.171796   1.085197   2.136751
    17  H    4.887190   4.604970   3.402454   2.151191   1.089384
    18  H    5.749520   4.477863   3.407678   3.880181   3.405333
    19  H    3.941295   2.522049   2.152627   3.393347   3.869064
                    6          7          8          9         10
     6  C    0.000000
     7  C    1.401752   0.000000
     8  C    2.428751   1.397090   0.000000
     9  C    1.508793   2.521442   3.808850   0.000000
    10  F    2.404067   3.695560   4.832610   1.362725   0.000000
    11  F    2.388735   2.997021   4.310652   1.362017   2.173629
    12  F    2.388659   2.996874   4.309636   1.362046   2.173594
    13  H    6.056833   5.652151   4.369037   7.557192   8.086586
    14  H    5.114575   5.032214   3.994158   6.544604   6.894620
    15  H    5.126277   5.039783   3.998314   6.557796   6.909986
    16  H    3.403512   3.875989   3.405434   4.674612   4.785932
    17  H    2.165892   3.404992   3.870504   2.757084   2.439231
    18  H    2.165800   1.088944   2.151032   2.730595   4.065722
    19  H    3.411323   2.154222   1.087823   4.674667   5.800809
                   11         12         13         14         15
    11  F    0.000000
    12  F    2.174337   0.000000
    13  H    8.232303   8.226182   0.000000
    14  H    7.432937   7.161738   1.767581   0.000000
    15  H    7.176416   7.443169   1.768095   1.807063   0.000000
    16  H    5.545936   5.545010   3.655008   2.369554   2.383914
    17  H    3.739097   3.738964   5.980889   4.683319   4.698995
    18  H    2.884078   2.884567   6.520004   6.019075   6.025489
    19  H    5.028171   5.027025   4.446980   4.432926   4.433112
                   16         17         18         19
    16  H    0.000000
    17  H    2.438333   0.000000
    18  H    4.964905   4.315674   0.000000
    19  H    4.309342   4.958326   2.468867   0.000000
 Stoichiometry    C8H7F3O
 Framework group  C1[X(C8H7F3O)]
 Deg. of freedom    51
 Full point group                 C1      NOp   1
 Largest Abelian subgroup         C1      NOp   1
 Largest concise Abelian subgroup C1      NOp   1
                         Standard orientation:                         
 ---------------------------------------------------------------------
 Center     Atomic      Atomic             Coordinates (Angstroms)
 Number     Number       Type             X           Y           Z
 ---------------------------------------------------------------------
      1          6           0        4.227943    0.596543    0.002667
      2          8           0        3.356855   -0.527483    0.000722
      3          6           0        2.014062   -0.270236   -0.001371
      4          6           0        1.419117    0.991174   -0.002786
      5          6           0        0.024052    1.112461   -0.002425
      6          6           0       -0.795455   -0.025790   -0.001257
      7          6           0       -0.189740   -1.289917   -0.001321
      8          6           0        1.202452   -1.406803   -0.001314
      9          6           0       -2.299761    0.090474    0.000597
     10          9           0       -2.747401    1.377578    0.000609
     11          9           0       -2.870167   -0.501243   -1.085496
     12          9           0       -2.867256   -0.500160    1.088838
     13          1           0        5.256265    0.222572    0.013602
     14          1           0        4.085914    1.205387    0.901689
     15          1           0        4.100519    1.195227   -0.905286
     16          1           0        2.009759    1.901555   -0.003693
     17          1           0       -0.419879    2.107289   -0.002677
     18          1           0       -0.800309   -2.191585   -0.000906
     19          1           0        1.660280   -2.393592   -0.000800
 ---------------------------------------------------------------------
 Rotational constants (GHZ):      2.6091818      0.4491409      0.4122872
 Leave Link  202 at Tue Sep 28 23:51:05 2021, MaxMem=  805306368 cpu:       0.0
 (Enter /sw/target/amd/app/gaussian/Gaussian09RevA.02_gcc-4.9.2/g09/l301.exe)
 Standard basis: 6-31G(d) (6D, 7F)
 Ernie: Thresh=  0.10000D-02 Tol=  0.10000D-05 Strict=F.
 There are   194 symmetry adapted basis functions of A   symmetry.
 Integral buffers will be    131072 words long.
 Raffenetti 2 integral format.
 Two-electron integral symmetry is turned on.
   194 basis functions,   364 primitive gaussians,   194 cartesian basis functions
    45 alpha electrons       45 beta electrons
       nuclear repulsion energy       705.4313917681 Hartrees.
 IExCor=  402 DFT=T Ex+Corr=B3LYP ExCW=0 ScaHFX=  0.200000
 ScaDFX=  0.800000  0.720000  1.000000  0.810000 ScalE2=  1.000000  1.000000
 IRadAn=      0 IRanWt=     -1 IRanGd=            0 ICorTp=0
 NAtoms=   19 NActive=   19 NUniq=   19 SFac= 7.50D-01 NAtFMM=   80 NAOKFM=F Big=F
 Leave Link  301 at Tue Sep 28 23:51:05 2021, MaxMem=  805306368 cpu:       0.1
 (Enter /sw/target/amd/app/gaussian/Gaussian09RevA.02_gcc-4.9.2/g09/l302.exe)
 NPDir=0 NMtPBC=     1 NCelOv=     1 NCel=       1 NClECP=     1 NCelD=      1
         NCelK=      1 NCelE2=     1 NClLst=     1 CellRange=     0.0.
 One-electron integrals computed using PRISM.
 NBasis=   194 RedAO= T  NBF=   194
 NBsUse=   194 1.00D-06 NBFU=   194
 Precomputing XC quadrature grid using
 IXCGrd= 2 IRadAn=           0 IRanWt=          -1 IRanGd=           0 AccXCQ= 1.00D-10.
 NRdTot=    1195 NPtTot=      151684 NUsed=      160309 NTot=      160341
 NSgBfM=   193   193   193   193   193 NAtAll=    19    19.
 Leave Link  302 at Tue Sep 28 23:51:08 2021, MaxMem=  805306368 cpu:       1.2
 (Enter /sw/target/amd/app/gaussian/Gaussian09RevA.02_gcc-4.9.2/g09/l303.exe)
 DipDrv:  MaxL=1.
 Leave Link  303 at Tue Sep 28 23:51:08 2021, MaxMem=  805306368 cpu:       0.1
 (Enter /sw/target/amd/app/gaussian/Gaussian09RevA.02_gcc-4.9.2/g09/l401.exe)
 Harris functional with IExCor=  402 diagonalized for initial guess.
 ExpMin= 1.61D-01 ExpMax= 7.00D+03 ExpMxC= 1.05D+03 IAcc=1 IRadAn=         1 AccDes= 0.00D+00
 HarFok:  IExCor=  402 AccDes= 0.00D+00 IRadAn=         1 IDoV= 1
 ScaDFX=  1.000000  1.000000  1.000000  1.000000
 FoFCou: FMM=F IPFlag=           0 FMFlag=      100000 FMFlg1=           0
         NFxFlg=           0 DoJE=T BraDBF=F KetDBF=T FulRan=T
         Omega=  0.000000  0.000000  1.000000  0.000000  0.000000 ICntrl=     500 IOpCl=  0
         NMat0=    1 NMatS0=    1 NMatT0=    0 NMatD0=    1 NMtDS0=    0 NMtDT0=    0
         I1Cent=           4 NGrid=           0.
 Petite list used in FoFCou.
 Harris En= -683.854759755725    
 Initial guess orbital symmetries:
       Occupied  (A) (A) (A) (A) (A) (A) (A) (A) (A) (A) (A) (A)
                 (A) (A) (A) (A) (A) (A) (A) (A) (A) (A) (A) (A)
                 (A) (A) (A) (A) (A) (A) (A) (A) (A) (A) (A) (A)
                 (A) (A) (A) (A) (A) (A) (A) (A) (A)
       Virtual   (A) (A) (A) (A) (A) (A) (A) (A) (A) (A) (A) (A)
                 (A) (A) (A) (A) (A) (A) (A) (A) (A) (A) (A) (A)
                 (A) (A) (A) (A) (A) (A) (A) (A) (A) (A) (A) (A)
                 (A) (A) (A) (A) (A) (A) (A) (A) (A) (A) (A) (A)
                 (A) (A) (A) (A) (A) (A) (A) (A) (A) (A) (A) (A)
                 (A) (A) (A) (A) (A) (A) (A) (A) (A) (A) (A) (A)
                 (A) (A) (A) (A) (A) (A) (A) (A) (A) (A) (A) (A)
                 (A) (A) (A) (A) (A) (A) (A) (A) (A) (A) (A) (A)
                 (A) (A) (A) (A) (A) (A) (A) (A) (A) (A) (A) (A)
                 (A) (A) (A) (A) (A) (A) (A) (A) (A) (A) (A) (A)
                 (A) (A) (A) (A) (A) (A) (A) (A) (A) (A) (A) (A)
                 (A) (A) (A) (A) (A) (A) (A) (A) (A) (A) (A) (A)
                 (A) (A) (A) (A) (A)
 The electronic state of the initial guess is 1-A.
 Leave Link  401 at Tue Sep 28 23:51:17 2021, MaxMem=  805306368 cpu:       5.1
 (Enter /sw/target/amd/app/gaussian/Gaussian09RevA.02_gcc-4.9.2/g09/l502.exe)
 Closed shell SCF:
 Requested convergence on RMS density matrix=1.00D-08 within  64 cycles.
 Requested convergence on MAX density matrix=1.00D-06.
 Requested convergence on             energy=1.00D-06.
 No special actions if energy rises.
 Using DIIS extrapolation, IDIIS=  1040.
 Integral symmetry usage will be decided dynamically.
       160125 words used for storage of precomputed grid.
 Keep R1 ints in memory in canonical form, NReq=182886617.
 IEnd=      281193 IEndB=      281193 NGot=   805306368 MDV=   626169132
 LenX=   626169132 LenY=   626131055
 Symmetry not used in FoFDir.
 MinBra= 0 MaxBra= 2 Meth= 1.
 IRaf=       0 NMat=   1 IRICut=       1 DoRegI=T DoRafI=F ISym2E= 0 JSym2E=0.
 Integral accuracy reduced to 1.0D-05 until final iterations.

 Cycle   1  Pass 0  IDiag  1:
 E= -683.561393629205    
 DIIS: error= 4.35D-02 at cycle   1 NSaved=   1.
 NSaved= 1 IEnMin= 1 EnMin= -683.561393629205     IErMin= 1 ErrMin= 4.35D-02
 ErrMax= 4.35D-02 EMaxC= 1.00D-01 BMatC= 2.82D-01 BMatP= 2.82D-01
 IDIUse=3 WtCom= 5.65D-01 WtEn= 4.35D-01
 Coeff-Com:  0.100D+01
 Coeff-En:   0.100D+01
 Coeff:      0.100D+01
 Gap=     0.251 Goal=   None    Shift=    0.000
 GapD=    0.251 DampG=1.000 DampE=0.500 DampFc=0.5000 IDamp=-1.
 Damping current iteration by 5.00D-01
 RMSDP=5.18D-03 MaxDP=1.46D-01              OVMax= 1.41D-01

 Cycle   2  Pass 0  IDiag  1:
 E= -683.663813252064     Delta-E=       -0.102419622859 Rises=F Damp=T
 DIIS: error= 7.65D-03 at cycle   2 NSaved=   2.
 NSaved= 2 IEnMin= 2 EnMin= -683.663813252064     IErMin= 2 ErrMin= 7.65D-03
 ErrMax= 7.65D-03 EMaxC= 1.00D-01 BMatC= 1.84D-02 BMatP= 2.82D-01
 IDIUse=3 WtCom= 9.24D-01 WtEn= 7.65D-02
 Coeff-Com:  0.110D+00 0.890D+00
 Coeff-En:   0.171D+00 0.829D+00
 Coeff:      0.114D+00 0.886D+00
 Gap=     0.255 Goal=   None    Shift=    0.000
 RMSDP=1.16D-03 MaxDP=3.33D-02 DE=-1.02D-01 OVMax= 1.02D-01

 Cycle   3  Pass 0  IDiag  1:
 E= -683.802826929978     Delta-E=       -0.139013677914 Rises=F Damp=F
 DIIS: error= 6.53D-03 at cycle   3 NSaved=   3.
 NSaved= 3 IEnMin= 3 EnMin= -683.802826929978     IErMin= 3 ErrMin= 6.53D-03
 ErrMax= 6.53D-03 EMaxC= 1.00D-01 BMatC= 7.47D-03 BMatP= 1.84D-02
 IDIUse=3 WtCom= 9.35D-01 WtEn= 6.53D-02
 Coeff-Com:  0.197D-02 0.370D+00 0.628D+00
 Coeff-En:   0.000D+00 0.000D+00 0.100D+01
 Coeff:      0.184D-02 0.346D+00 0.652D+00
 Gap=     0.223 Goal=   None    Shift=    0.000
 RMSDP=5.44D-04 MaxDP=1.90D-02 DE=-1.39D-01 OVMax= 2.21D-02

 Cycle   4  Pass 0  IDiag  1:
 E= -683.807456467631     Delta-E=       -0.004629537653 Rises=F Damp=F
 DIIS: error= 2.66D-03 at cycle   4 NSaved=   4.
 NSaved= 4 IEnMin= 4 EnMin= -683.807456467631     IErMin= 4 ErrMin= 2.66D-03
 ErrMax= 2.66D-03 EMaxC= 1.00D-01 BMatC= 1.67D-03 BMatP= 7.47D-03
 IDIUse=3 WtCom= 9.73D-01 WtEn= 2.66D-02
 Coeff-Com: -0.801D-02 0.823D-01 0.346D+00 0.580D+00
 Coeff-En:   0.000D+00 0.000D+00 0.176D+00 0.824D+00
 Coeff:     -0.780D-02 0.801D-01 0.341D+00 0.586D+00
 Gap=     0.222 Goal=   None    Shift=    0.000
 RMSDP=2.45D-04 MaxDP=9.89D-03 DE=-4.63D-03 OVMax= 1.46D-02

 Cycle   5  Pass 0  IDiag  1:
 E= -683.808762792221     Delta-E=       -0.001306324590 Rises=F Damp=F
 DIIS: error= 1.01D-03 at cycle   5 NSaved=   5.
 NSaved= 5 IEnMin= 5 EnMin= -683.808762792221     IErMin= 5 ErrMin= 1.01D-03
 ErrMax= 1.01D-03 EMaxC= 1.00D-01 BMatC= 1.53D-04 BMatP= 1.67D-03
 IDIUse=3 WtCom= 9.90D-01 WtEn= 1.01D-02
 Coeff-Com: -0.424D-02 0.194D-01 0.138D+00 0.317D+00 0.529D+00
 Coeff-En:   0.000D+00 0.000D+00 0.000D+00 0.883D-02 0.991D+00
 Coeff:     -0.420D-02 0.192D-01 0.137D+00 0.314D+00 0.534D+00
 Gap=     0.221 Goal=   None    Shift=    0.000
 RMSDP=8.48D-05 MaxDP=3.02D-03 DE=-1.31D-03 OVMax= 6.85D-03

 Cycle   6  Pass 0  IDiag  1:
 E= -683.808889207327     Delta-E=       -0.000126415105 Rises=F Damp=F
 DIIS: error= 4.95D-04 at cycle   6 NSaved=   6.
 NSaved= 6 IEnMin= 6 EnMin= -683.808889207327     IErMin= 6 ErrMin= 4.95D-04
 ErrMax= 4.95D-04 EMaxC= 1.00D-01 BMatC= 2.54D-05 BMatP= 1.53D-04
 IDIUse=3 WtCom= 9.95D-01 WtEn= 4.95D-03
 Coeff-Com: -0.181D-02 0.412D-02 0.510D-01 0.138D+00 0.341D+00 0.468D+00
 Coeff-En:   0.000D+00 0.000D+00 0.000D+00 0.000D+00 0.164D+00 0.836D+00
 Coeff:     -0.181D-02 0.410D-02 0.508D-01 0.137D+00 0.340D+00 0.470D+00
 Gap=     0.221 Goal=   None    Shift=    0.000
 RMSDP=3.21D-05 MaxDP=8.25D-04 DE=-1.26D-04 OVMax= 2.53D-03

 Cycle   7  Pass 0  IDiag  1:
 E= -683.808917445813     Delta-E=       -0.000028238487 Rises=F Damp=F
 DIIS: error= 5.37D-05 at cycle   7 NSaved=   7.
 NSaved= 7 IEnMin= 7 EnMin= -683.808917445813     IErMin= 7 ErrMin= 5.37D-05
 ErrMax= 5.37D-05 EMaxC= 1.00D-01 BMatC= 6.95D-07 BMatP= 2.54D-05
 IDIUse=1 WtCom= 1.00D+00 WtEn= 0.00D+00
 Coeff-Com: -0.701D-03 0.598D-03 0.163D-01 0.499D-01 0.137D+00 0.232D+00
 Coeff-Com:  0.565D+00
 Coeff:     -0.701D-03 0.598D-03 0.163D-01 0.499D-01 0.137D+00 0.232D+00
 Coeff:      0.565D+00
 Gap=     0.221 Goal=   None    Shift=    0.000
 RMSDP=4.63D-06 MaxDP=1.36D-04 DE=-2.82D-05 OVMax= 2.91D-04

 Initial convergence to 1.0D-05 achieved.  Increase integral accuracy.
 Cycle   8  Pass 1  IDiag  1:
 E= -683.808772969723     Delta-E=        0.000144476090 Rises=F Damp=F
 DIIS: error= 3.97D-05 at cycle   1 NSaved=   1.
 NSaved= 1 IEnMin= 1 EnMin= -683.808772969723     IErMin= 1 ErrMin= 3.97D-05
 ErrMax= 3.97D-05 EMaxC= 1.00D-01 BMatC= 2.05D-07 BMatP= 2.05D-07
 IDIUse=1 WtCom= 1.00D+00 WtEn= 0.00D+00
 Coeff-Com:  0.100D+01
 Coeff:      0.100D+01
 Gap=     0.221 Goal=   None    Shift=    0.000
 RMSDP=4.63D-06 MaxDP=1.36D-04 DE= 1.44D-04 OVMax= 1.55D-04

 Cycle   9  Pass 1  IDiag  1:
 E= -683.808773009779     Delta-E=       -0.000000040056 Rises=F Damp=F
 DIIS: error= 3.15D-05 at cycle   2 NSaved=   2.
 NSaved= 2 IEnMin= 2 EnMin= -683.808773009779     IErMin= 2 ErrMin= 3.15D-05
 ErrMax= 3.15D-05 EMaxC= 1.00D-01 BMatC= 1.92D-07 BMatP= 2.05D-07
 IDIUse=1 WtCom= 1.00D+00 WtEn= 0.00D+00
 Coeff-Com:  0.489D+00 0.511D+00
 Coeff:      0.489D+00 0.511D+00
 Gap=     0.221 Goal=   None    Shift=    0.000
 RMSDP=2.62D-06 MaxDP=1.18D-04 DE=-4.01D-08 OVMax= 1.30D-04

 Cycle  10  Pass 1  IDiag  1:
 E= -683.808773131012     Delta-E=       -0.000000121233 Rises=F Damp=F
 DIIS: error= 1.44D-05 at cycle   3 NSaved=   3.
 NSaved= 3 IEnMin= 3 EnMin= -683.808773131012     IErMin= 3 ErrMin= 1.44D-05
 ErrMax= 1.44D-05 EMaxC= 1.00D-01 BMatC= 3.12D-08 BMatP= 1.92D-07
 IDIUse=1 WtCom= 1.00D+00 WtEn= 0.00D+00
 Coeff-Com:  0.267D-02 0.284D+00 0.713D+00
 Coeff:      0.267D-02 0.284D+00 0.713D+00
 Gap=     0.221 Goal=   None    Shift=    0.000
 RMSDP=9.55D-07 MaxDP=4.17D-05 DE=-1.21D-07 OVMax= 5.75D-05

 Cycle  11  Pass 1  IDiag  1:
 E= -683.808773153012     Delta-E=       -0.000000022000 Rises=F Damp=F
 DIIS: error= 3.36D-06 at cycle   4 NSaved=   4.
 NSaved= 4 IEnMin= 4 EnMin= -683.808773153012     IErMin= 4 ErrMin= 3.36D-06
 ErrMax= 3.36D-06 EMaxC= 1.00D-01 BMatC= 2.15D-09 BMatP= 3.12D-08
 IDIUse=1 WtCom= 1.00D+00 WtEn= 0.00D+00
 Coeff-Com: -0.110D-01 0.150D+00 0.417D+00 0.443D+00
 Coeff:     -0.110D-01 0.150D+00 0.417D+00 0.443D+00
 Gap=     0.221 Goal=   None    Shift=    0.000
 RMSDP=2.79D-07 MaxDP=9.65D-06 DE=-2.20D-08 OVMax= 2.53D-05

 Cycle  12  Pass 1  IDiag  1:
 E= -683.808773155119     Delta-E=       -0.000000002106 Rises=F Damp=F
 DIIS: error= 7.65D-07 at cycle   5 NSaved=   5.
 NSaved= 5 IEnMin= 5 EnMin= -683.808773155119     IErMin= 5 ErrMin= 7.65D-07
 ErrMax= 7.65D-07 EMaxC= 1.00D-01 BMatC= 7.32D-11 BMatP= 2.15D-09
 IDIUse=1 WtCom= 1.00D+00 WtEn= 0.00D+00
 Coeff-Com: -0.587D-02 0.624D-01 0.179D+00 0.232D+00 0.532D+00
 Coeff:     -0.587D-02 0.624D-01 0.179D+00 0.232D+00 0.532D+00
 Gap=     0.221 Goal=   None    Shift=    0.000
 RMSDP=5.71D-08 MaxDP=1.59D-06 DE=-2.11D-09 OVMax= 4.26D-06

 Cycle  13  Pass 1  IDiag  1:
 E= -683.808773155197     Delta-E=       -0.000000000078 Rises=F Damp=F
 DIIS: error= 2.39D-07 at cycle   6 NSaved=   6.
 NSaved= 6 IEnMin= 6 EnMin= -683.808773155197     IErMin= 6 ErrMin= 2.39D-07
 ErrMax= 2.39D-07 EMaxC= 1.00D-01 BMatC= 1.17D-11 BMatP= 7.32D-11
 IDIUse=1 WtCom= 1.00D+00 WtEn= 0.00D+00
 Coeff-Com: -0.201D-02 0.159D-01 0.485D-01 0.794D-01 0.317D+00 0.541D+00
 Coeff:     -0.201D-02 0.159D-01 0.485D-01 0.794D-01 0.317D+00 0.541D+00
 Gap=     0.221 Goal=   None    Shift=    0.000
 RMSDP=1.91D-08 MaxDP=6.34D-07 DE=-7.84D-11 OVMax= 1.64D-06

 Cycle  14  Pass 1  IDiag  1:
 E= -683.808773155201     Delta-E=       -0.000000000004 Rises=F Damp=F
 DIIS: error= 6.91D-08 at cycle   7 NSaved=   7.
 NSaved= 7 IEnMin= 7 EnMin= -683.808773155201     IErMin= 7 ErrMin= 6.91D-08
 ErrMax= 6.91D-08 EMaxC= 1.00D-01 BMatC= 5.45D-13 BMatP= 1.17D-11
 IDIUse=1 WtCom= 1.00D+00 WtEn= 0.00D+00
 Coeff-Com: -0.333D-03 0.139D-02 0.524D-02 0.143D-01 0.866D-01 0.240D+00
 Coeff-Com:  0.653D+00
 Coeff:     -0.333D-03 0.139D-02 0.524D-02 0.143D-01 0.866D-01 0.240D+00
 Coeff:      0.653D+00
 Gap=     0.221 Goal=   None    Shift=    0.000
 RMSDP=5.39D-09 MaxDP=1.97D-07 DE=-3.87D-12 OVMax= 5.27D-07

 SCF Done:  E(RB3LYP) =  -683.808773155     A.U. after   14 cycles
             Convg  =    0.5390D-08             -V/T =  2.0083
 KE= 6.781556979815D+02 PE=-3.017711311587D+03 EE= 9.503154486821D+02
 Leave Link  502 at Tue Sep 28 23:53:57 2021, MaxMem=  805306368 cpu:      94.0
 (Enter /sw/target/amd/app/gaussian/Gaussian09RevA.02_gcc-4.9.2/g09/l508.exe)
 QCSCF skips out because SCF is already converged.
 Leave Link  508 at Tue Sep 28 23:53:57 2021, MaxMem=  805306368 cpu:       0.0
 (Enter /sw/target/amd/app/gaussian/Gaussian09RevA.02_gcc-4.9.2/g09/l601.exe)
 Copying SCF densities to generalized density rwf, IOpCl= 0 IROHF=0.

 **********************************************************************

            Population analysis using the SCF density.

 **********************************************************************

 Orbital symmetries:
       Occupied  (A) (A) (A) (A) (A) (A) (A) (A) (A) (A) (A) (A)
                 (A) (A) (A) (A) (A) (A) (A) (A) (A) (A) (A) (A)
                 (A) (A) (A) (A) (A) (A) (A) (A) (A) (A) (A) (A)
                 (A) (A) (A) (A) (A) (A) (A) (A) (A)
       Virtual   (A) (A) (A) (A) (A) (A) (A) (A) (A) (A) (A) (A)
                 (A) (A) (A) (A) (A) (A) (A) (A) (A) (A) (A) (A)
                 (A) (A) (A) (A) (A) (A) (A) (A) (A) (A) (A) (A)
                 (A) (A) (A) (A) (A) (A) (A) (A) (A) (A) (A) (A)
                 (A) (A) (A) (A) (A) (A) (A) (A) (A) (A) (A) (A)
                 (A) (A) (A) (A) (A) (A) (A) (A) (A) (A) (A) (A)
                 (A) (A) (A) (A) (A) (A) (A) (A) (A) (A) (A) (A)
                 (A) (A) (A) (A) (A) (A) (A) (A) (A) (A) (A) (A)
                 (A) (A) (A) (A) (A) (A) (A) (A) (A) (A) (A) (A)
                 (A) (A) (A) (A) (A) (A) (A) (A) (A) (A) (A) (A)
                 (A) (A) (A) (A) (A) (A) (A) (A) (A) (A) (A) (A)
                 (A) (A) (A) (A) (A) (A) (A) (A) (A) (A) (A) (A)
                 (A) (A) (A) (A) (A)
 The electronic state is 1-A.
 Alpha  occ. eigenvalues --  -24.71655 -24.71100 -24.71098 -19.19260 -10.42676
 Alpha  occ. eigenvalues --  -10.26408 -10.25103 -10.21263 -10.21203 -10.21045
 Alpha  occ. eigenvalues --  -10.20401 -10.19980  -1.28661  -1.20084  -1.19769
 Alpha  occ. eigenvalues --   -1.07683  -0.87003  -0.78580  -0.76312  -0.72378
 Alpha  occ. eigenvalues --   -0.67742  -0.62866  -0.61027  -0.56626  -0.56610
 Alpha  occ. eigenvalues --   -0.56199  -0.53644  -0.49316  -0.48206  -0.46571
 Alpha  occ. eigenvalues --   -0.44540  -0.44418  -0.44009  -0.43078  -0.42511
 Alpha  occ. eigenvalues --   -0.40912  -0.40084  -0.38907  -0.38603  -0.37495
 Alpha  occ. eigenvalues --   -0.36377  -0.34145  -0.33317  -0.26525  -0.23793
 Alpha virt. eigenvalues --   -0.01670  -0.01469   0.08243   0.09718   0.12404
 Alpha virt. eigenvalues --    0.13167   0.13519   0.13889   0.14538   0.15944
 Alpha virt. eigenvalues --    0.16625   0.20154   0.22182   0.22209   0.23438
 Alpha virt. eigenvalues --    0.24818   0.29800   0.32574   0.34685   0.35618
 Alpha virt. eigenvalues --    0.45174   0.48493   0.49328   0.50907   0.51311
 Alpha virt. eigenvalues --    0.52197   0.52817   0.55046   0.55491   0.57741
 Alpha virt. eigenvalues --    0.58699   0.58856   0.59314   0.60681   0.64148
 Alpha virt. eigenvalues --    0.64619   0.66270   0.70394   0.73018   0.73718
 Alpha virt. eigenvalues --    0.76974   0.80791   0.82420   0.83094   0.85106
 Alpha virt. eigenvalues --    0.85162   0.87145   0.88597   0.92285   0.93807
 Alpha virt. eigenvalues --    0.97126   0.98222   0.98946   1.01608   1.02959
 Alpha virt. eigenvalues --    1.07790   1.09230   1.10560   1.13336   1.13586
 Alpha virt. eigenvalues --    1.16038   1.17528   1.22162   1.23062   1.26400
 Alpha virt. eigenvalues --    1.33480   1.33868   1.34518   1.34745   1.35907
 Alpha virt. eigenvalues --    1.38750   1.39417   1.40030   1.41144   1.43416
 Alpha virt. eigenvalues --    1.43891   1.48281   1.49174   1.50938   1.55464
 Alpha virt. eigenvalues --    1.61909   1.66142   1.67396   1.70891   1.72404
 Alpha virt. eigenvalues --    1.77527   1.78504   1.82399   1.84049   1.85230
 Alpha virt. eigenvalues --    1.86655   1.90353   1.91807   1.93835   1.96024
 Alpha virt. eigenvalues --    1.96564   1.97136   2.00195   2.01835   2.04546
 Alpha virt. eigenvalues --    2.05091   2.05513   2.08102   2.08300   2.09976
 Alpha virt. eigenvalues --    2.12238   2.12633   2.14311   2.16899   2.17402
 Alpha virt. eigenvalues --    2.22978   2.23820   2.27920   2.29006   2.34335
 Alpha virt. eigenvalues --    2.35578   2.39291   2.43766   2.50360   2.53277
 Alpha virt. eigenvalues --    2.58043   2.62992   2.64112   2.64809   2.69842
 Alpha virt. eigenvalues --    2.74210   2.76768   2.78106   2.79901   2.92401
 Alpha virt. eigenvalues --    2.96506   2.99229   3.03129   3.03827   3.11491
 Alpha virt. eigenvalues --    3.18027   3.41144   4.03825   4.07055   4.09698
 Alpha virt. eigenvalues --    4.17669   4.27293   4.28914   4.30545   4.36872
 Alpha virt. eigenvalues --    4.53412   4.67494   4.76683   5.57094
          Condensed to atoms (all electrons):
              1          2          3          4          5          6
     1  C    4.900570   0.244517  -0.042600  -0.006072   0.000229  -0.000002
     2  O    0.244517   8.192351   0.285484  -0.062276   0.003752   0.000106
     3  C   -0.042600   0.285484   4.501419   0.461921   0.000307  -0.034958
     4  C   -0.006072  -0.062276   0.461921   5.137280   0.453055  -0.026410
     5  C    0.000229   0.003752   0.000307   0.453055   4.996440   0.516328
     6  C   -0.000002   0.000106  -0.034958  -0.026410   0.516328   5.046936
     7  C   -0.000143   0.003293  -0.015644  -0.037460  -0.058351   0.465695
     8  C    0.004348  -0.055470   0.535398  -0.067573  -0.037570  -0.025135
     9  C   -0.000000   0.000000  -0.000046   0.005196  -0.031389   0.295017
    10  F    0.000000  -0.000000  -0.000006   0.000640   0.004088  -0.046893
    11  F   -0.000000  -0.000000  -0.000006  -0.000022   0.001296  -0.052292
    12  F   -0.000000  -0.000000  -0.000006  -0.000021   0.001294  -0.052338
    13  H    0.384436  -0.030638   0.003234   0.000149   0.000000  -0.000000
    14  H    0.365193  -0.035112  -0.005314   0.004963  -0.000119  -0.000004
    15  H    0.365627  -0.035328  -0.005135   0.004818  -0.000115  -0.000004
    16  H    0.005996  -0.007209  -0.045956   0.355994  -0.037280   0.003786
    17  H   -0.000005  -0.000042   0.003033  -0.034799   0.355156  -0.041669
    18  H    0.000003  -0.000056   0.004076   0.000363   0.004990  -0.047809
    19  H   -0.000169  -0.000345  -0.035864   0.007233   0.000212   0.004404
              7          8          9         10         11         12
     1  C   -0.000143   0.004348  -0.000000   0.000000  -0.000000  -0.000000
     2  O    0.003293  -0.055470   0.000000  -0.000000  -0.000000  -0.000000
     3  C   -0.015644   0.535398  -0.000046  -0.000006  -0.000006  -0.000006
     4  C   -0.037460  -0.067573   0.005196   0.000640  -0.000022  -0.000021
     5  C   -0.058351  -0.037570  -0.031389   0.004088   0.001296   0.001294
     6  C    0.465695  -0.025135   0.295017  -0.046893  -0.052292  -0.052338
     7  C    4.982581   0.509254  -0.021519   0.003062   0.002543   0.002537
     8  C    0.509254   4.994090   0.004373  -0.000021   0.000206   0.000206
     9  C   -0.021519   0.004373   4.134857   0.282945   0.280805   0.280878
    10  F    0.003062  -0.000021   0.282945   9.104669  -0.038938  -0.038947
    11  F    0.002543   0.000206   0.280805  -0.038938   9.116936  -0.040017
    12  F    0.002537   0.000206   0.280878  -0.038947  -0.040017   9.116929
    13  H    0.000003  -0.000112  -0.000000   0.000000   0.000000   0.000000
    14  H    0.000002   0.000055   0.000000  -0.000000  -0.000000   0.000000
    15  H    0.000002   0.000047   0.000000  -0.000000   0.000000  -0.000000
    16  H    0.000727   0.004345  -0.000106  -0.000000   0.000000   0.000000
    17  H    0.004945   0.000520  -0.006718   0.008823   0.000142   0.000142
    18  H    0.359667  -0.035626  -0.003823   0.000055   0.001575   0.001567
    19  H   -0.040250   0.348258  -0.000086   0.000000   0.000000   0.000000
             13         14         15         16         17         18
     1  C    0.384436   0.365193   0.365627   0.005996  -0.000005   0.000003
     2  O   -0.030638  -0.035112  -0.035328  -0.007209  -0.000042  -0.000056
     3  C    0.003234  -0.005314  -0.005135  -0.045956   0.003033   0.004076
     4  C    0.000149   0.004963   0.004818   0.355994  -0.034799   0.000363
     5  C    0.000000  -0.000119  -0.000115  -0.037280   0.355156   0.004990
     6  C   -0.000000  -0.000004  -0.000004   0.003786  -0.041669  -0.047809
     7  C    0.000003   0.000002   0.000002   0.000727   0.004945   0.359667
     8  C   -0.000112   0.000055   0.000047   0.004345   0.000520  -0.035626
     9  C   -0.000000   0.000000   0.000000  -0.000106  -0.006718  -0.003823
    10  F    0.000000  -0.000000  -0.000000  -0.000000   0.008823   0.000055
    11  F    0.000000  -0.000000   0.000000   0.000000   0.000142   0.001575
    12  F    0.000000   0.000000  -0.000000   0.000000   0.000142   0.001567
    13  H    0.535166  -0.033065  -0.033198  -0.000123  -0.000000  -0.000000
    14  H   -0.033065   0.589138  -0.045036   0.001754   0.000002  -0.000000
    15  H   -0.033198  -0.045036   0.589009   0.001708   0.000001  -0.000000
    16  H   -0.000123   0.001754   0.001708   0.580064  -0.005402   0.000015
    17  H   -0.000000   0.000002   0.000001  -0.005402   0.559419  -0.000170
    18  H   -0.000000  -0.000000  -0.000000   0.000015  -0.000170   0.565394
    19  H   -0.000027   0.000028   0.000028  -0.000157   0.000014  -0.006085
             19
     1  C   -0.000169
     2  O   -0.000345
     3  C   -0.035864
     4  C    0.007233
     5  C    0.000212
     6  C    0.004404
     7  C   -0.040250
     8  C    0.348258
     9  C   -0.000086
    10  F    0.000000
    11  F    0.000000
    12  F    0.000000
    13  H   -0.000027
    14  H    0.000028
    15  H    0.000028
    16  H   -0.000157
    17  H    0.000014
    18  H   -0.006085
    19  H    0.573177
 Mulliken atomic charges:
              1
     1  C   -0.221928
     2  O   -0.503027
     3  C    0.390663
     4  C   -0.196978
     5  C   -0.172322
     6  C   -0.004759
     7  C   -0.160947
     8  C   -0.179592
     9  C    0.779615
    10  F   -0.279478
    11  F   -0.272230
    12  F   -0.272224
    13  H    0.174174
    14  H    0.157515
    15  H    0.157575
    16  H    0.141844
    17  H    0.156608
    18  H    0.155865
    19  H    0.149627
 Sum of Mulliken atomic charges =  -0.00000
 Mulliken charges with hydrogens summed into heavy atoms:
              1
     1  C    0.267335
     2  O   -0.503027
     3  C    0.390663
     4  C   -0.055134
     5  C   -0.015714
     6  C   -0.004759
     7  C   -0.005082
     8  C   -0.029965
     9  C    0.779615
    10  F   -0.279478
    11  F   -0.272230
    12  F   -0.272224
 Sum of Mulliken charges with hydrogens summed into heavy atoms =  -0.00000
 Electronic spatial extent (au):  <R**2>=           2534.1748
 Charge=             -0.0000 electrons
 Dipole moment (field-independent basis, Debye):
    X=              3.7065    Y=              0.9999    Z=              0.0007  Tot=              3.8390
 Quadrupole moment (field-independent basis, Debye-Ang):
   XX=            -63.7480   YY=            -61.6425   ZZ=            -69.2774
   XY=              5.5162   XZ=              0.0177   YZ=              0.0002
 Traceless Quadrupole moment (field-independent basis, Debye-Ang):
   XX=              1.1413   YY=              3.2468   ZZ=             -4.3881
   XY=              5.5162   XZ=              0.0177   YZ=              0.0002
 Octapole moment (field-independent basis, Debye-Ang**2):
  XXX=             23.2754  YYY=             -2.4154  ZZZ=              0.0383  XYY=            -11.4425
  XXY=             19.8112  XXZ=              0.0972  XZZ=            -13.7378  YZZ=              2.2959
  YYZ=              0.0098  XYZ=              0.0063
 Hexadecapole moment (field-independent basis, Debye-Ang**3):
 XXXX=          -2149.4770 YYYY=           -383.6670 ZZZZ=           -133.8564 XXXY=             65.8813
 XXXZ=              0.5001 YYYX=             -7.9490 YYYZ=             -0.0006 ZZZX=             -0.0665
 ZZZY=              0.0004 XXYY=           -461.5438 XXZZ=           -423.9354 YYZZ=            -95.7987
 XXYZ=             -0.0075 YYXZ=             -0.0002 ZZXY=             -3.6154
 N-N= 7.054313917681D+02 E-N=-3.017711310638D+03  KE= 6.781556979815D+02
 No NMR shielding tensors so no spin-rotation constants.
 Leave Link  601 at Tue Sep 28 23:53:58 2021, MaxMem=  805306368 cpu:       0.8
 (Enter /sw/target/amd/app/gaussian/Gaussian09RevA.02_gcc-4.9.2/g09/l701.exe)
 Compute integral first derivatives.
 ... and contract with generalized density number  0.
 Leave Link  701 at Tue Sep 28 23:54:00 2021, MaxMem=  805306368 cpu:       0.9
 (Enter /sw/target/amd/app/gaussian/Gaussian09RevA.02_gcc-4.9.2/g09/l702.exe)
 L702 exits ... SP integral derivatives will be done elsewhere.
 Leave Link  702 at Tue Sep 28 23:54:01 2021, MaxMem=  805306368 cpu:       0.0
 (Enter /sw/target/amd/app/gaussian/Gaussian09RevA.02_gcc-4.9.2/g09/l703.exe)
 Compute integral first derivatives, UseDBF=F ICtDFT=           0.
 Integral derivatives from FoFDir, PRISM(SPDF).
 Calling FoFJK, ICntrl=      2127 FMM=F ISym2X=0 I1Cent= 0 IOpClX= 0 NMat=1 NMatS=1 NMatT=0.
 FoFCou: FMM=F IPFlag=           0 FMFlag=      100000 FMFlg1=         800
         NFxFlg=           0 DoJE=F BraDBF=F KetDBF=F FulRan=T
         Omega=  0.000000  0.000000  1.000000  0.000000  0.000000 ICntrl=    2127 IOpCl=  0
         NMat0=    1 NMatS0=    1 NMatT0=    0 NMatD0=    1 NMtDS0=    0 NMtDT0=    0
         I1Cent=           0 NGrid=           0.
 Symmetry not used in FoFCou.
 Leave Link  703 at Tue Sep 28 23:54:58 2021, MaxMem=  805306368 cpu:      40.7
 (Enter /sw/target/amd/app/gaussian/Gaussian09RevA.02_gcc-4.9.2/g09/l716.exe)
 Dipole        = 1.45826012D+00 3.93409316D-01 2.65448296D-04
 ***** Axes restored to original set *****
 -------------------------------------------------------------------
 Center     Atomic                   Forces (Hartrees/Bohr)
 Number     Number              X              Y              Z
 -------------------------------------------------------------------
      1        6          -0.002272500    0.004130440    0.003167395
      2        8          -0.002409070   -0.001997467   -0.005435660
      3        6           0.000202431    0.004618632    0.006817103
      4        6          -0.002539292   -0.003645438   -0.008115328
      5        6           0.003403750   -0.001437951    0.002002330
      6        6          -0.004416317   -0.000661336   -0.006135960
      7        6          -0.002623407    0.004402902    0.003189699
      8        6           0.013748220   -0.009692655    0.002408623
      9        6           0.005389846   -0.009196849   -0.006665211
     10        9          -0.002520341    0.007069553    0.007004898
     11        9          -0.005927414    0.001734359    0.003963128
     12        9          -0.001370880    0.007223436    0.000081234
     13        1           0.004016909   -0.001498433    0.002458894
     14        1          -0.000077789   -0.001320103   -0.003328157
     15        1          -0.000897882   -0.002151946   -0.002821577
     16        1           0.000335058    0.000837599    0.001563431
     17        1           0.001616810    0.000819640    0.003037117
     18        1          -0.001537946    0.000299572   -0.001373615
     19        1          -0.002120187    0.000466044   -0.001818343
 -------------------------------------------------------------------
 Cartesian Forces:  Max     0.013748220 RMS     0.004344074
 Leave Link  716 at Tue Sep 28 23:54:59 2021, MaxMem=  805306368 cpu:       0.0
 (Enter /sw/target/amd/app/gaussian/Gaussian09RevA.02_gcc-4.9.2/g09/l103.exe)

 GradGradGradGradGradGradGradGradGradGradGradGradGradGradGradGradGradGrad
 Berny optimization.
 Internal  Forces:  Max     0.009487914 RMS     0.003336829
 Search for a local minimum.
 Step number   1 out of a maximum of   95
 All quantities printed in internal units (Hartrees-Bohrs-Radians)
 RMS Force = .33368D-02 SwitMx=.10000D-02 MixMth= 1
 Mixed Optimization -- RFO/linear search
 Second derivative matrix not updated -- first step.
     Eigenvalues ---    0.00650   0.01400   0.01488   0.02065   0.02071
     Eigenvalues ---    0.02096   0.02105   0.02121   0.02125   0.02130
     Eigenvalues ---    0.02136   0.02147   0.09990   0.10292   0.10503
     Eigenvalues ---    0.10542   0.16000   0.16000   0.16000   0.16000
     Eigenvalues ---    0.16000   0.16000   0.16000   0.22000   0.22971
     Eigenvalues ---    0.24000   0.25000   0.25000   0.25000   0.25000
     Eigenvalues ---    0.25000   0.25000   0.31472   0.34237   0.34240
     Eigenvalues ---    0.34324   0.34884   0.34935   0.35065   0.35374
     Eigenvalues ---    0.41501   0.41987   0.42153   0.45348   0.45807
     Eigenvalues ---    0.45890   0.46319   0.51516   0.52401   0.52536
     Eigenvalues ---    0.525421000.000001000.000001000.000001000.00000
     Eigenvalues --- 1000.000001000.000001000.000001000.000001000.00000
     Eigenvalues --- 1000.000001000.000001000.000001000.000001000.00000
     Eigenvalues --- 1000.000001000.000001000.000001000.000001000.00000
     Eigenvalues --- 1000.000001000.000001000.000001000.000001000.00000
     Eigenvalues --- 1000.000001000.000001000.000001000.000001000.00000
     Eigenvalues --- 1000.000001000.000001000.000001000.000001000.00000
 RFO step:  Lambda=-3.20168098D-03 EMin= 6.49633207D-03
 Linear search not attempted -- first point.
 Iteration  1 RMS(Cart)=  0.02602929 RMS(Int)=  0.00025477
 Iteration  2 RMS(Cart)=  0.00028341 RMS(Int)=  0.00006308
 Iteration  3 RMS(Cart)=  0.00000003 RMS(Int)=  0.00006308
 Variable       Old X    -DE/DX   Delta X   Delta X   Delta X     New X
                                 (Linear)    (Quad)   (Total)
    R1        2.68729  -0.00067   0.00000  -0.00158  -0.00158   2.68571
    R2        2.06786  -0.00128   0.00000  -0.00368  -0.00368   2.06418
    R3        2.06932   0.00135   0.00000   0.00392   0.00392   2.07323
    R4        2.06926   0.00140   0.00000   0.00406   0.00406   2.07332
    R5        2.58366  -0.00395   0.00000  -0.00762  -0.00762   2.57603
    R6        2.63555   0.00373   0.00000   0.00886   0.00884   2.64439
    R7        2.63919   0.00627   0.00000   0.01436   0.01434   2.65354
    R8        2.64624  -0.00448   0.00000  -0.00974  -0.00975   2.63649
    R9        2.05073  -0.00085   0.00000  -0.00239  -0.00239   2.04834
   R10        2.65048  -0.00759   0.00000  -0.01758  -0.01756   2.63292
   R11        2.05864  -0.00340   0.00000  -0.00967  -0.00967   2.04897
   R12        2.64893  -0.00065   0.00000  -0.00233  -0.00231   2.64662
   R13        2.85121  -0.00915   0.00000  -0.02877  -0.02877   2.82243
   R14        2.64012  -0.00949   0.00000  -0.02045  -0.02044   2.61967
   R15        2.05781  -0.00203   0.00000  -0.00576  -0.00576   2.05204
   R16        2.05569  -0.00190   0.00000  -0.00538  -0.00538   2.05031
   R17        2.57518  -0.00788   0.00000  -0.01495  -0.01495   2.56022
   R18        2.57384  -0.00569   0.00000  -0.01077  -0.01077   2.56307
   R19        2.57389  -0.00571   0.00000  -0.01080  -0.01080   2.56310
    A1        1.88129  -0.00647   0.00000  -0.03726  -0.03720   1.84409
    A2        1.94030   0.00131   0.00000   0.00677   0.00682   1.94712
    A3        1.93879   0.00156   0.00000   0.00830   0.00834   1.94713
    A4        1.87937   0.00345   0.00000   0.02347   0.02353   1.90290
    A5        1.88020   0.00336   0.00000   0.02302   0.02309   1.90329
    A6        1.94085  -0.00319   0.00000  -0.02370  -0.02368   1.91718
    A7        2.04081   0.00428   0.00000   0.01692   0.01692   2.05772
    A8        2.20079  -0.00564   0.00000  -0.02420  -0.02418   2.17662
    A9        2.00163   0.00438   0.00000   0.01535   0.01537   2.01700
   A10        2.08076   0.00126   0.00000   0.00885   0.00881   2.08957
   A11        2.09823  -0.00282   0.00000  -0.01010  -0.01014   2.08810
   A12        2.12536  -0.00022   0.00000  -0.00495  -0.00493   2.12043
   A13        2.05959   0.00304   0.00000   0.01505   0.01507   2.07466
   A14        2.10808  -0.00029   0.00000  -0.00255  -0.00253   2.10554
   A15        2.07724   0.00113   0.00000   0.00733   0.00732   2.08456
   A16        2.09787  -0.00085   0.00000  -0.00478  -0.00479   2.09308
   A17        2.07075   0.00489   0.00000   0.01644   0.01648   2.08723
   A18        2.11767  -0.00192   0.00000  -0.00616  -0.00618   2.11148
   A19        2.09476  -0.00297   0.00000  -0.01028  -0.01030   2.08447
   A20        2.10139  -0.00054   0.00000  -0.00381  -0.00378   2.09761
   A21        2.09953  -0.00021   0.00000  -0.00102  -0.00104   2.09849
   A22        2.08226   0.00075   0.00000   0.00483   0.00482   2.08708
   A23        2.10715  -0.00251   0.00000  -0.00883  -0.00884   2.09832
   A24        2.08707  -0.00090   0.00000  -0.00879  -0.00879   2.07829
   A25        2.08896   0.00341   0.00000   0.01762   0.01762   2.10658
   A26        1.98263  -0.00831   0.00000  -0.03037  -0.03057   1.95206
   A27        1.96394  -0.00447   0.00000  -0.01890  -0.01914   1.94480
   A28        1.96381  -0.00448   0.00000  -0.01889  -0.01914   1.94468
   A29        1.84707   0.00772   0.00000   0.03266   0.03247   1.87954
   A30        1.84700   0.00773   0.00000   0.03274   0.03255   1.87955
   A31        1.84859   0.00382   0.00000   0.01059   0.01032   1.85891
    D1        3.13256   0.00005   0.00000   0.00348   0.00349   3.13605
    D2        1.07666  -0.00095   0.00000  -0.00621  -0.00618   1.07047
    D3       -1.09457   0.00109   0.00000   0.01352   0.01349  -1.08108
    D4        0.00090   0.00005   0.00000   0.00208   0.00208   0.00297
    D5       -3.14009   0.00002   0.00000   0.00085   0.00086  -3.13923
    D6       -3.13955  -0.00005   0.00000  -0.00196  -0.00195  -3.14150
    D7        0.00151  -0.00002   0.00000  -0.00084  -0.00083   0.00068
    D8        0.00141  -0.00002   0.00000  -0.00068  -0.00068   0.00073
    D9       -3.14072   0.00001   0.00000   0.00045   0.00044  -3.14028
   D10        3.13992   0.00004   0.00000   0.00150   0.00151   3.14143
   D11       -0.00118   0.00003   0.00000   0.00116   0.00117  -0.00001
   D12       -0.00111   0.00001   0.00000   0.00037   0.00037  -0.00074
   D13        3.14097   0.00000   0.00000   0.00003   0.00003   3.14100
   D14       -0.00051   0.00000   0.00000   0.00022   0.00022  -0.00029
   D15        3.14068   0.00002   0.00000   0.00092   0.00092  -3.14159
   D16       -3.14159  -0.00002   0.00000  -0.00086  -0.00086   3.14074
   D17       -0.00040  -0.00000   0.00000  -0.00016  -0.00016  -0.00056
   D18       -0.00070   0.00001   0.00000   0.00055   0.00054  -0.00016
   D19        3.14046   0.00002   0.00000   0.00087   0.00087   3.14134
   D20        3.14130  -0.00000   0.00000  -0.00017  -0.00016   3.14114
   D21       -0.00071   0.00000   0.00000   0.00016   0.00016  -0.00055
   D22        0.00101  -0.00002   0.00000  -0.00085  -0.00085   0.00016
   D23       -3.14109  -0.00000   0.00000  -0.00014  -0.00014  -3.14122
   D24       -3.14017  -0.00003   0.00000  -0.00117  -0.00117  -3.14134
   D25        0.00093  -0.00001   0.00000  -0.00046  -0.00046   0.00047
   D26        0.00030   0.00000   0.00000   0.00003   0.00003   0.00033
   D27        2.09863   0.00071   0.00000   0.00656   0.00653   2.10516
   D28       -2.09784  -0.00072   0.00000  -0.00662  -0.00659  -2.10443
   D29        3.14146   0.00001   0.00000   0.00036   0.00036  -3.14136
   D30       -1.04339   0.00072   0.00000   0.00690   0.00686  -1.03653
   D31        1.04332  -0.00071   0.00000  -0.00629  -0.00625   1.03706
   D32       -0.00010   0.00001   0.00000   0.00040   0.00040   0.00030
   D33        3.14100   0.00002   0.00000   0.00073   0.00074  -3.14145
   D34       -3.14120  -0.00001   0.00000  -0.00030  -0.00031  -3.14151
   D35       -0.00010   0.00000   0.00000   0.00003   0.00003  -0.00007
         Item               Value     Threshold  Converged?
 Maximum Force            0.009488     0.000450     NO 
 RMS     Force            0.003337     0.000300     NO 
 Maximum Displacement     0.092540     0.001800     NO 
 RMS     Displacement     0.026141     0.001200     NO 
 Predicted change in Energy=-1.620950D-03
 GradGradGradGradGradGradGradGradGradGradGradGradGradGradGradGradGradGrad

 Leave Link  103 at Tue Sep 28 23:55:03 2021, MaxMem=  805306368 cpu:       2.3
 (Enter /sw/target/amd/app/gaussian/Gaussian09RevA.02_gcc-4.9.2/g09/l202.exe)
                          Input orientation:                          
 ---------------------------------------------------------------------
 Center     Atomic      Atomic             Coordinates (Angstroms)
 Number     Number       Type             X           Y           Z
 ---------------------------------------------------------------------
      1          6           0        1.270882    0.311011   -0.712844
      2          8           0        2.429392   -0.178093   -0.050663
      3          6           0        3.130070   -1.182488   -0.649409
      4          6           0        2.793610   -1.768088   -1.874991
      5          6           0        3.587850   -2.792269   -2.391451
      6          6           0        4.712176   -3.236802   -1.698985
      7          6           0        5.046658   -2.648376   -0.472867
      8          6           0        4.263504   -1.630110    0.048242
      9          6           0        5.567562   -4.332851   -2.244630
     10          9           0        5.105277   -4.788582   -3.433797
     11          9           0        6.845432   -3.918127   -2.430791
     12          9           0        5.624702   -5.387139   -1.393249
     13          1           0        0.869510    1.093745   -0.065242
     14          1           0        0.514765   -0.474416   -0.835473
     15          1           0        1.517978    0.745888   -1.689354
     16          1           0        1.925934   -1.444098   -2.438093
     17          1           0        3.324120   -3.243683   -3.341349
     18          1           0        5.920831   -2.986460    0.075486
     19          1           0        4.514977   -1.168300    0.997278
 ---------------------------------------------------------------------
                    Distance matrix (angstroms):
                    1          2          3          4          5
     1  C    0.000000
     2  O    1.421215   0.000000
     3  C    2.385612   1.363179   0.000000
     4  C    2.827002   2.447226   1.399352   0.000000
     5  C    4.220949   3.695298   2.415713   1.395168   0.000000
     6  C    5.040035   4.157375   2.797297   2.422600   1.393279
     7  C    4.803337   3.623622   2.419361   2.795905   2.414496
     8  C    3.647327   2.341390   1.404192   2.424552   2.785539
     9  C    6.509477   5.650099   4.290791   3.795979   2.512809
    10  F    6.936283   6.313681   4.965700   4.110604   2.715573
    11  F    7.205038   6.257338   4.945802   4.620481   3.446875
    12  F    7.203306   6.256733   4.945258   4.620031   3.446524
    13  H    1.092318   2.012713   3.260769   3.894539   5.282208
    14  H    1.097109   2.090342   2.715844   2.819099   4.151790
    15  H    1.097154   2.090389   2.720103   2.825204   4.158830
    16  H    2.546760   2.748829   2.172044   1.083935   2.140492
    17  H    4.874493   4.585520   3.395987   2.146865   1.084267
    18  H    5.754720   4.482520   3.401196   3.881791   3.400924
    19  H    3.954369   2.535420   2.151684   3.401879   3.870442
                    6          7          8          9         10
     6  C    0.000000
     7  C    1.400531   0.000000
     8  C    2.415691   1.386272   0.000000
     9  C    1.493566   2.499589   3.776591   0.000000
    10  F    2.360534   3.653905   4.775889   1.354812   0.000000
    11  F    2.355956   2.946409   4.248174   1.356320   2.189030
    12  F    2.355872   2.946533   4.248061   1.356333   2.189043
    13  H    6.015714   5.623005   4.353327   7.501291   7.993162
    14  H    5.098498   5.039409   4.021148   6.511836   6.814405
    15  H    5.105371   5.045043   4.025236   6.519284   6.822181
    16  H    3.394585   3.879603   3.417704   4.652287   4.720722
    17  H    2.150374   3.398488   3.869805   2.724355   2.359614
    18  H    2.161542   1.085895   2.141765   2.705643   4.028378
    19  H    3.404030   2.152821   1.084978   4.651053   5.752332
                   11         12         13         14         15
    11  F    0.000000
    12  F    2.173631   0.000000
    13  H    8.150234   8.147227   0.000000
    14  H    7.381161   7.110374   1.782759   0.000000
    15  H    7.119307   7.386940   1.783046   1.795743   0.000000
    16  H    5.506572   5.506374   3.631404   2.345223   2.350123
    17  H    3.699139   3.698943   5.964165   4.673406   4.680589
    18  H    2.829190   2.829864   6.494899   6.030403   6.035743
    19  H    4.974357   4.974405   4.419867   4.454453   4.456918
                   16         17         18         19
    16  H    0.000000
    17  H    2.451388   0.000000
    18  H    4.965497   4.299283   0.000000
    19  H    4.310566   4.954699   2.476254   0.000000
 Stoichiometry    C8H7F3O
 Framework group  C1[X(C8H7F3O)]
 Deg. of freedom    51
 Full point group                 C1      NOp   1
 Largest Abelian subgroup         C1      NOp   1
 Largest concise Abelian subgroup C1      NOp   1
                         Standard orientation:                         
 ---------------------------------------------------------------------
 Center     Atomic      Atomic             Coordinates (Angstroms)
 Number     Number       Type             X           Y           Z
 ---------------------------------------------------------------------
      1          6           0        4.202938    0.597735    0.001967
      2          8           0        3.328272   -0.522445   -0.000824
      3          6           0        1.986154   -0.283746   -0.000698
      4          6           0        1.403052    0.988330   -0.001433
      5          6           0        0.013220    1.110241   -0.001101
      6          6           0       -0.798861   -0.021904   -0.000390
      7          6           0       -0.212323   -1.293698   -0.000199
      8          6           0        1.167738   -1.424776   -0.000529
      9          6           0       -2.287463    0.099763    0.000300
     10          9           0       -2.687468    1.394178   -0.000279
     11          9           0       -2.834245   -0.501056   -1.085817
     12          9           0       -2.832983   -0.499704    1.087814
     13          1           0        5.213365    0.182802    0.007175
     14          1           0        4.065010    1.214738    0.898588
     15          1           0        4.073077    1.212956   -0.897136
     16          1           0        2.007334    1.888194   -0.002798
     17          1           0       -0.435103    2.097480   -0.001678
     18          1           0       -0.835270   -2.183139    0.000007
     19          1           0        1.630943   -2.405907   -0.000519
 ---------------------------------------------------------------------
 Rotational constants (GHZ):      2.5900175      0.4587672      0.4198489
 Leave Link  202 at Tue Sep 28 23:55:04 2021, MaxMem=  805306368 cpu:       0.0
 (Enter /sw/target/amd/app/gaussian/Gaussian09RevA.02_gcc-4.9.2/g09/l301.exe)
 Standard basis: 6-31G(d) (6D, 7F)
 Ernie: Thresh=  0.10000D-02 Tol=  0.10000D-05 Strict=F.
 There are   194 symmetry adapted basis functions of A   symmetry.
 Integral buffers will be    131072 words long.
 Raffenetti 2 integral format.
 Two-electron integral symmetry is turned on.
   194 basis functions,   364 primitive gaussians,   194 cartesian basis functions
    45 alpha electrons       45 beta electrons
       nuclear repulsion energy       709.1788442140 Hartrees.
 IExCor=  402 DFT=T Ex+Corr=B3LYP ExCW=0 ScaHFX=  0.200000
 ScaDFX=  0.800000  0.720000  1.000000  0.810000 ScalE2=  1.000000  1.000000
 IRadAn=      0 IRanWt=     -1 IRanGd=            0 ICorTp=0
 NAtoms=   19 NActive=   19 NUniq=   19 SFac= 7.50D-01 NAtFMM=   80 NAOKFM=F Big=F
 Leave Link  301 at Tue Sep 28 23:55:04 2021, MaxMem=  805306368 cpu:       0.1
 (Enter /sw/target/amd/app/gaussian/Gaussian09RevA.02_gcc-4.9.2/g09/l302.exe)
 NPDir=0 NMtPBC=     1 NCelOv=     1 NCel=       1 NClECP=     1 NCelD=      1
         NCelK=      1 NCelE2=     1 NClLst=     1 CellRange=     0.0.
 One-electron integrals computed using PRISM.
 NBasis=   194 RedAO= T  NBF=   194
 NBsUse=   194 1.00D-06 NBFU=   194
 Precomputing XC quadrature grid using
 IXCGrd= 2 IRadAn=           0 IRanWt=          -1 IRanGd=           0 AccXCQ= 1.00D-10.
 NRdTot=    1195 NPtTot=      151684 NUsed=      160309 NTot=      160341
 NSgBfM=   193   193   193   193   193 NAtAll=    19    19.
 Leave Link  302 at Tue Sep 28 23:55:06 2021, MaxMem=  805306368 cpu:       1.1
 (Enter /sw/target/amd/app/gaussian/Gaussian09RevA.02_gcc-4.9.2/g09/l303.exe)
 DipDrv:  MaxL=1.
 Leave Link  303 at Tue Sep 28 23:55:06 2021, MaxMem=  805306368 cpu:       0.1
 (Enter /sw/target/amd/app/gaussian/Gaussian09RevA.02_gcc-4.9.2/g09/l401.exe)
 Initial guess read from the read-write file.
 B after Tr=     0.000000    0.000000    0.000000
         Rot=    1.000000    0.000000    0.000000    0.000000 Ang=   0.00 deg.
 Guess basis will be translated and rotated to current coordinates.
 Initial guess orbital symmetries:
       Occupied  (A) (A) (A) (A) (A) (A) (A) (A) (A) (A) (A) (A)
                 (A) (A) (A) (A) (A) (A) (A) (A) (A) (A) (A) (A)
                 (A) (A) (A) (A) (A) (A) (A) (A) (A) (A) (A) (A)
                 (A) (A) (A) (A) (A) (A) (A) (A) (A)
       Virtual   (A) (A) (A) (A) (A) (A) (A) (A) (A) (A) (A) (A)
                 (A) (A) (A) (A) (A) (A) (A) (A) (A) (A) (A) (A)
                 (A) (A) (A) (A) (A) (A) (A) (A) (A) (A) (A) (A)
                 (A) (A) (A) (A) (A) (A) (A) (A) (A) (A) (A) (A)
                 (A) (A) (A) (A) (A) (A) (A) (A) (A) (A) (A) (A)
                 (A) (A) (A) (A) (A) (A) (A) (A) (A) (A) (A) (A)
                 (A) (A) (A) (A) (A) (A) (A) (A) (A) (A) (A) (A)
                 (A) (A) (A) (A) (A) (A) (A) (A) (A) (A) (A) (A)
                 (A) (A) (A) (A) (A) (A) (A) (A) (A) (A) (A) (A)
                 (A) (A) (A) (A) (A) (A) (A) (A) (A) (A) (A) (A)
                 (A) (A) (A) (A) (A) (A) (A) (A) (A) (A) (A) (A)
                 (A) (A) (A) (A) (A) (A) (A) (A) (A) (A) (A) (A)
                 (A) (A) (A) (A) (A)
 The electronic state of the initial guess is 1-A.
 Generating alternative initial guess.
 Harris functional with IExCor=  402 diagonalized for initial guess.
 ExpMin= 1.61D-01 ExpMax= 7.00D+03 ExpMxC= 1.05D+03 IAcc=1 IRadAn=         1 AccDes= 0.00D+00
 HarFok:  IExCor=  402 AccDes= 0.00D+00 IRadAn=         1 IDoV= 1
 ScaDFX=  1.000000  1.000000  1.000000  1.000000
 FoFCou: FMM=F IPFlag=           0 FMFlag=      100000 FMFlg1=           0
         NFxFlg=           0 DoJE=T BraDBF=F KetDBF=T FulRan=T
         Omega=  0.000000  0.000000  1.000000  0.000000  0.000000 ICntrl=     500 IOpCl=  0
         NMat0=    1 NMatS0=    1 NMatT0=    0 NMatD0=    1 NMtDS0=    0 NMtDT0=    0
         I1Cent=           4 NGrid=           0.
 Petite list used in FoFCou.
 Harris En= -683.857333929634    
 Leave Link  401 at Tue Sep 28 23:55:12 2021, MaxMem=  805306368 cpu:       5.1
 (Enter /sw/target/amd/app/gaussian/Gaussian09RevA.02_gcc-4.9.2/g09/l502.exe)
 Closed shell SCF:
 Requested convergence on RMS density matrix=1.00D-08 within  64 cycles.
 Requested convergence on MAX density matrix=1.00D-06.
 Requested convergence on             energy=1.00D-06.
 No special actions if energy rises.
 Using DIIS extrapolation, IDIIS=  1040.
 Integral symmetry usage will be decided dynamically.
       160125 words used for storage of precomputed grid.
 Keep R1 ints in memory in canonical form, NReq=182886617.
 IEnd=      281193 IEndB=      281193 NGot=   805306368 MDV=   626169132
 LenX=   626169132 LenY=   626131055
 Symmetry not used in FoFDir.
 MinBra= 0 MaxBra= 2 Meth= 1.
 IRaf=       0 NMat=   1 IRICut=       1 DoRegI=T DoRafI=F ISym2E= 0 JSym2E=0.
 Integral accuracy reduced to 1.0D-05 until final iterations.

 Cycle   1  Pass 0  IDiag  1:
 E= -683.809014837918    
 DIIS: error= 1.59D-03 at cycle   1 NSaved=   1.
 NSaved= 1 IEnMin= 1 EnMin= -683.809014837918     IErMin= 1 ErrMin= 1.59D-03
 ErrMax= 1.59D-03 EMaxC= 1.00D-01 BMatC= 7.76D-04 BMatP= 7.76D-04
 IDIUse=3 WtCom= 9.84D-01 WtEn= 1.59D-02
 Coeff-Com:  0.100D+01
 Coeff-En:   0.100D+01
 Coeff:      0.100D+01
 Gap=     0.221 Goal=   None    Shift=    0.000
 GapD=    0.221 DampG=1.000 DampE=1.000 DampFc=1.0000 IDamp=-1.
 RMSDP=2.95D-04 MaxDP=6.83D-03              OVMax= 9.29D-03

 Cycle   2  Pass 0  IDiag  1:
 E= -683.810234180825     Delta-E=       -0.001219342908 Rises=F Damp=F
 DIIS: error= 5.66D-04 at cycle   2 NSaved=   2.
 NSaved= 2 IEnMin= 2 EnMin= -683.810234180825     IErMin= 2 ErrMin= 5.66D-04
 ErrMax= 5.66D-04 EMaxC= 1.00D-01 BMatC= 5.13D-05 BMatP= 7.76D-04
 IDIUse=3 WtCom= 9.94D-01 WtEn= 5.66D-03
 Coeff-Com:  0.529D-01 0.947D+00
 Coeff-En:   0.000D+00 0.100D+01
 Coeff:      0.526D-01 0.947D+00
 Gap=     0.222 Goal=   None    Shift=    0.000
 RMSDP=6.79D-05 MaxDP=2.23D-03 DE=-1.22D-03 OVMax= 3.38D-03

 Cycle   3  Pass 0  IDiag  1:
 E= -683.810218932586     Delta-E=        0.000015248240 Rises=F Damp=F
 DIIS: error= 6.74D-04 at cycle   3 NSaved=   3.
 NSaved= 3 IEnMin= 2 EnMin= -683.810234180825     IErMin= 2 ErrMin= 5.66D-04
 ErrMax= 6.74D-04 EMaxC= 1.00D-01 BMatC= 7.06D-05 BMatP= 5.13D-05
 IDIUse=3 WtCom= 2.78D-01 WtEn= 7.22D-01
 Coeff-Com: -0.302D-01 0.554D+00 0.477D+00
 Coeff-En:   0.000D+00 0.570D+00 0.430D+00
 Coeff:     -0.841D-02 0.565D+00 0.443D+00
 Gap=     0.221 Goal=   None    Shift=    0.000
 RMSDP=4.27D-05 MaxDP=1.63D-03 DE= 1.52D-05 OVMax= 2.85D-03

 Cycle   4  Pass 0  IDiag  1:
 E= -683.810279414141     Delta-E=       -0.000060481555 Rises=F Damp=F
 DIIS: error= 1.25D-04 at cycle   4 NSaved=   4.
 NSaved= 4 IEnMin= 4 EnMin= -683.810279414141     IErMin= 4 ErrMin= 1.25D-04
 ErrMax= 1.25D-04 EMaxC= 1.00D-01 BMatC= 1.76D-06 BMatP= 5.13D-05
 IDIUse=3 WtCom= 9.99D-01 WtEn= 1.25D-03
 Coeff-Com: -0.169D-01 0.207D+00 0.213D+00 0.597D+00
 Coeff-En:   0.000D+00 0.000D+00 0.000D+00 0.100D+01
 Coeff:     -0.169D-01 0.206D+00 0.213D+00 0.598D+00
 Gap=     0.221 Goal=   None    Shift=    0.000
 RMSDP=1.05D-05 MaxDP=2.64D-04 DE=-6.05D-05 OVMax= 8.15D-04

 Cycle   5  Pass 0  IDiag  1:
 E= -683.810280906706     Delta-E=       -0.000001492566 Rises=F Damp=F
 DIIS: error= 4.99D-05 at cycle   5 NSaved=   5.
 NSaved= 5 IEnMin= 5 EnMin= -683.810280906706     IErMin= 5 ErrMin= 4.99D-05
 ErrMax= 4.99D-05 EMaxC= 1.00D-01 BMatC= 4.86D-07 BMatP= 1.76D-06
 IDIUse=1 WtCom= 1.00D+00 WtEn= 0.00D+00
 Coeff-Com: -0.672D-02 0.573D-01 0.742D-01 0.359D+00 0.516D+00
 Coeff:     -0.672D-02 0.573D-01 0.742D-01 0.359D+00 0.516D+00
 Gap=     0.221 Goal=   None    Shift=    0.000
 RMSDP=4.04D-06 MaxDP=1.54D-04 DE=-1.49D-06 OVMax= 3.06D-04

 Initial convergence to 1.0D-05 achieved.  Increase integral accuracy.
 Cycle   6  Pass 1  IDiag  1:
 E= -683.810137052764     Delta-E=        0.000143853942 Rises=F Damp=F
 DIIS: error= 3.94D-05 at cycle   1 NSaved=   1.
 NSaved= 1 IEnMin= 1 EnMin= -683.810137052764     IErMin= 1 ErrMin= 3.94D-05
 ErrMax= 3.94D-05 EMaxC= 1.00D-01 BMatC= 1.79D-07 BMatP= 1.79D-07
 IDIUse=1 WtCom= 1.00D+00 WtEn= 0.00D+00
 Coeff-Com:  0.100D+01
 Coeff:      0.100D+01
 Gap=     0.221 Goal=   None    Shift=    0.000
 RMSDP=4.04D-06 MaxDP=1.54D-04 DE= 1.44D-04 OVMax= 2.11D-04

 Cycle   7  Pass 1  IDiag  1:
 E= -683.810137120788     Delta-E=       -0.000000068024 Rises=F Damp=F
 DIIS: error= 2.11D-05 at cycle   2 NSaved=   2.
 NSaved= 2 IEnMin= 2 EnMin= -683.810137120788     IErMin= 2 ErrMin= 2.11D-05
 ErrMax= 2.11D-05 EMaxC= 1.00D-01 BMatC= 1.17D-07 BMatP= 1.79D-07
 IDIUse=1 WtCom= 1.00D+00 WtEn= 0.00D+00
 Coeff-Com:  0.424D+00 0.576D+00
 Coeff:      0.424D+00 0.576D+00
 Gap=     0.221 Goal=   None    Shift=    0.000
 RMSDP=3.01D-06 MaxDP=1.02D-04 DE=-6.80D-08 OVMax= 2.47D-04

 Cycle   8  Pass 1  IDiag  1:
 E= -683.810137175125     Delta-E=       -0.000000054336 Rises=F Damp=F
 DIIS: error= 1.62D-05 at cycle   3 NSaved=   3.
 NSaved= 3 IEnMin= 3 EnMin= -683.810137175125     IErMin= 3 ErrMin= 1.62D-05
 ErrMax= 1.62D-05 EMaxC= 1.00D-01 BMatC= 5.88D-08 BMatP= 1.17D-07
 IDIUse=1 WtCom= 1.00D+00 WtEn= 0.00D+00
 Coeff-Com:  0.163D-02 0.413D+00 0.585D+00
 Coeff:      0.163D-02 0.413D+00 0.585D+00
 Gap=     0.221 Goal=   None    Shift=    0.000
 RMSDP=1.36D-06 MaxDP=4.16D-05 DE=-5.43D-08 OVMax= 1.12D-04

 Cycle   9  Pass 1  IDiag  1:
 E= -683.810137231370     Delta-E=       -0.000000056245 Rises=F Damp=F
 DIIS: error= 2.91D-06 at cycle   4 NSaved=   4.
 NSaved= 4 IEnMin= 4 EnMin= -683.810137231370     IErMin= 4 ErrMin= 2.91D-06
 ErrMax= 2.91D-06 EMaxC= 1.00D-01 BMatC= 1.65D-09 BMatP= 5.88D-08
 IDIUse=1 WtCom= 1.00D+00 WtEn= 0.00D+00
 Coeff-Com: -0.111D-01 0.213D+00 0.322D+00 0.476D+00
 Coeff:     -0.111D-01 0.213D+00 0.322D+00 0.476D+00
 Gap=     0.221 Goal=   None    Shift=    0.000
 RMSDP=2.30D-07 MaxDP=8.08D-06 DE=-5.62D-08 OVMax= 1.44D-05

 Cycle  10  Pass 1  IDiag  1:
 E= -683.810137232903     Delta-E=       -0.000000001533 Rises=F Damp=F
 DIIS: error= 6.89D-07 at cycle   5 NSaved=   5.
 NSaved= 5 IEnMin= 5 EnMin= -683.810137232903     IErMin= 5 ErrMin= 6.89D-07
 ErrMax= 6.89D-07 EMaxC= 1.00D-01 BMatC= 8.42D-11 BMatP= 1.65D-09
 IDIUse=1 WtCom= 1.00D+00 WtEn= 0.00D+00
 Coeff-Com: -0.604D-02 0.853D-01 0.129D+00 0.249D+00 0.543D+00
 Coeff:     -0.604D-02 0.853D-01 0.129D+00 0.249D+00 0.543D+00
 Gap=     0.221 Goal=   None    Shift=    0.000
 RMSDP=5.07D-08 MaxDP=1.66D-06 DE=-1.53D-09 OVMax= 3.63D-06

 Cycle  11  Pass 1  IDiag  1:
 E= -683.810137232968     Delta-E=       -0.000000000066 Rises=F Damp=F
 DIIS: error= 1.25D-07 at cycle   6 NSaved=   6.
 NSaved= 6 IEnMin= 6 EnMin= -683.810137232968     IErMin= 6 ErrMin= 1.25D-07
 ErrMax= 1.25D-07 EMaxC= 1.00D-01 BMatC= 2.69D-12 BMatP= 8.42D-11
 IDIUse=1 WtCom= 1.00D+00 WtEn= 0.00D+00
 Coeff-Com: -0.121D-02 0.125D-01 0.190D-01 0.480D-01 0.192D+00 0.729D+00
 Coeff:     -0.121D-02 0.125D-01 0.190D-01 0.480D-01 0.192D+00 0.729D+00
 Gap=     0.221 Goal=   None    Shift=    0.000
 RMSDP=1.14D-08 MaxDP=3.65D-07 DE=-6.57D-11 OVMax= 8.19D-07

 Cycle  12  Pass 1  IDiag  1:
 E= -683.810137232964     Delta-E=        0.000000000004 Rises=F Damp=F
 DIIS: error= 8.44D-08 at cycle   7 NSaved=   7.
 NSaved= 7 IEnMin= 6 EnMin= -683.810137232968     IErMin= 7 ErrMin= 8.44D-08
 ErrMax= 8.44D-08 EMaxC= 1.00D-01 BMatC= 6.77D-13 BMatP= 2.69D-12
 IDIUse=1 WtCom= 1.00D+00 WtEn= 0.00D+00
 Coeff-Com: -0.269D-03 0.161D-02 0.229D-02 0.108D-01 0.726D-01 0.408D+00
 Coeff-Com:  0.505D+00
 Coeff:     -0.269D-03 0.161D-02 0.229D-02 0.108D-01 0.726D-01 0.408D+00
 Coeff:      0.505D+00
 Gap=     0.221 Goal=   None    Shift=    0.000
 RMSDP=5.61D-09 MaxDP=2.27D-07 DE= 4.32D-12 OVMax= 4.31D-07

 SCF Done:  E(RB3LYP) =  -683.810137233     A.U. after   12 cycles
             Convg  =    0.5610D-08             -V/T =  2.0081
 KE= 6.782897681592D+02 PE=-3.025312138566D+03 EE= 9.540333889603D+02
 Leave Link  502 at Tue Sep 28 23:57:30 2021, MaxMem=  805306368 cpu:      85.7
 (Enter /sw/target/amd/app/gaussian/Gaussian09RevA.02_gcc-4.9.2/g09/l508.exe)
 QCSCF skips out because SCF is already converged.
 Leave Link  508 at Tue Sep 28 23:57:31 2021, MaxMem=  805306368 cpu:       0.0
 (Enter /sw/target/amd/app/gaussian/Gaussian09RevA.02_gcc-4.9.2/g09/l701.exe)
 Compute integral first derivatives.
 ... and contract with generalized density number  0.
 Leave Link  701 at Tue Sep 28 23:57:32 2021, MaxMem=  805306368 cpu:       0.8
 (Enter /sw/target/amd/app/gaussian/Gaussian09RevA.02_gcc-4.9.2/g09/l702.exe)
 L702 exits ... SP integral derivatives will be done elsewhere.
 Leave Link  702 at Tue Sep 28 23:57:32 2021, MaxMem=  805306368 cpu:       0.0
 (Enter /sw/target/amd/app/gaussian/Gaussian09RevA.02_gcc-4.9.2/g09/l703.exe)
 Compute integral first derivatives, UseDBF=F ICtDFT=           0.
 Integral derivatives from FoFDir, PRISM(SPDF).
 Calling FoFJK, ICntrl=      2127 FMM=F ISym2X=0 I1Cent= 0 IOpClX= 0 NMat=1 NMatS=1 NMatT=0.
[...]
     4  C    0.000296   0.003479   0.003437   0.353801  -0.035704   0.000358
     5  C    0.000001  -0.000194  -0.000192  -0.034768   0.358011   0.005282
     6  C   -0.000000   0.000007   0.000006   0.003871  -0.042641  -0.049744
     7  C    0.000003   0.000006   0.000006   0.000731   0.005193   0.363084
     8  C   -0.000114  -0.000198  -0.000198   0.004246   0.000525  -0.036689
     9  C   -0.000000   0.000000   0.000000  -0.000112  -0.007991  -0.004288
    10  F    0.000000  -0.000000  -0.000000  -0.000000   0.009409   0.000069
    11  F    0.000000   0.000000  -0.000000   0.000000   0.000160   0.001764
    12  F    0.000000  -0.000000   0.000000   0.000000   0.000160   0.001758
    13  H    0.520385  -0.030035  -0.030086  -0.000026  -0.000000  -0.000000
    14  H   -0.030035   0.562525  -0.042677   0.001296   0.000002  -0.000000
    15  H   -0.030086  -0.042677   0.562555   0.001301   0.000002  -0.000000
    16  H   -0.000026   0.001296   0.001301   0.590773  -0.005596   0.000016
    17  H   -0.000000   0.000002   0.000002  -0.005596   0.567886  -0.000179
    18  H   -0.000000  -0.000000  -0.000000   0.000016  -0.000179   0.575343
    19  H   -0.000024   0.000023   0.000023  -0.000167   0.000015  -0.006488
             19
     1  C   -0.000172
     2  O   -0.001155
     3  C   -0.038781
     4  C    0.007028
     5  C    0.000218
     6  C    0.004730
     7  C   -0.039671
     8  C    0.350298
     9  C   -0.000093
    10  F    0.000000
    11  F    0.000001
    12  F    0.000001
    13  H   -0.000024
    14  H    0.000023
    15  H    0.000023
    16  H   -0.000167
    17  H    0.000015
    18  H   -0.006488
    19  H    0.585239
 Mulliken atomic charges:
              1
     1  C   -0.231295
     2  O   -0.443128
     3  C    0.359854
     4  C   -0.200578
     5  C   -0.198099
     6  C    0.012491
     7  C   -0.187067
     8  C   -0.190845
     9  C    0.785607
    10  F   -0.271872
    11  F   -0.267822
    12  F   -0.267814
    13  H    0.183998
    14  H    0.176186
    15  H    0.176183
    16  H    0.132481
    17  H    0.147459
    18  H    0.145284
    19  H    0.138976
 Sum of Mulliken atomic charges =  -0.00000
 Mulliken charges with hydrogens summed into heavy atoms:
              1
     1  C    0.305072
     2  O   -0.443128
     3  C    0.359854
     4  C   -0.068097
     5  C   -0.050640
     6  C    0.012491
     7  C   -0.041783
     8  C   -0.051869
     9  C    0.785607
    10  F   -0.271872
    11  F   -0.267822
    12  F   -0.267814
 Sum of Mulliken charges with hydrogens summed into heavy atoms =  -0.00000
 Electronic spatial extent (au):  <R**2>=           2500.9457
 Charge=              0.0000 electrons
 Dipole moment (field-independent basis, Debye):
    X=              4.6227    Y=              1.2467    Z=              0.0024  Tot=              4.7879
 Quadrupole moment (field-independent basis, Debye-Ang):
   XX=            -57.6092   YY=            -63.2884   ZZ=            -69.3193
   XY=              5.5240   XZ=              0.0123   YZ=             -0.0023
 Traceless Quadrupole moment (field-independent basis, Debye-Ang):
   XX=              5.7964   YY=              0.1173   ZZ=             -5.9137
   XY=              5.5240   XZ=              0.0123   YZ=             -0.0023
 Octapole moment (field-independent basis, Debye-Ang**2):
  XXX=             43.1133  YYY=             -0.5349  ZZZ=              0.0095  XYY=            -10.5760
  XXY=             20.6187  XXZ=              0.0510  XZZ=            -13.1139  YZZ=              2.6544
  YYZ=              0.0030  XYZ=             -0.0030
 Hexadecapole moment (field-independent basis, Debye-Ang**3):
 XXXX=          -2011.6252 YYYY=           -393.6079 ZZZZ=           -133.4750 XXXY=             66.5174
 XXXZ=              0.2069 YYYX=             -4.9883 YYYZ=             -0.0128 ZZZX=             -0.0069
 ZZZY=              0.0096 XXYY=           -450.7617 XXZZ=           -414.3085 YYZZ=            -97.3003
 XXYZ=             -0.0205 YYXZ=             -0.0164 ZZXY=             -2.7529
 N-N= 7.085825247307D+02 E-N=-3.024049163307D+03  KE= 6.784791703655D+02
 No NMR shielding tensors so no spin-rotation constants.
 Leave Link  601 at Wed Sep 29 02:49:17 2021, MaxMem=  805306368 cpu:       0.6
 (Enter /sw/target/amd/app/gaussian/Gaussian09RevA.02_gcc-4.9.2/g09/l604.exe)
 Evaluate density.
 Using the total density.
 Monte-Carlo method of calculating molar volume:
 based on  0.001 e/bohr**3 density envelope.
 Number of points per bohr**3 =   20 CutOff= 1.00D-04
 Using the CI density.
 There are       363 points.  Will hold       363 in memory.
 LenV=   805196664 MDV=   805306368.
 Box volume = 6024.983 fraction occupied=0.220
 Integrated density= 6.6027441424380171D+01 error=-2.3972558575619829D+01
 Molar volume = 1327.820 bohr**3/mol (118.493 cm**3/mol)
 Recommended a0 for SCRF calculation =  4.47 angstrom (  8.45 bohr)
 Leave Link  604 at Wed Sep 29 02:49:18 2021, MaxMem=  805306368 cpu:       0.3
 (Enter /sw/target/amd/app/gaussian/Gaussian09RevA.02_gcc-4.9.2/g09/l607.exe)
 ******************************Gaussian NBO Version 3.1******************************
             N A T U R A L   A T O M I C   O R B I T A L   A N D
          N A T U R A L   B O N D   O R B I T A L   A N A L Y S I S
 ******************************Gaussian NBO Version 3.1******************************
       /RESON  / : Allow strongly delocalized NBO set

 Analyzing the CI density

 Job title: COc1ccc(cc1)C(F)(F)F_conf_0                                     

 Storage needed:    114204 in NPA ( 805304373 available)


 NATURAL POPULATIONS:  Natural atomic orbital occupancies 
                                                          
   NAO  Atom  No  lang   Type(AO)    Occupancy
 --------------------------------------------
     1    C    1  S      Cor( 1S)     1.99942
     2    C    1  S      Val( 2S)     1.10661
     3    C    1  S      Ryd( 3S)     0.00145
     4    C    1  S      Ryd( 4S)     0.00003
     5    C    1  px     Val( 2p)     1.03178
     6    C    1  px     Ryd( 3p)     0.00241
     7    C    1  py     Val( 2p)     0.94090
     8    C    1  py     Ryd( 3p)     0.00337
     9    C    1  pz     Val( 2p)     1.23424
    10    C    1  pz     Ryd( 3p)     0.00032
    11    C    1  dxy    Ryd( 3d)     0.00178
    12    C    1  dxz    Ryd( 3d)     0.00056
    13    C    1  dyz    Ryd( 3d)     0.00170
    14    C    1  dx2y2  Ryd( 3d)     0.00128
    15    C    1  dz2    Ryd( 3d)     0.00111

    16    O    2  S      Cor( 1S)     1.99975
    17    O    2  S      Val( 2S)     1.59672
    18    O    2  S      Ryd( 3S)     0.00078
    19    O    2  S      Ryd( 4S)     0.00006
    20    O    2  px     Val( 2p)     1.42787
    21    O    2  px     Ryd( 3p)     0.00103
    22    O    2  py     Val( 2p)     1.68507
    23    O    2  py     Ryd( 3p)     0.00216
    24    O    2  pz     Val( 2p)     1.70090
    25    O    2  pz     Ryd( 3p)     0.00225
    26    O    2  dxy    Ryd( 3d)     0.00134
    27    O    2  dxz    Ryd( 3d)     0.00066
    28    O    2  dyz    Ryd( 3d)     0.00141
    29    O    2  dx2y2  Ryd( 3d)     0.00134
    30    O    2  dz2    Ryd( 3d)     0.00076

    31    C    3  S      Cor( 1S)     1.99883
    32    C    3  S      Val( 2S)     0.84294
    33    C    3  S      Ryd( 3S)     0.00159
    34    C    3  S      Ryd( 4S)     0.00013
    35    C    3  px     Val( 2p)     0.74946
    36    C    3  px     Ryd( 3p)     0.00668
    37    C    3  py     Val( 2p)     1.08415
    38    C    3  py     Ryd( 3p)     0.00627
    39    C    3  pz     Val( 2p)     0.97777
    40    C    3  pz     Ryd( 3p)     0.00190
    41    C    3  dxy    Ryd( 3d)     0.00143
    42    C    3  dxz    Ryd( 3d)     0.00168
    43    C    3  dyz    Ryd( 3d)     0.00134
    44    C    3  dx2y2  Ryd( 3d)     0.00175
    45    C    3  dz2    Ryd( 3d)     0.00050

    46    C    4  S      Cor( 1S)     1.99906
    47    C    4  S      Val( 2S)     0.96045
    48    C    4  S      Ryd( 3S)     0.00067
    49    C    4  S      Ryd( 4S)     0.00005
    50    C    4  px     Val( 2p)     1.11102
    51    C    4  px     Ryd( 3p)     0.00391
    52    C    4  py     Val( 2p)     1.14347
    53    C    4  py     Ryd( 3p)     0.00407
    54    C    4  pz     Val( 2p)     1.08991
    55    C    4  pz     Ryd( 3p)     0.00564
    56    C    4  dxy    Ryd( 3d)     0.00082
    57    C    4  dxz    Ryd( 3d)     0.00059
    58    C    4  dyz    Ryd( 3d)     0.00046
    59    C    4  dx2y2  Ryd( 3d)     0.00056
    60    C    4  dz2    Ryd( 3d)     0.00047

    61    C    5  S      Cor( 1S)     1.99909
    62    C    5  S      Val( 2S)     0.95134
    63    C    5  S      Ryd( 3S)     0.00079
    64    C    5  S      Ryd( 4S)     0.00004
    65    C    5  px     Val( 2p)     1.07096
    66    C    5  px     Ryd( 3p)     0.00544
    67    C    5  py     Val( 2p)     1.17149
    68    C    5  py     Ryd( 3p)     0.00520
    69    C    5  pz     Val( 2p)     1.04240
    70    C    5  pz     Ryd( 3p)     0.00554
    71    C    5  dxy    Ryd( 3d)     0.00076
    72    C    5  dxz    Ryd( 3d)     0.00066
    73    C    5  dyz    Ryd( 3d)     0.00040
    74    C    5  dx2y2  Ryd( 3d)     0.00064
    75    C    5  dz2    Ryd( 3d)     0.00044

    76    C    6  S      Cor( 1S)     1.99887
    77    C    6  S      Val( 2S)     0.91761
    78    C    6  S      Ryd( 3S)     0.00086
    79    C    6  S      Ryd( 4S)     0.00006
    80    C    6  px     Val( 2p)     1.07769
    81    C    6  px     Ryd( 3p)     0.00492
    82    C    6  py     Val( 2p)     1.10895
    83    C    6  py     Ryd( 3p)     0.00450
    84    C    6  pz     Val( 2p)     0.98310
    85    C    6  pz     Ryd( 3p)     0.00273
    86    C    6  dxy    Ryd( 3d)     0.00058
    87    C    6  dxz    Ryd( 3d)     0.00043
    88    C    6  dyz    Ryd( 3d)     0.00115
    89    C    6  dx2y2  Ryd( 3d)     0.00106
    90    C    6  dz2    Ryd( 3d)     0.00048

    91    C    7  S      Cor( 1S)     1.99909
    92    C    7  S      Val( 2S)     0.95153
    93    C    7  S      Ryd( 3S)     0.00066
    94    C    7  S      Ryd( 4S)     0.00004
    95    C    7  px     Val( 2p)     1.10413
    96    C    7  px     Ryd( 3p)     0.00539
    97    C    7  py     Val( 2p)     1.13732
    98    C    7  py     Ryd( 3p)     0.00491
    99    C    7  pz     Val( 2p)     1.05011
   100    C    7  pz     Ryd( 3p)     0.00558
   101    C    7  dxy    Ryd( 3d)     0.00079
   102    C    7  dxz    Ryd( 3d)     0.00066
   103    C    7  dyz    Ryd( 3d)     0.00041
   104    C    7  dx2y2  Ryd( 3d)     0.00060
   105    C    7  dz2    Ryd( 3d)     0.00046

   106    C    8  S      Cor( 1S)     1.99907
   107    C    8  S      Val( 2S)     0.96157
   108    C    8  S      Ryd( 3S)     0.00090
   109    C    8  S      Ryd( 4S)     0.00005
   110    C    8  px     Val( 2p)     1.08124
   111    C    8  px     Ryd( 3p)     0.00552
   112    C    8  py     Val( 2p)     1.15750
   113    C    8  py     Ryd( 3p)     0.00448
   114    C    8  pz     Val( 2p)     1.07614
   115    C    8  pz     Ryd( 3p)     0.00649
   116    C    8  dxy    Ryd( 3d)     0.00084
   117    C    8  dxz    Ryd( 3d)     0.00065
   118    C    8  dyz    Ryd( 3d)     0.00041
   119    C    8  dx2y2  Ryd( 3d)     0.00055
   120    C    8  dz2    Ryd( 3d)     0.00047

   121    C    9  S      Cor( 1S)     1.99905
   122    C    9  S      Val( 2S)     0.79730
   123    C    9  S      Ryd( 3S)     0.00488
   124    C    9  S      Ryd( 4S)     0.00030
   125    C    9  px     Val( 2p)     0.86758
   126    C    9  px     Ryd( 3p)     0.01325
   127    C    9  py     Val( 2p)     0.56524
   128    C    9  py     Ryd( 3p)     0.01832
   129    C    9  pz     Val( 2p)     0.58745
   130    C    9  pz     Ryd( 3p)     0.01560
   131    C    9  dxy    Ryd( 3d)     0.00288
   132    C    9  dxz    Ryd( 3d)     0.00345
   133    C    9  dyz    Ryd( 3d)     0.00410
   134    C    9  dx2y2  Ryd( 3d)     0.00324
   135    C    9  dz2    Ryd( 3d)     0.00367

   136    F   10  S      Cor( 1S)     1.99993
   137    F   10  S      Val( 2S)     1.84275
   138    F   10  S      Ryd( 3S)     0.00079
   139    F   10  S      Ryd( 4S)     0.00004
   140    F   10  px     Val( 2p)     1.91659
   141    F   10  px     Ryd( 3p)     0.00038
   142    F   10  py     Val( 2p)     1.66787
   143    F   10  py     Ryd( 3p)     0.00014
   144    F   10  pz     Val( 2p)     1.93065
   145    F   10  pz     Ryd( 3p)     0.00024
   146    F   10  dxy    Ryd( 3d)     0.00126
   147    F   10  dxz    Ryd( 3d)     0.00022
   148    F   10  dyz    Ryd( 3d)     0.00133
   149    F   10  dx2y2  Ryd( 3d)     0.00127
   150    F   10  dz2    Ryd( 3d)     0.00040

   151    F   11  S      Cor( 1S)     1.99993
   152    F   11  S      Val( 2S)     1.84689
   153    F   11  S      Ryd( 3S)     0.00089
   154    F   11  S      Ryd( 4S)     0.00003
   155    F   11  px     Val( 2p)     1.89038
   156    F   11  px     Ryd( 3p)     0.00047
   157    F   11  py     Val( 2p)     1.87265
   158    F   11  py     Ryd( 3p)     0.00019
   159    F   11  pz     Val( 2p)     1.74556
   160    F   11  pz     Ryd( 3p)     0.00015
   161    F   11  dxy    Ryd( 3d)     0.00048
   162    F   11  dxz    Ryd( 3d)     0.00103
   163    F   11  dyz    Ryd( 3d)     0.00104
   164    F   11  dx2y2  Ryd( 3d)     0.00063
   165    F   11  dz2    Ryd( 3d)     0.00128

   166    F   12  S      Cor( 1S)     1.99993
   167    F   12  S      Val( 2S)     1.84690
   168    F   12  S      Ryd( 3S)     0.00089
   169    F   12  S      Ryd( 4S)     0.00003
   170    F   12  px     Val( 2p)     1.89052
   171    F   12  px     Ryd( 3p)     0.00047
   172    F   12  py     Val( 2p)     1.87295
   173    F   12  py     Ryd( 3p)     0.00019
   174    F   12  pz     Val( 2p)     1.74513
   175    F   12  pz     Ryd( 3p)     0.00015
   176    F   12  dxy    Ryd( 3d)     0.00048
   177    F   12  dxz    Ryd( 3d)     0.00103
   178    F   12  dyz    Ryd( 3d)     0.00104
   179    F   12  dx2y2  Ryd( 3d)     0.00062
   180    F   12  dz2    Ryd( 3d)     0.00128

   181    H   13  S      Val( 1S)     0.76435
   182    H   13  S      Ryd( 2S)     0.00050

   183    H   14  S      Val( 1S)     0.77853
   184    H   14  S      Ryd( 2S)     0.00191

   185    H   15  S      Val( 1S)     0.77853
   186    H   15  S      Ryd( 2S)     0.00190

   187    H   16  S      Val( 1S)     0.76730
   188    H   16  S      Ryd( 2S)     0.00094

   189    H   17  S      Val( 1S)     0.75306
   190    H   17  S      Ryd( 2S)     0.00140

   191    H   18  S      Val( 1S)     0.75668
   192    H   18  S      Ryd( 2S)     0.00125

   193    H   19  S      Val( 1S)     0.75670
   194    H   19  S      Ryd( 2S)     0.00118

 WARNING:  1 low occupancy (<1.9990e) core orbital  found on  C    3
           1 low occupancy (<1.9990e) core orbital  found on  C    6


 Summary of Natural Population Analysis:                  
                                                          
                                       Natural Population 
                Natural  -----------------------------------------------
    Atom  No    Charge         Core      Valence    Rydberg      Total
 -----------------------------------------------------------------------
      C    1   -0.32697      1.99942     4.31353    0.01402     6.32697
      O    2   -0.42211      1.99975     6.41056    0.01180     8.42211
      C    3    0.32359      1.99883     3.65432    0.02326     5.67641
      C    4   -0.32115      1.99906     4.30485    0.01725     6.32115
      C    5   -0.25521      1.99909     4.23620    0.01992     6.25521
      C    6   -0.10298      1.99887     4.08734    0.01677     6.10298
      C    7   -0.26168      1.99909     4.24309    0.01950     6.26168
      C    8   -0.29587      1.99907     4.27645    0.02035     6.29587
      C    9    1.11369      1.99905     2.81757    0.06969     4.88631
      F   10   -0.36386      1.99993     7.35786    0.00607     9.36386
      F   11   -0.36162      1.99993     7.35549    0.00619     9.36162
      F   12   -0.36161      1.99993     7.35549    0.00619     9.36161
      H   13    0.23514      0.00000     0.76435    0.00050     0.76486
      H   14    0.21957      0.00000     0.77853    0.00191     0.78043
      H   15    0.21956      0.00000     0.77853    0.00190     0.78044
      H   16    0.23176      0.00000     0.76730    0.00094     0.76824
      H   17    0.24554      0.00000     0.75306    0.00140     0.75446
      H   18    0.24207      0.00000     0.75668    0.00125     0.75793
      H   19    0.24212      0.00000     0.75670    0.00118     0.75788
 =======================================================================
   * Total *    0.00000     23.99201    65.76789    0.24010    90.00000

                                 Natural Population      
 --------------------------------------------------------
   Core                      23.99201 ( 99.9667% of  24)
   Valence                   65.76789 ( 99.6483% of  66)
   Natural Minimal Basis     89.75990 ( 99.7332% of  90)
   Natural Rydberg Basis      0.24010 (  0.2668% of  90)
 --------------------------------------------------------

    Atom  No          Natural Electron Configuration
 ----------------------------------------------------------------------------
      C    1      [core]2S( 1.11)2p( 3.21)3p( 0.01)3d( 0.01)
      O    2      [core]2S( 1.60)2p( 4.81)3p( 0.01)3d( 0.01)
      C    3      [core]2S( 0.84)2p( 2.81)3p( 0.01)3d( 0.01)
      C    4      [core]2S( 0.96)2p( 3.34)3p( 0.01)
      C    5      [core]2S( 0.95)2p( 3.28)3p( 0.02)
      C    6      [core]2S( 0.92)2p( 3.17)3p( 0.01)
      C    7      [core]2S( 0.95)2p( 3.29)3p( 0.02)
      C    8      [core]2S( 0.96)2p( 3.31)3p( 0.02)
      C    9      [core]2S( 0.80)2p( 2.02)3p( 0.05)3d( 0.02)
      F   10      [core]2S( 1.84)2p( 5.52)
      F   11      [core]2S( 1.85)2p( 5.51)
      F   12      [core]2S( 1.85)2p( 5.51)
      H   13            1S( 0.76)
      H   14            1S( 0.78)
      H   15            1S( 0.78)
      H   16            1S( 0.77)
      H   17            1S( 0.75)
      H   18            1S( 0.76)
      H   19            1S( 0.76)


 NBO analysis skipped by request.
 Leave Link  607 at Wed Sep 29 02:49:32 2021, MaxMem=  805306368 cpu:      10.6
 (Enter /sw/target/amd/app/gaussian/Gaussian09RevA.02_gcc-4.9.2/g09/l9999.exe)
 1\1\GINC-HERMITE\SP\RTD-B3LYP-FC\6-31G(d)\C8H7F3O1\JSCHLEINITZ\29-Sep-
 2021\0\\#p TD(NStates=10, Root=1) b3lyp/6-31G* volume pop=NPA density=
 current Geom=AllCheck Guess=Read\\COc1ccc(cc1)C(F)(F)F_conf_0\\0,1\C,0
 ,1.2680811877,0.3188071905,-0.7054365865\O,0,2.428120969,-0.1793965853
 ,-0.0534001509\C,0,3.1273773288,-1.1818174666,-0.6512518935\C,0,2.7898
 622227,-1.7670932225,-1.8773908369\C,0,3.5847280586,-2.7921773418,-2.3
 950110448\C,0,4.7087519763,-3.2376317802,-1.7043768289\C,0,5.042540418
 4,-2.6476108501,-0.4761055311\C,0,4.2616143066,-1.6301486569,0.0472123
 803\C,0,5.5743621717,-4.3373942851,-2.2442188148\F,0,5.1310729521,-4.8
 067486199,-3.4313523903\F,0,6.8525243673,-3.9257192985,-2.4287887602\F
 ,0,5.6349694144,-5.3917353109,-1.3945405551\H,0,0.874322307,1.10177216
 53,-0.0554308551\H,0,0.5103108093,-0.4651824873,-0.8313705644\H,0,1.51
 15421093,0.7479015142,-1.6859182323\H,0,1.9204155098,-1.4381598731,-2.
 4340496087\H,0,3.321886574,-3.2445208858,-3.3449345662\H,0,5.917726168
 7,-2.9896640954,0.0684182475\H,0,4.5050215027,-1.1627177916,0.99576520
 21\\Version=AM64L-G09RevA.02\State=1-A\HF=-683.8103356\RMSD=3.218e-09\
 Dipole=-1.3974425,1.2555141,0.1385873\Quadrupole=3.0990913,-0.5170482,
 -2.5820431,-4.9072679,1.8455324,-0.2557001\PG=C01 [X(C8H7F3O1)]\\@


 FESTINA LENTE!
     - IMPERATOR AUGUSTUS 
 Job cpu time:  0 days  1 hours 33 minutes 44.2 seconds.
 File lengths (MBytes):  RWF=    135 Int=      0 D2E=      0 Chk=     18 Scr=      1
 Normal termination of Gaussian 09 at Wed Sep 29 02:49:34 2021.
