 Entering Gaussian System, Link 0=g09
 Input=C8H7NO_5732_conf_0.com
 Output=C8H7NO_5732_conf_0.log
 Initial command:
 /sw/target/amd/app/gaussian/Gaussian09RevA.02_gcc-4.9.2/g09/l1.exe /home/jschleinitz/gaussian/Gau-482546.inp -scrdir=/home/jschleinitz/gaussian/
 Entering Link 1 = /sw/target/amd/app/gaussian/Gaussian09RevA.02_gcc-4.9.2/g09/l1.exe PID=    482548.
  
 Copyright (c) 1988,1990,1992,1993,1995,1998,2003,2009, Gaussian, Inc.
                  All Rights Reserved.
  
 This is part of the Gaussian(R) 09 program.  It is based on
 the Gaussian(R) 03 system (copyright 2003, Gaussian, Inc.),
 the Gaussian(R) 98 system (copyright 1998, Gaussian, Inc.),
 the Gaussian(R) 94 system (copyright 1995, Gaussian, Inc.),
 the Gaussian 92(TM) system (copyright 1992, Gaussian, Inc.),
 the Gaussian 90(TM) system (copyright 1990, Gaussian, Inc.),
 the Gaussian 88(TM) system (copyright 1988, Gaussian, Inc.),
 the Gaussian 86(TM) system (copyright 1986, Carnegie Mellon
 University), and the Gaussian 82(TM) system (copyright 1983,
 Carnegie Mellon University). Gaussian is a federally registered
 trademark of Gaussian, Inc.
  
 This software contains proprietary and confidential information,
 including trade secrets, belonging to Gaussian, Inc.
  
 This software is provided under written license and may be
 used, copied, transmitted, or stored only in accord with that
 written license.
  
 The following legend is applicable only to US Government
 contracts under FAR:
  
                    RESTRICTED RIGHTS LEGEND
  
 Use, reproduction and disclosure by the US Government is
 subject to restrictions as set forth in subparagraphs (a)
 and (c) of the Commercial Computer Software - Restricted
 Rights clause in FAR 52.227-19.
  
 Gaussian, Inc.
 340 Quinnipiac St., Bldg. 40, Wallingford CT 06492
  
  
 ---------------------------------------------------------------
 Warning -- This program may not be used in any manner that
 competes with the business of Gaussian, Inc. or will provide
 assistance to any competitor of Gaussian, Inc.  The licensee
 of this program is prohibited from giving any competitor of
 Gaussian, Inc. access to this program.  By using this program,
 the user acknowledges that Gaussian, Inc. is engaged in the
 business of creating and licensing software in the field of
 computational chemistry and represents and warrants to the
 licensee that it is not a competitor of Gaussian, Inc. and that
 it will not use this program in any manner prohibited above.
 ---------------------------------------------------------------
  

 Cite this work as:
 Gaussian 09, Revision A.02,
 M. J. Frisch, G. W. Trucks, H. B. Schlegel, G. E. Scuseria, 
 M. A. Robb, J. R. Cheeseman, G. Scalmani, V. Barone, B. Mennucci, 
 G. A. Petersson, H. Nakatsuji, M. Caricato, X. Li, H. P. Hratchian, 
 A. F. Izmaylov, J. Bloino, G. Zheng, J. L. Sonnenberg, M. Hada, 
 M. Ehara, K. Toyota, R. Fukuda, J. Hasegawa, M. Ishida, T. Nakajima, 
 Y. Honda, O. Kitao, H. Nakai, T. Vreven, J. A. Montgomery, Jr., 
 J. E. Peralta, F. Ogliaro, M. Bearpark, J. J. Heyd, E. Brothers, 
 K. N. Kudin, V. N. Staroverov, R. Kobayashi, J. Normand, 
 K. Raghavachari, A. Rendell, J. C. Burant, S. S. Iyengar, J. Tomasi, 
 M. Cossi, N. Rega, J. M. Millam, M. Klene, J. E. Knox, J. B. Cross, 
 V. Bakken, C. Adamo, J. Jaramillo, R. Gomperts, R. E. Stratmann, 
 O. Yazyev, A. J. Austin, R. Cammi, C. Pomelli, J. W. Ochterski, 
 R. L. Martin, K. Morokuma, V. G. Zakrzewski, G. A. Voth, 
 P. Salvador, J. J. Dannenberg, S. Dapprich, A. D. Daniels, 
 O. Farkas, J. B. Foresman, J. V. Ortiz, J. Cioslowski, 
 and D. J. Fox, Gaussian, Inc., Wallingford CT, 2009.
 
 ******************************************
 Gaussian 09:  AM64L-G09RevA.02 11-Jun-2009
                29-Sep-2021 
 ******************************************
 %nproc=2
 Will use up to    2 processors via shared memory.
 %mem=4gb
 %chk=C8H7NO_5732_conf_0.chk
 -----------------------------------
 #p opt b3lyp/6-31G* scf=(xqc,tight)
 -----------------------------------
 1/14=-1,18=20,19=15,26=3,38=1/1,3;
 2/9=110,12=2,17=6,18=5,40=1/2;
 3/5=1,6=6,7=1,11=2,16=1,25=1,30=1,71=1,74=-5/1,2,3;
 4//1;
 5/5=2,8=3,13=1,32=2,38=5/2,8;
 6/7=2,8=2,9=2,10=2,28=1/1;
 7//1,2,3,16;
 1/14=-1,18=20,19=15/3(2);
 2/9=110/2;
 99//99;
 2/9=110/2;
 3/5=1,6=6,7=1,11=2,16=1,25=1,30=1,71=1,74=-5/1,2,3;
 4/5=5,16=3/1;
 5/5=2,8=3,13=1,32=2,38=5/2,8;
 7//1,2,3,16;
 1/14=-1,18=20,19=15/3(-5);
 2/9=110/2;
 6/7=2,8=2,9=2,10=2,19=2,28=1/1;
 99/9=1/99;
 Leave Link    1 at Wed Sep 29 00:26:50 2021, MaxMem=  536870912 cpu:       0.1
 (Enter /sw/target/amd/app/gaussian/Gaussian09RevA.02_gcc-4.9.2/g09/l101.exe)
 ----------------------
 COc1cccc(c1)C#N_conf_0
 ----------------------
 Symbolic Z-matrix:
 Charge =  0 Multiplicity = 1
 C                     3.0679    0.92063   0.75964 
 O                     2.46439   0.12408  -0.25338 
 C                     3.15916  -0.98294  -0.6554 
 C                     2.73736  -1.53102  -1.86971 
 C                     3.36498  -2.65922  -2.39898 
 C                     4.41539  -3.25695  -1.70499 
 C                     4.83177  -2.7269   -0.47934 
 C                     4.20229  -1.58941   0.04586 
 C                     5.90206  -3.34916   0.24303 
 N                     6.76881  -3.84987   0.83126 
 H                     2.46875   1.82953   0.8706 
 H                     4.08189   1.22175   0.47495 
 H                     3.0659    0.40088   1.72287 
 H                     1.91636  -1.0669   -2.4122 
 H                     3.03343  -3.06853  -3.3501 
 H                     4.90138  -4.13688  -2.1223 
 H                     4.53417  -1.20333   1.00517 
 
 NAtoms=     17 NQM=     17 NQMF=      0 NMic=      0 NMicF=      0 NTot=     17.
                    Isotopes and Nuclear Properties:
 (Nuclear quadrupole moments (NQMom) in fm**2, nuclear magnetic moments (NMagM)
  in nuclear magnetons)

  Atom         1           2           3           4           5           6           7           8           9          10
 IAtWgt=          12          16          12          12          12          12          12          12          12          14
 AtmWgt=  12.0000000  15.9949146  12.0000000  12.0000000  12.0000000  12.0000000  12.0000000  12.0000000  12.0000000  14.0030740
 NucSpn=           0           0           0           0           0           0           0           0           0           2
 AtZEff=   0.0000000   0.0000000   0.0000000   0.0000000   0.0000000   0.0000000   0.0000000   0.0000000   0.0000000   0.0000000
 NQMom=    0.0000000   0.0000000   0.0000000   0.0000000   0.0000000   0.0000000   0.0000000   0.0000000   0.0000000   2.0440000
 NMagM=    0.0000000   0.0000000   0.0000000   0.0000000   0.0000000   0.0000000   0.0000000   0.0000000   0.0000000   0.4037610

  Atom        11          12          13          14          15          16          17
 IAtWgt=           1           1           1           1           1           1           1
 AtmWgt=   1.0078250   1.0078250   1.0078250   1.0078250   1.0078250   1.0078250   1.0078250
 NucSpn=           1           1           1           1           1           1           1
 AtZEff=   0.0000000   0.0000000   0.0000000   0.0000000   0.0000000   0.0000000   0.0000000
 NQMom=    0.0000000   0.0000000   0.0000000   0.0000000   0.0000000   0.0000000   0.0000000
 NMagM=    2.7928460   2.7928460   2.7928460   2.7928460   2.7928460   2.7928460   2.7928460
 Leave Link  101 at Wed Sep 29 00:26:51 2021, MaxMem=  536870912 cpu:       0.2
 (Enter /sw/target/amd/app/gaussian/Gaussian09RevA.02_gcc-4.9.2/g09/l103.exe)

 GradGradGradGradGradGradGradGradGradGradGradGradGradGradGradGradGradGrad
 Berny optimization.
 Initialization pass.
                           ----------------------------
                           !    Initial Parameters    !
                           ! (Angstroms and Degrees)  !
 --------------------------                            --------------------------
 ! Name  Definition              Value          Derivative Info.                !
 --------------------------------------------------------------------------------
 ! R1    R(1,2)                  1.423          estimate D2E/DX2                !
 ! R2    R(1,11)                 1.0943         estimate D2E/DX2                !
 ! R3    R(1,12)                 1.0954         estimate D2E/DX2                !
 ! R4    R(1,13)                 1.0945         estimate D2E/DX2                !
 ! R5    R(2,3)                  1.3674         estimate D2E/DX2                !
 ! R6    R(3,4)                  1.3975         estimate D2E/DX2                !
 ! R7    R(3,8)                  1.3956         estimate D2E/DX2                !
 ! R8    R(4,5)                  1.3953         estimate D2E/DX2                !
 ! R9    R(4,14)                 1.088          estimate D2E/DX2                !
 ! R10   R(5,6)                  1.3936         estimate D2E/DX2                !
 ! R11   R(5,15)                 1.0872         estimate D2E/DX2                !
 ! R12   R(6,7)                  1.3988         estimate D2E/DX2                !
 ! R13   R(6,16)                 1.0884         estimate D2E/DX2                !
 ! R14   R(7,8)                  1.4021         estimate D2E/DX2                !
 ! R15   R(7,9)                  1.4334         estimate D2E/DX2                !
 ! R16   R(8,17)                 1.086          estimate D2E/DX2                !
 ! R17   R(9,10)                 1.161          estimate D2E/DX2                !
 ! A1    A(2,1,11)             107.7538         estimate D2E/DX2                !
 ! A2    A(2,1,12)             111.1895         estimate D2E/DX2                !
 ! A3    A(2,1,13)             111.0945         estimate D2E/DX2                !
 ! A4    A(11,1,12)            107.7505         estimate D2E/DX2                !
 ! A5    A(11,1,13)            107.7096         estimate D2E/DX2                !
 ! A6    A(12,1,13)            111.1583         estimate D2E/DX2                !
 ! A7    A(1,2,3)              116.5499         estimate D2E/DX2                !
 ! A8    A(2,3,4)              114.8104         estimate D2E/DX2                !
 ! A9    A(2,3,8)              125.7224         estimate D2E/DX2                !
 ! A10   A(4,3,8)              119.4588         estimate D2E/DX2                !
 ! A11   A(3,4,5)              120.7278         estimate D2E/DX2                !
 ! A12   A(3,4,14)             119.5861         estimate D2E/DX2                !
 ! A13   A(5,4,14)             119.6837         estimate D2E/DX2                !
 ! A14   A(4,5,6)              119.7971         estimate D2E/DX2                !
 ! A15   A(4,5,15)             119.938          estimate D2E/DX2                !
 ! A16   A(6,5,15)             120.2649         estimate D2E/DX2                !
 ! A17   A(5,6,7)              119.8793         estimate D2E/DX2                !
 ! A18   A(5,6,16)             119.496          estimate D2E/DX2                !
 ! A19   A(7,6,16)             120.6241         estimate D2E/DX2                !
 ! A20   A(6,7,8)              120.1319         estimate D2E/DX2                !
 ! A21   A(6,7,9)              119.9575         estimate D2E/DX2                !
 ! A22   A(8,7,9)              119.9104         estimate D2E/DX2                !
 ! A23   A(3,8,7)              119.9929         estimate D2E/DX2                !
 ! A24   A(3,8,17)             121.1826         estimate D2E/DX2                !
 ! A25   A(7,8,17)             118.8208         estimate D2E/DX2                !
 ! A26   L(7,9,10,8,-1)        179.7753         estimate D2E/DX2                !
 ! A27   L(7,9,10,8,-2)        180.0334         estimate D2E/DX2                !
 ! D1    D(11,1,2,3)           172.2492         estimate D2E/DX2                !
 ! D2    D(12,1,2,3)            54.3802         estimate D2E/DX2                !
 ! D3    D(13,1,2,3)           -69.9852         estimate D2E/DX2                !
 ! D4    D(1,2,3,4)           -163.5121         estimate D2E/DX2                !
 ! D5    D(1,2,3,8)             17.5546         estimate D2E/DX2                !
 ! D6    D(2,3,4,5)            179.6993         estimate D2E/DX2                !
 ! D7    D(2,3,4,14)             0.2586         estimate D2E/DX2                !
 ! D8    D(8,3,4,5)             -1.2953         estimate D2E/DX2                !
 ! D9    D(8,3,4,14)           179.264          estimate D2E/DX2                !
 ! D10   D(2,3,8,7)            179.8811         estimate D2E/DX2                !
 ! D11   D(2,3,8,17)             0.5968         estimate D2E/DX2                !
 ! D12   D(4,3,8,7)              0.9932         estimate D2E/DX2                !
 ! D13   D(4,3,8,17)          -178.2912         estimate D2E/DX2                !
 ! D14   D(3,4,5,6)              0.6674         estimate D2E/DX2                !
 ! D15   D(3,4,5,15)          -179.3313         estimate D2E/DX2                !
 ! D16   D(14,4,5,6)          -179.8925         estimate D2E/DX2                !
 ! D17   D(14,4,5,15)            0.1088         estimate D2E/DX2                !
 ! D18   D(4,5,6,7)              0.2632         estimate D2E/DX2                !
 ! D19   D(4,5,6,16)           179.9929         estimate D2E/DX2                !
 ! D20   D(15,5,6,7)          -179.7381         estimate D2E/DX2                !
 ! D21   D(15,5,6,16)           -0.0084         estimate D2E/DX2                !
 ! D22   D(5,6,7,8)             -0.5564         estimate D2E/DX2                !
 ! D23   D(5,6,7,9)            179.3045         estimate D2E/DX2                !
 ! D24   D(16,6,7,8)           179.717          estimate D2E/DX2                !
 ! D25   D(16,6,7,9)            -0.422          estimate D2E/DX2                !
 ! D26   D(6,7,8,3)             -0.0765         estimate D2E/DX2                !
 ! D27   D(6,7,8,17)           179.2247         estimate D2E/DX2                !
 ! D28   D(9,7,8,3)           -179.9375         estimate D2E/DX2                !
 ! D29   D(9,7,8,17)            -0.6363         estimate D2E/DX2                !
 --------------------------------------------------------------------------------
 Trust Radius=3.00D-01 FncErr=1.00D-07 GrdErr=1.00D-06
 Number of steps in this run=  83 maximum allowed number of steps= 102.
 GradGradGradGradGradGradGradGradGradGradGradGradGradGradGradGradGradGrad

 Leave Link  103 at Wed Sep 29 00:26:51 2021, MaxMem=  536870912 cpu:       0.0
 (Enter /sw/target/amd/app/gaussian/Gaussian09RevA.02_gcc-4.9.2/g09/l202.exe)
                          Input orientation:                          
 ---------------------------------------------------------------------
 Center     Atomic      Atomic             Coordinates (Angstroms)
 Number     Number       Type             X           Y           Z
 ---------------------------------------------------------------------
      1          6           0        3.067895    0.920630    0.759637
      2          8           0        2.464385    0.124075   -0.253382
      3          6           0        3.159164   -0.982938   -0.655396
      4          6           0        2.737360   -1.531017   -1.869711
      5          6           0        3.364978   -2.659221   -2.398975
      6          6           0        4.415386   -3.256948   -1.704985
      7          6           0        4.831770   -2.726899   -0.479340
      8          6           0        4.202295   -1.589411    0.045856
      9          6           0        5.902063   -3.349165    0.243026
     10          7           0        6.768812   -3.849874    0.831265
     11          1           0        2.468748    1.829533    0.870603
     12          1           0        4.081892    1.221749    0.474948
     13          1           0        3.065901    0.400877    1.722867
     14          1           0        1.916355   -1.066899   -2.412200
     15          1           0        3.033431   -3.068530   -3.350099
     16          1           0        4.901383   -4.136884   -2.122300
     17          1           0        4.534172   -1.203331    1.005166
 ---------------------------------------------------------------------
                    Distance matrix (angstroms):
                    1          2          3          4          5
     1  C    0.000000
     2  O    1.423001   0.000000
     3  C    2.373651   1.367410   0.000000
     4  C    3.610166   2.329456   1.397452   0.000000
     5  C    4.783348   3.627861   2.427417   1.395302   0.000000
     6  C    5.034109   4.164718   2.801938   2.412830   1.393649
     7  C    4.236837   3.712630   2.422810   2.783850   2.416828
     8  C    2.845462   2.458843   1.395595   2.412228   2.796925
     9  C    5.150781   4.911970   3.732250   4.217187   3.727330
    10  N    6.038181   5.957921   4.843453   5.378195   4.841301
    11  H    1.094255   2.042534   3.273429   4.344510   5.625147
    12  H    1.095404   2.086069   2.643813   3.857839   4.882144
    13  H    1.094513   2.084226   2.753139   4.092282   5.142297
    14  H    3.916232   2.525719   2.153599   1.088002   2.152712
    15  H    5.727523   4.483994   3.409829   2.154797   1.087242
    16  H    6.102925   5.252389   3.890310   3.396667   2.149554
    17  H    2.592579   2.762240   2.167184   3.405999   3.882629
                    6          7          8          9         10
     6  C    0.000000
     7  C    1.398762   0.000000
     8  C    2.427248   1.402123   0.000000
     9  C    2.452235   1.433372   2.454551   0.000000
    10  N    3.510376   2.594396   3.509070   1.161029   0.000000
    11  H    6.024562   5.307286   3.921042   6.245031   7.123746
    12  H    4.992200   4.130957   2.846268   4.925451   5.750466
    13  H    5.191432   4.213192   2.839895   4.929154   5.707485
    14  H    3.397297   3.871846   3.397143   5.305170   6.466170
    15  H    2.156781   3.404702   3.884140   4.606339   5.661040
    16  H    1.088408   2.166154   3.417491   2.686378   3.506167
    17  H    3.402407   2.147924   1.086037   2.656423   3.468147
                   11         12         13         14         15
    11  H    0.000000
    12  H    1.768665   0.000000
    13  H    1.767485   1.806480   0.000000
    14  H    4.412624   4.273534   4.535923   0.000000
    15  H    6.490317   5.842667   6.145960   2.476699   0.000000
    16  H    7.104457   6.011008   6.224595   4.291765   2.477523
    17  H    3.671832   2.523233   2.290065   4.306968   4.969862
                   16         17
    16  H    0.000000
    17  H    4.303675   0.000000
 Stoichiometry    C8H7NO
 Framework group  C1[X(C8H7NO)]
 Deg. of freedom    45
 Full point group                 C1      NOp   1
 Largest Abelian subgroup         C1      NOp   1
 Largest concise Abelian subgroup C1      NOp   1
                         Standard orientation:                         
 ---------------------------------------------------------------------
 Center     Atomic      Atomic             Coordinates (Angstroms)
 Number     Number       Type             X           Y           Z
 ---------------------------------------------------------------------
      1          6           0       -2.689303   -1.566550    0.153767
      2          8           0       -2.441319   -0.198567   -0.149642
      3          6           0       -1.140549    0.217119   -0.078833
      4          6           0       -0.970032    1.603010   -0.023138
      5          6           0        0.305988    2.161647    0.057887
      6          6           0        1.425732    1.332014    0.069716
      7          6           0        1.265743   -0.055547   -0.005193
      8          6           0       -0.018634   -0.612936   -0.080320
      9          6           0        2.416850   -0.909654   -0.008202
     10          7           0        3.346517   -1.605140   -0.010588
     11          1           0       -3.773635   -1.708930    0.190479
     12          1           0       -2.283911   -1.834142    1.135583
     13          1           0       -2.293799   -2.221588   -0.628832
     14          1           0       -1.842842    2.252496   -0.034009
     15          1           0        0.423277    3.241212    0.111532
     16          1           0        2.418785    1.773014    0.132936
     17          1           0       -0.117712   -1.692161   -0.150548
 ---------------------------------------------------------------------
 Rotational constants (GHZ):      2.2549631      0.9748769      0.6855780
 Leave Link  202 at Wed Sep 29 00:26:51 2021, MaxMem=  536870912 cpu:       0.0
 (Enter /sw/target/amd/app/gaussian/Gaussian09RevA.02_gcc-4.9.2/g09/l301.exe)
 Standard basis: 6-31G(d) (6D, 7F)
 Ernie: Thresh=  0.10000D-02 Tol=  0.10000D-05 Strict=F.
 There are   164 symmetry adapted basis functions of A   symmetry.
 Integral buffers will be    131072 words long.
 Raffenetti 2 integral format.
 Two-electron integral symmetry is turned on.
   164 basis functions,   308 primitive gaussians,   164 cartesian basis functions
    35 alpha electrons       35 beta electrons
       nuclear repulsion energy       459.5203297737 Hartrees.
 IExCor=  402 DFT=T Ex+Corr=B3LYP ExCW=0 ScaHFX=  0.200000
 ScaDFX=  0.800000  0.720000  1.000000  0.810000 ScalE2=  1.000000  1.000000
 IRadAn=      0 IRanWt=     -1 IRanGd=            0 ICorTp=0
 NAtoms=   17 NActive=   17 NUniq=   17 SFac= 7.50D-01 NAtFMM=   80 NAOKFM=F Big=F
 Leave Link  301 at Wed Sep 29 00:26:51 2021, MaxMem=  536870912 cpu:       0.1
 (Enter /sw/target/amd/app/gaussian/Gaussian09RevA.02_gcc-4.9.2/g09/l302.exe)
 NPDir=0 NMtPBC=     1 NCelOv=     1 NCel=       1 NClECP=     1 NCelD=      1
         NCelK=      1 NCelE2=     1 NClLst=     1 CellRange=     0.0.
 One-electron integrals computed using PRISM.
 NBasis=   164 RedAO= T  NBF=   164
 NBsUse=   164 1.00D-06 NBFU=   164
 Precomputing XC quadrature grid using
 IXCGrd= 2 IRadAn=           0 IRanWt=          -1 IRanGd=           0 AccXCQ= 1.00D-10.
 NRdTot=    1060 NPtTot=      134716 NUsed=      142370 NTot=      142402
 NSgBfM=   164   164   164   164   164 NAtAll=    17    17.
 Leave Link  302 at Wed Sep 29 00:26:53 2021, MaxMem=  536870912 cpu:       0.8
 (Enter /sw/target/amd/app/gaussian/Gaussian09RevA.02_gcc-4.9.2/g09/l303.exe)
 DipDrv:  MaxL=1.
 Leave Link  303 at Wed Sep 29 00:26:53 2021, MaxMem=  536870912 cpu:       0.1
 (Enter /sw/target/amd/app/gaussian/Gaussian09RevA.02_gcc-4.9.2/g09/l401.exe)
 Harris functional with IExCor=  402 diagonalized for initial guess.
 ExpMin= 1.61D-01 ExpMax= 5.48D+03 ExpMxC= 8.25D+02 IAcc=1 IRadAn=         1 AccDes= 0.00D+00
 HarFok:  IExCor=  402 AccDes= 0.00D+00 IRadAn=         1 IDoV= 1
 ScaDFX=  1.000000  1.000000  1.000000  1.000000
 FoFCou: FMM=F IPFlag=           0 FMFlag=      100000 FMFlg1=           0
         NFxFlg=           0 DoJE=T BraDBF=F KetDBF=T FulRan=T
         Omega=  0.000000  0.000000  1.000000  0.000000  0.000000 ICntrl=     500 IOpCl=  0
         NMat0=    1 NMatS0=    1 NMatT0=    0 NMatD0=    1 NMtDS0=    0 NMtDT0=    0
         I1Cent=           4 NGrid=           0.
 Petite list used in FoFCou.
 Harris En= -439.058179708651    
 Initial guess orbital symmetries:
       Occupied  (A) (A) (A) (A) (A) (A) (A) (A) (A) (A) (A) (A)
                 (A) (A) (A) (A) (A) (A) (A) (A) (A) (A) (A) (A)
                 (A) (A) (A) (A) (A) (A) (A) (A) (A) (A) (A)
       Virtual   (A) (A) (A) (A) (A) (A) (A) (A) (A) (A) (A) (A)
                 (A) (A) (A) (A) (A) (A) (A) (A) (A) (A) (A) (A)
                 (A) (A) (A) (A) (A) (A) (A) (A) (A) (A) (A) (A)
                 (A) (A) (A) (A) (A) (A) (A) (A) (A) (A) (A) (A)
                 (A) (A) (A) (A) (A) (A) (A) (A) (A) (A) (A) (A)
                 (A) (A) (A) (A) (A) (A) (A) (A) (A) (A) (A) (A)
                 (A) (A) (A) (A) (A) (A) (A) (A) (A) (A) (A) (A)
                 (A) (A) (A) (A) (A) (A) (A) (A) (A) (A) (A) (A)
                 (A) (A) (A) (A) (A) (A) (A) (A) (A) (A) (A) (A)
                 (A) (A) (A) (A) (A) (A) (A) (A) (A) (A) (A) (A)
                 (A) (A) (A) (A) (A) (A) (A) (A) (A)
 The electronic state of the initial guess is 1-A.
 Leave Link  401 at Wed Sep 29 00:27:01 2021, MaxMem=  536870912 cpu:       3.8
 (Enter /sw/target/amd/app/gaussian/Gaussian09RevA.02_gcc-4.9.2/g09/l502.exe)
 Closed shell SCF:
 Requested convergence on RMS density matrix=1.00D-08 within  64 cycles.
 Requested convergence on MAX density matrix=1.00D-06.
 Requested convergence on             energy=1.00D-06.
 No special actions if energy rises.
 Using DIIS extrapolation, IDIIS=  1040.
 Integral symmetry usage will be decided dynamically.
       142204 words used for storage of precomputed grid.
 Keep R1 ints in memory in canonical form, NReq=94013859.
 IEnd=      230650 IEndB=      230650 NGot=   536870912 MDV=   445134304
 LenX=   445134304 LenY=   445106967
 Symmetry not used in FoFDir.
 MinBra= 0 MaxBra= 2 Meth= 1.
 IRaf=       0 NMat=   1 IRICut=       1 DoRegI=T DoRafI=F ISym2E= 0 JSym2E=0.
 Integral accuracy reduced to 1.0D-05 until final iterations.

 Cycle   1  Pass 0  IDiag  1:
 E= -438.811611087357    
 DIIS: error= 3.70D-02 at cycle   1 NSaved=   1.
 NSaved= 1 IEnMin= 1 EnMin= -438.811611087357     IErMin= 1 ErrMin= 3.70D-02
 ErrMax= 3.70D-02 EMaxC= 1.00D-01 BMatC= 1.97D-01 BMatP= 1.97D-01
 IDIUse=3 WtCom= 6.30D-01 WtEn= 3.70D-01
 Coeff-Com:  0.100D+01
 Coeff-En:   0.100D+01
 Coeff:      0.100D+01
 Gap=     0.200 Goal=   None    Shift=    0.000
 GapD=    0.200 DampG=1.000 DampE=0.500 DampFc=0.5000 IDamp=-1.
 Damping current iteration by 5.00D-01
 RMSDP=6.84D-03 MaxDP=2.46D-01              OVMax= 1.88D-01

 Cycle   2  Pass 0  IDiag  1:
 E= -438.890125328705     Delta-E=       -0.078514241348 Rises=F Damp=T
 DIIS: error= 1.37D-02 at cycle   2 NSaved=   2.
 NSaved= 2 IEnMin= 2 EnMin= -438.890125328705     IErMin= 2 ErrMin= 1.37D-02
 ErrMax= 1.37D-02 EMaxC= 1.00D-01 BMatC= 2.63D-02 BMatP= 1.97D-01
 IDIUse=3 WtCom= 8.63D-01 WtEn= 1.37D-01
 Coeff-Com:  0.138D+00 0.862D+00
 Coeff-En:   0.190D+00 0.810D+00
 Coeff:      0.145D+00 0.855D+00
 Gap=     0.192 Goal=   None    Shift=    0.000
 RMSDP=2.23D-03 MaxDP=6.23D-02 DE=-7.85D-02 OVMax= 1.88D-01

 Cycle   3  Pass 0  IDiag  1:
 E= -438.968690341551     Delta-E=       -0.078565012846 Rises=F Damp=F
 DIIS: error= 2.40D-02 at cycle   3 NSaved=   3.
 NSaved= 3 IEnMin= 3 EnMin= -438.968690341551     IErMin= 2 ErrMin= 1.37D-02
 ErrMax= 2.40D-02 EMaxC= 1.00D-01 BMatC= 4.80D-02 BMatP= 2.63D-02
 IDIUse=2 WtCom= 0.00D+00 WtEn= 1.00D+00
 Coeff-En:   0.000D+00 0.136D-02 0.999D+00
 Coeff:      0.000D+00 0.136D-02 0.999D+00
 Gap=     0.191 Goal=   None    Shift=    0.000
 RMSDP=4.39D-03 MaxDP=1.30D-01 DE=-7.86D-02 OVMax= 2.46D-01

 Cycle   4  Pass 0  IDiag  1:
 E= -438.718783684890     Delta-E=        0.249906656661 Rises=F Damp=F
 DIIS: error= 5.27D-02 at cycle   4 NSaved=   4.
 NSaved= 4 IEnMin= 3 EnMin= -438.968690341551     IErMin= 2 ErrMin= 1.37D-02
 ErrMax= 5.27D-02 EMaxC= 1.00D-01 BMatC= 3.16D-01 BMatP= 2.63D-02
 IDIUse=2 WtCom= 0.00D+00 WtEn= 1.00D+00
 Coeff-En:   0.000D+00 0.000D+00 0.806D+00 0.194D+00
 Coeff:      0.000D+00 0.000D+00 0.806D+00 0.194D+00
 Gap=     0.194 Goal=   None    Shift=    0.000
 RMSDP=2.45D-03 MaxDP=7.68D-02 DE= 2.50D-01 OVMax= 1.29D-01

 Cycle   5  Pass 0  IDiag  1:
 E= -438.987533712330     Delta-E=       -0.268750027440 Rises=F Damp=F
 DIIS: error= 1.75D-02 at cycle   5 NSaved=   5.
 NSaved= 5 IEnMin= 5 EnMin= -438.987533712330     IErMin= 2 ErrMin= 1.37D-02
 ErrMax= 1.75D-02 EMaxC= 1.00D-01 BMatC= 2.85D-02 BMatP= 2.63D-02
 IDIUse=3 WtCom= 8.25D-01 WtEn= 1.75D-01
 Coeff-Com:  0.847D-02 0.824D-02 0.350D+00-0.797D-01 0.713D+00
 Coeff-En:   0.000D+00 0.000D+00 0.404D+00 0.000D+00 0.596D+00
 Coeff:      0.699D-02 0.680D-02 0.359D+00-0.658D-01 0.693D+00
 Gap=     0.192 Goal=   None    Shift=    0.000
 RMSDP=9.44D-04 MaxDP=2.89D-02 DE=-2.69D-01 OVMax= 5.32D-02

 Cycle   6  Pass 0  IDiag  1:
 E= -439.013436491571     Delta-E=       -0.025902779242 Rises=F Damp=F
 DIIS: error= 6.99D-04 at cycle   6 NSaved=   6.
 NSaved= 6 IEnMin= 6 EnMin= -439.013436491571     IErMin= 6 ErrMin= 6.99D-04
 ErrMax= 6.99D-04 EMaxC= 1.00D-01 BMatC= 6.99D-05 BMatP= 2.63D-02
 IDIUse=3 WtCom= 9.93D-01 WtEn= 6.99D-03
 Coeff-Com:  0.160D-02 0.387D-02 0.164D+00-0.569D-01 0.404D+00 0.483D+00
 Coeff-En:   0.000D+00 0.000D+00 0.000D+00 0.000D+00 0.000D+00 0.100D+01
 Coeff:      0.159D-02 0.384D-02 0.163D+00-0.565D-01 0.402D+00 0.487D+00
 Gap=     0.193 Goal=   None    Shift=    0.000
 RMSDP=7.60D-05 MaxDP=1.97D-03 DE=-2.59D-02 OVMax= 5.06D-03

 Cycle   7  Pass 0  IDiag  1:
 E= -439.013505850104     Delta-E=       -0.000069358533 Rises=F Damp=F
 DIIS: error= 2.21D-04 at cycle   7 NSaved=   7.
 NSaved= 7 IEnMin= 7 EnMin= -439.013505850104     IErMin= 7 ErrMin= 2.21D-04
 ErrMax= 2.21D-04 EMaxC= 1.00D-01 BMatC= 8.95D-06 BMatP= 6.99D-05
 IDIUse=3 WtCom= 9.98D-01 WtEn= 2.21D-03
 Coeff-Com:  0.768D-03-0.121D-02 0.396D-01-0.145D-01 0.951D-01 0.228D+00
 Coeff-Com:  0.652D+00
 Coeff-En:   0.000D+00 0.000D+00 0.000D+00 0.000D+00 0.000D+00 0.825D-01
 Coeff-En:   0.918D+00
 Coeff:      0.766D-03-0.121D-02 0.396D-01-0.145D-01 0.949D-01 0.228D+00
 Coeff:      0.653D+00
 Gap=     0.192 Goal=   None    Shift=    0.000
 RMSDP=1.72D-05 MaxDP=5.11D-04 DE=-6.94D-05 OVMax= 1.24D-03

 Cycle   8  Pass 0  IDiag  1:
 E= -439.013513962931     Delta-E=       -0.000008112827 Rises=F Damp=F
 DIIS: error= 5.94D-05 at cycle   8 NSaved=   8.
 NSaved= 8 IEnMin= 8 EnMin= -439.013513962931     IErMin= 8 ErrMin= 5.94D-05
 ErrMax= 5.94D-05 EMaxC= 1.00D-01 BMatC= 6.33D-07 BMatP= 8.95D-06
 IDIUse=1 WtCom= 1.00D+00 WtEn= 0.00D+00
 Coeff-Com:  0.504D-03-0.121D-02 0.125D-01-0.434D-02 0.269D-01 0.965D-01
 Coeff-Com:  0.345D+00 0.524D+00
 Coeff:      0.504D-03-0.121D-02 0.125D-01-0.434D-02 0.269D-01 0.965D-01
 Coeff:      0.345D+00 0.524D+00
 Gap=     0.192 Goal=   None    Shift=    0.000
 RMSDP=4.83D-06 MaxDP=1.51D-04 DE=-8.11D-06 OVMax= 3.35D-04

 Initial convergence to 1.0D-05 achieved.  Increase integral accuracy.
 Cycle   9  Pass 1  IDiag  1:
 E= -439.013525494976     Delta-E=       -0.000011532045 Rises=F Damp=F
 DIIS: error= 3.92D-05 at cycle   1 NSaved=   1.
 NSaved= 1 IEnMin= 1 EnMin= -439.013525494976     IErMin= 1 ErrMin= 3.92D-05
 ErrMax= 3.92D-05 EMaxC= 1.00D-01 BMatC= 1.04D-07 BMatP= 1.04D-07
 IDIUse=1 WtCom= 1.00D+00 WtEn= 0.00D+00
 Coeff-Com:  0.100D+01
 Coeff:      0.100D+01
 Gap=     0.192 Goal=   None    Shift=    0.000
 RMSDP=4.83D-06 MaxDP=1.51D-04 DE=-1.15D-05 OVMax= 2.21D-04

 Cycle  10  Pass 1  IDiag  1:
 E= -439.013525363290     Delta-E=        0.000000131686 Rises=F Damp=F
 DIIS: error= 5.06D-05 at cycle   2 NSaved=   2.
 NSaved= 2 IEnMin= 1 EnMin= -439.013525494976     IErMin= 1 ErrMin= 3.92D-05
 ErrMax= 5.06D-05 EMaxC= 1.00D-01 BMatC= 2.75D-07 BMatP= 1.04D-07
 IDIUse=1 WtCom= 1.00D+00 WtEn= 0.00D+00
 Coeff-Com:  0.641D+00 0.359D+00
 Coeff:      0.641D+00 0.359D+00
 Gap=     0.192 Goal=   None    Shift=    0.000
 RMSDP=3.66D-06 MaxDP=1.43D-04 DE= 1.32D-07 OVMax= 2.06D-04

 Cycle  11  Pass 1  IDiag  1:
 E= -439.013525593977     Delta-E=       -0.000000230687 Rises=F Damp=F
 DIIS: error= 1.43D-05 at cycle   3 NSaved=   3.
 NSaved= 3 IEnMin= 3 EnMin= -439.013525593977     IErMin= 3 ErrMin= 1.43D-05
 ErrMax= 1.43D-05 EMaxC= 1.00D-01 BMatC= 2.09D-08 BMatP= 1.04D-07
 IDIUse=1 WtCom= 1.00D+00 WtEn= 0.00D+00
 Coeff-Com:  0.733D-01 0.213D+00 0.714D+00
 Coeff:      0.733D-01 0.213D+00 0.714D+00
 Gap=     0.192 Goal=   None    Shift=    0.000
 RMSDP=1.18D-06 MaxDP=3.73D-05 DE=-2.31D-07 OVMax= 5.99D-05

 Cycle  12  Pass 1  IDiag  1:
 E= -439.013525602985     Delta-E=       -0.000000009007 Rises=F Damp=F
 DIIS: error= 8.28D-06 at cycle   4 NSaved=   4.
 NSaved= 4 IEnMin= 4 EnMin= -439.013525602985     IErMin= 4 ErrMin= 8.28D-06
 ErrMax= 8.28D-06 EMaxC= 1.00D-01 BMatC= 8.72D-09 BMatP= 2.09D-08
 IDIUse=1 WtCom= 1.00D+00 WtEn= 0.00D+00
 Coeff-Com: -0.184D-01 0.112D+00 0.520D+00 0.386D+00
 Coeff:     -0.184D-01 0.112D+00 0.520D+00 0.386D+00
 Gap=     0.192 Goal=   None    Shift=    0.000
 RMSDP=6.06D-07 MaxDP=1.73D-05 DE=-9.01D-09 OVMax= 4.27D-05

 Cycle  13  Pass 1  IDiag  1:
 E= -439.013525612443     Delta-E=       -0.000000009458 Rises=F Damp=F
 DIIS: error= 6.09D-07 at cycle   5 NSaved=   5.
 NSaved= 5 IEnMin= 5 EnMin= -439.013525612443     IErMin= 5 ErrMin= 6.09D-07
 ErrMax= 6.09D-07 EMaxC= 1.00D-01 BMatC= 4.64D-11 BMatP= 8.72D-09
 IDIUse=1 WtCom= 1.00D+00 WtEn= 0.00D+00
 Coeff-Com: -0.983D-02 0.462D-01 0.223D+00 0.179D+00 0.562D+00
 Coeff:     -0.983D-02 0.462D-01 0.223D+00 0.179D+00 0.562D+00
 Gap=     0.192 Goal=   None    Shift=    0.000
 RMSDP=6.56D-08 MaxDP=1.56D-06 DE=-9.46D-09 OVMax= 3.26D-06

 Cycle  14  Pass 1  IDiag  1:
 E= -439.013525612503     Delta-E=       -0.000000000060 Rises=F Damp=F
 DIIS: error= 1.60D-07 at cycle   6 NSaved=   6.
 NSaved= 6 IEnMin= 6 EnMin= -439.013525612503     IErMin= 6 ErrMin= 1.60D-07
 ErrMax= 1.60D-07 EMaxC= 1.00D-01 BMatC= 5.91D-12 BMatP= 4.64D-11
 IDIUse=1 WtCom= 1.00D+00 WtEn= 0.00D+00
 Coeff-Com: -0.293D-02 0.105D-01 0.544D-01 0.472D-01 0.290D+00 0.601D+00
 Coeff:     -0.293D-02 0.105D-01 0.544D-01 0.472D-01 0.290D+00 0.601D+00
 Gap=     0.192 Goal=   None    Shift=    0.000
 RMSDP=1.85D-08 MaxDP=6.24D-07 DE=-6.00D-11 OVMax= 9.49D-07

 Cycle  15  Pass 1  IDiag  1:
 E= -439.013525612504     Delta-E=       -0.000000000001 Rises=F Damp=F
 DIIS: error= 5.22D-08 at cycle   7 NSaved=   7.
 NSaved= 7 IEnMin= 7 EnMin= -439.013525612504     IErMin= 7 ErrMin= 5.22D-08
 ErrMax= 5.22D-08 EMaxC= 1.00D-01 BMatC= 7.78D-13 BMatP= 5.91D-12
 IDIUse=1 WtCom= 1.00D+00 WtEn= 0.00D+00
 Coeff-Com: -0.703D-03 0.143D-02 0.890D-02 0.904D-02 0.107D+00 0.334D+00
 Coeff-Com:  0.541D+00
 Coeff:     -0.703D-03 0.143D-02 0.890D-02 0.904D-02 0.107D+00 0.334D+00
 Coeff:      0.541D+00
 Gap=     0.192 Goal=   None    Shift=    0.000
 RMSDP=5.61D-09 MaxDP=1.67D-07 DE=-7.96D-13 OVMax= 2.18D-07

 SCF Done:  E(RB3LYP) =  -439.013525613     A.U. after   15 cycles
             Convg  =    0.5606D-08             -V/T =  2.0094
 KE= 4.349124653394D+02 PE=-1.938934010875D+03 EE= 6.054876901494D+02
 Leave Link  502 at Wed Sep 29 00:29:35 2021, MaxMem=  536870912 cpu:      73.3
 (Enter /sw/target/amd/app/gaussian/Gaussian09RevA.02_gcc-4.9.2/g09/l508.exe)
 QCSCF skips out because SCF is already converged.
 Leave Link  508 at Wed Sep 29 00:29:36 2021, MaxMem=  536870912 cpu:       0.0
 (Enter /sw/target/amd/app/gaussian/Gaussian09RevA.02_gcc-4.9.2/g09/l601.exe)
 Copying SCF densities to generalized density rwf, IOpCl= 0 IROHF=0.

 **********************************************************************

            Population analysis using the SCF density.

 **********************************************************************

 Orbital symmetries:
       Occupied  (A) (A) (A) (A) (A) (A) (A) (A) (A) (A) (A) (A)
                 (A) (A) (A) (A) (A) (A) (A) (A) (A) (A) (A) (A)
                 (A) (A) (A) (A) (A) (A) (A) (A) (A) (A) (A)
       Virtual   (A) (A) (A) (A) (A) (A) (A) (A) (A) (A) (A) (A)
                 (A) (A) (A) (A) (A) (A) (A) (A) (A) (A) (A) (A)
                 (A) (A) (A) (A) (A) (A) (A) (A) (A) (A) (A) (A)
                 (A) (A) (A) (A) (A) (A) (A) (A) (A) (A) (A) (A)
                 (A) (A) (A) (A) (A) (A) (A) (A) (A) (A) (A) (A)
                 (A) (A) (A) (A) (A) (A) (A) (A) (A) (A) (A) (A)
                 (A) (A) (A) (A) (A) (A) (A) (A) (A) (A) (A) (A)
                 (A) (A) (A) (A) (A) (A) (A) (A) (A) (A) (A) (A)
                 (A) (A) (A) (A) (A) (A) (A) (A) (A) (A) (A) (A)
                 (A) (A) (A) (A) (A) (A) (A) (A) (A) (A) (A) (A)
                 (A) (A) (A) (A) (A) (A) (A) (A) (A)
 The electronic state is 1-A.
 Alpha  occ. eigenvalues --  -19.19446 -14.33429 -10.26919 -10.25286 -10.24133
 Alpha  occ. eigenvalues --  -10.22756 -10.21670 -10.21297 -10.21207 -10.20844
 Alpha  occ. eigenvalues --   -1.07951  -0.90668  -0.87480  -0.78838  -0.77025
 Alpha  occ. eigenvalues --   -0.71619  -0.65648  -0.61778  -0.56847  -0.51231
 Alpha  occ. eigenvalues --   -0.50610  -0.49145  -0.48441  -0.45650  -0.43442
 Alpha  occ. eigenvalues --   -0.40707  -0.39256  -0.38437  -0.36742  -0.35991
 Alpha  occ. eigenvalues --   -0.34645  -0.33047  -0.32306  -0.26886  -0.24188
 Alpha virt. eigenvalues --   -0.04949  -0.01147   0.03823   0.07404   0.08304
 Alpha virt. eigenvalues --    0.09448   0.11482   0.13838   0.14265   0.14882
 Alpha virt. eigenvalues --    0.16030   0.17175   0.18311   0.21226   0.24984
 Alpha virt. eigenvalues --    0.28296   0.29161   0.30543   0.38061   0.39704
 Alpha virt. eigenvalues --    0.43189   0.49191   0.49476   0.50461   0.52864
 Alpha virt. eigenvalues --    0.53603   0.54862   0.56265   0.57050   0.58807
 Alpha virt. eigenvalues --    0.59393   0.59543   0.59934   0.62528   0.63853
 Alpha virt. eigenvalues --    0.65183   0.67037   0.70618   0.71950   0.73406
 Alpha virt. eigenvalues --    0.76020   0.80288   0.82120   0.83067   0.83277
 Alpha virt. eigenvalues --    0.84114   0.85742   0.87174   0.87562   0.88214
 Alpha virt. eigenvalues --    0.91485   0.93080   0.95123   0.96457   1.01698
 Alpha virt. eigenvalues --    1.03899   1.05922   1.10629   1.12425   1.16163
 Alpha virt. eigenvalues --    1.18518   1.22070   1.24068   1.26594   1.32466
 Alpha virt. eigenvalues --    1.33420   1.36144   1.41720   1.43563   1.45711
 Alpha virt. eigenvalues --    1.45941   1.49074   1.50558   1.53751   1.55585
 Alpha virt. eigenvalues --    1.60171   1.66958   1.74574   1.78898   1.80162
 Alpha virt. eigenvalues --    1.81363   1.83308   1.86320   1.92724   1.93602
 Alpha virt. eigenvalues --    1.95033   1.95981   1.97725   1.99892   2.02495
 Alpha virt. eigenvalues --    2.04669   2.06450   2.09119   2.12291   2.13239
 Alpha virt. eigenvalues --    2.15160   2.20542   2.22183   2.25918   2.28566
 Alpha virt. eigenvalues --    2.32902   2.35263   2.47490   2.50006   2.54391
 Alpha virt. eigenvalues --    2.56535   2.61366   2.65327   2.66011   2.70792
 Alpha virt. eigenvalues --    2.76959   2.78211   2.80401   2.83226   2.96941
 Alpha virt. eigenvalues --    3.03206   3.19878   3.27059   3.44992   4.02179
 Alpha virt. eigenvalues --    4.04306   4.07919   4.13312   4.18821   4.28964
 Alpha virt. eigenvalues --    4.30125   4.43390   4.55509   4.81576
          Condensed to atoms (all electrons):
              1          2          3          4          5          6
     1  C    4.904005   0.243774  -0.042614   0.004114  -0.000162   0.000018
     2  O    0.243774   8.198061   0.279508  -0.056237   0.003112   0.000349
     3  C   -0.042614   0.279508   4.525610   0.541256  -0.008719  -0.043395
     4  C    0.004114  -0.056237   0.541256   4.971238   0.529660  -0.040830
     5  C   -0.000162   0.003112  -0.008719   0.529660   4.872883   0.513483
     6  C    0.000018   0.000349  -0.043395  -0.040830   0.513483   4.931679
     7  C    0.000399   0.003063   0.005992  -0.028977  -0.016065   0.544080
     8  C   -0.006332  -0.056221   0.438965  -0.077087  -0.044738  -0.049483
     9  C   -0.000016  -0.000071   0.002842   0.001217   0.005359  -0.041507
    10  N   -0.000000  -0.000000  -0.000109   0.000014  -0.000074  -0.000046
    11  H    0.384001  -0.030493   0.003283  -0.000109   0.000003   0.000000
    12  H    0.364115  -0.035355  -0.003545   0.000473  -0.000011  -0.000017
    13  H    0.367649  -0.035476  -0.006252  -0.000160   0.000010  -0.000001
    14  H   -0.000158  -0.000198  -0.035820   0.347542  -0.042216   0.005175
    15  H    0.000003  -0.000058   0.003694  -0.037673   0.360609  -0.038133
    16  H   -0.000000   0.000002   0.000454   0.004510  -0.041805   0.360985
    17  H    0.005994  -0.006852  -0.044104   0.004510   0.000252   0.005093
              7          8          9         10         11         12
     1  C    0.000399  -0.006332  -0.000016  -0.000000   0.384001   0.364115
     2  O    0.003063  -0.056221  -0.000071  -0.000000  -0.030493  -0.035355
     3  C    0.005992   0.438965   0.002842  -0.000109   0.003283  -0.003545
     4  C   -0.028977  -0.077087   0.001217   0.000014  -0.000109   0.000473
     5  C   -0.016065  -0.044738   0.005359  -0.000074   0.000003  -0.000011
     6  C    0.544080  -0.049483  -0.041507  -0.000046   0.000000  -0.000017
     7  C    4.822195   0.490509   0.215295  -0.097072   0.000003  -0.000240
     8  C    0.490509   5.173608  -0.035194  -0.000543   0.000162   0.005794
     9  C    0.215295  -0.035194   4.749491   0.880447  -0.000000   0.000003
    10  N   -0.097072  -0.000543   0.880447   6.693759  -0.000000   0.000000
    11  H    0.000003   0.000162  -0.000000  -0.000000   0.533550  -0.030735
    12  H   -0.000240   0.005794   0.000003   0.000000  -0.030735   0.582554
    13  H   -0.000076   0.003199  -0.000002   0.000000  -0.034728  -0.044486
    14  H    0.000073   0.007446   0.000005  -0.000000  -0.000031   0.000035
    15  H    0.003661   0.000701  -0.000218  -0.000000  -0.000000   0.000000
    16  H   -0.040115   0.005383  -0.006831   0.000435  -0.000000   0.000000
    17  H   -0.039292   0.354400  -0.006235   0.000732  -0.000139   0.001121
             13         14         15         16         17
     1  C    0.367649  -0.000158   0.000003  -0.000000   0.005994
     2  O   -0.035476  -0.000198  -0.000058   0.000002  -0.006852
     3  C   -0.006252  -0.035820   0.003694   0.000454  -0.044104
     4  C   -0.000160   0.347542  -0.037673   0.004510   0.004510
     5  C    0.000010  -0.042216   0.360609  -0.041805   0.000252
     6  C   -0.000001   0.005175  -0.038133   0.360985   0.005093
     7  C   -0.000076   0.000073   0.003661  -0.040115  -0.039292
     8  C    0.003199   0.007446   0.000701   0.005383   0.354400
     9  C   -0.000002   0.000005  -0.000218  -0.006831  -0.006235
    10  N    0.000000  -0.000000  -0.000000   0.000435   0.000732
    11  H   -0.034728  -0.000031  -0.000000  -0.000000  -0.000139
    12  H   -0.044486   0.000035   0.000000   0.000000   0.001121
    13  H    0.588956   0.000026  -0.000000   0.000000   0.002566
    14  H    0.000026   0.572581  -0.005905  -0.000150  -0.000140
    15  H   -0.000000  -0.005905   0.570043  -0.005064   0.000015
    16  H    0.000000  -0.000150  -0.005064   0.567957  -0.000146
    17  H    0.002566  -0.000140   0.000015  -0.000146   0.563607
 Mulliken atomic charges:
              1
     1  C   -0.224788
     2  O   -0.506908
     3  C    0.382954
     4  C   -0.163462
     5  C   -0.131581
     6  C   -0.147450
     7  C    0.136569
     8  C   -0.210570
     9  C    0.235414
    10  N   -0.477544
    11  H    0.175232
    12  H    0.160294
    13  H    0.158776
    14  H    0.151736
    15  H    0.148326
    16  H    0.154383
    17  H    0.158619
 Sum of Mulliken atomic charges =  -0.00000
 Mulliken charges with hydrogens summed into heavy atoms:
              1
     1  C    0.269514
     2  O   -0.506908
     3  C    0.382954
     4  C   -0.011726
     5  C    0.016745
     6  C    0.006933
     7  C    0.136569
     8  C   -0.051951
     9  C    0.235414
    10  N   -0.477544
 Sum of Mulliken charges with hydrogens summed into heavy atoms =  -0.00000
 Electronic spatial extent (au):  <R**2>=           1576.1194
 Charge=             -0.0000 electrons
 Dipole moment (field-independent basis, Debye):
    X=             -3.7729    Y=              1.3494    Z=              0.3755  Tot=              4.0245
 Quadrupole moment (field-independent basis, Debye-Ang):
   XX=            -67.2836   YY=            -52.0937   ZZ=            -58.9848
   XY=             12.8289   XZ=             -0.8142   YZ=              0.0604
 Traceless Quadrupole moment (field-independent basis, Debye-Ang):
   XX=             -7.8296   YY=              7.3603   ZZ=              0.4693
   XY=             12.8289   XZ=             -0.8142   YZ=              0.0604
 Octapole moment (field-independent basis, Debye-Ang**2):
  XXX=            -72.8755  YYY=             14.4029  ZZZ=             -0.0782  XYY=            -26.8006
  XXY=             21.9991  XXZ=              3.5041  XZZ=             -4.8666  YZZ=             -4.0946
  YYZ=              0.4258  XYZ=              1.2376
 Hexadecapole moment (field-independent basis, Debye-Ang**3):
 XXXX=          -1512.6060 YYYY=           -626.4615 ZZZZ=            -67.0774 XXXY=            167.2542
 XXXZ=             -6.1070 YYYX=             47.9675 YYYZ=              3.1862 ZZZX=              0.1059
 ZZZY=             -0.9628 XXYY=           -356.6061 XXZZ=           -239.2192 YYZZ=           -128.0917
 XXYZ=             -2.3005 YYXZ=              0.9527 ZZXY=              2.7210
 N-N= 4.595203297737D+02 E-N=-1.938934012487D+03  KE= 4.349124653394D+02
 No NMR shielding tensors so no spin-rotation constants.
 Leave Link  601 at Wed Sep 29 00:29:37 2021, MaxMem=  536870912 cpu:       0.5
 (Enter /sw/target/amd/app/gaussian/Gaussian09RevA.02_gcc-4.9.2/g09/l701.exe)
 Compute integral first derivatives.
 ... and contract with generalized density number  0.
 Leave Link  701 at Wed Sep 29 00:29:38 2021, MaxMem=  536870912 cpu:       0.5
 (Enter /sw/target/amd/app/gaussian/Gaussian09RevA.02_gcc-4.9.2/g09/l702.exe)
 L702 exits ... SP integral derivatives will be done elsewhere.
 Leave Link  702 at Wed Sep 29 00:29:38 2021, MaxMem=  536870912 cpu:       0.0
 (Enter /sw/target/amd/app/gaussian/Gaussian09RevA.02_gcc-4.9.2/g09/l703.exe)
 Compute integral first derivatives, UseDBF=F ICtDFT=           0.
 Integral derivatives from FoFDir, PRISM(SPDF).
 Calling FoFJK, ICntrl=      2127 FMM=F ISym2X=0 I1Cent= 0 IOpClX= 0 NMat=1 NMatS=1 NMatT=0.
 FoFCou: FMM=F IPFlag=           0 FMFlag=      100000 FMFlg1=         800
         NFxFlg=           0 DoJE=F BraDBF=F KetDBF=F FulRan=T
         Omega=  0.000000  0.000000  1.000000  0.000000  0.000000 ICntrl=    2127 IOpCl=  0
         NMat0=    1 NMatS0=    1 NMatT0=    0 NMatD0=    1 NMtDS0=    0 NMtDT0=    0
         I1Cent=           0 NGrid=           0.
 Symmetry not used in FoFCou.
 Leave Link  703 at Wed Sep 29 00:30:28 2021, MaxMem=  536870912 cpu:      27.4
 (Enter /sw/target/amd/app/gaussian/Gaussian09RevA.02_gcc-4.9.2/g09/l716.exe)
 Dipole        =-1.48436032D+00 5.30894390D-01 1.47737926D-01
 ***** Axes restored to original set *****
 -------------------------------------------------------------------
 Center     Atomic                   Forces (Hartrees/Bohr)
 Number     Number              X              Y              Z
 -------------------------------------------------------------------
      1        6          -0.003953629    0.004314791    0.002260578
      2        8           0.006490854    0.000411706    0.001977212
      3        6          -0.005650066    0.001419891   -0.002365774
      4        6          -0.002239923   -0.006403042   -0.011339845
      5        6          -0.001527204    0.004953673    0.005651516
      6        6           0.001926153   -0.008116501   -0.006972232
      7        6          -0.001687314   -0.001073207   -0.003548442
      8        6           0.001300714    0.006326170    0.008626257
      9        6          -0.003647206    0.002917276   -0.001735832
     10        7           0.004102826   -0.002468885    0.002679390
     11        1          -0.002444056   -0.002715259   -0.003054188
     12        1           0.002207347   -0.002572295    0.001381426
     13        1           0.003038523   -0.000706893    0.001552368
     14        1           0.001215933    0.001549065    0.002882466
     15        1           0.000465034    0.000383747    0.001168932
     16        1           0.000588214    0.001763190    0.002753633
     17        1          -0.000186200    0.000016574   -0.001917464
 -------------------------------------------------------------------
 Cartesian Forces:  Max     0.011339845 RMS     0.003812393
 Leave Link  716 at Wed Sep 29 00:30:28 2021, MaxMem=  536870912 cpu:       0.1
 (Enter /sw/target/amd/app/gaussian/Gaussian09RevA.02_gcc-4.9.2/g09/l103.exe)

 GradGradGradGradGradGradGradGradGradGradGradGradGradGradGradGradGradGrad
 Berny optimization.
 Internal  Forces:  Max     0.006238840 RMS     0.002318063
 Search for a local minimum.
 Step number   1 out of a maximum of   83
 All quantities printed in internal units (Hartrees-Bohrs-Radians)
 RMS Force = .23181D-02 SwitMx=.10000D-02 MixMth= 1
 Mixed Optimization -- RFO/linear search
 Second derivative matrix not updated -- first step.
     Eigenvalues ---    0.01388   0.02081   0.02095   0.02107   0.02123
     Eigenvalues ---    0.02132   0.02133   0.02137   0.02141   0.02152
     Eigenvalues ---    0.02163   0.04853   0.04853   0.09984   0.10539
     Eigenvalues ---    0.15999   0.15999   0.16000   0.16000   0.16000
     Eigenvalues ---    0.16000   0.16000   0.21999   0.23471   0.23492
     Eigenvalues ---    0.24996   0.25000   0.25000   0.34196   0.34296
     Eigenvalues ---    0.34325   0.34997   0.35045   0.35133   0.35275
     Eigenvalues ---    0.40509   0.41777   0.42012   0.42201   0.45661
     Eigenvalues ---    0.45936   0.46308   0.46561   0.51478   1.27123
     Eigenvalues --- 1000.000001000.000001000.000001000.000001000.00000
     Eigenvalues --- 1000.000001000.000001000.000001000.000001000.00000
     Eigenvalues --- 1000.000001000.000001000.000001000.000001000.00000
     Eigenvalues --- 1000.000001000.000001000.000001000.000001000.00000
     Eigenvalues --- 1000.000001000.000001000.000001000.000001000.00000
     Eigenvalues --- 1000.000001000.000001000.00000
 RFO step:  Lambda=-2.16303632D-03 EMin= 1.38752329D-02
 Linear search not attempted -- first point.
 Iteration  1 RMS(Cart)=  0.05933644 RMS(Int)=  0.00216682
 Iteration  2 RMS(Cart)=  0.00313862 RMS(Int)=  0.00005266
 Iteration  3 RMS(Cart)=  0.00000801 RMS(Int)=  0.00005236
 Iteration  4 RMS(Cart)=  0.00000000 RMS(Int)=  0.00005236
 Variable       Old X    -DE/DX   Delta X   Delta X   Delta X     New X
                                 (Linear)    (Quad)   (Total)
    R1        2.68908   0.00010   0.00000   0.00023   0.00023   2.68931
    R2        2.06784  -0.00123   0.00000  -0.00355  -0.00355   2.06429
    R3        2.07001   0.00098   0.00000   0.00284   0.00284   2.07286
    R4        2.06833   0.00169   0.00000   0.00491   0.00491   2.07324
    R5        2.58403  -0.00253   0.00000  -0.00489  -0.00489   2.57914
    R6        2.64080   0.00516   0.00000   0.01103   0.01101   2.65181
    R7        2.63729   0.00027   0.00000   0.00086   0.00085   2.63814
    R8        2.63674  -0.00238   0.00000  -0.00549  -0.00550   2.63124
    R9        2.05603  -0.00169   0.00000  -0.00480  -0.00480   2.05122
   R10        2.63362   0.00174   0.00000   0.00343   0.00344   2.63706
   R11        2.05459  -0.00131   0.00000  -0.00370  -0.00370   2.05089
   R12        2.64328   0.00209   0.00000   0.00465   0.00467   2.64794
   R13        2.05679  -0.00222   0.00000  -0.00630  -0.00630   2.05049
   R14        2.64963   0.00379   0.00000   0.00874   0.00875   2.65838
   R15        2.70868   0.00062   0.00000   0.00153   0.00153   2.71021
   R16        2.05231  -0.00174   0.00000  -0.00492  -0.00492   2.04740
   R17        2.19403   0.00549   0.00000   0.00431   0.00431   2.19833
    A1        1.88066  -0.00624   0.00000  -0.03623  -0.03616   1.84450
    A2        1.94062   0.00036   0.00000   0.00120   0.00123   1.94185
    A3        1.93897   0.00253   0.00000   0.01428   0.01435   1.95331
    A4        1.88060   0.00388   0.00000   0.02654   0.02656   1.90716
    A5        1.87989   0.00256   0.00000   0.01765   0.01776   1.89765
    A6        1.94008  -0.00308   0.00000  -0.02291  -0.02288   1.91720
    A7        2.03418   0.00606   0.00000   0.02405   0.02405   2.05822
    A8        2.00382   0.00496   0.00000   0.01933   0.01936   2.02318
    A9        2.19427  -0.00605   0.00000  -0.02435  -0.02432   2.16995
   A10        2.08495   0.00109   0.00000   0.00501   0.00495   2.08990
   A11        2.10710  -0.00128   0.00000  -0.00635  -0.00642   2.10068
   A12        2.08717  -0.00248   0.00000  -0.01603  -0.01603   2.07114
   A13        2.08888   0.00376   0.00000   0.02249   0.02249   2.11137
   A14        2.09085   0.00325   0.00000   0.01366   0.01363   2.10449
   A15        2.09331  -0.00150   0.00000  -0.00603  -0.00603   2.08728
   A16        2.09902  -0.00175   0.00000  -0.00763  -0.00762   2.09139
   A17        2.09229  -0.00334   0.00000  -0.01491  -0.01492   2.07737
   A18        2.08560   0.00421   0.00000   0.02315   0.02314   2.10873
   A19        2.10529  -0.00087   0.00000  -0.00820  -0.00821   2.09707
   A20        2.09670   0.00281   0.00000   0.01249   0.01249   2.10919
   A21        2.09365  -0.00028   0.00000  -0.00177  -0.00176   2.09189
   A22        2.09283  -0.00254   0.00000  -0.01073  -0.01073   2.08211
   A23        2.09427  -0.00253   0.00000  -0.00950  -0.00955   2.08472
   A24        2.11503   0.00102   0.00000   0.00327   0.00327   2.11830
   A25        2.07381   0.00152   0.00000   0.00635   0.00635   2.08016
   A26        3.13767   0.00031   0.00000   0.00619   0.00619   3.14386
   A27        3.14218  -0.00001   0.00000  -0.00018  -0.00018   3.14199
    D1        3.00632  -0.00012   0.00000  -0.01365  -0.01358   2.99274
    D2        0.94911  -0.00123   0.00000  -0.02451  -0.02451   0.92460
    D3       -1.22147   0.00064   0.00000  -0.00610  -0.00616  -1.22763
    D4       -2.85383  -0.00245   0.00000  -0.10502  -0.10500  -2.95883
    D5        0.30639  -0.00244   0.00000  -0.10425  -0.10427   0.20212
    D6        3.13634   0.00062   0.00000   0.02413   0.02406  -3.12278
    D7        0.00451   0.00029   0.00000   0.01098   0.01111   0.01562
    D8       -0.02261   0.00053   0.00000   0.02306   0.02302   0.00041
    D9        3.12875   0.00019   0.00000   0.00991   0.01006   3.13881
   D10        3.13952  -0.00026   0.00000  -0.01273  -0.01272   3.12680
   D11        0.01042  -0.00052   0.00000  -0.02342  -0.02340  -0.01298
   D12        0.01733  -0.00029   0.00000  -0.01204  -0.01208   0.00526
   D13       -3.11177  -0.00054   0.00000  -0.02273  -0.02276  -3.13453
   D14        0.01165  -0.00042   0.00000  -0.01771  -0.01767  -0.00602
   D15       -3.12992  -0.00025   0.00000  -0.01022  -0.01018  -3.14010
   D16       -3.13972  -0.00012   0.00000  -0.00477  -0.00463   3.13884
   D17        0.00190   0.00005   0.00000   0.00272   0.00286   0.00476
   D18        0.00459   0.00001   0.00000   0.00111   0.00119   0.00579
   D19        3.14147   0.00020   0.00000   0.00911   0.00922  -3.13250
   D20       -3.13702  -0.00016   0.00000  -0.00640  -0.00632   3.13984
   D21       -0.00015   0.00003   0.00000   0.00160   0.00170   0.00155
   D22       -0.00971   0.00022   0.00000   0.00967   0.00967  -0.00004
   D23        3.12945   0.00025   0.00000   0.01012   0.01008   3.13954
   D24        3.13665   0.00002   0.00000   0.00149   0.00162   3.13828
   D25       -0.00737   0.00004   0.00000   0.00195   0.00203  -0.00534
   D26       -0.00134  -0.00008   0.00000  -0.00411  -0.00414  -0.00548
   D27        3.12806   0.00017   0.00000   0.00632   0.00629   3.13435
   D28       -3.14050  -0.00011   0.00000  -0.00457  -0.00456   3.13813
   D29       -0.01111   0.00014   0.00000   0.00585   0.00587  -0.00523
         Item               Value     Threshold  Converged?
 Maximum Force            0.006239     0.000450     NO 
 RMS     Force            0.002318     0.000300     NO 
 Maximum Displacement     0.263815     0.001800     NO 
 RMS     Displacement     0.059916     0.001200     NO 
 Predicted change in Energy=-1.117937D-03
 GradGradGradGradGradGradGradGradGradGradGradGradGradGradGradGradGradGrad

 Leave Link  103 at Wed Sep 29 00:30:32 2021, MaxMem=  536870912 cpu:       1.1
 (Enter /sw/target/amd/app/gaussian/Gaussian09RevA.02_gcc-4.9.2/g09/l202.exe)
                          Input orientation:                          
 ---------------------------------------------------------------------
 Center     Atomic      Atomic             Coordinates (Angstroms)
 Number     Number       Type             X           Y           Z
 ---------------------------------------------------------------------
      1          6           0        3.059253    0.904736    0.796452
      2          8           0        2.514610    0.161970   -0.288413
      3          6           0        3.182301   -0.956214   -0.696567
      4          6           0        2.744562   -1.526355   -1.901772
      5          6           0        3.345899   -2.682230   -2.392794
      6          6           0        4.395500   -3.285999   -1.699151
      7          6           0        4.832113   -2.715937   -0.495886
      8          6           0        4.226837   -1.552227    0.012414
      9          6           0        5.907763   -3.323137    0.232917
     10          7           0        6.780599   -3.817397    0.822112
     11          1           0        2.468060    1.821576    0.852853
     12          1           0        4.109925    1.162053    0.614553
     13          1           0        2.966865    0.366932    1.748231
     14          1           0        1.929414   -1.050004   -2.437352
     15          1           0        2.998388   -3.111821   -3.326885
     16          1           0        4.872521   -4.182056   -2.082451
     17          1           0        4.581384   -1.138141    0.948717
 ---------------------------------------------------------------------
                    Distance matrix (angstroms):
                    1          2          3          4          5
     1  C    0.000000
     2  O    1.423120   0.000000
     3  C    2.389013   1.364821   0.000000
     4  C    3.645497   2.346539   1.403279   0.000000
     5  C    4.808304   3.634410   2.425506   1.392393   0.000000
     6  C    5.057258   4.173298   2.811570   2.421363   1.395471
     7  C    4.233491   3.700840   2.420491   2.783790   2.410026
     8  C    2.831013   2.441452   1.396045   2.421140   2.799641
     9  C    5.128986   4.891957   3.727521   4.217957   3.724012
    10  N    6.012289   5.938627   4.841540   5.381265   4.839565
    11  H    1.092376   2.014683   3.259902   4.344313   5.620418
    12  H    1.096909   2.088192   2.658304   3.927295   4.940282
    13  H    1.097111   2.096298   2.788219   4.117824   5.156467
    14  H    3.943987   2.535601   2.146824   1.085459   2.161614
    15  H    5.756592   4.492667   3.405736   2.146876   1.085282
    16  H    6.119761   5.258220   3.896610   3.407873   2.162490
    17  H    2.552139   2.737212   2.167369   3.413196   3.882825
                    6          7          8          9         10
     6  C    0.000000
     7  C    1.401231   0.000000
     8  C    2.442104   1.406752   0.000000
     9  C    2.453815   1.434179   2.451582   0.000000
    10  N    3.511104   2.597486   3.508320   1.163309   0.000000
    11  H    6.026199   5.291207   3.896432   6.219642   7.099081
    12  H    5.021947   4.097979   2.782724   4.847143   5.654246
    13  H    5.222006   4.244914   2.878152   4.955973   5.736800
    14  H    3.409720   3.869145   3.395841   5.303275   6.466573
    15  H    2.152156   3.396148   3.884886   4.602315   5.658369
    16  H    1.085074   2.160631   3.423649   2.677760   3.494313
    17  H    3.414536   2.153876   1.083435   2.654404   3.468572
                   11         12         13         14         15
    11  H    0.000000
    12  H    1.785351   0.000000
    13  H    1.779466   1.795559   0.000000
    14  H    4.400178   4.354532   4.539066   0.000000
    15  H    6.487670   5.919159   6.153009   2.486978   0.000000
    16  H    7.102185   6.034474   6.244913   4.312491   2.491263
    17  H    3.638028   2.371672   2.347581   4.301880   4.968104
                   16         17
    16  H    0.000000
    17  H    4.305596   0.000000
 Stoichiometry    C8H7NO
 Framework group  C1[X(C8H7NO)]
 Deg. of freedom    45
 Full point group                 C1      NOp   1
 Largest Abelian subgroup         C1      NOp   1
 Largest concise Abelian subgroup C1      NOp   1
                         Standard orientation:                         
 ---------------------------------------------------------------------
 Center     Atomic      Atomic             Coordinates (Angstroms)
 Number     Number       Type             X           Y           Z
 ---------------------------------------------------------------------
      1          6           0       -2.688062   -1.579508    0.090515
      2          8           0       -2.437124   -0.191251   -0.096683
      3          6           0       -1.142509    0.237379   -0.042042
      4          6           0       -0.957908    1.627908   -0.002738
      5          6           0        0.325532    2.166765    0.031510
      6          6           0        1.445259    1.333974    0.034514
      7          6           0        1.260038   -0.054412   -0.004555
      8          6           0       -0.032177   -0.608840   -0.046282
      9          6           0        2.398338   -0.926847   -0.004713
     10          7           0        3.323243   -1.632422   -0.004519
     11          1           0       -3.773720   -1.676134    0.163280
     12          1           0       -2.229112   -1.945231    1.017242
     13          1           0       -2.337432   -2.177353   -0.759952
     14          1           0       -1.833363    2.269626   -0.002714
     15          1           0        0.453858    3.243969    0.063139
     16          1           0        2.447029    1.749438    0.069614
     17          1           0       -0.144034   -1.685868   -0.082761
 ---------------------------------------------------------------------
 Rotational constants (GHZ):      2.2274237      0.9820382      0.6852227
 Leave Link  202 at Wed Sep 29 00:30:32 2021, MaxMem=  536870912 cpu:       0.0
 (Enter /sw/target/amd/app/gaussian/Gaussian09RevA.02_gcc-4.9.2/g09/l301.exe)
 Standard basis: 6-31G(d) (6D, 7F)
 Ernie: Thresh=  0.10000D-02 Tol=  0.10000D-05 Strict=F.
 There are   164 symmetry adapted basis functions of A   symmetry.
 Integral buffers will be    131072 words long.
 Raffenetti 2 integral format.
 Two-electron integral symmetry is turned on.
   164 basis functions,   308 primitive gaussians,   164 cartesian basis functions
    35 alpha electrons       35 beta electrons
       nuclear repulsion energy       459.2852978288 Hartrees.
 IExCor=  402 DFT=T Ex+Corr=B3LYP ExCW=0 ScaHFX=  0.200000
 ScaDFX=  0.800000  0.720000  1.000000  0.810000 ScalE2=  1.000000  1.000000
 IRadAn=      0 IRanWt=     -1 IRanGd=            0 ICorTp=0
 NAtoms=   17 NActive=   17 NUniq=   17 SFac= 7.50D-01 NAtFMM=   80 NAOKFM=F Big=F
 Leave Link  301 at Wed Sep 29 00:30:32 2021, MaxMem=  536870912 cpu:       0.1
 (Enter /sw/target/amd/app/gaussian/Gaussian09RevA.02_gcc-4.9.2/g09/l302.exe)
 NPDir=0 NMtPBC=     1 NCelOv=     1 NCel=       1 NClECP=     1 NCelD=      1
         NCelK=      1 NCelE2=     1 NClLst=     1 CellRange=     0.0.
 One-electron integrals computed using PRISM.
 NBasis=   164 RedAO= T  NBF=   164
 NBsUse=   164 1.00D-06 NBFU=   164
 Precomputing XC quadrature grid using
 IXCGrd= 2 IRadAn=           0 IRanWt=          -1 IRanGd=           0 AccXCQ= 1.00D-10.
 NRdTot=    1060 NPtTot=      134716 NUsed=      142370 NTot=      142402
 NSgBfM=   164   164   164   164   164 NAtAll=    17    17.
 Leave Link  302 at Wed Sep 29 00:30:34 2021, MaxMem=  536870912 cpu:       0.8
 (Enter /sw/target/amd/app/gaussian/Gaussian09RevA.02_gcc-4.9.2/g09/l303.exe)
 DipDrv:  MaxL=1.
 Leave Link  303 at Wed Sep 29 00:30:34 2021, MaxMem=  536870912 cpu:       0.1
 (Enter /sw/target/amd/app/gaussian/Gaussian09RevA.02_gcc-4.9.2/g09/l401.exe)
 Initial guess read from the read-write file.
 B after Tr=     0.000000    0.000000    0.000000
         Rot=    1.000000    0.000000    0.000000    0.000000 Ang=   0.00 deg.
 Guess basis will be translated and rotated to current coordinates.
 Initial guess orbital symmetries:
       Occupied  (A) (A) (A) (A) (A) (A) (A) (A) (A) (A) (A) (A)
                 (A) (A) (A) (A) (A) (A) (A) (A) (A) (A) (A) (A)
                 (A) (A) (A) (A) (A) (A) (A) (A) (A) (A) (A)
       Virtual   (A) (A) (A) (A) (A) (A) (A) (A) (A) (A) (A) (A)
                 (A) (A) (A) (A) (A) (A) (A) (A) (A) (A) (A) (A)
                 (A) (A) (A) (A) (A) (A) (A) (A) (A) (A) (A) (A)
                 (A) (A) (A) (A) (A) (A) (A) (A) (A) (A) (A) (A)
                 (A) (A) (A) (A) (A) (A) (A) (A) (A) (A) (A) (A)
                 (A) (A) (A) (A) (A) (A) (A) (A) (A) (A) (A) (A)
                 (A) (A) (A) (A) (A) (A) (A) (A) (A) (A) (A) (A)
                 (A) (A) (A) (A) (A) (A) (A) (A) (A) (A) (A) (A)
                 (A) (A) (A) (A) (A) (A) (A) (A) (A) (A) (A) (A)
                 (A) (A) (A) (A) (A) (A) (A) (A) (A) (A) (A) (A)
                 (A) (A) (A) (A) (A) (A) (A) (A) (A)
 The electronic state of the initial guess is 1-A.
 Generating alternative initial guess.
 Harris functional with IExCor=  402 diagonalized for initial guess.
 ExpMin= 1.61D-01 ExpMax= 5.48D+03 ExpMxC= 8.25D+02 IAcc=1 IRadAn=         1 AccDes= 0.00D+00
 HarFok:  IExCor=  402 AccDes= 0.00D+00 IRadAn=         1 IDoV= 1
 ScaDFX=  1.000000  1.000000  1.000000  1.000000
 FoFCou: FMM=F IPFlag=           0 FMFlag=      100000 FMFlg1=           0
         NFxFlg=           0 DoJE=T BraDBF=F KetDBF=T FulRan=T
         Omega=  0.000000  0.000000  1.000000  0.000000  0.000000 ICntrl=     500 IOpCl=  0
         NMat0=    1 NMatS0=    1 NMatT0=    0 NMatD0=    1 NMtDS0=    0 NMtDT0=    0
         I1Cent=           4 NGrid=           0.
 Petite list used in FoFCou.
 Harris En= -439.058511638537    
 Leave Link  401 at Wed Sep 29 00:30:41 2021, MaxMem=  536870912 cpu:       4.1
 (Enter /sw/target/amd/app/gaussian/Gaussian09RevA.02_gcc-4.9.2/g09/l502.exe)
 Closed shell SCF:
 Requested convergence on RMS density matrix=1.00D-08 within  64 cycles.
 Requested convergence on MAX density matrix=1.00D-06.
 Requested convergence on             energy=1.00D-06.
 No special actions if energy rises.
 Using DIIS extrapolation, IDIIS=  1040.
 Integral symmetry usage will be decided dynamically.
       142204 words used for storage of precomputed grid.
 Keep R1 ints in memory in canonical form, NReq=94013859.
 IEnd=      230650 IEndB=      230650 NGot=   536870912 MDV=   445134304
 LenX=   445134304 LenY=   445106967
 Symmetry not used in FoFDir.
 MinBra= 0 MaxBra= 2 Meth= 1.
 IRaf=       0 NMat=   1 IRICut=       1 DoRegI=T DoRafI=F ISym2E= 0 JSym2E=0.
 Integral accuracy reduced to 1.0D-05 until final iterations.

 Cycle   1  Pass 0  IDiag  1:
 E= -439.008604125231    
 DIIS: error= 4.56D-03 at cycle   1 NSaved=   1.
 NSaved= 1 IEnMin= 1 EnMin= -439.008604125231     IErMin= 1 ErrMin= 4.56D-03
 ErrMax= 4.56D-03 EMaxC= 1.00D-01 BMatC= 3.02D-03 BMatP= 3.02D-03
 IDIUse=3 WtCom= 9.54D-01 WtEn= 4.56D-02
 Coeff-Com:  0.100D+01
 Coeff-En:   0.100D+01
 Coeff:      0.100D+01
 Gap=     0.194 Goal=   None    Shift=    0.000
 GapD=    0.194 DampG=1.000 DampE=1.000 DampFc=1.0000 IDamp=-1.
 RMSDP=5.71D-04 MaxDP=1.42D-02              OVMax= 3.23D-02

 Cycle   2  Pass 0  IDiag  1:
 E= -439.014712057609     Delta-E=       -0.006107932378 Rises=F Damp=F
 DIIS: error= 4.62D-04 at cycle   2 NSaved=   2.
 NSaved= 2 IEnMin= 2 EnMin= -439.014712057609     IErMin= 2 ErrMin= 4.62D-04
 ErrMax= 4.62D-04 EMaxC= 1.00D-01 BMatC= 4.88D-05 BMatP= 3.02D-03
 IDIUse=3 WtCom= 9.95D-01 WtEn= 4.62D-03
 Coeff-Com: -0.730D-01 0.107D+01
 Coeff-En:   0.000D+00 0.100D+01
 Coeff:     -0.726D-01 0.107D+01
 Gap=     0.192 Goal=   None    Shift=    0.000
 RMSDP=1.05D-04 MaxDP=1.87D-03 DE=-6.11D-03 OVMax= 5.90D-03

 Cycle   3  Pass 0  IDiag  1:
 E= -439.014732093349     Delta-E=       -0.000020035739 Rises=F Damp=F
 DIIS: error= 5.00D-04 at cycle   3 NSaved=   3.
 NSaved= 3 IEnMin= 3 EnMin= -439.014732093349     IErMin= 2 ErrMin= 4.62D-04
 ErrMax= 5.00D-04 EMaxC= 1.00D-01 BMatC= 6.02D-05 BMatP= 4.88D-05
 IDIUse=3 WtCom= 3.09D-01 WtEn= 6.91D-01
 Coeff-Com: -0.503D-01 0.623D+00 0.427D+00
 Coeff-En:   0.000D+00 0.384D+00 0.616D+00
 Coeff:     -0.155D-01 0.458D+00 0.558D+00
 Gap=     0.191 Goal=   None    Shift=    0.000
 RMSDP=8.19D-05 MaxDP=2.04D-03 DE=-2.00D-05 OVMax= 6.90D-03

 Cycle   4  Pass 0  IDiag  1:
 E= -439.014770291296     Delta-E=       -0.000038197947 Rises=F Damp=F
 DIIS: error= 3.70D-04 at cycle   4 NSaved=   4.
 NSaved= 4 IEnMin= 4 EnMin= -439.014770291296     IErMin= 4 ErrMin= 3.70D-04
 ErrMax= 3.70D-04 EMaxC= 1.00D-01 BMatC= 2.42D-05 BMatP= 4.88D-05
 IDIUse=3 WtCom= 9.96D-01 WtEn= 3.70D-03
 Coeff-Com: -0.129D-01 0.131D+00 0.384D+00 0.498D+00
 Coeff-En:   0.000D+00 0.000D+00 0.332D+00 0.668D+00
 Coeff:     -0.129D-01 0.130D+00 0.384D+00 0.498D+00
 Gap=     0.191 Goal=   None    Shift=    0.000
 RMSDP=3.44D-05 MaxDP=8.02D-04 DE=-3.82D-05 OVMax= 2.72D-03

 Cycle   5  Pass 0  IDiag  1:
 E= -439.014797026538     Delta-E=       -0.000026735243 Rises=F Damp=F
 DIIS: error= 3.92D-05 at cycle   5 NSaved=   5.
 NSaved= 5 IEnMin= 5 EnMin= -439.014797026538     IErMin= 5 ErrMin= 3.92D-05
 ErrMax= 3.92D-05 EMaxC= 1.00D-01 BMatC= 3.78D-07 BMatP= 2.42D-05
 IDIUse=1 WtCom= 1.00D+00 WtEn= 0.00D+00
 Coeff-Com: -0.304D-02 0.218D-01 0.177D+00 0.270D+00 0.534D+00
 Coeff:     -0.304D-02 0.218D-01 0.177D+00 0.270D+00 0.534D+00
 Gap=     0.191 Goal=   None    Shift=    0.000
 RMSDP=4.50D-06 MaxDP=1.54D-04 DE=-2.67D-05 OVMax= 3.72D-04

 Initial convergence to 1.0D-05 achieved.  Increase integral accuracy.
 Cycle   6  Pass 1  IDiag  1:
 E= -439.014802426188     Delta-E=       -0.000005399650 Rises=F Damp=F
 DIIS: error= 4.05D-05 at cycle   1 NSaved=   1.
 NSaved= 1 IEnMin= 1 EnMin= -439.014802426188     IErMin= 1 ErrMin= 4.05D-05
 ErrMax= 4.05D-05 EMaxC= 1.00D-01 BMatC= 7.83D-08 BMatP= 7.83D-08
 IDIUse=1 WtCom= 1.00D+00 WtEn= 0.00D+00
 Coeff-Com:  0.100D+01
 Coeff:      0.100D+01
 Gap=     0.191 Goal=   None    Shift=    0.000
 RMSDP=4.50D-06 MaxDP=1.54D-04 DE=-5.40D-06 OVMax= 2.29D-04

 Cycle   7  Pass 1  IDiag  1:
 E= -439.014802447384     Delta-E=       -0.000000021196 Rises=F Damp=F
 DIIS: error= 2.07D-05 at cycle   2 NSaved=   2.
 NSaved= 2 IEnMin= 2 EnMin= -439.014802447384     IErMin= 2 ErrMin= 2.07D-05
 ErrMax= 2.07D-05 EMaxC= 1.00D-01 BMatC= 7.32D-08 BMatP= 7.83D-08
 IDIUse=1 WtCom= 1.00D+00 WtEn= 0.00D+00
 Coeff-Com:  0.489D+00 0.511D+00
 Coeff:      0.489D+00 0.511D+00
 Gap=     0.191 Goal=   None    Shift=    0.000
 RMSDP=2.38D-06 MaxDP=7.25D-05 DE=-2.12D-08 OVMax= 2.01D-04

 Cycle   8  Pass 1  IDiag  1:
 E= -439.014802507822     Delta-E=       -0.000000060438 Rises=F Damp=F
 DIIS: error= 9.96D-06 at cycle   3 NSaved=   3.
 NSaved= 3 IEnMin= 3 EnMin= -439.014802507822     IErMin= 3 ErrMin= 9.96D-06
 ErrMax= 9.96D-06 EMaxC= 1.00D-01 BMatC= 1.49D-08 BMatP= 7.32D-08
 IDIUse=1 WtCom= 1.00D+00 WtEn= 0.00D+00
 Coeff-Com:  0.176D-01 0.307D+00 0.676D+00
 Coeff:      0.176D-01 0.307D+00 0.676D+00
 Gap=     0.191 Goal=   None    Shift=    0.000
 RMSDP=9.32D-07 MaxDP=1.98D-05 DE=-6.04D-08 OVMax= 6.88D-05

 Cycle   9  Pass 1  IDiag  1:
 E= -439.014802521971     Delta-E=       -0.000000014149 Rises=F Damp=F
 DIIS: error= 3.53D-06 at cycle   4 NSaved=   4.
 NSaved= 4 IEnMin= 4 EnMin= -439.014802521971     IErMin= 4 ErrMin= 3.53D-06
 ErrMax= 3.53D-06 EMaxC= 1.00D-01 BMatC= 1.87D-09 BMatP= 1.49D-08
 IDIUse=1 WtCom= 1.00D+00 WtEn= 0.00D+00
 Coeff-Com: -0.121D-01 0.167D+00 0.422D+00 0.423D+00
 Coeff:     -0.121D-01 0.167D+00 0.422D+00 0.423D+00
 Gap=     0.191 Goal=   None    Shift=    0.000
 RMSDP=2.89D-07 MaxDP=8.42D-06 DE=-1.41D-08 OVMax= 1.64D-05

 Cycle  10  Pass 1  IDiag  1:
 E= -439.014802523617     Delta-E=       -0.000000001646 Rises=F Damp=F
 DIIS: error= 1.39D-06 at cycle   5 NSaved=   5.
 NSaved= 5 IEnMin= 5 EnMin= -439.014802523617     IErMin= 5 ErrMin= 1.39D-06
 ErrMax= 1.39D-06 EMaxC= 1.00D-01 BMatC= 1.67D-10 BMatP= 1.87D-09
 IDIUse=1 WtCom= 1.00D+00 WtEn= 0.00D+00
 Coeff-Com: -0.923D-02 0.840D-01 0.220D+00 0.279D+00 0.426D+00
 Coeff:     -0.923D-02 0.840D-01 0.220D+00 0.279D+00 0.426D+00
 Gap=     0.191 Goal=   None    Shift=    0.000
 RMSDP=8.56D-08 MaxDP=2.63D-06 DE=-1.65D-09 OVMax= 4.87D-06

 Cycle  11  Pass 1  IDiag  1:
 E= -439.014802523737     Delta-E=       -0.000000000120 Rises=F Damp=F
 DIIS: error= 3.52D-07 at cycle   6 NSaved=   6.
 NSaved= 6 IEnMin= 6 EnMin= -439.014802523737     IErMin= 6 ErrMin= 3.52D-07
 ErrMax= 3.52D-07 EMaxC= 1.00D-01 BMatC= 2.19D-11 BMatP= 1.67D-10
 IDIUse=1 WtCom= 1.00D+00 WtEn= 0.00D+00
 Coeff-Com: -0.469D-02 0.340D-01 0.919D-01 0.134D+00 0.294D+00 0.451D+00
 Coeff:     -0.469D-02 0.340D-01 0.919D-01 0.134D+00 0.294D+00 0.451D+00
 Gap=     0.191 Goal=   None    Shift=    0.000
 RMSDP=3.11D-08 MaxDP=9.13D-07 DE=-1.20D-10 OVMax= 1.82D-06

 Cycle  12  Pass 1  IDiag  1:
 E= -439.014802523770     Delta-E=       -0.000000000033 Rises=F Damp=F
 DIIS: error= 7.09D-08 at cycle   7 NSaved=   7.
 NSaved= 7 IEnMin= 7 EnMin= -439.014802523770     IErMin= 7 ErrMin= 7.09D-08
 ErrMax= 7.09D-08 EMaxC= 1.00D-01 BMatC= 9.54D-13 BMatP= 2.19D-11
 IDIUse=1 WtCom= 1.00D+00 WtEn= 0.00D+00
 Coeff-Com: -0.142D-02 0.869D-02 0.246D-01 0.416D-01 0.105D+00 0.222D+00
 Coeff-Com:  0.600D+00
 Coeff:     -0.142D-02 0.869D-02 0.246D-01 0.416D-01 0.105D+00 0.222D+00
 Coeff:      0.600D+00
 Gap=     0.191 Goal=   None    Shift=    0.000
 RMSDP=8.93D-09 MaxDP=2.83D-07 DE=-3.31D-11 OVMax= 5.62D-07

 SCF Done:  E(RB3LYP) =  -439.014802524     A.U. after   12 cycles
             Convg  =    0.8932D-08             -V/T =  2.0095
 KE= 4.348819482856D+02 PE=-1.938440667208D+03 EE= 6.052586185695D+02
 Leave Link  502 at Wed Sep 29 00:32:35 2021, MaxMem=  536870912 cpu:      60.0
 (Enter /sw/target/amd/app/gaussian/Gaussian09RevA.02_gcc-4.9.2/g09/l508.exe)
 QCSCF skips out because SCF is already converged.
 Leave Link  508 at Wed Sep 29 00:32:35 2021, MaxMem=  536870912 cpu:       0.0
 (Enter /sw/target/amd/app/gaussian/Gaussian09RevA.02_gcc-4.9.2/g09/l701.exe)
 Compute integral first derivatives.
 ... and contract with generalized density number  0.
 Leave Link  701 at Wed Sep 29 00:32:36 2021, MaxMem=  536870912 cpu:       0.4
 (Enter /sw/target/amd/app/gaussian/Gaussian09RevA.02_gcc-4.9.2/g09/l702.exe)
 L702 exits ... SP integral derivatives will be done elsewhere.
 Leave Link  702 at Wed Sep 29 00:32:36 2021, MaxMem=  536870912 cpu:       0.1
 (Enter /sw/target/amd/app/gaussian/Gaussian09RevA.02_gcc-4.9.2/g09/l703.exe)
 Compute integral first derivatives, UseDBF=F ICtDFT=           0.
 Integral derivatives from FoFDir, PRISM(SPDF).
 Calling FoFJK, ICntrl=      2127 FMM=F ISym2X=0 I1Cent= 0 IOpClX= 0 NMat=1 NMatS=1 NMatT=0.
 FoFCou: FMM=F IPFlag=           0 FMFlag=      100000 FMFlg1=         800
         NFxFlg=           0 DoJE=F BraDBF=F KetDBF=F FulRan=T
         Omega=  0.000000  0.000000  1.000000  0.000000  0.000000 ICntrl=    2127 IOpCl=  0
         NMat0=    1 NMatS0=    1 NMatT0=    0 NMatD0=    1 NMtDS0=    0 NMtDT0=    0
         I1Cent=           0 NGrid=           0.
 Symmetry not used in FoFCou.
 Leave Link  703 at Wed Sep 29 00:33:22 2021, MaxMem=  536870912 cpu:      27.6
 (Enter /sw/target/amd/app/gaussian/Gaussian09RevA.02_gcc-4.9.2/g09/l716.exe)
 Dipole        =-1.49329903D+00 5.33358750D-01 9.49909037D-02
 ***** Axes restored to original set *****
 -------------------------------------------------------------------
 Center     Atomic                   Forces (Hartrees/Bohr)
 Number     Number              X              Y              Z
 -------------------------------------------------------------------
      1        6          -0.002423892    0.001984940   -0.000248389
      2        8           0.003542298   -0.001378058   -0.001384460
      3        6          -0.002684138    0.000943109    0.001323097
      4        6          -0.000626204   -0.002143595   -0.001818973
      5        6          -0.000067299    0.002443102    0.001816006
      6        6           0.000348748   -0.000931835   -0.000771011
      7        6          -0.000775360    0.000028854   -0.001065334
      8        6           0.001284561    0.000778194    0.001068876
      9        6           0.000188002   -0.000100788    0.000136807
     10        7           0.000177501    0.000003672    0.000216361
     11        1           0.000263604   -0.000484076   -0.000104289
     12        1           0.000194184   -0.000274082    0.000535667
     13        1           0.000711198   -0.001074982   -0.000188262
     14        1           0.000020210    0.000502729    0.000496137
     15        1          -0.000189320   -0.000153137   -0.000333400
     16        1           0.000055566    0.000227829    0.000655538
     17        1          -0.000019659   -0.000371877   -0.000334373
 -------------------------------------------------------------------
 Cartesian Forces:  Max     0.003542298 RMS     0.001123113
 Leave Link  716 at Wed Sep 29 00:33:23 2021, MaxMem=  536870912 cpu:       0.1
 (Enter /sw/target/amd/app/gaussian/Gaussian09RevA.02_gcc-4.9.2/g09/l103.exe)

 GradGradGradGradGradGradGradGradGradGradGradGradGradGradGradGradGradGrad
 Berny optimization.
 Using GEDIIS/GDIIS optimizer.
 Internal  Forces:  Max     0.002538302 RMS     0.000604076
 Search for a local minimum.
 Step number   2 out of a maximum of   83
 All quantities printed in internal units (Hartrees-Bohrs-Radians)
 RMS Force = .60408D-03 SwitMx=.10000D-02 MixMth= 2
 Mixed Optimization -- En-DIIS/RFO-DIIS
 Update second derivatives using D2CorX and points    1    2
 DE= -1.28D-03 DEPred=-1.12D-03 R= 1.14D+00
 SS=  1.41D+00  RLast= 1.84D-01 DXNew= 5.0454D-01 5.5123D-01
 Trust test= 1.14D+00 RLast= 1.84D-01 DXMaxT set to 5.05D-01
 Use linear search instead of GDIIS.
     Eigenvalues ---    0.01395   0.01778   0.02081   0.02095   0.02107
     Eigenvalues ---    0.02132   0.02136   0.02138   0.02150   0.02163
     Eigenvalues ---    0.02210   0.04853   0.04865   0.09673   0.10665
     Eigenvalues ---    0.15207   0.16000   0.16000   0.16000   0.16000
     Eigenvalues ---    0.16000   0.17078   0.21658   0.23095   0.23503
     Eigenvalues ---    0.24440   0.25000   0.26392   0.34188   0.34235
     Eigenvalues ---    0.34322   0.34945   0.35049   0.35241   0.35255
     Eigenvalues ---    0.40492   0.41632   0.42030   0.42178   0.45695
     Eigenvalues ---    0.45928   0.46397   0.46604   0.51451   1.27243
     Eigenvalues --- 1000.000001000.000001000.000001000.000001000.00000
     Eigenvalues --- 1000.000001000.000001000.000001000.000001000.00000
     Eigenvalues --- 1000.000001000.000001000.000001000.000001000.00000
     Eigenvalues --- 1000.000001000.000001000.000001000.000001000.00000
     Eigenvalues --- 1000.000001000.000001000.000001000.000001000.00000
     Eigenvalues --- 1000.000001000.000001000.00000
 RFO step:  Lambda=-2.61573806D-04 EMin= 1.39486825D-02
 Quartic linear search produced a step of  0.20120.
 Iteration  1 RMS(Cart)=  0.02884127 RMS(Int)=  0.00062093
 Iteration  2 RMS(Cart)=  0.00118789 RMS(Int)=  0.00001109
 Iteration  3 RMS(Cart)=  0.00000112 RMS(Int)=  0.00001108
 Iteration  4 RMS(Cart)=  0.00000000 RMS(Int)=  0.00001108
 Variable       Old X    -DE/DX   Delta X   Delta X   Delta X     New X
                                 (Linear)    (Quad)   (Total)
    R1        2.68931  -0.00041   0.00005  -0.00118  -0.00114   2.68817
    R2        2.06429  -0.00055  -0.00071  -0.00163  -0.00234   2.06195
    R3        2.07286   0.00003   0.00057  -0.00012   0.00045   2.07331
    R4        2.07324   0.00030   0.00099   0.00063   0.00162   2.07486
    R5        2.57914  -0.00254  -0.00098  -0.00550  -0.00648   2.57265
    R6        2.65181   0.00039   0.00222   0.00007   0.00229   2.65410
    R7        2.63814   0.00067   0.00017   0.00180   0.00197   2.64012
    R8        2.63124  -0.00163  -0.00111  -0.00389  -0.00500   2.62624
    R9        2.05122  -0.00004  -0.00097   0.00027  -0.00069   2.05053
   R10        2.63706   0.00039   0.00069   0.00058   0.00127   2.63833
   R11        2.05089   0.00041  -0.00075   0.00171   0.00096   2.05185
   R12        2.64794  -0.00027   0.00094  -0.00108  -0.00014   2.64780
   R13        2.05049  -0.00040  -0.00127  -0.00082  -0.00208   2.04841
[...]
     7  C    0.000310   0.002919  -0.000405  -0.012034  -0.034543   0.456205
     8  C   -0.005539  -0.049259   0.418288  -0.107571  -0.033852  -0.034520
     9  C   -0.000012  -0.000075   0.003274   0.001528   0.004722  -0.044998
    10  N   -0.000000  -0.000000  -0.000104   0.000007  -0.000057   0.000941
    11  H    0.384342  -0.031402   0.002799  -0.000119   0.000003   0.000000
    12  H    0.365437  -0.028504  -0.003200  -0.000199   0.000007   0.000005
    13  H    0.365426  -0.028496  -0.003205  -0.000200   0.000007   0.000005
    14  H   -0.000145  -0.001474  -0.040912   0.351699  -0.039883   0.005339
    15  H    0.000003  -0.000058   0.004168  -0.037803   0.361034  -0.038958
    16  H   -0.000000   0.000003   0.000446   0.004109  -0.040247   0.359245
    17  H    0.006591  -0.006948  -0.047889   0.004002   0.000178   0.005328
              7          8          9         10         11         12
     1  C    0.000310  -0.005539  -0.000012  -0.000000   0.384342   0.365437
     2  O    0.002919  -0.049259  -0.000075  -0.000000  -0.031402  -0.028504
     3  C   -0.000405   0.418288   0.003274  -0.000104   0.002799  -0.003200
     4  C   -0.012034  -0.107571   0.001528   0.000007  -0.000119  -0.000199
     5  C   -0.034543  -0.033852   0.004722  -0.000057   0.000003   0.000007
     6  C    0.456205  -0.034520  -0.044998   0.000941   0.000000   0.000005
     7  C    4.969673   0.418332   0.264805  -0.111319   0.000002  -0.000165
     8  C    0.418332   5.269107  -0.040086   0.000602   0.000340   0.002875
     9  C    0.264805  -0.040086   4.780609   0.866459  -0.000000  -0.000003
    10  N   -0.111319   0.000602   0.866459   6.749497  -0.000000   0.000000
    11  H    0.000002   0.000340  -0.000000  -0.000000   0.508047  -0.028733
    12  H   -0.000165   0.002875  -0.000003   0.000000  -0.028733   0.537794
    13  H   -0.000166   0.002881  -0.000003   0.000000  -0.028735  -0.038049
    14  H   -0.000028   0.007311   0.000004  -0.000000  -0.000022   0.000020
    15  H    0.003740   0.000747  -0.000228  -0.000000  -0.000000  -0.000000
    16  H   -0.038225   0.005380  -0.006147   0.000555  -0.000000   0.000000
    17  H   -0.031203   0.351994  -0.006537   0.000820  -0.000003   0.001094
             13         14         15         16         17
     1  C    0.365426  -0.000145   0.000003  -0.000000   0.006591
     2  O   -0.028496  -0.001474  -0.000058   0.000003  -0.006948
     3  C   -0.003205  -0.040912   0.004168   0.000446  -0.047889
     4  C   -0.000200   0.351699  -0.037803   0.004109   0.004002
     5  C    0.000007  -0.039883   0.361034  -0.040247   0.000178
     6  C    0.000005   0.005339  -0.038958   0.359245   0.005328
     7  C   -0.000166  -0.000028   0.003740  -0.038225  -0.031203
     8  C    0.002881   0.007311   0.000747   0.005380   0.351994
     9  C   -0.000003   0.000004  -0.000228  -0.006147  -0.006537
    10  N    0.000000  -0.000000  -0.000000   0.000555   0.000820
    11  H   -0.028735  -0.000022  -0.000000  -0.000000  -0.000003
    12  H   -0.038049   0.000020  -0.000000   0.000000   0.001094
    13  H    0.537788   0.000020  -0.000000   0.000000   0.001096
    14  H    0.000020   0.584996  -0.006349  -0.000132  -0.000154
    15  H   -0.000000  -0.006349   0.574910  -0.004902   0.000015
    16  H    0.000000  -0.000132  -0.004902   0.552691  -0.000143
    17  H    0.001096  -0.000154   0.000015  -0.000143   0.566058
 Mulliken atomic charges:
              1
     1  C   -0.243650
     2  O   -0.422079
     3  C    0.358498
     4  C   -0.181971
     5  C   -0.149004
     6  C   -0.119335
     7  C    0.112101
     8  C   -0.207031
     9  C    0.176684
    10  N   -0.507401
    11  H    0.193482
    12  H    0.191622
    13  H    0.191627
    14  H    0.139709
    15  H    0.143681
    16  H    0.167367
    17  H    0.155701
 Sum of Mulliken atomic charges =  -0.00000
 Mulliken charges with hydrogens summed into heavy atoms:
              1
     1  C    0.333081
     2  O   -0.422079
     3  C    0.358498
     4  C   -0.042262
     5  C   -0.005323
     6  C    0.048032
     7  C    0.112101
     8  C   -0.051330
     9  C    0.176684
    10  N   -0.507401
 Sum of Mulliken charges with hydrogens summed into heavy atoms =  -0.00000
 Electronic spatial extent (au):  <R**2>=           1575.6895
 Charge=             -0.0000 electrons
 Dipole moment (field-independent basis, Debye):
    X=             -6.3967    Y=              1.0435    Z=             -0.0002  Tot=              6.4813
 Quadrupole moment (field-independent basis, Debye-Ang):
   XX=            -66.6599   YY=            -53.4134   ZZ=            -59.1083
   XY=             17.6541   XZ=              0.0002   YZ=              0.0001
 Traceless Quadrupole moment (field-independent basis, Debye-Ang):
   XX=             -6.9327   YY=              6.3138   ZZ=              0.6189
   XY=             17.6541   XZ=              0.0002   YZ=              0.0001
 Octapole moment (field-independent basis, Debye-Ang**2):
  XXX=            -97.8737  YYY=              9.8861  ZZZ=              0.0004  XYY=            -32.5547
  XXY=             24.7099  XXZ=             -0.0017  XZZ=             -6.8368  YZZ=             -4.7892
  YYZ=             -0.0018  XYZ=              0.0002
 Hexadecapole moment (field-independent basis, Debye-Ang**3):
 XXXX=          -1501.9175 YYYY=           -645.2892 ZZZZ=            -64.4671 XXXY=            206.8356
 XXXZ=              0.0075 YYYX=             67.6076 YYYZ=             -0.0021 ZZZX=             -0.0009
 ZZZY=             -0.0008 XXYY=           -363.0200 XXZZ=           -237.7960 YYZZ=           -130.1034
 XXYZ=              0.0025 YYXZ=              0.0013 ZZXY=              6.6409
 N-N= 4.594202927471D+02 E-N=-1.938538768981D+03  KE= 4.350503142857D+02
 No NMR shielding tensors so no spin-rotation constants.
 Leave Link  601 at Wed Sep 29 02:32:04 2021, MaxMem=  536870912 cpu:       0.5
 (Enter /sw/target/amd/app/gaussian/Gaussian09RevA.02_gcc-4.9.2/g09/l604.exe)
 Evaluate density.
 Using the total density.
 Monte-Carlo method of calculating molar volume:
 based on  0.001 e/bohr**3 density envelope.
 Number of points per bohr**3 =   20 CutOff= 1.00D-04
 Using the CI density.
 There are       365 points.  Will hold       365 in memory.
 LenV=   536782532 MDV=   536870912.
 Box volume = 6117.739 fraction occupied=0.153
 Integrated density= 5.0253851414117314D+01 error=-1.9746148585882686D+01
 Molar volume =  938.612 bohr**3/mol ( 83.761 cm**3/mol)
 Recommended a0 for SCRF calculation =  4.04 angstrom (  7.63 bohr)
 Leave Link  604 at Wed Sep 29 02:32:05 2021, MaxMem=  536870912 cpu:       0.2
 (Enter /sw/target/amd/app/gaussian/Gaussian09RevA.02_gcc-4.9.2/g09/l607.exe)
 ******************************Gaussian NBO Version 3.1******************************
             N A T U R A L   A T O M I C   O R B I T A L   A N D
          N A T U R A L   B O N D   O R B I T A L   A N A L Y S I S
 ******************************Gaussian NBO Version 3.1******************************
       /RESON  / : Allow strongly delocalized NBO set

 Analyzing the CI density

 Job title: COc1cccc(c1)C#N_conf_0                                          

 Storage needed:     81736 in NPA ( 536869297 available)


 NATURAL POPULATIONS:  Natural atomic orbital occupancies 
                                                          
   NAO  Atom  No  lang   Type(AO)    Occupancy
 --------------------------------------------
     1    C    1  S      Cor( 1S)     1.99941
     2    C    1  S      Val( 2S)     1.11114
     3    C    1  S      Ryd( 3S)     0.00146
     4    C    1  S      Ryd( 4S)     0.00002
     5    C    1  px     Val( 2p)     1.23307
     6    C    1  px     Ryd( 3p)     0.00265
     7    C    1  py     Val( 2p)     0.73666
     8    C    1  py     Ryd( 3p)     0.00326
     9    C    1  pz     Val( 2p)     1.23889
    10    C    1  pz     Ryd( 3p)     0.00030
    11    C    1  dxy    Ryd( 3d)     0.00107
    12    C    1  dxz    Ryd( 3d)     0.00059
    13    C    1  dyz    Ryd( 3d)     0.00157
    14    C    1  dx2y2  Ryd( 3d)     0.00199
    15    C    1  dz2    Ryd( 3d)     0.00112

    16    O    2  S      Cor( 1S)     1.99975
    17    O    2  S      Val( 2S)     1.59958
    18    O    2  S      Ryd( 3S)     0.00077
    19    O    2  S      Ryd( 4S)     0.00006
    20    O    2  px     Val( 2p)     1.59736
    21    O    2  px     Ryd( 3p)     0.00175
    22    O    2  py     Val( 2p)     1.52497
    23    O    2  py     Ryd( 3p)     0.00137
    24    O    2  pz     Val( 2p)     1.65009
    25    O    2  pz     Ryd( 3p)     0.00208
    26    O    2  dxy    Ryd( 3d)     0.00137
    27    O    2  dxz    Ryd( 3d)     0.00133
    28    O    2  dyz    Ryd( 3d)     0.00074
    29    O    2  dx2y2  Ryd( 3d)     0.00137
    30    O    2  dz2    Ryd( 3d)     0.00077

    31    C    3  S      Cor( 1S)     1.99880
    32    C    3  S      Val( 2S)     0.84268
    33    C    3  S      Ryd( 3S)     0.00159
    34    C    3  S      Ryd( 4S)     0.00014
    35    C    3  px     Val( 2p)     0.77996
    36    C    3  px     Ryd( 3p)     0.00850
    37    C    3  py     Val( 2p)     1.05527
    38    C    3  py     Ryd( 3p)     0.00436
    39    C    3  pz     Val( 2p)     0.96283
    40    C    3  pz     Ryd( 3p)     0.00152
    41    C    3  dxy    Ryd( 3d)     0.00147
    42    C    3  dxz    Ryd( 3d)     0.00157
    43    C    3  dyz    Ryd( 3d)     0.00141
    44    C    3  dx2y2  Ryd( 3d)     0.00174
    45    C    3  dz2    Ryd( 3d)     0.00050

    46    C    4  S      Cor( 1S)     1.99907
    47    C    4  S      Val( 2S)     0.96089
    48    C    4  S      Ryd( 3S)     0.00083
    49    C    4  S      Ryd( 4S)     0.00004
    50    C    4  px     Val( 2p)     1.16041
    51    C    4  px     Ryd( 3p)     0.00505
    52    C    4  py     Val( 2p)     1.08218
    53    C    4  py     Ryd( 3p)     0.00473
    54    C    4  pz     Val( 2p)     1.10271
    55    C    4  pz     Ryd( 3p)     0.00538
    56    C    4  dxy    Ryd( 3d)     0.00062
    57    C    4  dxz    Ryd( 3d)     0.00049
    58    C    4  dyz    Ryd( 3d)     0.00044
    59    C    4  dx2y2  Ryd( 3d)     0.00075
    60    C    4  dz2    Ryd( 3d)     0.00047

    61    C    5  S      Cor( 1S)     1.99913
    62    C    5  S      Val( 2S)     0.96420
    63    C    5  S      Ryd( 3S)     0.00060
    64    C    5  S      Ryd( 4S)     0.00004
    65    C    5  px     Val( 2p)     1.05660
    66    C    5  px     Ryd( 3p)     0.00504
    67    C    5  py     Val( 2p)     1.19787
    68    C    5  py     Ryd( 3p)     0.00517
    69    C    5  pz     Val( 2p)     1.01539
    70    C    5  pz     Ryd( 3p)     0.00299
    71    C    5  dxy    Ryd( 3d)     0.00066
    72    C    5  dxz    Ryd( 3d)     0.00074
    73    C    5  dyz    Ryd( 3d)     0.00037
    74    C    5  dx2y2  Ryd( 3d)     0.00081
    75    C    5  dz2    Ryd( 3d)     0.00044

    76    C    6  S      Cor( 1S)     1.99906
    77    C    6  S      Val( 2S)     0.96789
    78    C    6  S      Ryd( 3S)     0.00063
    79    C    6  S      Ryd( 4S)     0.00004
    80    C    6  px     Val( 2p)     1.18298
    81    C    6  px     Ryd( 3p)     0.00436
    82    C    6  py     Val( 2p)     1.05478
    83    C    6  py     Ryd( 3p)     0.00421
    84    C    6  pz     Val( 2p)     0.90332
    85    C    6  pz     Ryd( 3p)     0.00248
    86    C    6  dxy    Ryd( 3d)     0.00069
    87    C    6  dxz    Ryd( 3d)     0.00046
    88    C    6  dyz    Ryd( 3d)     0.00075
    89    C    6  dx2y2  Ryd( 3d)     0.00084
    90    C    6  dz2    Ryd( 3d)     0.00043

    91    C    7  S      Cor( 1S)     1.99889
    92    C    7  S      Val( 2S)     0.88810
    93    C    7  S      Ryd( 3S)     0.00096
    94    C    7  S      Ryd( 4S)     0.00007
    95    C    7  px     Val( 2p)     1.08481
    96    C    7  px     Ryd( 3p)     0.00496
    97    C    7  py     Val( 2p)     1.09946
    98    C    7  py     Ryd( 3p)     0.00429
    99    C    7  pz     Val( 2p)     1.10924
   100    C    7  pz     Ryd( 3p)     0.00321
   101    C    7  dxy    Ryd( 3d)     0.00087
   102    C    7  dxz    Ryd( 3d)     0.00085
   103    C    7  dyz    Ryd( 3d)     0.00068
   104    C    7  dx2y2  Ryd( 3d)     0.00076
   105    C    7  dz2    Ryd( 3d)     0.00036

   106    C    8  S      Cor( 1S)     1.99901
   107    C    8  S      Val( 2S)     0.95632
   108    C    8  S      Ryd( 3S)     0.00070
   109    C    8  S      Ryd( 4S)     0.00005
   110    C    8  px     Val( 2p)     1.04896
   111    C    8  px     Ryd( 3p)     0.00347
   112    C    8  py     Val( 2p)     1.19713
   113    C    8  py     Ryd( 3p)     0.00339
   114    C    8  pz     Val( 2p)     1.05581
   115    C    8  pz     Ryd( 3p)     0.00456
   116    C    8  dxy    Ryd( 3d)     0.00066
   117    C    8  dxz    Ryd( 3d)     0.00064
   118    C    8  dyz    Ryd( 3d)     0.00037
   119    C    8  dx2y2  Ryd( 3d)     0.00067
   120    C    8  dz2    Ryd( 3d)     0.00046

   121    C    9  S      Cor( 1S)     1.99939
   122    C    9  S      Val( 2S)     0.82644
   123    C    9  S      Ryd( 3S)     0.00809
   124    C    9  S      Ryd( 4S)     0.00025
   125    C    9  px     Val( 2p)     0.97418
   126    C    9  px     Ryd( 3p)     0.01343
   127    C    9  py     Val( 2p)     0.95792
   128    C    9  py     Ryd( 3p)     0.00978
   129    C    9  pz     Val( 2p)     0.98811
   130    C    9  pz     Ryd( 3p)     0.00105
   131    C    9  dxy    Ryd( 3d)     0.00047
   132    C    9  dxz    Ryd( 3d)     0.00092
   133    C    9  dyz    Ryd( 3d)     0.00057
   134    C    9  dx2y2  Ryd( 3d)     0.00068
   135    C    9  dz2    Ryd( 3d)     0.00017

   136    N   10  S      Cor( 1S)     1.99965
   137    N   10  S      Val( 2S)     1.58863
   138    N   10  S      Ryd( 3S)     0.00456
   139    N   10  S      Ryd( 4S)     0.00001
   140    N   10  px     Val( 2p)     1.34783
   141    N   10  px     Ryd( 3p)     0.00157
   142    N   10  py     Val( 2p)     1.23228
   143    N   10  py     Ryd( 3p)     0.00111
   144    N   10  pz     Val( 2p)     1.16719
   145    N   10  pz     Ryd( 3p)     0.00224
   146    N   10  dxy    Ryd( 3d)     0.00391
   147    N   10  dxz    Ryd( 3d)     0.00254
   148    N   10  dyz    Ryd( 3d)     0.00151
   149    N   10  dx2y2  Ryd( 3d)     0.00398
   150    N   10  dz2    Ryd( 3d)     0.00134

   151    H   11  S      Val( 1S)     0.75925
   152    H   11  S      Ryd( 2S)     0.00047

   153    H   12  S      Val( 1S)     0.76856
   154    H   12  S      Ryd( 2S)     0.00154

   155    H   13  S      Val( 1S)     0.76857
   156    H   13  S      Ryd( 2S)     0.00154

   157    H   14  S      Val( 1S)     0.75376
   158    H   14  S      Ryd( 2S)     0.00119

   159    H   15  S      Val( 1S)     0.75553
   160    H   15  S      Ryd( 2S)     0.00075

   161    H   16  S      Val( 1S)     0.74807
   162    H   16  S      Ryd( 2S)     0.00078

   163    H   17  S      Val( 1S)     0.75371
   164    H   17  S      Ryd( 2S)     0.00091

 WARNING:  1 low occupancy (<1.9990e) core orbital  found on  C    3
           1 low occupancy (<1.9990e) core orbital  found on  C    7


 Summary of Natural Population Analysis:                  
                                                          
                                       Natural Population 
                Natural  -----------------------------------------------
    Atom  No    Charge         Core      Valence    Rydberg      Total
 -----------------------------------------------------------------------
      C    1   -0.33320      1.99941     4.31976    0.01403     6.33320
      O    2   -0.38335      1.99975     6.37200    0.01160     8.38335
      C    3    0.33766      1.99880     3.64074    0.02280     5.66234
      C    4   -0.32403      1.99907     4.30618    0.01878     6.32403
      C    5   -0.25005      1.99913     4.23406    0.01685     6.25005
      C    6   -0.12292      1.99906     4.10897    0.01489     6.12292
      C    7   -0.19750      1.99889     4.18161    0.01699     6.19750
      C    8   -0.27218      1.99901     4.25821    0.01496     6.27218
      C    9    0.21856      1.99939     3.74664    0.03541     5.78144
      N   10   -0.35835      1.99965     5.33594    0.02275     7.35835
      H   11    0.24028      0.00000     0.75925    0.00047     0.75972
      H   12    0.22990      0.00000     0.76856    0.00154     0.77010
      H   13    0.22990      0.00000     0.76857    0.00154     0.77010
      H   14    0.24504      0.00000     0.75376    0.00119     0.75496
      H   15    0.24371      0.00000     0.75553    0.00075     0.75629
      H   16    0.25115      0.00000     0.74807    0.00078     0.74885
      H   17    0.24538      0.00000     0.75371    0.00091     0.75462
 =======================================================================
   * Total *   -0.00000     19.99217    49.81158    0.19625    70.00000

                                 Natural Population      
 --------------------------------------------------------
   Core                      19.99217 ( 99.9608% of  20)
   Valence                   49.81158 ( 99.6232% of  50)
   Natural Minimal Basis     69.80375 ( 99.7196% of  70)
   Natural Rydberg Basis      0.19625 (  0.2804% of  70)
 --------------------------------------------------------

    Atom  No          Natural Electron Configuration
 ----------------------------------------------------------------------------
      C    1      [core]2S( 1.11)2p( 3.21)3p( 0.01)3d( 0.01)
      O    2      [core]2S( 1.60)2p( 4.77)3p( 0.01)3d( 0.01)
      C    3      [core]2S( 0.84)2p( 2.80)3p( 0.01)3d( 0.01)
      C    4      [core]2S( 0.96)2p( 3.35)3p( 0.02)
      C    5      [core]2S( 0.96)2p( 3.27)3p( 0.01)
      C    6      [core]2S( 0.97)2p( 3.14)3p( 0.01)
      C    7      [core]2S( 0.89)2p( 3.29)3p( 0.01)
      C    8      [core]2S( 0.96)2p( 3.30)3p( 0.01)
      C    9      [core]2S( 0.83)2p( 2.92)3S( 0.01)3p( 0.02)
      N   10      [core]2S( 1.59)2p( 3.75)3d( 0.01)
      H   11            1S( 0.76)
      H   12            1S( 0.77)
      H   13            1S( 0.77)
      H   14            1S( 0.75)
      H   15            1S( 0.76)
      H   16            1S( 0.75)
      H   17            1S( 0.75)


 NBO analysis skipped by request.
 Leave Link  607 at Wed Sep 29 02:32:15 2021, MaxMem=  536870912 cpu:       5.2
 (Enter /sw/target/amd/app/gaussian/Gaussian09RevA.02_gcc-4.9.2/g09/l9999.exe)
 1\1\GINC-HERMITE\SP\RTD-B3LYP-FC\6-31G(d)\C8H7N1O1\JSCHLEINITZ\29-Sep-
 2021\0\\#p TD(NStates=10, Root=1) b3lyp/6-31G* volume pop=NPA density=
 current Geom=AllCheck Guess=Read\\COc1cccc(c1)C#N_conf_0\\0,1\C,0,3.03
 95251019,0.8920184782,0.812917295\O,0,2.6082350768,0.2359338266,-0.372
 1381981\C,0,3.2303577401,-0.9173133322,-0.7370488347\C,0,2.7581060233,
 -1.5168148742,-1.9168297265\C,0,3.3249707053,-2.6985067262,-2.37831379
 84\C,0,4.3695637993,-3.3090982324,-1.6812487542\C,0,4.8387246775,-2.71
 02018601,-0.5056419498\C,0,4.2744104547,-1.5132943831,-0.0259249451\C,
 0,5.9112315094,-3.3178944576,0.2292572611\N,0,6.7805677823,-3.80785684
 43,0.8273277865\H,0,2.4109305506,1.7787718066,0.9068898131\H,0,4.09132
 90694,1.1976926304,0.7424241312\H,0,2.904228721,0.2550864332,1.6964552
 248\H,0,1.9458155845,-1.0331576609,-2.4500592343\H,0,2.9501376291,-3.1
 509674358,-3.2916922928\H,0,4.8165409754,-4.2312745652,-2.035816499\H,
 0,4.6613177897,-1.0773752652,0.8864208222\\Version=AM64L-G09RevA.02\St
 ate=1-A\HF=-439.0151891\RMSD=9.865e-09\Dipole=-1.7308103,1.8424212,-0.
 3345345\Quadrupole=-7.781987,4.17521,3.606777,4.9990827,-5.3221064,9.8
 927147\PG=C01 [X(C8H7N1O1)]\\@


 THE MORE ACCURATE THE CALCULATIONS BECOME, THE MORE THE CONCEPTS
 TEND TO VANISH INTO THIN AIR.
     -- R.S. MULLIKEN, J.C.P. 43,S2(1965)
 Job cpu time:  0 days  0 hours 38 minutes 45.6 seconds.
 File lengths (MBytes):  RWF=     92 Int=      0 D2E=      0 Chk=     13 Scr=      1
 Normal termination of Gaussian 09 at Wed Sep 29 02:32:17 2021.
