 Entering Gaussian System, Link 0=g09
 Input=C8H8O_e63c_conf_0.com
 Output=C8H8O_e63c_conf_0.log
 Initial command:
 /sw/target/amd/app/gaussian/Gaussian09RevA.02_gcc-4.9.2/g09/l1.exe /home/jschleinitz/gaussian/Gau-985963.inp -scrdir=/home/jschleinitz/gaussian/
 Entering Link 1 = /sw/target/amd/app/gaussian/Gaussian09RevA.02_gcc-4.9.2/g09/l1.exe PID=    985965.
  
 Copyright (c) 1988,1990,1992,1993,1995,1998,2003,2009, Gaussian, Inc.
                  All Rights Reserved.
  
 This is part of the Gaussian(R) 09 program.  It is based on
 the Gaussian(R) 03 system (copyright 2003, Gaussian, Inc.),
 the Gaussian(R) 98 system (copyright 1998, Gaussian, Inc.),
 the Gaussian(R) 94 system (copyright 1995, Gaussian, Inc.),
 the Gaussian 92(TM) system (copyright 1992, Gaussian, Inc.),
 the Gaussian 90(TM) system (copyright 1990, Gaussian, Inc.),
 the Gaussian 88(TM) system (copyright 1988, Gaussian, Inc.),
 the Gaussian 86(TM) system (copyright 1986, Carnegie Mellon
 University), and the Gaussian 82(TM) system (copyright 1983,
 Carnegie Mellon University). Gaussian is a federally registered
 trademark of Gaussian, Inc.
  
 This software contains proprietary and confidential information,
 including trade secrets, belonging to Gaussian, Inc.
  
 This software is provided under written license and may be
 used, copied, transmitted, or stored only in accord with that
 written license.
  
 The following legend is applicable only to US Government
 contracts under FAR:
  
                    RESTRICTED RIGHTS LEGEND
  
 Use, reproduction and disclosure by the US Government is
 subject to restrictions as set forth in subparagraphs (a)
 and (c) of the Commercial Computer Software - Restricted
 Rights clause in FAR 52.227-19.
  
 Gaussian, Inc.
 340 Quinnipiac St., Bldg. 40, Wallingford CT 06492
  
  
 ---------------------------------------------------------------
 Warning -- This program may not be used in any manner that
 competes with the business of Gaussian, Inc. or will provide
 assistance to any competitor of Gaussian, Inc.  The licensee
 of this program is prohibited from giving any competitor of
 Gaussian, Inc. access to this program.  By using this program,
 the user acknowledges that Gaussian, Inc. is engaged in the
 business of creating and licensing software in the field of
 computational chemistry and represents and warrants to the
 licensee that it is not a competitor of Gaussian, Inc. and that
 it will not use this program in any manner prohibited above.
 ---------------------------------------------------------------
  

 Cite this work as:
 Gaussian 09, Revision A.02,
 M. J. Frisch, G. W. Trucks, H. B. Schlegel, G. E. Scuseria, 
 M. A. Robb, J. R. Cheeseman, G. Scalmani, V. Barone, B. Mennucci, 
 G. A. Petersson, H. Nakatsuji, M. Caricato, X. Li, H. P. Hratchian, 
 A. F. Izmaylov, J. Bloino, G. Zheng, J. L. Sonnenberg, M. Hada, 
 M. Ehara, K. Toyota, R. Fukuda, J. Hasegawa, M. Ishida, T. Nakajima, 
 Y. Honda, O. Kitao, H. Nakai, T. Vreven, J. A. Montgomery, Jr., 
 J. E. Peralta, F. Ogliaro, M. Bearpark, J. J. Heyd, E. Brothers, 
 K. N. Kudin, V. N. Staroverov, R. Kobayashi, J. Normand, 
 K. Raghavachari, A. Rendell, J. C. Burant, S. S. Iyengar, J. Tomasi, 
 M. Cossi, N. Rega, J. M. Millam, M. Klene, J. E. Knox, J. B. Cross, 
 V. Bakken, C. Adamo, J. Jaramillo, R. Gomperts, R. E. Stratmann, 
 O. Yazyev, A. J. Austin, R. Cammi, C. Pomelli, J. W. Ochterski, 
 R. L. Martin, K. Morokuma, V. G. Zakrzewski, G. A. Voth, 
 P. Salvador, J. J. Dannenberg, S. Dapprich, A. D. Daniels, 
 O. Farkas, J. B. Foresman, J. V. Ortiz, J. Cioslowski, 
 and D. J. Fox, Gaussian, Inc., Wallingford CT, 2009.
 
 ******************************************
 Gaussian 09:  AM64L-G09RevA.02 11-Jun-2009
                 4-Oct-2021 
 ******************************************
 %nproc=2
 Will use up to    2 processors via shared memory.
 %mem=4gb
 %chk=C8H8O_e63c_conf_0.chk
 -----------------------------------
 #p opt b3lyp/6-31G* scf=(xqc,tight)
 -----------------------------------
 1/14=-1,18=20,19=15,26=3,38=1/1,3;
 2/9=110,12=2,17=6,18=5,40=1/2;
 3/5=1,6=6,7=1,11=2,16=1,25=1,30=1,71=1,74=-5/1,2,3;
 4//1;
 5/5=2,8=3,13=1,32=2,38=5/2,8;
 6/7=2,8=2,9=2,10=2,28=1/1;
 7//1,2,3,16;
 1/14=-1,18=20,19=15/3(2);
 2/9=110/2;
 99//99;
 2/9=110/2;
 3/5=1,6=6,7=1,11=2,16=1,25=1,30=1,71=1,74=-5/1,2,3;
 4/5=5,16=3/1;
 5/5=2,8=3,13=1,32=2,38=5/2,8;
 7//1,2,3,16;
 1/14=-1,18=20,19=15/3(-5);
 2/9=110/2;
 6/7=2,8=2,9=2,10=2,19=2,28=1/1;
 99/9=1/99;
 Leave Link    1 at Mon Oct  4 08:32:25 2021, MaxMem=  536870912 cpu:       0.1
 (Enter /sw/target/amd/app/gaussian/Gaussian09RevA.02_gcc-4.9.2/g09/l101.exe)
 ---------------------
 CC(=O)c1ccccc1_conf_0
 ---------------------
 Symbolic Z-matrix:
 Charge =  0 Multiplicity = 1
 C                     2.8       0.50642  -1.58913 
 C                     2.50896   0.22728  -0.13797 
 O                     1.59024  -0.51929   0.19484 
 C                     3.35654   0.87563   0.90449 
 C                     2.92544   0.8328    2.23728 
 C                     3.68352   1.43444   3.24328 
 C                     4.8794    2.07524   2.92473 
 C                     5.31951   2.11406   1.60211 
 C                     4.56145   1.51657   0.59128 
 H                     1.98158   0.11376  -2.20076 
 H                     3.72676   0.01183  -1.89011 
 H                     2.85767   1.58367  -1.76577 
 H                     1.99336   0.33356   2.49657 
 H                     3.33977   1.40125   4.27423 
 H                     5.47046   2.54223   3.70897 
 H                     6.25662   2.60922   1.35839 
 H                     4.93651   1.5568   -0.42693 
 
 NAtoms=     17 NQM=     17 NQMF=      0 NMic=      0 NMicF=      0 NTot=     17.
                    Isotopes and Nuclear Properties:
 (Nuclear quadrupole moments (NQMom) in fm**2, nuclear magnetic moments (NMagM)
  in nuclear magnetons)

  Atom         1           2           3           4           5           6           7           8           9          10
 IAtWgt=          12          12          16          12          12          12          12          12          12           1
 AtmWgt=  12.0000000  12.0000000  15.9949146  12.0000000  12.0000000  12.0000000  12.0000000  12.0000000  12.0000000   1.0078250
 NucSpn=           0           0           0           0           0           0           0           0           0           1
 AtZEff=   0.0000000   0.0000000   0.0000000   0.0000000   0.0000000   0.0000000   0.0000000   0.0000000   0.0000000   0.0000000
 NQMom=    0.0000000   0.0000000   0.0000000   0.0000000   0.0000000   0.0000000   0.0000000   0.0000000   0.0000000   0.0000000
 NMagM=    0.0000000   0.0000000   0.0000000   0.0000000   0.0000000   0.0000000   0.0000000   0.0000000   0.0000000   2.7928460

  Atom        11          12          13          14          15          16          17
 IAtWgt=           1           1           1           1           1           1           1
 AtmWgt=   1.0078250   1.0078250   1.0078250   1.0078250   1.0078250   1.0078250   1.0078250
 NucSpn=           1           1           1           1           1           1           1
 AtZEff=   0.0000000   0.0000000   0.0000000   0.0000000   0.0000000   0.0000000   0.0000000
 NQMom=    0.0000000   0.0000000   0.0000000   0.0000000   0.0000000   0.0000000   0.0000000
 NMagM=    2.7928460   2.7928460   2.7928460   2.7928460   2.7928460   2.7928460   2.7928460
 Leave Link  101 at Mon Oct  4 08:32:26 2021, MaxMem=  536870912 cpu:       0.2
 (Enter /sw/target/amd/app/gaussian/Gaussian09RevA.02_gcc-4.9.2/g09/l103.exe)

 GradGradGradGradGradGradGradGradGradGradGradGradGradGradGradGradGradGrad
 Berny optimization.
 Initialization pass.
                           ----------------------------
                           !    Initial Parameters    !
                           ! (Angstroms and Degrees)  !
 --------------------------                            --------------------------
 ! Name  Definition              Value          Derivative Info.                !
 --------------------------------------------------------------------------------
 ! R1    R(1,2)                  1.5062         estimate D2E/DX2                !
 ! R2    R(1,10)                 1.0946         estimate D2E/DX2                !
 ! R3    R(1,11)                 1.0927         estimate D2E/DX2                !
 ! R4    R(1,12)                 1.0932         estimate D2E/DX2                !
 ! R5    R(2,3)                  1.2297         estimate D2E/DX2                !
 ! R6    R(2,4)                  1.4918         estimate D2E/DX2                !
 ! R7    R(4,5)                  1.4014         estimate D2E/DX2                !
 ! R8    R(4,9)                  1.4003         estimate D2E/DX2                !
 ! R9    R(5,6)                  1.396          estimate D2E/DX2                !
 ! R10   R(5,13)                 1.0887         estimate D2E/DX2                !
 ! R11   R(6,7)                  1.3936         estimate D2E/DX2                !
 ! R12   R(6,14)                 1.0872         estimate D2E/DX2                !
 ! R13   R(7,8)                  1.3945         estimate D2E/DX2                !
 ! R14   R(7,15)                 1.0874         estimate D2E/DX2                !
 ! R15   R(8,9)                  1.3977         estimate D2E/DX2                !
 ! R16   R(8,16)                 1.0875         estimate D2E/DX2                !
 ! R17   R(9,17)                 1.0858         estimate D2E/DX2                !
 ! A1    A(2,1,10)             109.1117         estimate D2E/DX2                !
 ! A2    A(2,1,11)             110.2043         estimate D2E/DX2                !
 ! A3    A(2,1,12)             110.3965         estimate D2E/DX2                !
 ! A4    A(10,1,11)            108.5336         estimate D2E/DX2                !
 ! A5    A(10,1,12)            107.6184         estimate D2E/DX2                !
 ! A6    A(11,1,12)            110.9026         estimate D2E/DX2                !
 ! A7    A(1,2,3)              121.1741         estimate D2E/DX2                !
 ! A8    A(1,2,4)              118.878          estimate D2E/DX2                !
 ! A9    A(3,2,4)              119.9479         estimate D2E/DX2                !
 ! A10   A(2,4,5)              118.4579         estimate D2E/DX2                !
 ! A11   A(2,4,9)              122.1084         estimate D2E/DX2                !
 ! A12   A(5,4,9)              119.4334         estimate D2E/DX2                !
 ! A13   A(4,5,6)              120.3405         estimate D2E/DX2                !
 ! A14   A(4,5,13)             120.2565         estimate D2E/DX2                !
 ! A15   A(6,5,13)             119.4024         estimate D2E/DX2                !
 ! A16   A(5,6,7)              119.963          estimate D2E/DX2                !
 ! A17   A(5,6,14)             119.9            estimate D2E/DX2                !
 ! A18   A(7,6,14)             120.1371         estimate D2E/DX2                !
 ! A19   A(6,7,8)              120.0283         estimate D2E/DX2                !
 ! A20   A(6,7,15)             119.9366         estimate D2E/DX2                !
 ! A21   A(8,7,15)             120.0348         estimate D2E/DX2                !
 ! A22   A(7,8,9)              120.1912         estimate D2E/DX2                !
 ! A23   A(7,8,16)             119.8142         estimate D2E/DX2                !
 ! A24   A(9,8,16)             119.9945         estimate D2E/DX2                !
 ! A25   A(4,9,8)              120.041          estimate D2E/DX2                !
 ! A26   A(4,9,17)             121.5966         estimate D2E/DX2                !
 ! A27   A(8,9,17)             118.3598         estimate D2E/DX2                !
 ! D1    D(10,1,2,3)            10.5904         estimate D2E/DX2                !
 ! D2    D(10,1,2,4)          -169.3294         estimate D2E/DX2                !
 ! D3    D(11,1,2,3)          -108.4864         estimate D2E/DX2                !
 ! D4    D(11,1,2,4)            71.5939         estimate D2E/DX2                !
 ! D5    D(12,1,2,3)           128.6637         estimate D2E/DX2                !
 ! D6    D(12,1,2,4)           -51.2561         estimate D2E/DX2                !
 ! D7    D(1,2,4,5)            167.3902         estimate D2E/DX2                !
 ! D8    D(1,2,4,9)            -12.7868         estimate D2E/DX2                !
 ! D9    D(3,2,4,5)            -12.5306         estimate D2E/DX2                !
 ! D10   D(3,2,4,9)            167.2924         estimate D2E/DX2                !
 ! D11   D(2,4,5,6)           -179.5744         estimate D2E/DX2                !
 ! D12   D(2,4,5,13)             0.1437         estimate D2E/DX2                !
 ! D13   D(9,4,5,6)              0.5977         estimate D2E/DX2                !
 ! D14   D(9,4,5,13)          -179.6841         estimate D2E/DX2                !
 ! D15   D(2,4,9,8)            179.7826         estimate D2E/DX2                !
 ! D16   D(2,4,9,17)            -0.8146         estimate D2E/DX2                !
 ! D17   D(5,4,9,8)             -0.3961         estimate D2E/DX2                !
 ! D18   D(5,4,9,17)           179.0068         estimate D2E/DX2                !
 ! D19   D(4,5,6,7)             -0.361          estimate D2E/DX2                !
 ! D20   D(4,5,6,14)           179.6902         estimate D2E/DX2                !
 ! D21   D(13,5,6,7)           179.9185         estimate D2E/DX2                !
 ! D22   D(13,5,6,14)           -0.0304         estimate D2E/DX2                !
 ! D23   D(5,6,7,8)             -0.0809         estimate D2E/DX2                !
 ! D24   D(5,6,7,15)          -179.8915         estimate D2E/DX2                !
 ! D25   D(14,6,7,8)           179.8679         estimate D2E/DX2                !
 ! D26   D(14,6,7,15)            0.0573         estimate D2E/DX2                !
 ! D27   D(6,7,8,9)              0.2815         estimate D2E/DX2                !
 ! D28   D(6,7,8,16)          -179.5866         estimate D2E/DX2                !
 ! D29   D(15,7,8,9)          -179.9081         estimate D2E/DX2                !
 ! D30   D(15,7,8,16)            0.2239         estimate D2E/DX2                !
 ! D31   D(7,8,9,4)             -0.0408         estimate D2E/DX2                !
 ! D32   D(7,8,9,17)          -179.4628         estimate D2E/DX2                !
 ! D33   D(16,8,9,4)           179.827          estimate D2E/DX2                !
 ! D34   D(16,8,9,17)            0.405          estimate D2E/DX2                !
 --------------------------------------------------------------------------------
 Trust Radius=3.00D-01 FncErr=1.00D-07 GrdErr=1.00D-06
 Number of steps in this run=  88 maximum allowed number of steps= 102.
 GradGradGradGradGradGradGradGradGradGradGradGradGradGradGradGradGradGrad

 Leave Link  103 at Mon Oct  4 08:32:26 2021, MaxMem=  536870912 cpu:       0.0
 (Enter /sw/target/amd/app/gaussian/Gaussian09RevA.02_gcc-4.9.2/g09/l202.exe)
                          Input orientation:                          
 ---------------------------------------------------------------------
 Center     Atomic      Atomic             Coordinates (Angstroms)
 Number     Number       Type             X           Y           Z
 ---------------------------------------------------------------------
      1          6           0        2.800000    0.506423   -1.589135
      2          6           0        2.508961    0.227284   -0.137967
      3          8           0        1.590238   -0.519290    0.194840
      4          6           0        3.356537    0.875632    0.904489
      5          6           0        2.925442    0.832802    2.237283
      6          6           0        3.683517    1.434443    3.243283
      7          6           0        4.879396    2.075240    2.924734
      8          6           0        5.319514    2.114061    1.602109
      9          6           0        4.561449    1.516572    0.591276
     10          1           0        1.981580    0.113757   -2.200757
     11          1           0        3.726755    0.011833   -1.890105
     12          1           0        2.857671    1.583673   -1.765773
     13          1           0        1.993362    0.333564    2.496566
     14          1           0        3.339771    1.401255    4.274229
     15          1           0        5.470464    2.542232    3.708968
     16          1           0        6.256624    2.609217    1.358389
     17          1           0        4.936511    1.556801   -0.426930
 ---------------------------------------------------------------------
                    Distance matrix (angstroms):
                    1          2          3          4          5
     1  C    0.000000
     2  C    1.506158   0.000000
     3  O    2.387086   1.229710   0.000000
     4  C    2.581512   1.491795   2.359920   0.000000
     5  C    3.842360   2.486347   2.789713   1.401434   0.000000
     6  C    4.999408   3.777521   4.182331   2.426756   1.395953
     7  C    5.211534   4.291158   5.000247   2.799920   2.415404
     8  C    4.372240   3.806178   4.777284   2.423563   2.788664
     9  C    2.979479   2.531159   3.623534   1.400257   2.419380
    10  H    1.094568   2.132164   2.508543   3.480447   4.593920
    11  H    1.092738   2.144628   3.032128   2.948384   4.283857
    12  H    1.093158   2.147357   3.142109   2.807221   4.073433
    13  H    4.168153   2.686615   2.487531   2.164901   1.088688
    14  H    5.955762   4.640681   4.836400   3.410529   2.154984
    15  H    6.272622   5.378512   6.064500   3.887331   3.400756
    16  H    5.005785   4.685900   5.737296   3.409083   3.876194
    17  H    2.649282   2.782825   3.986765   2.175542   3.415641
                    6          7          8          9         10
     6  C    0.000000
     7  C    1.393635   0.000000
     8  C    2.414915   1.394470   0.000000
     9  C    2.794754   2.420378   1.397654   0.000000
    10  H    5.854774   6.206079   5.441030   4.052044   0.000000
    11  H    5.327041   5.363666   4.376277   3.019637   1.775536
    12  H    5.078871   5.131264   4.205307   2.909131   1.765615
    13  H    2.150848   3.397934   3.877307   3.409504   4.702478
    14  H    1.087250   2.155420   3.401131   3.882002   6.740013
    15  H    2.153424   1.087412   2.155219   3.405626   7.279742
    16  H    3.399088   2.152981   1.087546   2.157766   6.096789
    17  H    3.880132   3.392004   2.138744   1.085832   3.736369
                   11         12         13         14         15
    11  H    0.000000
    12  H    1.800401   0.000000
    13  H    4.727690   4.525190   0.000000
    14  H    6.330819   6.061957   2.472421   0.000000
    15  H    6.386944   6.141524   4.293992   2.482176   0.000000
    16  H    4.868198   4.729166   4.964821   4.297595   2.479467
    17  H    2.447717   2.472812   4.324959   4.967360   4.285071
                   16         17
    16  H    0.000000
    17  H    2.457161   0.000000
 Stoichiometry    C8H8O
 Framework group  C1[X(C8H8O)]
 Deg. of freedom    45
 Full point group                 C1      NOp   1
 Largest Abelian subgroup         C1      NOp   1
 Largest concise Abelian subgroup C1      NOp   1
                         Standard orientation:                         
 ---------------------------------------------------------------------
 Center     Atomic      Atomic             Coordinates (Angstroms)
 Number     Number       Type             X           Y           Z
 ---------------------------------------------------------------------
      1          6           0       -2.540596    1.038599    0.170588
      2          6           0       -1.694851   -0.192330   -0.024453
      3          8           0       -2.207960   -1.297889   -0.187685
      4          6           0       -0.209445   -0.054685   -0.015620
      5          6           0        0.568420   -1.217089    0.072478
      6          6           0        1.961710   -1.133331    0.092799
      7          6           0        2.585388    0.110697    0.017688
      8          6           0        1.818291    1.271162   -0.079420
      9          6           0        0.422975    1.192041   -0.095868
     10          1           0       -3.581228    0.737349    0.326832
     11          1           0       -2.492494    1.674080   -0.717065
     12          1           0       -2.217457    1.585859    1.060016
     13          1           0        0.090783   -2.193695    0.130315
     14          1           0        2.558122   -2.039415    0.166396
     15          1           0        3.670786    0.175321    0.031772
     16          1           0        2.308735    2.239651   -0.144624
     17          1           0       -0.144916    2.113578   -0.181308
 ---------------------------------------------------------------------
 Rotational constants (GHZ):      3.6810868      1.2156209      0.9242894
 Leave Link  202 at Mon Oct  4 08:32:27 2021, MaxMem=  536870912 cpu:       0.0
 (Enter /sw/target/amd/app/gaussian/Gaussian09RevA.02_gcc-4.9.2/g09/l301.exe)
 Standard basis: 6-31G(d) (6D, 7F)
 Ernie: Thresh=  0.10000D-02 Tol=  0.10000D-05 Strict=F.
 There are   151 symmetry adapted basis functions of A   symmetry.
 Integral buffers will be    131072 words long.
 Raffenetti 2 integral format.
 Two-electron integral symmetry is turned on.
   151 basis functions,   284 primitive gaussians,   151 cartesian basis functions
    32 alpha electrons       32 beta electrons
       nuclear repulsion energy       401.0750019314 Hartrees.
 IExCor=  402 DFT=T Ex+Corr=B3LYP ExCW=0 ScaHFX=  0.200000
 ScaDFX=  0.800000  0.720000  1.000000  0.810000 ScalE2=  1.000000  1.000000
 IRadAn=      0 IRanWt=     -1 IRanGd=            0 ICorTp=0
 NAtoms=   17 NActive=   17 NUniq=   17 SFac= 7.50D-01 NAtFMM=   80 NAOKFM=F Big=F
 Leave Link  301 at Mon Oct  4 08:32:27 2021, MaxMem=  536870912 cpu:       0.1
 (Enter /sw/target/amd/app/gaussian/Gaussian09RevA.02_gcc-4.9.2/g09/l302.exe)
 NPDir=0 NMtPBC=     1 NCelOv=     1 NCel=       1 NClECP=     1 NCelD=      1
         NCelK=      1 NCelE2=     1 NClLst=     1 CellRange=     0.0.
 One-electron integrals computed using PRISM.
 NBasis=   151 RedAO= T  NBF=   151
 NBsUse=   151 1.00D-06 NBFU=   151
 Precomputing XC quadrature grid using
 IXCGrd= 2 IRadAn=           0 IRanWt=          -1 IRanGd=           0 AccXCQ= 1.00D-10.
 NRdTot=    1063 NPtTot=      134838 NUsed=      142513 NTot=      142545
 NSgBfM=   151   151   151   151   151 NAtAll=    17    17.
 Leave Link  302 at Mon Oct  4 08:32:30 2021, MaxMem=  536870912 cpu:       0.8
 (Enter /sw/target/amd/app/gaussian/Gaussian09RevA.02_gcc-4.9.2/g09/l303.exe)
 DipDrv:  MaxL=1.
 Leave Link  303 at Mon Oct  4 08:32:30 2021, MaxMem=  536870912 cpu:       0.1
 (Enter /sw/target/amd/app/gaussian/Gaussian09RevA.02_gcc-4.9.2/g09/l401.exe)
 Harris functional with IExCor=  402 diagonalized for initial guess.
 ExpMin= 1.61D-01 ExpMax= 5.48D+03 ExpMxC= 8.25D+02 IAcc=1 IRadAn=         1 AccDes= 0.00D+00
 HarFok:  IExCor=  402 AccDes= 0.00D+00 IRadAn=         1 IDoV= 1
 ScaDFX=  1.000000  1.000000  1.000000  1.000000
 FoFCou: FMM=F IPFlag=           0 FMFlag=      100000 FMFlg1=           0
         NFxFlg=           0 DoJE=T BraDBF=F KetDBF=T FulRan=T
         Omega=  0.000000  0.000000  1.000000  0.000000  0.000000 ICntrl=     500 IOpCl=  0
         NMat0=    1 NMatS0=    1 NMatT0=    0 NMatD0=    1 NMtDS0=    0 NMtDT0=    0
         I1Cent=           4 NGrid=           0.
 Petite list used in FoFCou.
 Harris En= -384.962464410405    
 Initial guess orbital symmetries:
       Occupied  (A) (A) (A) (A) (A) (A) (A) (A) (A) (A) (A) (A)
                 (A) (A) (A) (A) (A) (A) (A) (A) (A) (A) (A) (A)
                 (A) (A) (A) (A) (A) (A) (A) (A)
       Virtual   (A) (A) (A) (A) (A) (A) (A) (A) (A) (A) (A) (A)
                 (A) (A) (A) (A) (A) (A) (A) (A) (A) (A) (A) (A)
                 (A) (A) (A) (A) (A) (A) (A) (A) (A) (A) (A) (A)
                 (A) (A) (A) (A) (A) (A) (A) (A) (A) (A) (A) (A)
                 (A) (A) (A) (A) (A) (A) (A) (A) (A) (A) (A) (A)
                 (A) (A) (A) (A) (A) (A) (A) (A) (A) (A) (A) (A)
                 (A) (A) (A) (A) (A) (A) (A) (A) (A) (A) (A) (A)
                 (A) (A) (A) (A) (A) (A) (A) (A) (A) (A) (A) (A)
                 (A) (A) (A) (A) (A) (A) (A) (A) (A) (A) (A) (A)
                 (A) (A) (A) (A) (A) (A) (A) (A) (A) (A) (A)
 The electronic state of the initial guess is 1-A.
 Leave Link  401 at Mon Oct  4 08:32:44 2021, MaxMem=  536870912 cpu:       4.1
 (Enter /sw/target/amd/app/gaussian/Gaussian09RevA.02_gcc-4.9.2/g09/l502.exe)
 Closed shell SCF:
 Requested convergence on RMS density matrix=1.00D-08 within  64 cycles.
 Requested convergence on MAX density matrix=1.00D-06.
 Requested convergence on             energy=1.00D-06.
 No special actions if energy rises.
 Using DIIS extrapolation, IDIIS=  1040.
 Integral symmetry usage will be decided dynamically.
       142347 words used for storage of precomputed grid.
 Keep R1 ints in memory in canonical form, NReq=67829205.
 IEnd=      218337 IEndB=      218337 NGot=   536870912 MDV=   470824698
 LenX=   470824698 LenY=   470801456
 Symmetry not used in FoFDir.
 MinBra= 0 MaxBra= 2 Meth= 1.
 IRaf=       0 NMat=   1 IRICut=       1 DoRegI=T DoRafI=F ISym2E= 0 JSym2E=0.
 Integral accuracy reduced to 1.0D-05 until final iterations.

 Cycle   1  Pass 0  IDiag  1:
 E= -384.650394500506    
 DIIS: error= 4.55D-02 at cycle   1 NSaved=   1.
 NSaved= 1 IEnMin= 1 EnMin= -384.650394500506     IErMin= 1 ErrMin= 4.55D-02
 ErrMax= 4.55D-02 EMaxC= 1.00D-01 BMatC= 2.42D-01 BMatP= 2.42D-01
 IDIUse=3 WtCom= 5.45D-01 WtEn= 4.55D-01
 Coeff-Com:  0.100D+01
 Coeff-En:   0.100D+01
 Coeff:      0.100D+01
 Gap=     0.151 Goal=   None    Shift=    0.000
 GapD=    0.151 DampG=1.000 DampE=0.500 DampFc=0.5000 IDamp=-1.
 Damping current iteration by 5.00D-01
 RMSDP=7.99D-03 MaxDP=1.88D-01              OVMax= 2.08D-01

 Cycle   2  Pass 0  IDiag  1:
 E= -384.746145550559     Delta-E=       -0.095751050054 Rises=F Damp=T
 DIIS: error= 1.32D-02 at cycle   2 NSaved=   2.
 NSaved= 2 IEnMin= 2 EnMin= -384.746145550559     IErMin= 2 ErrMin= 1.32D-02
 ErrMax= 1.32D-02 EMaxC= 1.00D-01 BMatC= 2.65D-02 BMatP= 2.42D-01
 IDIUse=3 WtCom= 8.68D-01 WtEn= 1.32D-01
 Coeff-Com:  0.148D+00 0.852D+00
 Coeff-En:   0.197D+00 0.803D+00
 Coeff:      0.155D+00 0.845D+00
 Gap=     0.205 Goal=   None    Shift=    0.000
 RMSDP=2.32D-03 MaxDP=5.72D-02 DE=-9.58D-02 OVMax= 1.71D-01

 Cycle   3  Pass 0  IDiag  1:
 E= -384.862501315681     Delta-E=       -0.116355765122 Rises=F Damp=F
 DIIS: error= 2.29D-02 at cycle   3 NSaved=   3.
 NSaved= 3 IEnMin= 3 EnMin= -384.862501315681     IErMin= 2 ErrMin= 1.32D-02
 ErrMax= 2.29D-02 EMaxC= 1.00D-01 BMatC= 3.71D-02 BMatP= 2.65D-02
 IDIUse=2 WtCom= 0.00D+00 WtEn= 1.00D+00
 Coeff-En:   0.000D+00 0.000D+00 0.100D+01
 Coeff:      0.000D+00 0.000D+00 0.100D+01
 Gap=     0.203 Goal=   None    Shift=    0.000
 RMSDP=4.21D-03 MaxDP=1.40D-01 DE=-1.16D-01 OVMax= 1.94D-01

 Cycle   4  Pass 0  IDiag  1:
 E= -384.712304186435     Delta-E=        0.150197129246 Rises=F Damp=F
 DIIS: error= 5.42D-02 at cycle   4 NSaved=   4.
 NSaved= 4 IEnMin= 3 EnMin= -384.862501315681     IErMin= 2 ErrMin= 1.32D-02
 ErrMax= 5.42D-02 EMaxC= 1.00D-01 BMatC= 2.23D-01 BMatP= 2.65D-02
 IDIUse=2 WtCom= 0.00D+00 WtEn= 1.00D+00
 Coeff-En:   0.000D+00 0.000D+00 0.796D+00 0.204D+00
 Coeff:      0.000D+00 0.000D+00 0.796D+00 0.204D+00
 Gap=     0.177 Goal=   None    Shift=    0.000
 RMSDP=2.36D-03 MaxDP=7.29D-02 DE= 1.50D-01 OVMax= 1.15D-01

 Cycle   5  Pass 0  IDiag  1:
 E= -384.881001655339     Delta-E=       -0.168697468904 Rises=F Damp=F
 DIIS: error= 1.51D-02 at cycle   5 NSaved=   5.
 NSaved= 5 IEnMin= 5 EnMin= -384.881001655339     IErMin= 2 ErrMin= 1.32D-02
 ErrMax= 1.51D-02 EMaxC= 1.00D-01 BMatC= 1.62D-02 BMatP= 2.65D-02
 IDIUse=3 WtCom= 8.49D-01 WtEn= 1.51D-01
 Coeff-Com: -0.622D-02 0.330D-01 0.287D+00-0.109D+00 0.796D+00
 Coeff-En:   0.000D+00 0.000D+00 0.342D+00 0.000D+00 0.658D+00
 Coeff:     -0.528D-02 0.280D-01 0.295D+00-0.926D-01 0.775D+00
 Gap=     0.192 Goal=   None    Shift=    0.000
 RMSDP=8.04D-04 MaxDP=2.68D-02 DE=-1.69D-01 OVMax= 3.78D-02

 Cycle   6  Pass 0  IDiag  1:
 E= -384.894435351336     Delta-E=       -0.013433695997 Rises=F Damp=F
 DIIS: error= 4.99D-04 at cycle   6 NSaved=   6.
 NSaved= 6 IEnMin= 6 EnMin= -384.894435351336     IErMin= 6 ErrMin= 4.99D-04
 ErrMax= 4.99D-04 EMaxC= 1.00D-01 BMatC= 3.79D-05 BMatP= 1.62D-02
 IDIUse=3 WtCom= 9.95D-01 WtEn= 4.99D-03
 Coeff-Com: -0.426D-02 0.145D-01 0.132D+00-0.571D-01 0.408D+00 0.507D+00
 Coeff-En:   0.000D+00 0.000D+00 0.000D+00 0.000D+00 0.000D+00 0.100D+01
 Coeff:     -0.424D-02 0.145D-01 0.132D+00-0.569D-01 0.406D+00 0.509D+00
 Gap=     0.191 Goal=   None    Shift=    0.000
 RMSDP=5.74D-05 MaxDP=1.36D-03 DE=-1.34D-02 OVMax= 3.17D-03

 Cycle   7  Pass 0  IDiag  1:
 E= -384.894469403357     Delta-E=       -0.000034052021 Rises=F Damp=F
 DIIS: error= 2.31D-04 at cycle   7 NSaved=   7.
 NSaved= 7 IEnMin= 7 EnMin= -384.894469403357     IErMin= 7 ErrMin= 2.31D-04
 ErrMax= 2.31D-04 EMaxC= 1.00D-01 BMatC= 5.21D-06 BMatP= 3.79D-05
 IDIUse=3 WtCom= 9.98D-01 WtEn= 2.31D-03
 Coeff-Com: -0.115D-02 0.236D-02 0.392D-01-0.175D-01 0.125D+00 0.304D+00
 Coeff-Com:  0.548D+00
 Coeff-En:   0.000D+00 0.000D+00 0.000D+00 0.000D+00 0.000D+00 0.142D+00
 Coeff-En:   0.858D+00
 Coeff:     -0.115D-02 0.236D-02 0.391D-01-0.174D-01 0.125D+00 0.304D+00
 Coeff:      0.549D+00
 Gap=     0.192 Goal=   None    Shift=    0.000
 RMSDP=1.70D-05 MaxDP=3.80D-04 DE=-3.41D-05 OVMax= 9.63D-04

 Cycle   8  Pass 0  IDiag  1:
 E= -384.894474717802     Delta-E=       -0.000005314444 Rises=F Damp=F
 DIIS: error= 3.49D-05 at cycle   8 NSaved=   8.
 NSaved= 8 IEnMin= 8 EnMin= -384.894474717802     IErMin= 8 ErrMin= 3.49D-05
 ErrMax= 3.49D-05 EMaxC= 1.00D-01 BMatC= 3.18D-07 BMatP= 5.21D-06
 IDIUse=1 WtCom= 1.00D+00 WtEn= 0.00D+00
 Coeff-Com: -0.188D-03-0.793D-04 0.123D-01-0.507D-02 0.373D-01 0.127D+00
 Coeff-Com:  0.298D+00 0.531D+00
 Coeff:     -0.188D-03-0.793D-04 0.123D-01-0.507D-02 0.373D-01 0.127D+00
 Coeff:      0.298D+00 0.531D+00
 Gap=     0.192 Goal=   None    Shift=    0.000
 RMSDP=3.76D-06 MaxDP=8.89D-05 DE=-5.31D-06 OVMax= 1.57D-04

 Initial convergence to 1.0D-05 achieved.  Increase integral accuracy.
 Cycle   9  Pass 1  IDiag  1:
 E= -384.894517149955     Delta-E=       -0.000042432154 Rises=F Damp=F
 DIIS: error= 1.80D-05 at cycle   1 NSaved=   1.
 NSaved= 1 IEnMin= 1 EnMin= -384.894517149955     IErMin= 1 ErrMin= 1.80D-05
 ErrMax= 1.80D-05 EMaxC= 1.00D-01 BMatC= 5.78D-08 BMatP= 5.78D-08
 IDIUse=1 WtCom= 1.00D+00 WtEn= 0.00D+00
 Coeff-Com:  0.100D+01
 Coeff:      0.100D+01
 Gap=     0.192 Goal=   None    Shift=    0.000
 RMSDP=3.76D-06 MaxDP=8.89D-05 DE=-4.24D-05 OVMax= 1.24D-04

 Cycle  10  Pass 1  IDiag  1:
 E= -384.894517183072     Delta-E=       -0.000000033116 Rises=F Damp=F
 DIIS: error= 2.21D-05 at cycle   2 NSaved=   2.
 NSaved= 2 IEnMin= 2 EnMin= -384.894517183072     IErMin= 1 ErrMin= 1.80D-05
 ErrMax= 2.21D-05 EMaxC= 1.00D-01 BMatC= 4.88D-08 BMatP= 5.78D-08
 IDIUse=1 WtCom= 1.00D+00 WtEn= 0.00D+00
 Coeff-Com:  0.471D+00 0.529D+00
 Coeff:      0.471D+00 0.529D+00
 Gap=     0.192 Goal=   None    Shift=    0.000
 RMSDP=2.24D-06 MaxDP=7.45D-05 DE=-3.31D-08 OVMax= 1.00D-04

 Cycle  11  Pass 1  IDiag  1:
 E= -384.894517207132     Delta-E=       -0.000000024060 Rises=F Damp=F
 DIIS: error= 1.64D-05 at cycle   3 NSaved=   3.
 NSaved= 3 IEnMin= 3 EnMin= -384.894517207132     IErMin= 3 ErrMin= 1.64D-05
 ErrMax= 1.64D-05 EMaxC= 1.00D-01 BMatC= 2.14D-08 BMatP= 4.88D-08
 IDIUse=1 WtCom= 1.00D+00 WtEn= 0.00D+00
 Coeff-Com:  0.237D-01 0.392D+00 0.584D+00
 Coeff:      0.237D-01 0.392D+00 0.584D+00
 Gap=     0.192 Goal=   None    Shift=    0.000
 RMSDP=1.14D-06 MaxDP=3.85D-05 DE=-2.41D-08 OVMax= 5.11D-05

 Cycle  12  Pass 1  IDiag  1:
 E= -384.894517223382     Delta-E=       -0.000000016250 Rises=F Damp=F
 DIIS: error= 3.67D-06 at cycle   4 NSaved=   4.
 NSaved= 4 IEnMin= 4 EnMin= -384.894517223382     IErMin= 4 ErrMin= 3.67D-06
 ErrMax= 3.67D-06 EMaxC= 1.00D-01 BMatC= 2.10D-09 BMatP= 2.14D-08
 IDIUse=1 WtCom= 1.00D+00 WtEn= 0.00D+00
 Coeff-Com: -0.179D-01 0.207D+00 0.371D+00 0.440D+00
 Coeff:     -0.179D-01 0.207D+00 0.371D+00 0.440D+00
 Gap=     0.192 Goal=   None    Shift=    0.000
 RMSDP=2.81D-07 MaxDP=6.95D-06 DE=-1.63D-08 OVMax= 1.11D-05

 Cycle  13  Pass 1  IDiag  1:
 E= -384.894517225232     Delta-E=       -0.000000001850 Rises=F Damp=F
 DIIS: error= 5.06D-07 at cycle   5 NSaved=   5.
 NSaved= 5 IEnMin= 5 EnMin= -384.894517225232     IErMin= 5 ErrMin= 5.06D-07
 ErrMax= 5.06D-07 EMaxC= 1.00D-01 BMatC= 2.86D-11 BMatP= 2.10D-09
 IDIUse=1 WtCom= 1.00D+00 WtEn= 0.00D+00
 Coeff-Com: -0.867D-02 0.768D-01 0.148D+00 0.194D+00 0.590D+00
 Coeff:     -0.867D-02 0.768D-01 0.148D+00 0.194D+00 0.590D+00
 Gap=     0.192 Goal=   None    Shift=    0.000
 RMSDP=5.13D-08 MaxDP=8.84D-07 DE=-1.85D-09 OVMax= 2.49D-06

 Cycle  14  Pass 1  IDiag  1:
 E= -384.894517225258     Delta-E=       -0.000000000025 Rises=F Damp=F
 DIIS: error= 1.87D-07 at cycle   6 NSaved=   6.
 NSaved= 6 IEnMin= 6 EnMin= -384.894517225258     IErMin= 6 ErrMin= 1.87D-07
 ErrMax= 1.87D-07 EMaxC= 1.00D-01 BMatC= 3.60D-12 BMatP= 2.86D-11
 IDIUse=1 WtCom= 1.00D+00 WtEn= 0.00D+00
 Coeff-Com: -0.319D-02 0.246D-01 0.498D-01 0.678D-01 0.311D+00 0.550D+00
 Coeff:     -0.319D-02 0.246D-01 0.498D-01 0.678D-01 0.311D+00 0.550D+00
 Gap=     0.192 Goal=   None    Shift=    0.000
 RMSDP=1.68D-08 MaxDP=4.16D-07 DE=-2.52D-11 OVMax= 1.08D-06

 Cycle  15  Pass 1  IDiag  1:
 E= -384.894517225258     Delta-E=        0.000000000000 Rises=F Damp=F
 DIIS: error= 7.81D-08 at cycle   7 NSaved=   7.
 NSaved= 7 IEnMin= 6 EnMin= -384.894517225258     IErMin= 7 ErrMin= 7.81D-08
 ErrMax= 7.81D-08 EMaxC= 1.00D-01 BMatC= 5.53D-13 BMatP= 3.60D-12
 IDIUse=1 WtCom= 1.00D+00 WtEn= 0.00D+00
 Coeff-Com: -0.573D-03 0.288D-02 0.698D-02 0.101D-01 0.899D-01 0.317D+00
 Coeff-Com:  0.574D+00
 Coeff:     -0.573D-03 0.288D-02 0.698D-02 0.101D-01 0.899D-01 0.317D+00
 Coeff:      0.574D+00
 Gap=     0.192 Goal=   None    Shift=    0.000
 RMSDP=7.61D-09 MaxDP=1.75D-07 DE= 1.14D-13 OVMax= 4.47D-07

 SCF Done:  E(RB3LYP) =  -384.894517225     A.U. after   15 cycles
             Convg  =    0.7613D-08             -V/T =  2.0096
 KE= 3.812393936560D+02 PE=-1.696197886250D+03 EE= 5.289889734368D+02
 Leave Link  502 at Mon Oct  4 08:37:10 2021, MaxMem=  536870912 cpu:      72.0
 (Enter /sw/target/amd/app/gaussian/Gaussian09RevA.02_gcc-4.9.2/g09/l508.exe)
 QCSCF skips out because SCF is already converged.
 Leave Link  508 at Mon Oct  4 08:37:11 2021, MaxMem=  536870912 cpu:       0.0
 (Enter /sw/target/amd/app/gaussian/Gaussian09RevA.02_gcc-4.9.2/g09/l601.exe)
 Copying SCF densities to generalized density rwf, IOpCl= 0 IROHF=0.

 **********************************************************************

            Population analysis using the SCF density.

 **********************************************************************

 Orbital symmetries:
       Occupied  (A) (A) (A) (A) (A) (A) (A) (A) (A) (A) (A) (A)
                 (A) (A) (A) (A) (A) (A) (A) (A) (A) (A) (A) (A)
                 (A) (A) (A) (A) (A) (A) (A) (A)
       Virtual   (A) (A) (A) (A) (A) (A) (A) (A) (A) (A) (A) (A)
                 (A) (A) (A) (A) (A) (A) (A) (A) (A) (A) (A) (A)
                 (A) (A) (A) (A) (A) (A) (A) (A) (A) (A) (A) (A)
                 (A) (A) (A) (A) (A) (A) (A) (A) (A) (A) (A) (A)
                 (A) (A) (A) (A) (A) (A) (A) (A) (A) (A) (A) (A)
                 (A) (A) (A) (A) (A) (A) (A) (A) (A) (A) (A) (A)
                 (A) (A) (A) (A) (A) (A) (A) (A) (A) (A) (A) (A)
                 (A) (A) (A) (A) (A) (A) (A) (A) (A) (A) (A) (A)
                 (A) (A) (A) (A) (A) (A) (A) (A) (A) (A) (A) (A)
                 (A) (A) (A) (A) (A) (A) (A) (A) (A) (A) (A)
 The electronic state is 1-A.
 Alpha  occ. eigenvalues --  -19.13195 -10.27349 -10.20435 -10.20234 -10.20105
 Alpha  occ. eigenvalues --  -10.20023 -10.19813 -10.19746 -10.18893  -1.02782
 Alpha  occ. eigenvalues --   -0.86289  -0.77570  -0.75323  -0.73305  -0.63061
 Alpha  occ. eigenvalues --   -0.61072  -0.55396  -0.51125  -0.46667  -0.45860
 Alpha  occ. eigenvalues --   -0.44906  -0.44759  -0.42861  -0.41159  -0.38957
 Alpha  occ. eigenvalues --   -0.37969  -0.35856  -0.35093  -0.34779  -0.26099
 Alpha  occ. eigenvalues --   -0.25766  -0.24493
 Alpha virt. eigenvalues --   -0.05340  -0.00931   0.03995   0.08518   0.11162
 Alpha virt. eigenvalues --    0.14144   0.14872   0.15660   0.16001   0.17867
 Alpha virt. eigenvalues --    0.18481   0.19380   0.22732   0.27178   0.29106
 Alpha virt. eigenvalues --    0.30359   0.31398   0.34977   0.37074   0.47725
 Alpha virt. eigenvalues --    0.50893   0.52009   0.52960   0.54617   0.55537
 Alpha virt. eigenvalues --    0.56439   0.58553   0.58565   0.59871   0.60018
 Alpha virt. eigenvalues --    0.60798   0.61549   0.64558   0.66361   0.67040
 Alpha virt. eigenvalues --    0.69354   0.72953   0.75318   0.77061   0.81766
 Alpha virt. eigenvalues --    0.82457   0.82875   0.84288   0.85814   0.87438
 Alpha virt. eigenvalues --    0.89631   0.90408   0.93200   0.94137   0.95754
 Alpha virt. eigenvalues --    0.98700   1.01471   1.03176   1.06388   1.08585
 Alpha virt. eigenvalues --    1.12723   1.15652   1.18182   1.23655   1.25519
 Alpha virt. eigenvalues --    1.27586   1.35356   1.40694   1.42383   1.43461
 Alpha virt. eigenvalues --    1.44707   1.47589   1.48195   1.48432   1.50358
 Alpha virt. eigenvalues --    1.65714   1.68895   1.76529   1.76978   1.80087
 Alpha virt. eigenvalues --    1.83713   1.86476   1.88171   1.90449   1.93005
 Alpha virt. eigenvalues --    1.96853   1.99199   2.03673   2.04849   2.06430
 Alpha virt. eigenvalues --    2.13554   2.14073   2.14953   2.18293   2.24027
 Alpha virt. eigenvalues --    2.27541   2.27810   2.28729   2.29744   2.39025
 Alpha virt. eigenvalues --    2.43501   2.51532   2.57670   2.58403   2.60373
 Alpha virt. eigenvalues --    2.65389   2.67123   2.73873   2.74285   2.77193
 Alpha virt. eigenvalues --    2.86715   2.96779   2.97958   3.15460   3.41460
 Alpha virt. eigenvalues --    3.96459   4.07685   4.10404   4.12314   4.21788
 Alpha virt. eigenvalues --    4.31213   4.32899   4.48691   4.70838
          Condensed to atoms (all electrons):
              1          2          3          4          5          6
     1  C    5.386776   0.314908  -0.091503  -0.127170   0.010815  -0.000102
     2  C    0.314908   4.568187   0.576662   0.280064  -0.030136   0.006933
     3  O   -0.091503   0.576662   8.031949  -0.091560   0.001408   0.001138
     4  C   -0.127170   0.280064  -0.091560   4.999181   0.490361  -0.021181
     5  C    0.010815  -0.030136   0.001408   0.490361   5.019590   0.488088
     6  C   -0.000102   0.006933   0.001138  -0.021181   0.488088   4.907834
     7  C   -0.000017   0.000120  -0.000020  -0.035870  -0.030735   0.537617
     8  C   -0.000155   0.004478  -0.000067  -0.012501  -0.041264  -0.027272
     9  C   -0.009857  -0.042703   0.004144   0.503018  -0.078332  -0.040359
    10  H    0.350207  -0.019606   0.005675   0.005398  -0.000143   0.000002
    11  H    0.350254  -0.016142   0.000774   0.000692  -0.000214   0.000000
    12  H    0.347184  -0.020615   0.002126   0.004173  -0.000517  -0.000018
    13  H    0.000692  -0.008822   0.014659  -0.042050   0.356863  -0.043793
    14  H    0.000002  -0.000139   0.000004   0.003520  -0.039736   0.360491
    15  H   -0.000000   0.000008   0.000000   0.000639   0.004491  -0.042971
    16  H    0.000010  -0.000115   0.000000   0.003525   0.000754   0.004655
    17  H    0.007737  -0.011967   0.000051  -0.039118   0.005492   0.000328
              7          8          9         10         11         12
     1  C   -0.000017  -0.000155  -0.009857   0.350207   0.350254   0.347184
     2  C    0.000120   0.004478  -0.042703  -0.019606  -0.016142  -0.020615
     3  O   -0.000020  -0.000067   0.004144   0.005675   0.000774   0.002126
     4  C   -0.035870  -0.012501   0.503018   0.005398   0.000692   0.004173
     5  C   -0.030735  -0.041264  -0.078332  -0.000143  -0.000214  -0.000517
     6  C    0.537617  -0.027272  -0.040359   0.000002   0.000000  -0.000018
     7  C    4.849373   0.550501  -0.035719   0.000000   0.000001   0.000005
     8  C    0.550501   4.864052   0.520070   0.000001   0.000104   0.000054
     9  C   -0.035719   0.520070   5.032767   0.000144   0.000437   0.000721
    10  H    0.000000   0.000001   0.000144   0.521916  -0.020974  -0.024279
    11  H    0.000001   0.000104   0.000437  -0.020974   0.533101  -0.024743
    12  H    0.000005   0.000054   0.000721  -0.024279  -0.024743   0.545590
    13  H    0.004433   0.000305   0.005582  -0.000016  -0.000012  -0.000030
    14  H   -0.043646   0.004641   0.000794  -0.000000  -0.000000   0.000000
    15  H    0.359633  -0.042723   0.004869  -0.000000   0.000000   0.000000
    16  H   -0.042696   0.358701  -0.039476  -0.000000  -0.000004  -0.000005
    17  H    0.004740  -0.045099   0.354230  -0.000079   0.001248   0.000863
             13         14         15         16         17
     1  C    0.000692   0.000002  -0.000000   0.000010   0.007737
     2  C   -0.008822  -0.000139   0.000008  -0.000115  -0.011967
     3  O    0.014659   0.000004   0.000000   0.000000   0.000051
     4  C   -0.042050   0.003520   0.000639   0.003525  -0.039118
     5  C    0.356863  -0.039736   0.004491   0.000754   0.005492
     6  C   -0.043793   0.360491  -0.042971   0.004655   0.000328
     7  C    0.004433  -0.043646   0.359633  -0.042696   0.004740
     8  C    0.000305   0.004641  -0.042723   0.358701  -0.045099
     9  C    0.005582   0.000794   0.004869  -0.039476   0.354230
    10  H   -0.000016  -0.000000  -0.000000  -0.000000  -0.000079
    11  H   -0.000012  -0.000000   0.000000  -0.000004   0.001248
    12  H   -0.000030   0.000000   0.000000  -0.000005   0.000863
    13  H    0.553550  -0.004818  -0.000164   0.000016  -0.000142
    14  H   -0.004818   0.586444  -0.005499  -0.000178   0.000017
    15  H   -0.000164  -0.005499   0.590427  -0.005578  -0.000180
    16  H    0.000016  -0.000178  -0.005578   0.590583  -0.005378
    17  H   -0.000142   0.000017  -0.000180  -0.005378   0.590568
 Mulliken atomic charges:
              1
     1  C   -0.539781
     2  C    0.398884
     3  O   -0.455440
     4  C    0.078878
     5  C   -0.156784
     6  C   -0.131389
     7  C   -0.117719
     8  C   -0.133826
     9  C   -0.180329
    10  H    0.181754
    11  H    0.175480
    12  H    0.169492
    13  H    0.163749
    14  H    0.138106
    15  H    0.137048
    16  H    0.135188
    17  H    0.136689
 Sum of Mulliken atomic charges =  -0.00000
 Mulliken charges with hydrogens summed into heavy atoms:
              1
     1  C   -0.013055
     2  C    0.398884
     3  O   -0.455440
     4  C    0.078878
     5  C    0.006965
     6  C    0.006716
     7  C    0.019330
     8  C    0.001362
     9  C   -0.043640
 Sum of Mulliken charges with hydrogens summed into heavy atoms =  -0.00000
 Electronic spatial extent (au):  <R**2>=           1230.8077
 Charge=             -0.0000 electrons
 Dipole moment (field-independent basis, Debye):
    X=              1.8484    Y=              2.3577    Z=              0.3627  Tot=              3.0178
 Quadrupole moment (field-independent basis, Debye-Ang):
   XX=            -50.3460   YY=            -50.0673   ZZ=            -54.0090
   XY=             -6.2697   XZ=             -0.7637   YZ=             -1.1482
 Traceless Quadrupole moment (field-independent basis, Debye-Ang):
   XX=              1.1281   YY=              1.4068   ZZ=             -2.5349
   XY=             -6.2697   XZ=             -0.7637   YZ=             -1.1482
 Octapole moment (field-independent basis, Debye-Ang**2):
  XXX=             13.5579  YYY=             -0.4671  ZZZ=             -0.6016  XYY=              8.6894
  XXY=             12.5759  XXZ=              2.2846  XZZ=             -8.9084  YZZ=             -0.9686
  YYZ=              0.2566  XYZ=              0.8071
 Hexadecapole moment (field-independent basis, Debye-Ang**3):
 XXXX=          -1086.3861 YYYY=           -399.7009 ZZZZ=            -64.1180 XXXY=            -23.1892
 XXXZ=             -3.8903 YYYX=             -0.6872 YYYZ=             -4.2981 ZZZX=              1.5018
 ZZZY=              1.7213 XXYY=           -263.3688 XXZZ=           -207.9835 YYZZ=            -83.3375
 XXYZ=             -4.9850 YYXZ=             -0.1016 ZZXY=              1.2744
 N-N= 4.010750019314D+02 E-N=-1.696197891970D+03  KE= 3.812393936560D+02
 No NMR shielding tensors so no spin-rotation constants.
 Leave Link  601 at Mon Oct  4 08:37:13 2021, MaxMem=  536870912 cpu:       0.4
 (Enter /sw/target/amd/app/gaussian/Gaussian09RevA.02_gcc-4.9.2/g09/l701.exe)
 Compute integral first derivatives.
 ... and contract with generalized density number  0.
 Leave Link  701 at Mon Oct  4 08:37:16 2021, MaxMem=  536870912 cpu:       0.5
 (Enter /sw/target/amd/app/gaussian/Gaussian09RevA.02_gcc-4.9.2/g09/l702.exe)
 L702 exits ... SP integral derivatives will be done elsewhere.
 Leave Link  702 at Mon Oct  4 08:37:17 2021, MaxMem=  536870912 cpu:       0.0
 (Enter /sw/target/amd/app/gaussian/Gaussian09RevA.02_gcc-4.9.2/g09/l703.exe)
 Compute integral first derivatives, UseDBF=F ICtDFT=           0.
 Integral derivatives from FoFDir, PRISM(SPDF).
 Calling FoFJK, ICntrl=      2127 FMM=F ISym2X=0 I1Cent= 0 IOpClX= 0 NMat=1 NMatS=1 NMatT=0.
 FoFCou: FMM=F IPFlag=           0 FMFlag=      100000 FMFlg1=         800
         NFxFlg=           0 DoJE=F BraDBF=F KetDBF=F FulRan=T
         Omega=  0.000000  0.000000  1.000000  0.000000  0.000000 ICntrl=    2127 IOpCl=  0
         NMat0=    1 NMatS0=    1 NMatT0=    0 NMatD0=    1 NMtDS0=    0 NMtDT0=    0
         I1Cent=           0 NGrid=           0.
 Symmetry not used in FoFCou.
 Leave Link  703 at Mon Oct  4 08:39:15 2021, MaxMem=  536870912 cpu:      30.6
 (Enter /sw/target/amd/app/gaussian/Gaussian09RevA.02_gcc-4.9.2/g09/l716.exe)
 Dipole        = 7.27235697D-01 9.27602601D-01 1.42694301D-01
 ***** Axes restored to original set *****
 -------------------------------------------------------------------
 Center     Atomic                   Forces (Hartrees/Bohr)
 Number     Number              X              Y              Z
 -------------------------------------------------------------------
      1        6          -0.008880788   -0.000509868   -0.005416525
      2        6          -0.011642993   -0.011179725    0.009661743
      3        8           0.006105659    0.006746867   -0.004746262
      4        6          -0.000554319   -0.000330384   -0.001583766
      5        6           0.000565796    0.001267075    0.008964479
      6        6          -0.003835162   -0.002591269   -0.002013743
      7        6           0.002570875    0.001521078    0.001211451
      8        6           0.000808007   -0.000485918   -0.002140726
      9        6           0.005247034    0.004701338    0.004529499
     10        1           0.001383934   -0.001980596    0.001879190
     11        1           0.003492560    0.002832783   -0.002169082
     12        1           0.005671390    0.000963163   -0.001654454
     13        1           0.001852598    0.000178258   -0.004543777
     14        1          -0.000033900    0.000010668   -0.000489379
     15        1           0.000033551    0.000088858   -0.000443661
     16        1          -0.000530335   -0.000464642   -0.000379750
     17        1          -0.002253906   -0.000767684   -0.000665237
 -------------------------------------------------------------------
 Cartesian Forces:  Max     0.011642993 RMS     0.004120317
 Leave Link  716 at Mon Oct  4 08:39:18 2021, MaxMem=  536870912 cpu:       0.1
 (Enter /sw/target/amd/app/gaussian/Gaussian09RevA.02_gcc-4.9.2/g09/l103.exe)

 GradGradGradGradGradGradGradGradGradGradGradGradGradGradGradGradGradGrad
 Berny optimization.
 Internal  Forces:  Max     0.009941328 RMS     0.002230895
 Search for a local minimum.
 Step number   1 out of a maximum of   88
 All quantities printed in internal units (Hartrees-Bohrs-Radians)
 RMS Force = .22309D-02 SwitMx=.10000D-02 MixMth= 1
 Mixed Optimization -- RFO/linear search
 Second derivative matrix not updated -- first step.
     Eigenvalues ---    0.00684   0.00759   0.00874   0.01708   0.02084
     Eigenvalues ---    0.02102   0.02108   0.02127   0.02140   0.02156
     Eigenvalues ---    0.02159   0.02168   0.07254   0.07548   0.15999
     Eigenvalues ---    0.16000   0.16000   0.16000   0.16000   0.16000
     Eigenvalues ---    0.16000   0.16000   0.22000   0.22000   0.23479
     Eigenvalues ---    0.25000   0.25000   0.25000   0.31740   0.33254
     Eigenvalues ---    0.34290   0.34450   0.34498   0.34965   0.35098
     Eigenvalues ---    0.35113   0.35132   0.35299   0.41785   0.41957
     Eigenvalues ---    0.45606   0.46110   0.46161   0.46555   0.91207
     Eigenvalues --- 1000.000001000.000001000.000001000.000001000.00000
     Eigenvalues --- 1000.000001000.000001000.000001000.000001000.00000
     Eigenvalues --- 1000.000001000.000001000.000001000.000001000.00000
     Eigenvalues --- 1000.000001000.000001000.000001000.000001000.00000
     Eigenvalues --- 1000.000001000.000001000.000001000.000001000.00000
     Eigenvalues --- 1000.000001000.000001000.000001000.000001000.00000
     Eigenvalues --- 1000.000001000.000001000.00000
 RFO step:  Lambda=-1.91608182D-03 EMin= 6.84495229D-03
 Linear search not attempted -- first point.
 Iteration  1 RMS(Cart)=  0.05095922 RMS(Int)=  0.00115870
 Iteration  2 RMS(Cart)=  0.00159469 RMS(Int)=  0.00003839
 Iteration  3 RMS(Cart)=  0.00000090 RMS(Int)=  0.00003839
 Variable       Old X    -DE/DX   Delta X   Delta X   Delta X     New X
                                 (Linear)    (Quad)   (Total)
    R1        2.84623   0.00765   0.00000   0.02396   0.02396   2.87019
    R2        2.06843  -0.00137   0.00000  -0.00398  -0.00398   2.06445
    R3        2.06498   0.00228   0.00000   0.00657   0.00657   2.07155
    R4        2.06577   0.00151   0.00000   0.00437   0.00437   2.07014
    R5        2.32381  -0.00994   0.00000  -0.01088  -0.01088   2.31294
    R6        2.81908   0.00527   0.00000   0.01575   0.01575   2.83484
    R7        2.64833   0.00091   0.00000   0.00182   0.00182   2.65015
    R8        2.64610   0.00283   0.00000   0.00605   0.00605   2.65215
    R9        2.63797  -0.00258   0.00000  -0.00558  -0.00558   2.63239
   R10        2.05732  -0.00275   0.00000  -0.00782  -0.00782   2.04950
   R11        2.63359   0.00386   0.00000   0.00836   0.00836   2.64195
   R12        2.05460  -0.00045   0.00000  -0.00129  -0.00129   2.05332
   R13        2.63517   0.00128   0.00000   0.00290   0.00290   2.63807
   R14        2.05491  -0.00026   0.00000  -0.00075  -0.00075   2.05416
   R15        2.64118  -0.00185   0.00000  -0.00397  -0.00398   2.63721
   R16        2.05516  -0.00058   0.00000  -0.00165  -0.00165   2.05351
   R17        2.05193  -0.00018   0.00000  -0.00052  -0.00052   2.05141
    A1        1.90436  -0.00217   0.00000  -0.00577  -0.00587   1.89848
    A2        1.92343   0.00244   0.00000   0.00763   0.00765   1.93108
    A3        1.92678   0.00322   0.00000   0.01942   0.01934   1.94613
    A4        1.89427  -0.00011   0.00000  -0.00017  -0.00016   1.89411
    A5        1.87829   0.00217   0.00000   0.02831   0.02811   1.90641
    A6        1.93561  -0.00559   0.00000  -0.04881  -0.04876   1.88685
    A7        2.11489  -0.00263   0.00000  -0.01044  -0.01045   2.10443
    A8        2.07481   0.00022   0.00000   0.00088   0.00087   2.07569
    A9        2.09348   0.00241   0.00000   0.00955   0.00954   2.10302
   A10        2.06748  -0.00049   0.00000  -0.00159  -0.00159   2.06589
   A11        2.13119   0.00203   0.00000   0.00840   0.00839   2.13959
   A12        2.08451  -0.00155   0.00000  -0.00682  -0.00683   2.07767
   A13        2.10034   0.00079   0.00000   0.00299   0.00298   2.10332
   A14        2.09887  -0.00457   0.00000  -0.02730  -0.02731   2.07156
   A15        2.08397   0.00379   0.00000   0.02434   0.02433   2.10830
   A16        2.09375   0.00035   0.00000   0.00166   0.00165   2.09540
   A17        2.09265  -0.00034   0.00000  -0.00184  -0.00184   2.09081
   A18        2.09679  -0.00001   0.00000   0.00019   0.00019   2.09697
   A19        2.09489  -0.00055   0.00000  -0.00199  -0.00200   2.09288
   A20        2.09329   0.00063   0.00000   0.00323   0.00323   2.09652
   A21        2.09500  -0.00009   0.00000  -0.00122  -0.00122   2.09378
   A22        2.09773  -0.00078   0.00000  -0.00325  -0.00326   2.09447
   A23        2.09115   0.00095   0.00000   0.00508   0.00508   2.09623
   A24        2.09430  -0.00017   0.00000  -0.00182  -0.00182   2.09248
   A25        2.09511   0.00173   0.00000   0.00744   0.00743   2.10254
   A26        2.12226  -0.00333   0.00000  -0.01896  -0.01896   2.10330
   A27        2.06577   0.00160   0.00000   0.01152   0.01152   2.07729
    D1        0.18484  -0.00131   0.00000  -0.04045  -0.04051   0.14433
    D2       -2.95536  -0.00123   0.00000  -0.03197  -0.03208  -2.98743
    D3       -1.89344  -0.00131   0.00000  -0.04129  -0.04128  -1.93472
    D4        1.24955  -0.00123   0.00000  -0.03281  -0.03285   1.21670
    D5        2.24560   0.00192   0.00000   0.00206   0.00218   2.24778
    D6       -0.89459   0.00200   0.00000   0.01053   0.01061  -0.88398
    D7        2.92151   0.00096   0.00000   0.08759   0.08757   3.00908
    D8       -0.22317   0.00085   0.00000   0.08147   0.08143  -0.14174
    D9       -0.21870   0.00105   0.00000   0.09597   0.09601  -0.12269
   D10        2.91980   0.00093   0.00000   0.08985   0.08987   3.00967
   D11       -3.13417  -0.00021   0.00000  -0.01007  -0.01001   3.13901
   D12        0.00251  -0.00008   0.00000  -0.00481  -0.00484  -0.00233
   D13        0.01043  -0.00010   0.00000  -0.00414  -0.00412   0.00631
   D14       -3.13608   0.00002   0.00000   0.00111   0.00105  -3.13503
   D15        3.13780   0.00038   0.00000   0.01728   0.01729  -3.12810
   D16       -0.01422   0.00038   0.00000   0.01689   0.01689   0.00267
   D17       -0.00691   0.00027   0.00000   0.01112   0.01111   0.00420
   D18        3.12426   0.00027   0.00000   0.01072   0.01072   3.13497
   D19       -0.00630  -0.00008   0.00000  -0.00351  -0.00349  -0.00979
   D20        3.13619  -0.00004   0.00000  -0.00128  -0.00127   3.13492
   D21        3.14017  -0.00019   0.00000  -0.00858  -0.00862   3.13155
   D22       -0.00053  -0.00014   0.00000  -0.00635  -0.00640  -0.00693
   D23       -0.00141   0.00010   0.00000   0.00414   0.00412   0.00271
   D24       -3.13970   0.00001   0.00000   0.00032   0.00030  -3.13940
   D25        3.13929   0.00005   0.00000   0.00190   0.00189   3.14117
   D26        0.00100  -0.00004   0.00000  -0.00191  -0.00193  -0.00093
   D27        0.00491   0.00006   0.00000   0.00286   0.00284   0.00776
   D28       -3.13438  -0.00006   0.00000  -0.00288  -0.00290  -3.13727
   D29       -3.13999   0.00016   0.00000   0.00668   0.00666  -3.13332
   D30        0.00391   0.00003   0.00000   0.00095   0.00092   0.00483
   D31       -0.00071  -0.00025   0.00000  -0.01052  -0.01052  -0.01124
   D32       -3.13222  -0.00022   0.00000  -0.00996  -0.00995   3.14102
   D33        3.13857  -0.00011   0.00000  -0.00476  -0.00479   3.13379
   D34        0.00707  -0.00009   0.00000  -0.00420  -0.00421   0.00285
         Item               Value     Threshold  Converged?
 Maximum Force            0.009941     0.000450     NO 
 RMS     Force            0.002231     0.000300     NO 
 Maximum Displacement     0.174041     0.001800     NO 
 RMS     Displacement     0.051140     0.001200     NO 
 Predicted change in Energy=-1.003160D-03
 GradGradGradGradGradGradGradGradGradGradGradGradGradGradGradGradGradGrad

 Leave Link  103 at Mon Oct  4 08:39:23 2021, MaxMem=  536870912 cpu:       1.0
 (Enter /sw/target/amd/app/gaussian/Gaussian09RevA.02_gcc-4.9.2/g09/l202.exe)
                          Input orientation:                          
 ---------------------------------------------------------------------
 Center     Atomic      Atomic             Coordinates (Angstroms)
 Number     Number       Type             X           Y           Z
 ---------------------------------------------------------------------
      1          6           0        2.810242    0.473024   -1.599523
      2          6           0        2.477257    0.255655   -0.133664
      3          8           0        1.514966   -0.427192    0.191573
      4          6           0        3.339525    0.902052    0.909918
      5          6           0        2.931523    0.829604    2.249698
      6          6           0        3.699808    1.411580    3.255431
      7          6           0        4.893898    2.064467    2.935344
      8          6           0        5.313882    2.135318    1.605900
      9          6           0        4.537505    1.562975    0.597326
     10          1           0        1.998734    0.067663   -2.208297
     11          1           0        3.738304   -0.045946   -1.866091
     12          1           0        2.936885    1.536648   -1.829123
     13          1           0        2.007991    0.312180    2.485504
     14          1           0        3.369505    1.353833    4.288968
     15          1           0        5.495265    2.517198    3.719562
     16          1           0        6.243507    2.638529    1.354045
     17          1           0        4.878998    1.627912   -0.431074
 ---------------------------------------------------------------------
                    Distance matrix (angstroms):
                    1          2          3          4          5
     1  C    0.000000
     2  C    1.518839   0.000000
     3  O    2.386662   1.223954   0.000000
     4  C    2.600288   1.500132   2.368950   0.000000
     5  C    3.867604   2.493229   2.796793   1.402400   0.000000
     6  C    5.024221   3.783749   4.188298   2.427109   1.393003
     7  C    5.238257   4.304738   5.015359   2.805288   2.417832
     8  C    4.393879   3.821735   4.795680   2.429696   2.791952
     9  C    2.999596   2.547166   3.641585   1.403456   2.418128
    10  H    1.092460   2.137388   2.497657   3.495309   4.617832
    11  H    1.096215   2.163910   3.053287   2.960396   4.284530
    12  H    1.095469   2.174116   3.156221   2.840277   4.139652
    13  H    4.166164   2.661474   2.460054   2.145554   1.084548
    14  H    5.980211   4.643466   4.837356   3.409250   2.150644
    15  H    6.299260   5.391689   6.079386   3.892303   3.403124
    16  H    5.019989   4.698511   5.754050   3.412582   3.878613
    17  H    2.641740   2.782068   3.990971   2.166820   3.408297
                    6          7          8          9         10
     6  C    0.000000
     7  C    1.398059   0.000000
     8  C    2.418674   1.396004   0.000000
     9  C    2.791089   2.417610   1.395550   0.000000
    10  H    5.878103   6.231071   5.460175   4.068518   0.000000
    11  H    5.325021   5.370570   4.392617   3.048897   1.776546
    12  H    5.142993   5.177706   4.219941   2.906945   1.783765
    13  H    2.159563   3.406072   3.876396   3.395312   4.700175
    14  H    1.086570   2.158952   3.404434   3.877652   6.763705
    15  H    2.159046   1.087017   2.155528   3.402382   7.305168
    16  H    3.404568   2.156734   1.086672   2.154039   6.108824
    17  H    3.876546   3.394639   2.143793   1.085560   3.726771
                   11         12         13         14         15
    11  H    0.000000
    12  H    1.774329   0.000000
    13  H    4.696660   4.580193   0.000000
    14  H    6.322986   6.136091   2.488221   0.000000
    15  H    6.391881   6.188270   4.306517   2.489277   0.000000
    16  H    4.883823   4.720217   4.963033   4.303964   2.484001
    17  H    2.482390   2.394717   4.298867   4.963112   4.289335
                   16         17
    16  H    0.000000
    17  H    2.463713   0.000000
 Stoichiometry    C8H8O
 Framework group  C1[X(C8H8O)]
 Deg. of freedom    45
 Full point group                 C1      NOp   1
 Largest Abelian subgroup         C1      NOp   1
 Largest concise Abelian subgroup C1      NOp   1
                         Standard orientation:                         
 ---------------------------------------------------------------------
 Center     Atomic      Atomic             Coordinates (Angstroms)
 Number     Number       Type             X           Y           Z
 ---------------------------------------------------------------------
      1          6           0       -2.559317    1.045197    0.103124
      2          6           0       -1.699111   -0.200702   -0.017919
      3          8           0       -2.214941   -1.306433   -0.114579
      4          6           0       -0.206059   -0.055774   -0.004282
      5          6           0        0.575834   -1.218868    0.046535
      6          6           0        1.966343   -1.136353    0.057984
      7          6           0        2.594201    0.111746    0.006875
      8          6           0        1.825755    1.275708   -0.052393
      9          6           0        0.432656    1.193038   -0.051207
     10          1           0       -3.600755    0.742124    0.233594
     11          1           0       -2.485304    1.655592   -0.804415
     12          1           0       -2.253911    1.662870    0.954746
     13          1           0        0.076414   -2.181121    0.076405
     14          1           0        2.560745   -2.044769    0.103801
     15          1           0        3.679221    0.177256    0.013692
     16          1           0        2.310548    2.247256   -0.096277
     17          1           0       -0.149243    2.108306   -0.097219
 ---------------------------------------------------------------------
 Rotational constants (GHZ):      3.6802389      1.2084896      0.9167849
 Leave Link  202 at Mon Oct  4 08:39:23 2021, MaxMem=  536870912 cpu:       0.0
 (Enter /sw/target/amd/app/gaussian/Gaussian09RevA.02_gcc-4.9.2/g09/l301.exe)
 Standard basis: 6-31G(d) (6D, 7F)
 Ernie: Thresh=  0.10000D-02 Tol=  0.10000D-05 Strict=F.
 There are   151 symmetry adapted basis functions of A   symmetry.
 Integral buffers will be    131072 words long.
 Raffenetti 2 integral format.
 Two-electron integral symmetry is turned on.
   151 basis functions,   284 primitive gaussians,   151 cartesian basis functions
    32 alpha electrons       32 beta electrons
       nuclear repulsion energy       400.3803952405 Hartrees.
 IExCor=  402 DFT=T Ex+Corr=B3LYP ExCW=0 ScaHFX=  0.200000
 ScaDFX=  0.800000  0.720000  1.000000  0.810000 ScalE2=  1.000000  1.000000
 IRadAn=      0 IRanWt=     -1 IRanGd=            0 ICorTp=0
 NAtoms=   17 NActive=   17 NUniq=   17 SFac= 7.50D-01 NAtFMM=   80 NAOKFM=F Big=F
 Leave Link  301 at Mon Oct  4 08:39:23 2021, MaxMem=  536870912 cpu:       0.1
 (Enter /sw/target/amd/app/gaussian/Gaussian09RevA.02_gcc-4.9.2/g09/l302.exe)
 NPDir=0 NMtPBC=     1 NCelOv=     1 NCel=       1 NClECP=     1 NCelD=      1
         NCelK=      1 NCelE2=     1 NClLst=     1 CellRange=     0.0.
 One-electron integrals computed using PRISM.
 NBasis=   151 RedAO= T  NBF=   151
 NBsUse=   151 1.00D-06 NBFU=   151
 Precomputing XC quadrature grid using
 IXCGrd= 2 IRadAn=           0 IRanWt=          -1 IRanGd=           0 AccXCQ= 1.00D-10.
 NRdTot=    1063 NPtTot=      134838 NUsed=      142513 NTot=      142545
 NSgBfM=   151   151   151   151   151 NAtAll=    17    17.
 Leave Link  302 at Mon Oct  4 08:39:27 2021, MaxMem=  536870912 cpu:       0.8
 (Enter /sw/target/amd/app/gaussian/Gaussian09RevA.02_gcc-4.9.2/g09/l303.exe)
 DipDrv:  MaxL=1.
 Leave Link  303 at Mon Oct  4 08:39:28 2021, MaxMem=  536870912 cpu:       0.1
 (Enter /sw/target/amd/app/gaussian/Gaussian09RevA.02_gcc-4.9.2/g09/l401.exe)
 Initial guess read from the read-write file.
 B after Tr=     0.000000    0.000000    0.000000
         Rot=    1.000000    0.000000    0.000000    0.000000 Ang=   0.00 deg.
 Guess basis will be translated and rotated to current coordinates.
 Initial guess orbital symmetries:
       Occupied  (A) (A) (A) (A) (A) (A) (A) (A) (A) (A) (A) (A)
                 (A) (A) (A) (A) (A) (A) (A) (A) (A) (A) (A) (A)
                 (A) (A) (A) (A) (A) (A) (A) (A)
       Virtual   (A) (A) (A) (A) (A) (A) (A) (A) (A) (A) (A) (A)
                 (A) (A) (A) (A) (A) (A) (A) (A) (A) (A) (A) (A)
                 (A) (A) (A) (A) (A) (A) (A) (A) (A) (A) (A) (A)
                 (A) (A) (A) (A) (A) (A) (A) (A) (A) (A) (A) (A)
                 (A) (A) (A) (A) (A) (A) (A) (A) (A) (A) (A) (A)
                 (A) (A) (A) (A) (A) (A) (A) (A) (A) (A) (A) (A)
                 (A) (A) (A) (A) (A) (A) (A) (A) (A) (A) (A) (A)
                 (A) (A) (A) (A) (A) (A) (A) (A) (A) (A) (A) (A)
                 (A) (A) (A) (A) (A) (A) (A) (A) (A) (A) (A) (A)
                 (A) (A) (A) (A) (A) (A) (A) (A) (A) (A) (A)
 The electronic state of the initial guess is 1-A.
 Generating alternative initial guess.
 Harris functional with IExCor=  402 diagonalized for initial guess.
 ExpMin= 1.61D-01 ExpMax= 5.48D+03 ExpMxC= 8.25D+02 IAcc=1 IRadAn=         1 AccDes= 0.00D+00
 HarFok:  IExCor=  402 AccDes= 0.00D+00 IRadAn=         1 IDoV= 1
 ScaDFX=  1.000000  1.000000  1.000000  1.000000
 FoFCou: FMM=F IPFlag=           0 FMFlag=      100000 FMFlg1=           0
         NFxFlg=           0 DoJE=T BraDBF=F KetDBF=T FulRan=T
         Omega=  0.000000  0.000000  1.000000  0.000000  0.000000 ICntrl=     500 IOpCl=  0
         NMat0=    1 NMatS0=    1 NMatT0=    0 NMatD0=    1 NMtDS0=    0 NMtDT0=    0
         I1Cent=           4 NGrid=           0.
 Petite list used in FoFCou.
 Harris En= -384.962768699171    
 Leave Link  401 at Mon Oct  4 08:39:44 2021, MaxMem=  536870912 cpu:       4.2
 (Enter /sw/target/amd/app/gaussian/Gaussian09RevA.02_gcc-4.9.2/g09/l502.exe)
 Closed shell SCF:
 Requested convergence on RMS density matrix=1.00D-08 within  64 cycles.
 Requested convergence on MAX density matrix=1.00D-06.
 Requested convergence on             energy=1.00D-06.
 No special actions if energy rises.
 Using DIIS extrapolation, IDIIS=  1040.
 Integral symmetry usage will be decided dynamically.
       142347 words used for storage of precomputed grid.
 Keep R1 ints in memory in canonical form, NReq=67829205.
 IEnd=      218337 IEndB=      218337 NGot=   536870912 MDV=   470824698
 LenX=   470824698 LenY=   470801456
 Symmetry not used in FoFDir.
 MinBra= 0 MaxBra= 2 Meth= 1.
 IRaf=       0 NMat=   1 IRICut=       1 DoRegI=T DoRafI=F ISym2E= 0 JSym2E=0.
 Integral accuracy reduced to 1.0D-05 until final iterations.

 Cycle   1  Pass 0  IDiag  1:
 E= -384.890791931952    
 DIIS: error= 3.81D-03 at cycle   1 NSaved=   1.
 NSaved= 1 IEnMin= 1 EnMin= -384.890791931952     IErMin= 1 ErrMin= 3.81D-03
 ErrMax= 3.81D-03 EMaxC= 1.00D-01 BMatC= 2.27D-03 BMatP= 2.27D-03
 IDIUse=3 WtCom= 9.62D-01 WtEn= 3.81D-02
 Coeff-Com:  0.100D+01
 Coeff-En:   0.100D+01
 Coeff:      0.100D+01
 Gap=     0.201 Goal=   None    Shift=    0.000
 GapD=    0.201 DampG=1.000 DampE=1.000 DampFc=1.0000 IDamp=-1.
 RMSDP=5.82D-04 MaxDP=1.73D-02              OVMax= 2.70D-02

 Cycle   2  Pass 0  IDiag  1:
 E= -384.895555967786     Delta-E=       -0.004764035834 Rises=F Damp=F
 DIIS: error= 6.69D-04 at cycle   2 NSaved=   2.
 NSaved= 2 IEnMin= 2 EnMin= -384.895555967786     IErMin= 2 ErrMin= 6.69D-04
 ErrMax= 6.69D-04 EMaxC= 1.00D-01 BMatC= 8.96D-05 BMatP= 2.27D-03
 IDIUse=3 WtCom= 9.93D-01 WtEn= 6.69D-03
 Coeff-Com: -0.330D-01 0.103D+01
 Coeff-En:   0.000D+00 0.100D+01
 Coeff:     -0.328D-01 0.103D+01
 Gap=     0.191 Goal=   None    Shift=    0.000
 RMSDP=1.54D-04 MaxDP=5.21D-03 DE=-4.76D-03 OVMax= 6.36D-03

 Cycle   3  Pass 0  IDiag  1:
 E= -384.895471215304     Delta-E=        0.000084752483 Rises=F Damp=F
 DIIS: error= 1.89D-03 at cycle   3 NSaved=   3.
 NSaved= 3 IEnMin= 2 EnMin= -384.895555967786     IErMin= 2 ErrMin= 6.69D-04
 ErrMax= 1.89D-03 EMaxC= 1.00D-01 BMatC= 2.58D-04 BMatP= 8.96D-05
 IDIUse=3 WtCom= 1.87D-01 WtEn= 8.13D-01
 Coeff-Com: -0.537D-01 0.689D+00 0.365D+00
 Coeff-En:   0.000D+00 0.651D+00 0.349D+00
 Coeff:     -0.100D-01 0.658D+00 0.352D+00
 Gap=     0.193 Goal=   None    Shift=    0.000
 RMSDP=1.13D-04 MaxDP=4.31D-03 DE= 8.48D-05 OVMax= 5.27D-03

 Cycle   4  Pass 0  IDiag  1:
 E= -384.895668120039     Delta-E=       -0.000196904736 Rises=F Damp=F
 DIIS: error= 3.79D-04 at cycle   4 NSaved=   4.
 NSaved= 4 IEnMin= 4 EnMin= -384.895668120039     IErMin= 4 ErrMin= 3.79D-04
 ErrMax= 3.79D-04 EMaxC= 1.00D-01 BMatC= 9.42D-06 BMatP= 8.96D-05
 IDIUse=3 WtCom= 9.96D-01 WtEn= 3.79D-03
 Coeff-Com: -0.185D-01 0.164D+00 0.190D+00 0.665D+00
 Coeff-En:   0.000D+00 0.000D+00 0.000D+00 0.100D+01
 Coeff:     -0.184D-01 0.163D+00 0.189D+00 0.667D+00
 Gap=     0.193 Goal=   None    Shift=    0.000
 RMSDP=2.56D-05 MaxDP=8.06D-04 DE=-1.97D-04 OVMax= 9.13D-04

 Cycle   5  Pass 0  IDiag  1:
 E= -384.895675693566     Delta-E=       -0.000007573527 Rises=F Damp=F
 DIIS: error= 7.07D-05 at cycle   5 NSaved=   5.
 NSaved= 5 IEnMin= 5 EnMin= -384.895675693566     IErMin= 5 ErrMin= 7.07D-05
 ErrMax= 7.07D-05 EMaxC= 1.00D-01 BMatC= 8.24D-07 BMatP= 9.42D-06
 IDIUse=1 WtCom= 1.00D+00 WtEn= 0.00D+00
 Coeff-Com: -0.526D-02 0.304D-01 0.704D-01 0.348D+00 0.557D+00
 Coeff:     -0.526D-02 0.304D-01 0.704D-01 0.348D+00 0.557D+00
 Gap=     0.193 Goal=   None    Shift=    0.000
 RMSDP=7.50D-06 MaxDP=1.66D-04 DE=-7.57D-06 OVMax= 3.40D-04

 Initial convergence to 1.0D-05 achieved.  Increase integral accuracy.
 Cycle   6  Pass 1  IDiag  1:
 E= -384.895699864570     Delta-E=       -0.000024171004 Rises=F Damp=F
 DIIS: error= 3.45D-05 at cycle   1 NSaved=   1.
 NSaved= 1 IEnMin= 1 EnMin= -384.895699864570     IErMin= 1 ErrMin= 3.45D-05
 ErrMax= 3.45D-05 EMaxC= 1.00D-01 BMatC= 1.19D-07 BMatP= 1.19D-07
 IDIUse=1 WtCom= 1.00D+00 WtEn= 0.00D+00
 Coeff-Com:  0.100D+01
 Coeff:      0.100D+01
 Gap=     0.193 Goal=   None    Shift=    0.000
 RMSDP=7.50D-06 MaxDP=1.66D-04 DE=-2.42D-05 OVMax= 3.43D-04

 Cycle   7  Pass 1  IDiag  1:
 E= -384.895699717235     Delta-E=        0.000000147336 Rises=F Damp=F
 DIIS: error= 6.79D-05 at cycle   2 NSaved=   2.
 NSaved= 2 IEnMin= 1 EnMin= -384.895699864570     IErMin= 1 ErrMin= 3.45D-05
 ErrMax= 6.79D-05 EMaxC= 1.00D-01 BMatC= 2.64D-07 BMatP= 1.19D-07
 IDIUse=1 WtCom= 1.00D+00 WtEn= 0.00D+00
 Coeff-Com:  0.609D+00 0.391D+00
 Coeff:      0.609D+00 0.391D+00
 Gap=     0.193 Goal=   None    Shift=    0.000
 RMSDP=4.15D-06 MaxDP=1.06D-04 DE= 1.47D-07 OVMax= 2.56D-04

 Cycle   8  Pass 1  IDiag  1:
 E= -384.895700009430     Delta-E=       -0.000000292196 Rises=F Damp=F
 DIIS: error= 1.11D-05 at cycle   3 NSaved=   3.
 NSaved= 3 IEnMin= 3 EnMin= -384.895700009430     IErMin= 3 ErrMin= 1.11D-05
 ErrMax= 1.11D-05 EMaxC= 1.00D-01 BMatC= 8.07D-09 BMatP= 1.19D-07
 IDIUse=1 WtCom= 1.00D+00 WtEn= 0.00D+00
 Coeff-Com:  0.899D-01 0.158D+00 0.752D+00
 Coeff:      0.899D-01 0.158D+00 0.752D+00
 Gap=     0.193 Goal=   None    Shift=    0.000
 RMSDP=9.72D-07 MaxDP=2.29D-05 DE=-2.92D-07 OVMax= 5.05D-05

 Cycle   9  Pass 1  IDiag  1:
 E= -384.895700015686     Delta-E=       -0.000000006256 Rises=F Damp=F
 DIIS: error= 5.15D-06 at cycle   4 NSaved=   4.
 NSaved= 4 IEnMin= 4 EnMin= -384.895700015686     IErMin= 4 ErrMin= 5.15D-06
 ErrMax= 5.15D-06 EMaxC= 1.00D-01 BMatC= 3.54D-09 BMatP= 8.07D-09
 IDIUse=1 WtCom= 1.00D+00 WtEn= 0.00D+00
 Coeff-Com: -0.719D-02 0.617D-01 0.490D+00 0.456D+00
 Coeff:     -0.719D-02 0.617D-01 0.490D+00 0.456D+00
 Gap=     0.193 Goal=   None    Shift=    0.000
 RMSDP=4.23D-07 MaxDP=1.10D-05 DE=-6.26D-09 OVMax= 1.63D-05

 Cycle  10  Pass 1  IDiag  1:
 E= -384.895700018776     Delta-E=       -0.000000003090 Rises=F Damp=F
 DIIS: error= 1.76D-06 at cycle   5 NSaved=   5.
 NSaved= 5 IEnMin= 5 EnMin= -384.895700018776     IErMin= 5 ErrMin= 1.76D-06
 ErrMax= 1.76D-06 EMaxC= 1.00D-01 BMatC= 2.46D-10 BMatP= 3.54D-09
 IDIUse=1 WtCom= 1.00D+00 WtEn= 0.00D+00
 Coeff-Com: -0.128D-01 0.226D-01 0.226D+00 0.273D+00 0.492D+00
 Coeff:     -0.128D-01 0.226D-01 0.226D+00 0.273D+00 0.492D+00
 Gap=     0.193 Goal=   None    Shift=    0.000
 RMSDP=1.33D-07 MaxDP=4.93D-06 DE=-3.09D-09 OVMax= 5.10D-06

 Cycle  11  Pass 1  IDiag  1:
 E= -384.895700018968     Delta-E=       -0.000000000192 Rises=F Damp=F
 DIIS: error= 5.18D-07 at cycle   6 NSaved=   6.
 NSaved= 6 IEnMin= 6 EnMin= -384.895700018968     IErMin= 6 ErrMin= 5.18D-07
 ErrMax= 5.18D-07 EMaxC= 1.00D-01 BMatC= 3.24D-11 BMatP= 2.46D-10
 IDIUse=1 WtCom= 1.00D+00 WtEn= 0.00D+00
 Coeff-Com: -0.705D-02 0.488D-02 0.668D-01 0.103D+00 0.302D+00 0.531D+00
 Coeff:     -0.705D-02 0.488D-02 0.668D-01 0.103D+00 0.302D+00 0.531D+00
 Gap=     0.193 Goal=   None    Shift=    0.000
 RMSDP=4.89D-08 MaxDP=1.26D-06 DE=-1.92D-10 OVMax= 2.31D-06

 Cycle  12  Pass 1  IDiag  1:
 E= -384.895700018984     Delta-E=       -0.000000000016 Rises=F Damp=F
 DIIS: error= 7.01D-08 at cycle   7 NSaved=   7.
 NSaved= 7 IEnMin= 7 EnMin= -384.895700018984     IErMin= 7 ErrMin= 7.01D-08
 ErrMax= 7.01D-08 EMaxC= 1.00D-01 BMatC= 1.13D-12 BMatP= 3.24D-11
 IDIUse=1 WtCom= 1.00D+00 WtEn= 0.00D+00
 Coeff-Com: -0.126D-03-0.202D-02-0.150D-01-0.124D-01 0.150D-02 0.137D+00
 Coeff-Com:  0.891D+00
 Coeff:     -0.126D-03-0.202D-02-0.150D-01-0.124D-01 0.150D-02 0.137D+00
 Coeff:      0.891D+00
 Gap=     0.193 Goal=   None    Shift=    0.000
 RMSDP=1.89D-08 MaxDP=4.35D-07 DE=-1.63D-11 OVMax= 1.68D-06

 Cycle  13  Pass 1  IDiag  1:
 E= -384.895700018994     Delta-E=       -0.000000000010 Rises=F Damp=F
 DIIS: error= 6.54D-08 at cycle   8 NSaved=   8.
 NSaved= 8 IEnMin= 8 EnMin= -384.895700018994     IErMin= 8 ErrMin= 6.54D-08
 ErrMax= 6.54D-08 EMaxC= 1.00D-01 BMatC= 3.60D-13 BMatP= 1.13D-12
 IDIUse=1 WtCom= 1.00D+00 WtEn= 0.00D+00
 Coeff-Com:  0.648D-03-0.149D-02-0.140D-01-0.164D-01-0.281D-01 0.197D-01
 Coeff-Com:  0.461D+00 0.579D+00
 Coeff:      0.648D-03-0.149D-02-0.140D-01-0.164D-01-0.281D-01 0.197D-01
 Coeff:      0.461D+00 0.579D+00
 Gap=     0.193 Goal=   None    Shift=    0.000
 RMSDP=6.95D-09 MaxDP=1.23D-07 DE=-1.02D-11 OVMax= 4.07D-07

 SCF Done:  E(RB3LYP) =  -384.895700019     A.U. after   13 cycles
             Convg  =    0.6949D-08             -V/T =  2.0097
 KE= 3.812103786826D+02 PE=-1.694767446649D+03 EE= 5.282809727065D+02
 Leave Link  502 at Mon Oct  4 08:44:37 2021, MaxMem=  536870912 cpu:      72.8
 (Enter /sw/target/amd/app/gaussian/Gaussian09RevA.02_gcc-4.9.2/g09/l508.exe)
 QCSCF skips out because SCF is already converged.
 Leave Link  508 at Mon Oct  4 08:44:38 2021, MaxMem=  536870912 cpu:       0.0
 (Enter /sw/target/amd/app/gaussian/Gaussian09RevA.02_gcc-4.9.2/g09/l701.exe)
 Compute integral first derivatives.
 ... and contract with generalized density number  0.
 Leave Link  701 at Mon Oct  4 08:44:40 2021, MaxMem=  536870912 cpu:       0.5
 (Enter /sw/target/amd/app/gaussian/Gaussian09RevA.02_gcc-4.9.2/g09/l702.exe)
 L702 exits ... SP integral derivatives will be done elsewhere.
 Leave Link  702 at Mon Oct  4 08:44:40 2021, MaxMem=  536870912 cpu:       0.1
 (Enter /sw/target/amd/app/gaussian/Gaussian09RevA.02_gcc-4.9.2/g09/l703.exe)
 Compute integral first derivatives, UseDBF=F ICtDFT=           0.
 Integral derivatives from FoFDir, PRISM(SPDF).
 Calling FoFJK, ICntrl=      2127 FMM=F ISym2X=0 I1Cent= 0 IOpClX= 0 NMat=1 NMatS=1 NMatT=0.
 FoFCou: FMM=F IPFlag=           0 FMFlag=      100000 FMFlg1=         800
         NFxFlg=           0 DoJE=F BraDBF=F KetDBF=F FulRan=T
         Omega=  0.000000  0.000000  1.000000  0.000000  0.000000 ICntrl=    2127 IOpCl=  0
         NMat0=    1 NMatS0=    1 NMatT0=    0 NMatD0=    1 NMtDS0=    0 NMtDT0=    0
         I1Cent=           0 NGrid=           0.
 Symmetry not used in FoFCou.
 Leave Link  703 at Mon Oct  4 08:45:41 2021, MaxMem=  536870912 cpu:      25.6
 (Enter /sw/target/amd/app/gaussian/Gaussian09RevA.02_gcc-4.9.2/g09/l716.exe)
 Dipole        = 7.29672623D-01 9.23355592D-01 7.77381330D-02
 ***** Axes restored to original set *****
 -------------------------------------------------------------------
 Center     Atomic                   Forces (Hartrees/Bohr)
 Number     Number              X              Y              Z
 -------------------------------------------------------------------
      1        6          -0.001765329   -0.000799249   -0.001212054
      2        6          -0.003636815   -0.000939485    0.002436865
      3        8           0.002421070    0.001994638   -0.001237036
      4        6           0.000925207   -0.000362477   -0.001433707
      5        6           0.000966789    0.000435350    0.002634675
      6        6          -0.000603549   -0.000582209   -0.000889010
      7        6          -0.000033752    0.000020600    0.000046232
      8        6          -0.000629807   -0.000009128   -0.000350833
      9        6           0.000872254    0.000522672    0.000711081
     10        1           0.000294034   -0.000302225    0.000794801
     11        1           0.001160082    0.000736762   -0.000134090
     12        1           0.000970097   -0.000104995   -0.000144547
     13        1          -0.000480233   -0.000347624   -0.000869102
     14        1           0.000135279    0.000105656    0.000104614
     15        1          -0.000082509   -0.000145509   -0.000013413
     16        1          -0.000088090   -0.000033828   -0.000086134
     17        1          -0.000424726   -0.000188949   -0.000358342
 -------------------------------------------------------------------
 Cartesian Forces:  Max     0.003636815 RMS     0.001052846
 Leave Link  716 at Mon Oct  4 08:45:42 2021, MaxMem=  536870912 cpu:       0.1
 (Enter /sw/target/amd/app/gaussian/Gaussian09RevA.02_gcc-4.9.2/g09/l103.exe)

 GradGradGradGradGradGradGradGradGradGradGradGradGradGradGradGradGradGrad
 Berny optimization.
 Using GEDIIS/GDIIS optimizer.
 Internal  Forces:  Max     0.003343354 RMS     0.000555280
 Search for a local minimum.
 Step number   2 out of a maximum of   88
 All quantities printed in internal units (Hartrees-Bohrs-Radians)
 RMS Force = .55528D-03 SwitMx=.10000D-02 MixMth= 2
 Mixed Optimization -- En-DIIS/RFO-DIIS
 Update second derivatives using D2CorX and points    1    2
 DE= -1.18D-03 DEPred=-1.00D-03 R= 1.18D+00
 SS=  1.41D+00  RLast= 2.14D-01 DXNew= 5.0454D-01 6.4171D-01
 Trust test= 1.18D+00 RLast= 2.14D-01 DXMaxT set to 5.05D-01
 Use linear search instead of GDIIS.
     Eigenvalues ---    0.00639   0.00733   0.00847   0.01706   0.02091
     Eigenvalues ---    0.02100   0.02110   0.02140   0.02149   0.02157
     Eigenvalues ---    0.02160   0.02170   0.06908   0.07495   0.14783
     Eigenvalues ---    0.15999   0.16000   0.16000   0.16000   0.16000
     Eigenvalues ---    0.16000   0.16169   0.21995   0.22061   0.23760
     Eigenvalues ---    0.24811   0.25000   0.25038   0.31701   0.33743
     Eigenvalues ---    0.34234   0.34425   0.34486   0.35095   0.35111
     Eigenvalues ---    0.35127   0.35262   0.35480   0.41796   0.41965
     Eigenvalues ---    0.45594   0.45821   0.46347   0.46796   0.88899
     Eigenvalues --- 1000.000001000.000001000.000001000.000001000.00000
     Eigenvalues --- 1000.000001000.000001000.000001000.000001000.00000
     Eigenvalues --- 1000.000001000.000001000.000001000.000001000.00000
     Eigenvalues --- 1000.000001000.000001000.000001000.000001000.00000
     Eigenvalues --- 1000.000001000.000001000.000001000.000001000.00000
     Eigenvalues --- 1000.000001000.000001000.000001000.000001000.00000
     Eigenvalues --- 1000.000001000.000001000.00000
 RFO step:  Lambda=-2.83230233D-04 EMin= 6.38859851D-03
 Quartic linear search produced a step of  0.30240.
 Iteration  1 RMS(Cart)=  0.05261091 RMS(Int)=  0.00129627
 Iteration  2 RMS(Cart)=  0.00239333 RMS(Int)=  0.00016281
 Iteration  3 RMS(Cart)=  0.00000375 RMS(Int)=  0.00016280
 Iteration  4 RMS(Cart)=  0.00000000 RMS(Int)=  0.00016280
[...]
 Alpha virt. eigenvalues --    4.31085   4.33706   4.49417   4.70705
          Condensed to atoms (all electrons):
              1          2          3          4          5          6
     1  C    5.190879   0.327306  -0.054234  -0.037503   0.006231  -0.000187
     2  C    0.327306   4.807470   0.316754   0.453360  -0.058166   0.004774
     3  O   -0.054234   0.316754   8.074079  -0.037360  -0.008653   0.000568
     4  C   -0.037503   0.453360  -0.037360   4.689559   0.474746  -0.014309
     5  C    0.006231  -0.058166  -0.008653   0.474746   5.046696   0.541853
     6  C   -0.000187   0.004774   0.000568  -0.014309   0.541853   4.852626
     7  C    0.000012   0.000696  -0.000011  -0.030423  -0.041182   0.533185
     8  C    0.000003   0.005148  -0.000044  -0.012784  -0.040948  -0.022995
     9  C   -0.014733  -0.057931   0.004431   0.490627  -0.064137  -0.040921
    10  H    0.361185  -0.024958  -0.000605   0.003282  -0.000071   0.000002
    11  H    0.364235  -0.027591   0.001427  -0.005812   0.000024   0.000003
    12  H    0.364234  -0.027593   0.001427  -0.005813   0.000024   0.000003
    13  H    0.000204  -0.015253   0.005023  -0.042286   0.361403  -0.042369
    14  H    0.000001  -0.000187  -0.000005   0.003541  -0.038432   0.355763
    15  H   -0.000000   0.000010   0.000000   0.000823   0.004753  -0.043649
    16  H   -0.000001  -0.000154   0.000000   0.003459   0.000802   0.004630
    17  H    0.006959  -0.014337   0.000036  -0.041916   0.005834   0.000350
              7          8          9         10         11         12
     1  C    0.000012   0.000003  -0.014733   0.361185   0.364235   0.364234
     2  C    0.000696   0.005148  -0.057931  -0.024958  -0.027591  -0.027593
     3  O   -0.000011  -0.000044   0.004431  -0.000605   0.001427   0.001427
     4  C   -0.030423  -0.012784   0.490627   0.003282  -0.005812  -0.005813
     5  C   -0.041182  -0.040948  -0.064137  -0.000071   0.000024   0.000024
     6  C    0.533185  -0.022995  -0.040921   0.000002   0.000003   0.000003
     7  C    4.908390   0.538150  -0.043393   0.000000  -0.000007  -0.000007
     8  C    0.538150   4.842909   0.544346  -0.000002   0.000055   0.000055
     9  C   -0.043393   0.544346   5.060329   0.000335   0.002811   0.002812
    10  H    0.000000  -0.000002   0.000335   0.523622  -0.023716  -0.023716
    11  H   -0.000007   0.000055   0.002811  -0.023716   0.529030  -0.039138
    12  H   -0.000007   0.000055   0.002812  -0.023716  -0.039138   0.529035
    13  H    0.004624   0.000412   0.005769  -0.000003  -0.000005  -0.000005
    14  H   -0.043056   0.004591   0.000906  -0.000000   0.000000   0.000000
    15  H    0.358811  -0.043810   0.005029  -0.000000  -0.000000  -0.000000
    16  H   -0.042413   0.357688  -0.040542  -0.000000  -0.000000  -0.000000
    17  H    0.004970  -0.043951   0.349725   0.000040   0.000981   0.000981
             13         14         15         16         17
     1  C    0.000204   0.000001  -0.000000  -0.000001   0.006959
     2  C   -0.015253  -0.000187   0.000010  -0.000154  -0.014337
     3  O    0.005023  -0.000005   0.000000   0.000000   0.000036
     4  C   -0.042286   0.003541   0.000823   0.003459  -0.041916
     5  C    0.361403  -0.038432   0.004753   0.000802   0.005834
     6  C   -0.042369   0.355763  -0.043649   0.004630   0.000350
     7  C    0.004624  -0.043056   0.358811  -0.042413   0.004970
     8  C    0.000412   0.004591  -0.043810   0.357688  -0.043951
     9  C    0.005769   0.000906   0.005029  -0.040542   0.349725
    10  H   -0.000003  -0.000000  -0.000000  -0.000000   0.000040
    11  H   -0.000005   0.000000  -0.000000  -0.000000   0.000981
    12  H   -0.000005   0.000000  -0.000000  -0.000000   0.000981
    13  H    0.592453  -0.005522  -0.000173   0.000016  -0.000181
    14  H   -0.005522   0.601594  -0.005692  -0.000193   0.000018
    15  H   -0.000173  -0.005692   0.610779  -0.005743  -0.000193
    16  H    0.000016  -0.000193  -0.005743   0.603100  -0.006020
    17  H   -0.000181   0.000018  -0.000193  -0.006020   0.623014
 Mulliken atomic charges:
              1
     1  C   -0.514589
     2  C    0.310652
     3  O   -0.302832
     4  C    0.108808
     5  C   -0.190776
     6  C   -0.129327
     7  C   -0.148347
     8  C   -0.128823
     9  C   -0.205463
    10  H    0.184606
    11  H    0.197704
    12  H    0.197703
    13  H    0.135895
    14  H    0.126673
    15  H    0.119055
    16  H    0.125372
    17  H    0.113690
 Sum of Mulliken atomic charges =  -0.00000
 Mulliken charges with hydrogens summed into heavy atoms:
              1
     1  C    0.065423
     2  C    0.310652
     3  O   -0.302832
     4  C    0.108808
     5  C   -0.054881
     6  C   -0.002654
     7  C   -0.029292
     8  C   -0.003451
     9  C   -0.091773
 Sum of Mulliken charges with hydrogens summed into heavy atoms =  -0.00000
 Electronic spatial extent (au):  <R**2>=           1234.8320
 Charge=              0.0000 electrons
 Dipole moment (field-independent basis, Debye):
    X=              1.3258    Y=              1.6731    Z=              0.0000  Tot=              2.1347
 Quadrupole moment (field-independent basis, Debye-Ang):
   XX=            -46.6901   YY=            -49.2100   ZZ=            -55.4021
   XY=              4.7725   XZ=              0.0002   YZ=             -0.0001
 Traceless Quadrupole moment (field-independent basis, Debye-Ang):
   XX=              3.7439   YY=              1.2241   ZZ=             -4.9680
   XY=              4.7725   XZ=              0.0002   YZ=             -0.0001
 Octapole moment (field-independent basis, Debye-Ang**2):
  XXX=             14.0098  YYY=             -0.9726  ZZZ=             -0.0002  XYY=             -1.6288
  XXY=              9.4617  XXZ=             -0.0001  XZZ=              9.1906  YZZ=             -0.6372
  YYZ=              0.0001  XYZ=              0.0002
 Hexadecapole moment (field-independent basis, Debye-Ang**3):
 XXXX=          -1062.1483 YYYY=           -403.6669 ZZZZ=            -61.9059 XXXY=             15.4707
 XXXZ=              0.0013 YYYX=             -0.4102 YYYZ=             -0.0003 ZZZX=             -0.0002
 ZZZY=              0.0006 XXYY=           -254.9149 XXZZ=           -212.4420 YYZZ=            -84.5961
 XXYZ=             -0.0006 YYXZ=              0.0004 ZZXY=             -0.5926
 N-N= 4.004872384131D+02 E-N=-1.694717966607D+03  KE= 3.812775450348D+02
 No NMR shielding tensors so no spin-rotation constants.
 Leave Link  601 at Mon Oct  4 12:07:56 2021, MaxMem=  536870912 cpu:       0.4
 (Enter /sw/target/amd/app/gaussian/Gaussian09RevA.02_gcc-4.9.2/g09/l604.exe)
 Evaluate density.
 Using the total density.
 Monte-Carlo method of calculating molar volume:
 based on  0.001 e/bohr**3 density envelope.
 Number of points per bohr**3 =   20 CutOff= 1.00D-04
 Using the CI density.
 There are       347 points.  Will hold       347 in memory.
 LenV=   536794175 MDV=   536870912.
 Box volume = 5262.228 fraction occupied=0.187
 Integrated density= 6.3629535245039513D+01 error=-3.7046475496048714D-01
 Molar volume =  985.720 bohr**3/mol ( 87.965 cm**3/mol)
 Recommended a0 for SCRF calculation =  4.10 angstrom (  7.74 bohr)
 Leave Link  604 at Mon Oct  4 12:08:01 2021, MaxMem=  536870912 cpu:       0.1
 (Enter /sw/target/amd/app/gaussian/Gaussian09RevA.02_gcc-4.9.2/g09/l607.exe)
 ******************************Gaussian NBO Version 3.1******************************
             N A T U R A L   A T O M I C   O R B I T A L   A N D
          N A T U R A L   B O N D   O R B I T A L   A N A L Y S I S
 ******************************Gaussian NBO Version 3.1******************************
       /RESON  / : Allow strongly delocalized NBO set

 Analyzing the CI density

 Job title: CC(=O)c1ccccc1_conf_0                                           

 Storage needed:     69438 in NPA ( 536869297 available)


 NATURAL POPULATIONS:  Natural atomic orbital occupancies 
                                                          
   NAO  Atom  No  lang   Type(AO)    Occupancy
 --------------------------------------------
     1    C    1  S      Cor( 1S)     1.99932
     2    C    1  S      Val( 2S)     1.12961
     3    C    1  S      Ryd( 3S)     0.00019
     4    C    1  S      Ryd( 4S)     0.00001
     5    C    1  px     Val( 2p)     1.19805
     6    C    1  px     Ryd( 3p)     0.00155
     7    C    1  py     Val( 2p)     1.11087
     8    C    1  py     Ryd( 3p)     0.00148
     9    C    1  pz     Val( 2p)     1.26394
    10    C    1  pz     Ryd( 3p)     0.00007
    11    C    1  dxy    Ryd( 3d)     0.00070
    12    C    1  dxz    Ryd( 3d)     0.00033
    13    C    1  dyz    Ryd( 3d)     0.00113
    14    C    1  dx2y2  Ryd( 3d)     0.00058
    15    C    1  dz2    Ryd( 3d)     0.00072

    16    C    2  S      Cor( 1S)     1.99929
    17    C    2  S      Val( 2S)     0.84201
    18    C    2  S      Ryd( 3S)     0.00459
    19    C    2  S      Ryd( 4S)     0.00020
    20    C    2  px     Val( 2p)     0.97202
    21    C    2  px     Ryd( 3p)     0.00438
    22    C    2  py     Val( 2p)     0.81262
    23    C    2  py     Ryd( 3p)     0.01439
    24    C    2  pz     Val( 2p)     0.96639
    25    C    2  pz     Ryd( 3p)     0.00333
    26    C    2  dxy    Ryd( 3d)     0.00134
    27    C    2  dxz    Ryd( 3d)     0.00105
    28    C    2  dyz    Ryd( 3d)     0.00167
    29    C    2  dx2y2  Ryd( 3d)     0.00125
    30    C    2  dz2    Ryd( 3d)     0.00033

    31    O    3  S      Cor( 1S)     1.99981
    32    O    3  S      Val( 2S)     1.70364
    33    O    3  S      Ryd( 3S)     0.00017
    34    O    3  S      Ryd( 4S)     0.00002
    35    O    3  px     Val( 2p)     1.23284
    36    O    3  px     Ryd( 3p)     0.00141
    37    O    3  py     Val( 2p)     1.52060
    38    O    3  py     Ryd( 3p)     0.00046
    39    O    3  pz     Val( 2p)     1.77875
    40    O    3  pz     Ryd( 3p)     0.00329
    41    O    3  dxy    Ryd( 3d)     0.00356
    42    O    3  dxz    Ryd( 3d)     0.00082
    43    O    3  dyz    Ryd( 3d)     0.00386
    44    O    3  dx2y2  Ryd( 3d)     0.00322
    45    O    3  dz2    Ryd( 3d)     0.00132

    46    C    4  S      Cor( 1S)     1.99889
    47    C    4  S      Val( 2S)     0.88608
    48    C    4  S      Ryd( 3S)     0.00041
    49    C    4  S      Ryd( 4S)     0.00004
    50    C    4  px     Val( 2p)     1.01707
    51    C    4  px     Ryd( 3p)     0.00479
    52    C    4  py     Val( 2p)     1.11560
    53    C    4  py     Ryd( 3p)     0.00548
    54    C    4  pz     Val( 2p)     1.12463
    55    C    4  pz     Ryd( 3p)     0.00110
    56    C    4  dxy    Ryd( 3d)     0.00059
    57    C    4  dxz    Ryd( 3d)     0.00082
    58    C    4  dyz    Ryd( 3d)     0.00059
    59    C    4  dx2y2  Ryd( 3d)     0.00074
    60    C    4  dz2    Ryd( 3d)     0.00039

    61    C    5  S      Cor( 1S)     1.99905
    62    C    5  S      Val( 2S)     0.94538
    63    C    5  S      Ryd( 3S)     0.00061
    64    C    5  S      Ryd( 4S)     0.00004
    65    C    5  px     Val( 2p)     1.09507
    66    C    5  px     Ryd( 3p)     0.00407
    67    C    5  py     Val( 2p)     1.15419
    68    C    5  py     Ryd( 3p)     0.00473
    69    C    5  pz     Val( 2p)     1.02392
    70    C    5  pz     Ryd( 3p)     0.00210
    71    C    5  dxy    Ryd( 3d)     0.00086
    72    C    5  dxz    Ryd( 3d)     0.00055
    73    C    5  dyz    Ryd( 3d)     0.00032
    74    C    5  dx2y2  Ryd( 3d)     0.00060
    75    C    5  dz2    Ryd( 3d)     0.00044

    76    C    6  S      Cor( 1S)     1.99910
    77    C    6  S      Val( 2S)     0.95930
    78    C    6  S      Ryd( 3S)     0.00059
    79    C    6  S      Ryd( 4S)     0.00003
    80    C    6  px     Val( 2p)     1.10114
    81    C    6  px     Ryd( 3p)     0.00473
    82    C    6  py     Val( 2p)     1.15827
    83    C    6  py     Ryd( 3p)     0.00503
    84    C    6  pz     Val( 2p)     0.99670
    85    C    6  pz     Ryd( 3p)     0.00061
    86    C    6  dxy    Ryd( 3d)     0.00082
    87    C    6  dxz    Ryd( 3d)     0.00060
    88    C    6  dyz    Ryd( 3d)     0.00042
    89    C    6  dx2y2  Ryd( 3d)     0.00065
    90    C    6  dz2    Ryd( 3d)     0.00043

    91    C    7  S      Cor( 1S)     1.99910
    92    C    7  S      Val( 2S)     0.95753
    93    C    7  S      Ryd( 3S)     0.00053
    94    C    7  S      Ryd( 4S)     0.00003
    95    C    7  px     Val( 2p)     1.19244
    96    C    7  px     Ryd( 3p)     0.00488
    97    C    7  py     Val( 2p)     1.05869
    98    C    7  py     Ryd( 3p)     0.00453
    99    C    7  pz     Val( 2p)     1.04738
   100    C    7  pz     Ryd( 3p)     0.00193
   101    C    7  dxy    Ryd( 3d)     0.00062
   102    C    7  dxz    Ryd( 3d)     0.00032
   103    C    7  dyz    Ryd( 3d)     0.00048
   104    C    7  dx2y2  Ryd( 3d)     0.00086
   105    C    7  dz2    Ryd( 3d)     0.00043

   106    C    8  S      Cor( 1S)     1.99910
   107    C    8  S      Val( 2S)     0.95836
   108    C    8  S      Ryd( 3S)     0.00063
   109    C    8  S      Ryd( 4S)     0.00003
   110    C    8  px     Val( 2p)     1.08218
   111    C    8  px     Ryd( 3p)     0.00469
   112    C    8  py     Val( 2p)     1.17281
   113    C    8  py     Ryd( 3p)     0.00529
   114    C    8  pz     Val( 2p)     1.00127
   115    C    8  pz     Ryd( 3p)     0.00070
   116    C    8  dxy    Ryd( 3d)     0.00077
   117    C    8  dxz    Ryd( 3d)     0.00064
   118    C    8  dyz    Ryd( 3d)     0.00038
   119    C    8  dx2y2  Ryd( 3d)     0.00071
   120    C    8  dz2    Ryd( 3d)     0.00043

   121    C    9  S      Cor( 1S)     1.99904
   122    C    9  S      Val( 2S)     0.94197
   123    C    9  S      Ryd( 3S)     0.00054
   124    C    9  S      Ryd( 4S)     0.00004
   125    C    9  px     Val( 2p)     1.10660
   126    C    9  px     Ryd( 3p)     0.00359
   127    C    9  py     Val( 2p)     1.14254
   128    C    9  py     Ryd( 3p)     0.00443
   129    C    9  pz     Val( 2p)     1.04301
   130    C    9  pz     Ryd( 3p)     0.00163
   131    C    9  dxy    Ryd( 3d)     0.00089
   132    C    9  dxz    Ryd( 3d)     0.00054
   133    C    9  dyz    Ryd( 3d)     0.00034
   134    C    9  dx2y2  Ryd( 3d)     0.00056
   135    C    9  dz2    Ryd( 3d)     0.00044

   136    H   10  S      Val( 1S)     0.74085
   137    H   10  S      Ryd( 2S)     0.00114

   138    H   11  S      Val( 1S)     0.73718
   139    H   11  S      Ryd( 2S)     0.00121

   140    H   12  S      Val( 1S)     0.73718
   141    H   12  S      Ryd( 2S)     0.00121

   142    H   13  S      Val( 1S)     0.76175
   143    H   13  S      Ryd( 2S)     0.00083

   144    H   14  S      Val( 1S)     0.76278
   145    H   14  S      Ryd( 2S)     0.00083

   146    H   15  S      Val( 1S)     0.76788
   147    H   15  S      Ryd( 2S)     0.00081

   148    H   16  S      Val( 1S)     0.76359
   149    H   16  S      Ryd( 2S)     0.00082

   150    H   17  S      Val( 1S)     0.77230
   151    H   17  S      Ryd( 2S)     0.00101

 WARNING:  1 low occupancy (<1.9990e) core orbital  found on  C    4


 Summary of Natural Population Analysis:                  
                                                          
                                       Natural Population 
                Natural  -----------------------------------------------
    Atom  No    Charge         Core      Valence    Rydberg      Total
 -----------------------------------------------------------------------
      C    1   -0.70855      1.99932     4.70246    0.00676     6.70855
      C    2    0.37514      1.99929     3.59304    0.03253     5.62486
      O    3   -0.25376      1.99981     6.23583    0.01812     8.25376
      C    4   -0.15722      1.99889     4.14338    0.01495     6.15722
      C    5   -0.23192      1.99905     4.21856    0.01432     6.23192
      C    6   -0.22843      1.99910     4.21541    0.01392     6.22843
      C    7   -0.26974      1.99910     4.25604    0.01460     6.26974
      C    8   -0.22800      1.99910     4.21461    0.01429     6.22800
      C    9   -0.24614      1.99904     4.23411    0.01299     6.24614
      H   10    0.25801      0.00000     0.74085    0.00114     0.74199
      H   11    0.26161      0.00000     0.73718    0.00121     0.73839
      H   12    0.26161      0.00000     0.73718    0.00121     0.73839
      H   13    0.23742      0.00000     0.76175    0.00083     0.76258
      H   14    0.23638      0.00000     0.76278    0.00083     0.76362
      H   15    0.23131      0.00000     0.76788    0.00081     0.76869
      H   16    0.23559      0.00000     0.76359    0.00082     0.76441
      H   17    0.22668      0.00000     0.77230    0.00101     0.77332
 =======================================================================
   * Total *   -0.00000     17.99270    45.85697    0.15034    64.00000

                                 Natural Population      
 --------------------------------------------------------
   Core                      17.99270 ( 99.9594% of  18)
   Valence                   45.85697 ( 99.6891% of  46)
   Natural Minimal Basis     63.84966 ( 99.7651% of  64)
   Natural Rydberg Basis      0.15034 (  0.2349% of  64)
 --------------------------------------------------------

    Atom  No          Natural Electron Configuration
 ----------------------------------------------------------------------------
      C    1      [core]2S( 1.13)2p( 3.57)
      C    2      [core]2S( 0.84)2p( 2.75)3p( 0.02)3d( 0.01)
      O    3      [core]2S( 1.70)2p( 4.53)3p( 0.01)3d( 0.01)
      C    4      [core]2S( 0.89)2p( 3.26)3p( 0.01)
      C    5      [core]2S( 0.95)2p( 3.27)3p( 0.01)
      C    6      [core]2S( 0.96)2p( 3.26)3p( 0.01)
      C    7      [core]2S( 0.96)2p( 3.30)3p( 0.01)
      C    8      [core]2S( 0.96)2p( 3.26)3p( 0.01)
      C    9      [core]2S( 0.94)2p( 3.29)3p( 0.01)
      H   10            1S( 0.74)
      H   11            1S( 0.74)
      H   12            1S( 0.74)
      H   13            1S( 0.76)
      H   14            1S( 0.76)
      H   15            1S( 0.77)
      H   16            1S( 0.76)
      H   17            1S( 0.77)


 NBO analysis skipped by request.
 Leave Link  607 at Mon Oct  4 12:10:48 2021, MaxMem=  536870912 cpu:      15.6
 (Enter /sw/target/amd/app/gaussian/Gaussian09RevA.02_gcc-4.9.2/g09/l9999.exe)
 1\1\GINC-HERMITE\SP\RTD-B3LYP-FC\6-31G(d)\C8H8O1\JSCHLEINITZ\04-Oct-20
 21\0\\#p TD(NStates=10, Root=1) b3lyp/6-31G* volume pop=NPA density=cu
 rrent Geom=AllCheck Guess=Read\\CC(=O)c1ccccc1_conf_0\\0,1\C,0,2.83567
 14575,0.4294974888,-1.5976514068\C,0,2.4342285742,0.3214261147,-0.1350
 68406\O,0,1.4047634351,-0.2544895873,0.1831204118\C,0,3.3221312899,0.9
 328300708,0.9078807161\C,0,2.9358255873,0.8233858198,2.2532550839\C,0,
 3.7224029052,1.3723274233,3.2608270754\C,0,4.9080642959,2.0394333749,2
 .9370061712\C,0,5.3019568004,2.1542852931,1.6026892378\C,0,4.513230626
 8,1.603846694,0.592428395\H,0,2.0775143593,-0.0678878005,-2.2047883631
 \H,0,3.8096181164,-0.0418708645,-1.7757743298\H,0,2.9184469486,1.47797
 2794,-1.9080444075\H,0,2.0118803291,0.3012918826,2.4796512591\H,0,3.41
 50502459,1.2824529224,4.2992413534\H,0,5.5232252101,2.4686401994,3.723
 5195101\H,0,6.2227674158,2.6721478519,1.3485297821\H,0,4.8310155304,1.
 700208518,-0.4413247563\\Version=AM64L-G09RevA.02\State=1-A\HF=-384.89
 59952\RMSD=5.426e-09\Dipole=0.1761021,0.0318293,-0.8205517\Quadrupole=
 -2.2990961,-3.1524338,5.4515299,0.811214,-0.0765776,0.7511118\PG=C01 [
 X(C8H8O1)]\\@


 "WHERE SHALL I START, PLEASE YOUR MAJESTY?" HE ASKED.
 "BEGIN AT THE BEGINNING," THE KING SAID GRAVELY,
 "AND GO ON TILL YOU COME TO THE END: THEN STOP." 

                                      -- LEWIS CARROLL
 Job cpu time:  0 days  0 hours 32 minutes  2.3 seconds.
 File lengths (MBytes):  RWF=     71 Int=      0 D2E=      0 Chk=     11 Scr=      1
 Normal termination of Gaussian 09 at Mon Oct  4 12:12:34 2021.
