 Entering Gaussian System, Link 0=g09
 Input=C8H9LiO2_fd05_conf_0.com
 Output=C8H9LiO2_fd05_conf_0.log
 Initial command:
 /sw/target/amd/app/gaussian/Gaussian09RevA.02_gcc-4.9.2/g09/l1.exe /home/jschleinitz/gaussian/Gau-3472658.inp -scrdir=/home/jschleinitz/gaussian/
 Entering Link 1 = /sw/target/amd/app/gaussian/Gaussian09RevA.02_gcc-4.9.2/g09/l1.exe PID=   3472673.
  
 Copyright (c) 1988,1990,1992,1993,1995,1998,2003,2009, Gaussian, Inc.
                  All Rights Reserved.
  
 This is part of the Gaussian(R) 09 program.  It is based on
 the Gaussian(R) 03 system (copyright 2003, Gaussian, Inc.),
 the Gaussian(R) 98 system (copyright 1998, Gaussian, Inc.),
 the Gaussian(R) 94 system (copyright 1995, Gaussian, Inc.),
 the Gaussian 92(TM) system (copyright 1992, Gaussian, Inc.),
 the Gaussian 90(TM) system (copyright 1990, Gaussian, Inc.),
 the Gaussian 88(TM) system (copyright 1988, Gaussian, Inc.),
 the Gaussian 86(TM) system (copyright 1986, Carnegie Mellon
 University), and the Gaussian 82(TM) system (copyright 1983,
 Carnegie Mellon University). Gaussian is a federally registered
 trademark of Gaussian, Inc.
  
 This software contains proprietary and confidential information,
 including trade secrets, belonging to Gaussian, Inc.
  
 This software is provided under written license and may be
 used, copied, transmitted, or stored only in accord with that
 written license.
  
 The following legend is applicable only to US Government
 contracts under FAR:
  
                    RESTRICTED RIGHTS LEGEND
  
 Use, reproduction and disclosure by the US Government is
 subject to restrictions as set forth in subparagraphs (a)
 and (c) of the Commercial Computer Software - Restricted
 Rights clause in FAR 52.227-19.
  
 Gaussian, Inc.
 340 Quinnipiac St., Bldg. 40, Wallingford CT 06492
  
  
 ---------------------------------------------------------------
 Warning -- This program may not be used in any manner that
 competes with the business of Gaussian, Inc. or will provide
 assistance to any competitor of Gaussian, Inc.  The licensee
 of this program is prohibited from giving any competitor of
 Gaussian, Inc. access to this program.  By using this program,
 the user acknowledges that Gaussian, Inc. is engaged in the
 business of creating and licensing software in the field of
 computational chemistry and represents and warrants to the
 licensee that it is not a competitor of Gaussian, Inc. and that
 it will not use this program in any manner prohibited above.
 ---------------------------------------------------------------
  

 Cite this work as:
 Gaussian 09, Revision A.02,
 M. J. Frisch, G. W. Trucks, H. B. Schlegel, G. E. Scuseria, 
 M. A. Robb, J. R. Cheeseman, G. Scalmani, V. Barone, B. Mennucci, 
 G. A. Petersson, H. Nakatsuji, M. Caricato, X. Li, H. P. Hratchian, 
 A. F. Izmaylov, J. Bloino, G. Zheng, J. L. Sonnenberg, M. Hada, 
 M. Ehara, K. Toyota, R. Fukuda, J. Hasegawa, M. Ishida, T. Nakajima, 
 Y. Honda, O. Kitao, H. Nakai, T. Vreven, J. A. Montgomery, Jr., 
 J. E. Peralta, F. Ogliaro, M. Bearpark, J. J. Heyd, E. Brothers, 
 K. N. Kudin, V. N. Staroverov, R. Kobayashi, J. Normand, 
 K. Raghavachari, A. Rendell, J. C. Burant, S. S. Iyengar, J. Tomasi, 
 M. Cossi, N. Rega, J. M. Millam, M. Klene, J. E. Knox, J. B. Cross, 
 V. Bakken, C. Adamo, J. Jaramillo, R. Gomperts, R. E. Stratmann, 
 O. Yazyev, A. J. Austin, R. Cammi, C. Pomelli, J. W. Ochterski, 
 R. L. Martin, K. Morokuma, V. G. Zakrzewski, G. A. Voth, 
 P. Salvador, J. J. Dannenberg, S. Dapprich, A. D. Daniels, 
 O. Farkas, J. B. Foresman, J. V. Ortiz, J. Cioslowski, 
 and D. J. Fox, Gaussian, Inc., Wallingford CT, 2009.
 
 ******************************************
 Gaussian 09:  AM64L-G09RevA.02 11-Jun-2009
                 2-Oct-2021 
 ******************************************
 %nproc=3
 Will use up to    3 processors via shared memory.
 %mem=6gb
 %chk=C8H9LiO2_fd05_conf_0.chk
 -----------------------------------
 #p opt b3lyp/6-31G* scf=(xqc,tight)
 -----------------------------------
 1/14=-1,18=20,19=15,26=3,38=1/1,3;
 2/9=110,12=2,17=6,18=5,40=1/2;
 3/5=1,6=6,7=1,11=2,16=1,25=1,30=1,71=1,74=-5/1,2,3;
 4//1;
 5/5=2,8=3,13=1,32=2,38=5/2,8;
 6/7=2,8=2,9=2,10=2,28=1/1;
 7//1,2,3,16;
 1/14=-1,18=20,19=15/3(2);
 2/9=110/2;
 99//99;
 2/9=110/2;
 3/5=1,6=6,7=1,11=2,16=1,25=1,30=1,71=1,74=-5/1,2,3;
 4/5=5,16=3/1;
 5/5=2,8=3,13=1,32=2,38=5/2,8;
 7//1,2,3,16;
 1/14=-1,18=20,19=15/3(-5);
 2/9=110/2;
 6/7=2,8=2,9=2,10=2,19=2,28=1/1;
 99/9=1/99;
 Leave Link    1 at Sat Oct  2 17:29:28 2021, MaxMem=  805306368 cpu:       0.1
 (Enter /sw/target/amd/app/gaussian/Gaussian09RevA.02_gcc-4.9.2/g09/l101.exe)
 -----------------------
 COCOc1ccccc1[Li]_conf_0
 -----------------------
 Symbolic Z-matrix:
 Charge =  0 Multiplicity = 1
 C                     4.10556  -0.96388   2.05383 
 O                     3.71869  -0.78203   0.71079 
 C                     4.70516  -1.32681  -0.13667 
 O                     4.31108  -1.1344   -1.44489 
 C                     5.00824  -1.53146  -2.53878 
 C                     4.47995  -1.26105  -3.80818 
 C                     5.16855  -1.65476  -4.96008 
 C                     6.39127  -2.32279  -4.85105 
 C                     6.92648  -2.59729  -3.58933 
 C                     6.24014  -2.20467  -2.43706 
 Li                    7.05339  -2.62384  -0.63052 
 H                     3.31218  -0.54277   2.70505 
 H                     5.04368  -0.41103   2.28262 
 H                     4.19533  -2.04359   2.30804 
 H                     4.8084   -2.42213   0.04356 
 H                     5.67981  -0.8083    0.01844 
 H                     3.53316  -0.74385  -3.90175 
 H                     4.75393  -1.44197  -5.93706 
 H                     6.92341  -2.62733  -5.74297 
 H                     7.87259  -3.11445  -3.5014 
 
 NAtoms=     20 NQM=     20 NQMF=      0 NMic=      0 NMicF=      0 NTot=     20.
                    Isotopes and Nuclear Properties:
 (Nuclear quadrupole moments (NQMom) in fm**2, nuclear magnetic moments (NMagM)
  in nuclear magnetons)

  Atom         1           2           3           4           5           6           7           8           9          10
 IAtWgt=          12          16          12          16          12          12          12          12          12          12
 AtmWgt=  12.0000000  15.9949146  12.0000000  15.9949146  12.0000000  12.0000000  12.0000000  12.0000000  12.0000000  12.0000000
 NucSpn=           0           0           0           0           0           0           0           0           0           0
 AtZEff=   0.0000000   0.0000000   0.0000000   0.0000000   0.0000000   0.0000000   0.0000000   0.0000000   0.0000000   0.0000000
 NQMom=    0.0000000   0.0000000   0.0000000   0.0000000   0.0000000   0.0000000   0.0000000   0.0000000   0.0000000   0.0000000
 NMagM=    0.0000000   0.0000000   0.0000000   0.0000000   0.0000000   0.0000000   0.0000000   0.0000000   0.0000000   0.0000000

  Atom        11          12          13          14          15          16          17          18          19          20
 IAtWgt=           7           1           1           1           1           1           1           1           1           1
 AtmWgt=   7.0160045   1.0078250   1.0078250   1.0078250   1.0078250   1.0078250   1.0078250   1.0078250   1.0078250   1.0078250
 NucSpn=           3           1           1           1           1           1           1           1           1           1
 AtZEff=   0.0000000   0.0000000   0.0000000   0.0000000   0.0000000   0.0000000   0.0000000   0.0000000   0.0000000   0.0000000
 NQMom=   -4.0100000   0.0000000   0.0000000   0.0000000   0.0000000   0.0000000   0.0000000   0.0000000   0.0000000   0.0000000
 NMagM=    3.2564240   2.7928460   2.7928460   2.7928460   2.7928460   2.7928460   2.7928460   2.7928460   2.7928460   2.7928460
 Leave Link  101 at Sat Oct  2 17:29:29 2021, MaxMem=  805306368 cpu:       0.2
 (Enter /sw/target/amd/app/gaussian/Gaussian09RevA.02_gcc-4.9.2/g09/l103.exe)

 GradGradGradGradGradGradGradGradGradGradGradGradGradGradGradGradGradGrad
 Berny optimization.
 Initialization pass.
                           ----------------------------
                           !    Initial Parameters    !
                           ! (Angstroms and Degrees)  !
 --------------------------                            --------------------------
 ! Name  Definition              Value          Derivative Info.                !
 --------------------------------------------------------------------------------
 ! R1    R(1,2)                  1.4094         estimate D2E/DX2                !
 ! R2    R(1,12)                 1.1095         estimate D2E/DX2                !
 ! R3    R(1,13)                 1.1127         estimate D2E/DX2                !
 ! R4    R(1,14)                 1.1129         estimate D2E/DX2                !
 ! R5    R(2,3)                  1.41           estimate D2E/DX2                !
 ! R6    R(3,4)                  1.3798         estimate D2E/DX2                !
 ! R7    R(3,15)                 1.1148         estimate D2E/DX2                !
 ! R8    R(3,16)                 1.1148         estimate D2E/DX2                !
 ! R9    R(4,5)                  1.3566         estimate D2E/DX2                !
 ! R10   R(5,6)                  1.4013         estimate D2E/DX2                !
 ! R11   R(5,10)                 1.4075         estimate D2E/DX2                !
 ! R12   R(6,7)                  1.3986         estimate D2E/DX2                !
 ! R13   R(6,17)                 1.0829         estimate D2E/DX2                !
 ! R14   R(7,8)                  1.3976         estimate D2E/DX2                !
 ! R15   R(7,18)                 1.0824         estimate D2E/DX2                !
 ! R16   R(8,9)                  1.3978         estimate D2E/DX2                !
 ! R17   R(8,19)                 1.0823         estimate D2E/DX2                !
 ! R18   R(9,10)                 1.3975         estimate D2E/DX2                !
 ! R19   R(9,20)                 1.0818         estimate D2E/DX2                !
 ! R20   R(10,11)                2.025          estimate D2E/DX2                !
 ! A1    A(2,1,12)             108.304          estimate D2E/DX2                !
 ! A2    A(2,1,13)             111.3002         estimate D2E/DX2                !
 ! A3    A(2,1,14)             111.4071         estimate D2E/DX2                !
 ! A4    A(12,1,13)            107.076          estimate D2E/DX2                !
 ! A5    A(12,1,14)            106.9695         estimate D2E/DX2                !
 ! A6    A(13,1,14)            111.5359         estimate D2E/DX2                !
 ! A7    A(1,2,3)              109.3195         estimate D2E/DX2                !
 ! A8    A(2,3,4)              108.4317         estimate D2E/DX2                !
 ! A9    A(2,3,15)             110.3177         estimate D2E/DX2                !
 ! A10   A(2,3,16)             110.3849         estimate D2E/DX2                !
 ! A11   A(4,3,15)             108.4655         estimate D2E/DX2                !
 ! A12   A(4,3,16)             108.4669         estimate D2E/DX2                !
 ! A13   A(15,3,16)            110.702          estimate D2E/DX2                !
 ! A14   A(3,4,5)              125.2369         estimate D2E/DX2                !
 ! A15   A(4,5,6)              118.7015         estimate D2E/DX2                !
 ! A16   A(4,5,10)             122.107          estimate D2E/DX2                !
 ! A17   A(6,5,10)             119.1914         estimate D2E/DX2                !
 ! A18   A(5,6,7)              120.4084         estimate D2E/DX2                !
 ! A19   A(5,6,17)             120.004          estimate D2E/DX2                !
 ! A20   A(7,6,17)             119.5876         estimate D2E/DX2                !
 ! A21   A(6,7,8)              120.0704         estimate D2E/DX2                !
 ! A22   A(6,7,18)             119.9628         estimate D2E/DX2                !
 ! A23   A(8,7,18)             119.9667         estimate D2E/DX2                !
 ! A24   A(7,8,9)              119.9531         estimate D2E/DX2                !
 ! A25   A(7,8,19)             120.0243         estimate D2E/DX2                !
 ! A26   A(9,8,19)             120.0227         estimate D2E/DX2                !
 ! A27   A(8,9,10)             120.0699         estimate D2E/DX2                !
 ! A28   A(8,9,20)             120.1412         estimate D2E/DX2                !
 ! A29   A(10,9,20)            119.7889         estimate D2E/DX2                !
 ! A30   A(5,10,9)             120.3068         estimate D2E/DX2                !
 ! A31   A(5,10,11)            120.9956         estimate D2E/DX2                !
 ! A32   A(9,10,11)            118.6976         estimate D2E/DX2                !
 ! D1    D(12,1,2,3)          -179.2112         estimate D2E/DX2                !
 ! D2    D(13,1,2,3)            63.3411         estimate D2E/DX2                !
 ! D3    D(14,1,2,3)           -61.8317         estimate D2E/DX2                !
 ! D4    D(1,2,3,4)           -179.7672         estimate D2E/DX2                !
 ! D5    D(1,2,3,15)            61.5861         estimate D2E/DX2                !
 ! D6    D(1,2,3,16)           -61.0796         estimate D2E/DX2                !
 ! D7    D(2,3,4,5)           -179.7966         estimate D2E/DX2                !
 ! D8    D(15,3,4,5)           -59.9847         estimate D2E/DX2                !
 ! D9    D(16,3,4,5)            60.3098         estimate D2E/DX2                !
 ! D10   D(3,4,5,6)           -179.8188         estimate D2E/DX2                !
 ! D11   D(3,4,5,10)             0.2295         estimate D2E/DX2                !
 ! D12   D(4,5,6,7)           -179.9792         estimate D2E/DX2                !
 ! D13   D(4,5,6,17)             0.0477         estimate D2E/DX2                !
 ! D14   D(10,5,6,7)            -0.026          estimate D2E/DX2                !
 ! D15   D(10,5,6,17)         -179.9991         estimate D2E/DX2                !
 ! D16   D(4,5,10,9)           179.9718         estimate D2E/DX2                !
 ! D17   D(4,5,10,11)           -0.0283         estimate D2E/DX2                !
 ! D18   D(6,5,10,9)             0.0203         estimate D2E/DX2                !
 ! D19   D(6,5,10,11)         -179.9798         estimate D2E/DX2                !
 ! D20   D(5,6,7,8)              0.0246         estimate D2E/DX2                !
 ! D21   D(5,6,7,18)          -179.9851         estimate D2E/DX2                !
 ! D22   D(17,6,7,8)           179.9978         estimate D2E/DX2                !
 ! D23   D(17,6,7,18)           -0.0119         estimate D2E/DX2                !
 ! D24   D(6,7,8,9)             -0.0171         estimate D2E/DX2                !
 ! D25   D(6,7,8,19)           179.9864         estimate D2E/DX2                !
 ! D26   D(18,7,8,9)           179.9926         estimate D2E/DX2                !
 ! D27   D(18,7,8,19)           -0.004          estimate D2E/DX2                !
 ! D28   D(7,8,9,10)             0.0114         estimate D2E/DX2                !
 ! D29   D(7,8,9,20)           179.9838         estimate D2E/DX2                !
 ! D30   D(19,8,9,10)         -179.9921         estimate D2E/DX2                !
 ! D31   D(19,8,9,20)           -0.0196         estimate D2E/DX2                !
 ! D32   D(8,9,10,5)            -0.0131         estimate D2E/DX2                !
 ! D33   D(8,9,10,11)          179.987          estimate D2E/DX2                !
 ! D34   D(20,9,10,5)         -179.9856         estimate D2E/DX2                !
 ! D35   D(20,9,10,11)           0.0145         estimate D2E/DX2                !
 --------------------------------------------------------------------------------
 Trust Radius=3.00D-01 FncErr=1.00D-07 GrdErr=1.00D-06
 Number of steps in this run=  97 maximum allowed number of steps= 120.
 GradGradGradGradGradGradGradGradGradGradGradGradGradGradGradGradGradGrad

 Leave Link  103 at Sat Oct  2 17:29:29 2021, MaxMem=  805306368 cpu:       0.0
 (Enter /sw/target/amd/app/gaussian/Gaussian09RevA.02_gcc-4.9.2/g09/l202.exe)
                          Input orientation:                          
 ---------------------------------------------------------------------
 Center     Atomic      Atomic             Coordinates (Angstroms)
 Number     Number       Type             X           Y           Z
 ---------------------------------------------------------------------
      1          6           0        4.105563   -0.963881    2.053828
      2          8           0        3.718689   -0.782032    0.710791
      3          6           0        4.705159   -1.326809   -0.136672
      4          8           0        4.311084   -1.134405   -1.444891
      5          6           0        5.008242   -1.531459   -2.538780
      6          6           0        4.479955   -1.261047   -3.808181
      7          6           0        5.168550   -1.654761   -4.960078
      8          6           0        6.391268   -2.322794   -4.851054
      9          6           0        6.926483   -2.597291   -3.589335
     10          6           0        6.240140   -2.204669   -2.437057
     11          3           0        7.053389   -2.623843   -0.630522
     12          1           0        3.312176   -0.542765    2.705048
     13          1           0        5.043684   -0.411034    2.282616
     14          1           0        4.195327   -2.043593    2.308041
     15          1           0        4.808397   -2.422130    0.043555
     16          1           0        5.679807   -0.808298    0.018437
     17          1           0        3.533161   -0.743855   -3.901750
     18          1           0        4.753928   -1.441968   -5.937056
     19          1           0        6.923413   -2.627334   -5.742967
     20          1           0        7.872592   -3.114449   -3.501399
 ---------------------------------------------------------------------
                    Distance matrix (angstroms):
                    1          2          3          4          5
     1  C    0.000000
     2  O    1.409428   0.000000
     3  C    2.299896   1.409999   0.000000
     4  O    3.508896   2.263197   1.379764   0.000000
     5  C    4.714767   3.575514   2.429787   1.356567   0.000000
     6  C    5.881464   4.607611   3.678996   2.372698   1.401281
     7  C    7.127561   5.917981   4.856699   3.655483   2.429729
     8  C    7.399222   6.360090   5.104934   4.164299   2.808128
     9  C    6.516970   5.663584   4.297590   3.684967   2.432963
    10  C    5.124843   4.276746   2.901478   2.418908   1.407527
    11  Li   4.318667   4.038763   2.727704   3.225191   3.002895
    12  H    1.109454   2.049283   3.260445   4.309274   5.599276
    13  H    1.112679   2.088991   2.608869   3.867075   4.949997
    14  H    1.112862   2.090437   2.598140   3.863227   4.941132
    15  H    2.581019   2.079083   1.114840   2.030031   2.738921
    16  H    2.577841   2.079910   1.114833   2.030043   2.741044
    17  H    5.987066   4.616429   3.986129   2.606502   2.157283
    18  H    8.031387   6.760259   5.801732   4.524407   3.408953
    19  H    8.455612   7.438171   6.167865   5.246576   3.890455
    20  H    7.048121   6.359058   4.954763   4.564443   3.411304
                    6          7          8          9         10
     6  C    0.000000
     7  C    1.398585   0.000000
     8  C    2.422397   1.397567   0.000000
     9  C    2.796237   2.420254   1.397762   0.000000
    10  C    2.422531   2.795772   2.421606   1.397485   0.000000
    11  Li   4.310138   4.820456   4.282748   2.961652   2.025006
    12  H    6.655958   7.964722   8.351287   7.543444   6.146229
    13  H    6.175606   7.349765   7.507333   6.542511   5.188828
    14  H    6.172646   7.343289   7.493514   6.522640   5.169445
    15  H    4.036317   5.074929   5.145148   4.208903   2.872388
    16  H    4.035794   5.075775   5.148963   4.215533   2.879805
    17  H    1.082895   2.150419   3.400441   3.879105   3.406911
    18  H    2.154044   1.082441   2.153169   3.400965   3.878213
    19  H    3.403032   2.153685   1.082327   2.153844   3.402139
    20  H    3.878041   3.401511   2.154671   1.081808   2.150680
                   11         12         13         14         15
    11  Li   0.000000
    12  H    5.427116   0.000000
    13  H    4.173944   1.787155   0.000000
    14  H    4.140092   1.786073   1.840002   0.000000
    15  H    2.352671   3.585280   3.018817   2.376350   0.000000
    16  H    2.367294   3.590830   2.385157   2.995317   1.834241
    17  H    5.160164   6.613550   6.374859   6.378816   4.473060
    18  H    5.902851   8.807563   8.289137   8.285868   6.060643
    19  H    5.114099   9.421009   8.535534   8.520677   6.164353
    20  H    3.025512   8.119787   6.983266   6.958348   4.736592
                   16         17         18         19         20
    16  H    0.000000
    17  H    4.469911   0.000000
    18  H    6.060255   2.473884   0.000000
    19  H    6.168406   4.293178   2.479804   0.000000
    20  H    4.745091   4.960913   4.296008   2.482509   0.000000
 Stoichiometry    C8H9LiO2
 Framework group  C1[X(C8H9LiO2)]
 Deg. of freedom    54
 Full point group                 C1      NOp   1
 Largest Abelian subgroup         C1      NOp   1
 Largest concise Abelian subgroup C1      NOp   1
                         Standard orientation:                         
 ---------------------------------------------------------------------
 Center     Atomic      Atomic             Coordinates (Angstroms)
 Number     Number       Type             X           Y           Z
 ---------------------------------------------------------------------
      1          6           0        4.082582    0.232525    0.002968
      2          8           0        2.970028   -0.632717   -0.005279
      3          6           0        1.784919    0.131199    0.001722
      4          8           0        0.709042   -0.732647   -0.001188
      5          6           0       -0.594967   -0.358700   -0.000193
      6          6           0       -1.580666   -1.354685    0.000378
      7          6           0       -2.935951   -1.009372    0.000968
      8          6           0       -3.315922    0.335550    0.000473
      9          6           0       -2.340214    1.336416   -0.000253
     10          6           0       -0.985435    0.993582   -0.000724
     11          3           0        0.392989    2.477021   -0.002175
     12          1           0        5.004222   -0.384777   -0.017196
     13          1           0        4.115957    0.839121    0.935161
     14          1           0        4.103061    0.876494   -0.904416
     15          1           0        1.729217    0.767647   -0.911896
     16          1           0        1.732222    0.757762    0.922316
     17          1           0       -1.295039   -2.399232    0.000805
     18          1           0       -3.691364   -1.784633    0.001651
     19          1           0       -4.364956    0.601933    0.000707
     20          1           0       -2.630917    2.378434   -0.000903
 ---------------------------------------------------------------------
 Rotational constants (GHZ):      3.3577102      0.5975765      0.5107815
 Leave Link  202 at Sat Oct  2 17:29:30 2021, MaxMem=  805306368 cpu:       0.0
 (Enter /sw/target/amd/app/gaussian/Gaussian09RevA.02_gcc-4.9.2/g09/l301.exe)
 Standard basis: 6-31G(d) (6D, 7F)
 Ernie: Thresh=  0.10000D-02 Tol=  0.10000D-05 Strict=F.
 There are   183 symmetry adapted basis functions of A   symmetry.
 Integral buffers will be    131072 words long.
 Raffenetti 2 integral format.
 Two-electron integral symmetry is turned on.
   183 basis functions,   344 primitive gaussians,   183 cartesian basis functions
    38 alpha electrons       38 beta electrons
       nuclear repulsion energy       517.4766844459 Hartrees.
 IExCor=  402 DFT=T Ex+Corr=B3LYP ExCW=0 ScaHFX=  0.200000
 ScaDFX=  0.800000  0.720000  1.000000  0.810000 ScalE2=  1.000000  1.000000
 IRadAn=      0 IRanWt=     -1 IRanGd=            0 ICorTp=0
 NAtoms=   20 NActive=   20 NUniq=   20 SFac= 7.50D-01 NAtFMM=   80 NAOKFM=F Big=F
 Leave Link  301 at Sat Oct  2 17:29:31 2021, MaxMem=  805306368 cpu:       0.1
 (Enter /sw/target/amd/app/gaussian/Gaussian09RevA.02_gcc-4.9.2/g09/l302.exe)
 NPDir=0 NMtPBC=     1 NCelOv=     1 NCel=       1 NClECP=     1 NCelD=      1
         NCelK=      1 NCelE2=     1 NClLst=     1 CellRange=     0.0.
 One-electron integrals computed using PRISM.
 NBasis=   183 RedAO= T  NBF=   183
 NBsUse=   183 1.00D-06 NBFU=   183
 Precomputing XC quadrature grid using
 IXCGrd= 2 IRadAn=           0 IRanWt=          -1 IRanGd=           0 AccXCQ= 1.00D-10.
 NRdTot=    1285 NPtTot=      163186 NUsed=      172454 NTot=      172486
 NSgBfM=   183   183   183   183   183 NAtAll=    20    20.
 Leave Link  302 at Sat Oct  2 17:29:35 2021, MaxMem=  805306368 cpu:       1.2
 (Enter /sw/target/amd/app/gaussian/Gaussian09RevA.02_gcc-4.9.2/g09/l303.exe)
 DipDrv:  MaxL=1.
 Leave Link  303 at Sat Oct  2 17:29:35 2021, MaxMem=  805306368 cpu:       0.1
 (Enter /sw/target/amd/app/gaussian/Gaussian09RevA.02_gcc-4.9.2/g09/l401.exe)
 Harris functional with IExCor=  402 diagonalized for initial guess.
 ExpMin= 3.60D-02 ExpMax= 5.48D+03 ExpMxC= 8.25D+02 IAcc=3 IRadAn=         0 AccDes= 0.00D+00
 HarFok:  IExCor=  402 AccDes= 0.00D+00 IRadAn=         0 IDoV= 1
 ScaDFX=  1.000000  1.000000  1.000000  1.000000
 FoFCou: FMM=F IPFlag=           0 FMFlag=      100000 FMFlg1=           0
         NFxFlg=           0 DoJE=T BraDBF=F KetDBF=T FulRan=T
         Omega=  0.000000  0.000000  1.000000  0.000000  0.000000 ICntrl=     500 IOpCl=  0
         NMat0=    1 NMatS0=    1 NMatT0=    0 NMatD0=    1 NMtDS0=    0 NMtDT0=    0
         I1Cent=           4 NGrid=           0.
 Petite list used in FoFCou.
 Harris En= -468.291564610519    
 Initial guess orbital symmetries:
       Occupied  (A) (A) (A) (A) (A) (A) (A) (A) (A) (A) (A) (A)
                 (A) (A) (A) (A) (A) (A) (A) (A) (A) (A) (A) (A)
                 (A) (A) (A) (A) (A) (A) (A) (A) (A) (A) (A) (A)
                 (A) (A)
       Virtual   (A) (A) (A) (A) (A) (A) (A) (A) (A) (A) (A) (A)
                 (A) (A) (A) (A) (A) (A) (A) (A) (A) (A) (A) (A)
                 (A) (A) (A) (A) (A) (A) (A) (A) (A) (A) (A) (A)
                 (A) (A) (A) (A) (A) (A) (A) (A) (A) (A) (A) (A)
                 (A) (A) (A) (A) (A) (A) (A) (A) (A) (A) (A) (A)
                 (A) (A) (A) (A) (A) (A) (A) (A) (A) (A) (A) (A)
                 (A) (A) (A) (A) (A) (A) (A) (A) (A) (A) (A) (A)
                 (A) (A) (A) (A) (A) (A) (A) (A) (A) (A) (A) (A)
                 (A) (A) (A) (A) (A) (A) (A) (A) (A) (A) (A) (A)
                 (A) (A) (A) (A) (A) (A) (A) (A) (A) (A) (A) (A)
                 (A) (A) (A) (A) (A) (A) (A) (A) (A) (A) (A) (A)
                 (A) (A) (A) (A) (A) (A) (A) (A) (A) (A) (A) (A)
                 (A)
 The electronic state of the initial guess is 1-A.
 Leave Link  401 at Sat Oct  2 17:30:08 2021, MaxMem=  805306368 cpu:      11.6
 (Enter /sw/target/amd/app/gaussian/Gaussian09RevA.02_gcc-4.9.2/g09/l502.exe)
 Closed shell SCF:
 Requested convergence on RMS density matrix=1.00D-08 within  64 cycles.
 Requested convergence on MAX density matrix=1.00D-06.
 Requested convergence on             energy=1.00D-06.
 No special actions if energy rises.
 Using DIIS extrapolation, IDIIS=  1040.
 Integral symmetry usage will be decided dynamically.
       172261 words used for storage of precomputed grid.
 Keep R1 ints in memory in canonical form, NReq=145129287.
 IEnd=      280747 IEndB=      280747 NGot=   805306368 MDV=   663329624
 LenX=   663329624 LenY=   663295694
 Symmetry not used in FoFDir.
 MinBra= 0 MaxBra= 2 Meth= 1.
 IRaf=       0 NMat=   1 IRICut=       1 DoRegI=T DoRafI=F ISym2E= 0 JSym2E=0.

 Cycle   1  Pass 1  IDiag  1:
 E= -467.852399963797    
 DIIS: error= 3.70D-02 at cycle   1 NSaved=   1.
 NSaved= 1 IEnMin= 1 EnMin= -467.852399963797     IErMin= 1 ErrMin= 3.70D-02
 ErrMax= 3.70D-02 EMaxC= 1.00D-01 BMatC= 2.85D-01 BMatP= 2.85D-01
 IDIUse=3 WtCom= 6.30D-01 WtEn= 3.70D-01
 Coeff-Com:  0.100D+01
 Coeff-En:   0.100D+01
 Coeff:      0.100D+01
 Gap=     0.274 Goal=   None    Shift=    0.000
 GapD=    0.274 DampG=1.000 DampE=0.500 DampFc=0.5000 IDamp=-1.
 Damping current iteration by 5.00D-01
 RMSDP=9.07D-03 MaxDP=4.46D-01              OVMax= 9.45D-01

 Cycle   2  Pass 1  IDiag  1:
 E= -467.768788167019     Delta-E=        0.083611796778 Rises=F Damp=T
 DIIS: error= 1.67D-02 at cycle   2 NSaved=   2.
 NSaved= 2 IEnMin= 1 EnMin= -467.852399963797     IErMin= 2 ErrMin= 1.67D-02
 ErrMax= 1.67D-02 EMaxC= 1.00D-01 BMatC= 6.34D-02 BMatP= 2.85D-01
 IDIUse=3 WtCom= 8.33D-01 WtEn= 1.67D-01
 Coeff-Com:  0.267D+00 0.733D+00
 Coeff-En:   0.586D+00 0.414D+00
 Coeff:      0.320D+00 0.680D+00
 Gap=     0.041 Goal=   None    Shift=    0.000
 RMSDP=3.76D-03 MaxDP=2.21D-01 DE= 8.36D-02 OVMax= 8.99D-01

 Cycle   3  Pass 1  IDiag  1:
 E= -468.086860817130     Delta-E=       -0.318072650110 Rises=F Damp=F
 DIIS: error= 2.31D-02 at cycle   3 NSaved=   3.
 NSaved= 3 IEnMin= 3 EnMin= -468.086860817130     IErMin= 2 ErrMin= 1.67D-02
 ErrMax= 2.31D-02 EMaxC= 1.00D-01 BMatC= 7.46D-02 BMatP= 6.34D-02
 IDIUse=2 WtCom= 0.00D+00 WtEn= 1.00D+00
 Coeff-En:   0.000D+00 0.000D+00 0.100D+01
 Coeff:      0.000D+00 0.000D+00 0.100D+01
 Gap=     0.125 Goal=   None    Shift=    0.000
 RMSDP=6.18D-03 MaxDP=2.69D-01 DE=-3.18D-01 OVMax= 6.39D-01

 Cycle   4  Pass 1  IDiag  1:
 E= -467.573923956184     Delta-E=        0.512936860946 Rises=F Damp=F
 DIIS: error= 5.29D-02 at cycle   4 NSaved=   4.
 NSaved= 4 IEnMin= 3 EnMin= -468.086860817130     IErMin= 2 ErrMin= 1.67D-02
 ErrMax= 5.29D-02 EMaxC= 1.00D-01 BMatC= 4.30D-01 BMatP= 6.34D-02
 IDIUse=2 WtCom= 0.00D+00 WtEn= 1.00D+00
 Coeff-En:   0.000D+00 0.000D+00 0.827D+00 0.173D+00
 Coeff:      0.000D+00 0.000D+00 0.827D+00 0.173D+00
 Gap=     0.051 Goal=   None    Shift=    0.000
 RMSDP=4.12D-03 MaxDP=2.53D-01 DE= 5.13D-01 OVMax= 4.98D-01

 Cycle   5  Pass 1  IDiag  1:
 E= -468.130379626325     Delta-E=       -0.556455670141 Rises=F Damp=F
 DIIS: error= 1.66D-02 at cycle   5 NSaved=   5.
 NSaved= 5 IEnMin= 5 EnMin= -468.130379626325     IErMin= 5 ErrMin= 1.66D-02
 ErrMax= 1.66D-02 EMaxC= 1.00D-01 BMatC= 3.88D-02 BMatP= 6.34D-02
 IDIUse=3 WtCom= 8.34D-01 WtEn= 1.66D-01
 Coeff-Com: -0.936D-02 0.716D-01 0.361D+00-0.662D-01 0.642D+00
 Coeff-En:   0.000D+00 0.000D+00 0.367D+00 0.000D+00 0.633D+00
 Coeff:     -0.781D-02 0.597D-01 0.362D+00-0.552D-01 0.641D+00
 Gap=     0.127 Goal=   None    Shift=    0.000
 RMSDP=1.28D-03 MaxDP=3.27D-02 DE=-5.56D-01 OVMax= 8.42D-02

 Cycle   6  Pass 1  IDiag  1:
 E= -468.173720095601     Delta-E=       -0.043340469276 Rises=F Damp=F
 DIIS: error= 1.76D-03 at cycle   6 NSaved=   6.
 NSaved= 6 IEnMin= 6 EnMin= -468.173720095601     IErMin= 6 ErrMin= 1.76D-03
 ErrMax= 1.76D-03 EMaxC= 1.00D-01 BMatC= 5.17D-04 BMatP= 3.88D-02
 IDIUse=3 WtCom= 9.82D-01 WtEn= 1.76D-02
 Coeff-Com: -0.404D-02 0.306D-01 0.134D+00-0.330D-01 0.298D+00 0.575D+00
 Coeff-En:   0.000D+00 0.000D+00 0.000D+00 0.000D+00 0.000D+00 0.100D+01
 Coeff:     -0.397D-02 0.300D-01 0.131D+00-0.325D-01 0.292D+00 0.583D+00
 Gap=     0.129 Goal=   None    Shift=    0.000
 RMSDP=1.98D-04 MaxDP=5.63D-03 DE=-4.33D-02 OVMax= 1.38D-02

 Cycle   7  Pass 1  IDiag  1:
 E= -468.174092728433     Delta-E=       -0.000372632832 Rises=F Damp=F
 DIIS: error= 1.23D-03 at cycle   7 NSaved=   7.
 NSaved= 7 IEnMin= 7 EnMin= -468.174092728433     IErMin= 7 ErrMin= 1.23D-03
 ErrMax= 1.23D-03 EMaxC= 1.00D-01 BMatC= 1.64D-04 BMatP= 5.17D-04
 IDIUse=3 WtCom= 9.88D-01 WtEn= 1.23D-02
 Coeff-Com: -0.172D-03 0.101D-02 0.996D-03-0.256D-02 0.337D-01 0.401D+00
 Coeff-Com:  0.566D+00
 Coeff-En:   0.000D+00 0.000D+00 0.000D+00 0.000D+00 0.000D+00 0.269D+00
 Coeff-En:   0.731D+00
 Coeff:     -0.169D-03 0.100D-02 0.984D-03-0.253D-02 0.333D-01 0.399D+00
 Coeff:      0.568D+00
 Gap=     0.128 Goal=   None    Shift=    0.000
 RMSDP=8.30D-05 MaxDP=1.98D-03 DE=-3.73D-04 OVMax= 5.51D-03

 Cycle   8  Pass 1  IDiag  1:
 E= -468.174265073299     Delta-E=       -0.000172344866 Rises=F Damp=F
 DIIS: error= 1.51D-04 at cycle   8 NSaved=   8.
 NSaved= 8 IEnMin= 8 EnMin= -468.174265073299     IErMin= 8 ErrMin= 1.51D-04
 ErrMax= 1.51D-04 EMaxC= 1.00D-01 BMatC= 4.87D-06 BMatP= 1.64D-04
 IDIUse=3 WtCom= 9.98D-01 WtEn= 1.51D-03
 Coeff-Com:  0.668D-04-0.571D-03-0.312D-02-0.323D-03 0.719D-02 0.175D+00
 Coeff-Com:  0.281D+00 0.541D+00
 Coeff-En:   0.000D+00 0.000D+00 0.000D+00 0.000D+00 0.000D+00 0.000D+00
 Coeff-En:   0.000D+00 0.100D+01
 Coeff:      0.667D-04-0.570D-03-0.312D-02-0.322D-03 0.718D-02 0.175D+00
 Coeff:      0.280D+00 0.542D+00
 Gap=     0.128 Goal=   None    Shift=    0.000
 RMSDP=1.43D-05 MaxDP=5.11D-04 DE=-1.72D-04 OVMax= 1.20D-03

 Cycle   9  Pass 1  IDiag  1:
 E= -468.174269224550     Delta-E=       -0.000004151250 Rises=F Damp=F
 DIIS: error= 4.59D-05 at cycle   9 NSaved=   9.
 NSaved= 9 IEnMin= 9 EnMin= -468.174269224550     IErMin= 9 ErrMin= 4.59D-05
 ErrMax= 4.59D-05 EMaxC= 1.00D-01 BMatC= 6.81D-07 BMatP= 4.87D-06
 IDIUse=1 WtCom= 1.00D+00 WtEn= 0.00D+00
 Coeff-Com:  0.172D-03-0.352D-03-0.128D-02 0.834D-04-0.721D-03 0.340D-01
 Coeff-Com:  0.646D-01 0.296D+00 0.607D+00
 Coeff:      0.172D-03-0.352D-03-0.128D-02 0.834D-04-0.721D-03 0.340D-01
 Coeff:      0.646D-01 0.296D+00 0.607D+00
 Gap=     0.128 Goal=   None    Shift=    0.000
 RMSDP=4.50D-06 MaxDP=1.15D-04 DE=-4.15D-06 OVMax= 2.19D-04

 Cycle  10  Pass 1  IDiag  1:
 E= -468.174269846047     Delta-E=       -0.000000621498 Rises=F Damp=F
 DIIS: error= 8.71D-06 at cycle  10 NSaved=  10.
 NSaved=10 IEnMin=10 EnMin= -468.174269846047     IErMin=10 ErrMin= 8.71D-06
 ErrMax= 8.71D-06 EMaxC= 1.00D-01 BMatC= 2.63D-08 BMatP= 6.81D-07
 IDIUse=1 WtCom= 1.00D+00 WtEn= 0.00D+00
 Coeff-Com:  0.104D-03-0.110D-03-0.316D-03 0.247D-05-0.741D-03 0.395D-02
 Coeff-Com:  0.110D-01 0.994D-01 0.246D+00 0.641D+00
 Coeff:      0.104D-03-0.110D-03-0.316D-03 0.247D-05-0.741D-03 0.395D-02
 Coeff:      0.110D-01 0.994D-01 0.246D+00 0.641D+00
 Gap=     0.128 Goal=   None    Shift=    0.000
 RMSDP=1.24D-06 MaxDP=2.72D-05 DE=-6.21D-07 OVMax= 7.81D-05

 Cycle  11  Pass 1  IDiag  1:
 E= -468.174269871313     Delta-E=       -0.000000025266 Rises=F Damp=F
 DIIS: error= 4.45D-06 at cycle  11 NSaved=  11.
 NSaved=11 IEnMin=11 EnMin= -468.174269871313     IErMin=11 ErrMin= 4.45D-06
 ErrMax= 4.45D-06 EMaxC= 1.00D-01 BMatC= 4.56D-09 BMatP= 2.63D-08
 IDIUse=1 WtCom= 1.00D+00 WtEn= 0.00D+00
 Coeff-Com:  0.323D-04-0.190D-04 0.688D-04-0.216D-04-0.173D-03-0.209D-02
 Coeff-Com: -0.280D-02 0.123D-01 0.374D-01 0.331D+00 0.625D+00
 Coeff:      0.323D-04-0.190D-04 0.688D-04-0.216D-04-0.173D-03-0.209D-02
 Coeff:     -0.280D-02 0.123D-01 0.374D-01 0.331D+00 0.625D+00
 Gap=     0.128 Goal=   None    Shift=    0.000
 RMSDP=4.47D-07 MaxDP=1.23D-05 DE=-2.53D-08 OVMax= 3.46D-05

 Cycle  12  Pass 1  IDiag  1:
 E= -468.174269876376     Delta-E=       -0.000000005062 Rises=F Damp=F
 DIIS: error= 6.10D-07 at cycle  12 NSaved=  12.
 NSaved=12 IEnMin=12 EnMin= -468.174269876376     IErMin=12 ErrMin= 6.10D-07
 ErrMax= 6.10D-07 EMaxC= 1.00D-01 BMatC= 1.61D-10 BMatP= 4.56D-09
 IDIUse=1 WtCom= 1.00D+00 WtEn= 0.00D+00
 Coeff-Com:  0.115D-05-0.103D-04 0.266D-04-0.309D-05 0.287D-05-0.484D-03
 Coeff-Com: -0.106D-02-0.254D-02-0.970D-02 0.157D-01 0.156D+00 0.842D+00
 Coeff:      0.115D-05-0.103D-04 0.266D-04-0.309D-05 0.287D-05-0.484D-03
 Coeff:     -0.106D-02-0.254D-02-0.970D-02 0.157D-01 0.156D+00 0.842D+00
 Gap=     0.128 Goal=   None    Shift=    0.000
 RMSDP=1.14D-07 MaxDP=2.48D-06 DE=-5.06D-09 OVMax= 1.19D-05

 Cycle  13  Pass 1  IDiag  1:
 E= -468.174269876556     Delta-E=       -0.000000000180 Rises=F Damp=F
 DIIS: error= 3.12D-07 at cycle  13 NSaved=  13.
 NSaved=13 IEnMin=13 EnMin= -468.174269876556     IErMin=13 ErrMin= 3.12D-07
 ErrMax= 3.12D-07 EMaxC= 1.00D-01 BMatC= 2.63D-11 BMatP= 1.61D-10
 IDIUse=1 WtCom= 1.00D+00 WtEn= 0.00D+00
 Coeff-Com: -0.741D-06-0.156D-05 0.117D-04-0.321D-05 0.143D-04-0.134D-03
 Coeff-Com: -0.362D-03-0.164D-02-0.659D-02-0.102D-01 0.464D-01 0.410D+00
 Coeff-Com:  0.562D+00
 Coeff:     -0.741D-06-0.156D-05 0.117D-04-0.321D-05 0.143D-04-0.134D-03
 Coeff:     -0.362D-03-0.164D-02-0.659D-02-0.102D-01 0.464D-01 0.410D+00
 Coeff:      0.562D+00
 Gap=     0.128 Goal=   None    Shift=    0.000
 RMSDP=3.35D-08 MaxDP=9.58D-07 DE=-1.80D-10 OVMax= 2.91D-06

 Cycle  14  Pass 1  IDiag  1:
 E= -468.174269876578     Delta-E=       -0.000000000022 Rises=F Damp=F
 DIIS: error= 6.01D-08 at cycle  14 NSaved=  14.
 NSaved=14 IEnMin=14 EnMin= -468.174269876578     IErMin=14 ErrMin= 6.01D-08
 ErrMax= 6.01D-08 EMaxC= 1.00D-01 BMatC= 1.49D-12 BMatP= 2.63D-11
 IDIUse=1 WtCom= 1.00D+00 WtEn= 0.00D+00
 Coeff-Com: -0.468D-06 0.822D-06-0.814D-07-0.718D-06 0.453D-05 0.321D-04
 Coeff-Com:  0.324D-04-0.262D-03-0.143D-02-0.776D-02-0.476D-02 0.284D-01
 Coeff-Com:  0.198D+00 0.788D+00
 Coeff:     -0.468D-06 0.822D-06-0.814D-07-0.718D-06 0.453D-05 0.321D-04
 Coeff:      0.324D-04-0.262D-03-0.143D-02-0.776D-02-0.476D-02 0.284D-01
 Coeff:      0.198D+00 0.788D+00
 Gap=     0.128 Goal=   None    Shift=    0.000
 RMSDP=1.30D-08 MaxDP=3.44D-07 DE=-2.17D-11 OVMax= 1.69D-06

 Cycle  15  Pass 1  IDiag  1:
 E= -468.174269876601     Delta-E=       -0.000000000023 Rises=F Damp=F
 DIIS: error= 2.94D-08 at cycle  15 NSaved=  15.
 NSaved=15 IEnMin=15 EnMin= -468.174269876601     IErMin=15 ErrMin= 2.94D-08
 ErrMax= 2.94D-08 EMaxC= 1.00D-01 BMatC= 1.68D-13 BMatP= 1.49D-12
 IDIUse=1 WtCom= 1.00D+00 WtEn= 0.00D+00
 Coeff-Com: -0.247D-06 0.523D-06-0.870D-06-0.279D-06 0.167D-05 0.243D-04
 Coeff-Com:  0.332D-04-0.322D-04-0.365D-03-0.295D-02-0.320D-02-0.255D-02
 Coeff-Com:  0.705D-01 0.364D+00 0.575D+00
 Coeff:     -0.247D-06 0.523D-06-0.870D-06-0.279D-06 0.167D-05 0.243D-04
 Coeff:      0.332D-04-0.322D-04-0.365D-03-0.295D-02-0.320D-02-0.255D-02
 Coeff:      0.705D-01 0.364D+00 0.575D+00
 Gap=     0.128 Goal=   None    Shift=    0.000
 RMSDP=2.90D-09 MaxDP=6.62D-08 DE=-2.33D-11 OVMax= 1.60D-07

 SCF Done:  E(RB3LYP) =  -468.174269877     A.U. after   15 cycles
             Convg  =    0.2902D-08             -V/T =  2.0093
 KE= 4.638461037499D+02 PE=-2.126554058030D+03 EE= 6.770569999572D+02
 Leave Link  502 at Sat Oct  2 17:38:07 2021, MaxMem=  805306368 cpu:     144.2
 (Enter /sw/target/amd/app/gaussian/Gaussian09RevA.02_gcc-4.9.2/g09/l508.exe)
 QCSCF skips out because SCF is already converged.
 Leave Link  508 at Sat Oct  2 17:38:09 2021, MaxMem=  805306368 cpu:       0.0
 (Enter /sw/target/amd/app/gaussian/Gaussian09RevA.02_gcc-4.9.2/g09/l601.exe)
 Copying SCF densities to generalized density rwf, IOpCl= 0 IROHF=0.

 **********************************************************************

            Population analysis using the SCF density.

 **********************************************************************

 Orbital symmetries:
       Occupied  (A) (A) (A) (A) (A) (A) (A) (A) (A) (A) (A) (A)
                 (A) (A) (A) (A) (A) (A) (A) (A) (A) (A) (A) (A)
                 (A) (A) (A) (A) (A) (A) (A) (A) (A) (A) (A) (A)
                 (A) (A)
       Virtual   (A) (A) (A) (A) (A) (A) (A) (A) (A) (A) (A) (A)
                 (A) (A) (A) (A) (A) (A) (A) (A) (A) (A) (A) (A)
                 (A) (A) (A) (A) (A) (A) (A) (A) (A) (A) (A) (A)
                 (A) (A) (A) (A) (A) (A) (A) (A) (A) (A) (A) (A)
                 (A) (A) (A) (A) (A) (A) (A) (A) (A) (A) (A) (A)
                 (A) (A) (A) (A) (A) (A) (A) (A) (A) (A) (A) (A)
                 (A) (A) (A) (A) (A) (A) (A) (A) (A) (A) (A) (A)
                 (A) (A) (A) (A) (A) (A) (A) (A) (A) (A) (A) (A)
                 (A) (A) (A) (A) (A) (A) (A) (A) (A) (A) (A) (A)
                 (A) (A) (A) (A) (A) (A) (A) (A) (A) (A) (A) (A)
                 (A) (A) (A) (A) (A) (A) (A) (A) (A) (A) (A) (A)
                 (A) (A) (A) (A) (A) (A) (A) (A) (A) (A) (A) (A)
                 (A)
 The electronic state is 1-A.
 Alpha  occ. eigenvalues --  -19.17139 -19.15774 -10.30321 -10.25066 -10.20962
 Alpha  occ. eigenvalues --  -10.15427 -10.15042 -10.14778 -10.14544 -10.11061
 Alpha  occ. eigenvalues --   -2.00831  -1.08364  -1.03158  -0.80539  -0.74452
 Alpha  occ. eigenvalues --   -0.69745  -0.68423  -0.65195  -0.57357  -0.55917
 Alpha  occ. eigenvalues --   -0.51655  -0.51527  -0.49910  -0.45035  -0.44291
 Alpha  occ. eigenvalues --   -0.42862  -0.41370  -0.39536  -0.35718  -0.35346
 Alpha  occ. eigenvalues --   -0.34861  -0.33552  -0.30128  -0.29606  -0.27527
 Alpha  occ. eigenvalues --   -0.20631  -0.18617  -0.18417
 Alpha virt. eigenvalues --   -0.05602  -0.00254   0.00726   0.04125   0.05186
 Alpha virt. eigenvalues --    0.05415   0.07176   0.11073   0.11812   0.11835
 Alpha virt. eigenvalues --    0.13217   0.14517   0.15651   0.16028   0.18715
 Alpha virt. eigenvalues --    0.18862   0.19279   0.19958   0.21283   0.22351
 Alpha virt. eigenvalues --    0.22590   0.23102   0.27911   0.31398   0.34806
 Alpha virt. eigenvalues --    0.35403   0.39114   0.40151   0.44641   0.48399
 Alpha virt. eigenvalues --    0.50839   0.52211   0.52309   0.57189   0.57288
 Alpha virt. eigenvalues --    0.57874   0.58590   0.60101   0.61457   0.61893
 Alpha virt. eigenvalues --    0.62148   0.63671   0.64604   0.65028   0.65462
 Alpha virt. eigenvalues --    0.67578   0.69016   0.71667   0.73233   0.75010
 Alpha virt. eigenvalues --    0.77722   0.80766   0.81046   0.83644   0.85463
 Alpha virt. eigenvalues --    0.87087   0.87796   0.88424   0.89135   0.90516
 Alpha virt. eigenvalues --    0.92518   0.93753   0.94883   0.96538   0.98166
 Alpha virt. eigenvalues --    1.00549   1.03298   1.05275   1.06399   1.07903
 Alpha virt. eigenvalues --    1.11519   1.14257   1.15469   1.16188   1.21511
 Alpha virt. eigenvalues --    1.24000   1.29740   1.30284   1.34825   1.35974
 Alpha virt. eigenvalues --    1.36106   1.41176   1.45667   1.45989   1.47701
 Alpha virt. eigenvalues --    1.50358   1.51744   1.53769   1.54249   1.62421
 Alpha virt. eigenvalues --    1.62454   1.67742   1.76044   1.80381   1.82526
 Alpha virt. eigenvalues --    1.86337   1.89217   1.91795   1.97308   1.97458
 Alpha virt. eigenvalues --    2.00258   2.01429   2.02141   2.05704   2.09425
 Alpha virt. eigenvalues --    2.09584   2.12371   2.14282   2.18438   2.18815
 Alpha virt. eigenvalues --    2.20374   2.21101   2.22100   2.29330   2.31092
 Alpha virt. eigenvalues --    2.31603   2.35485   2.40925   2.43873   2.48499
 Alpha virt. eigenvalues --    2.56851   2.61651   2.63803   2.66759   2.70850
 Alpha virt. eigenvalues --    2.71749   2.73347   2.78968   2.80131   2.84063
 Alpha virt. eigenvalues --    2.90948   2.99594   3.09418   3.28463   3.42289
 Alpha virt. eigenvalues --    3.96226   4.13994   4.16641   4.20743   4.23070
 Alpha virt. eigenvalues --    4.30668   4.39766   4.44041   4.51086   4.77755
          Condensed to atoms (all electrons):
              1          2          3          4          5          6
     1  C    4.904226   0.258694  -0.044920   0.003437  -0.000017   0.000002
     2  O    0.258694   8.175978   0.249004  -0.041764   0.000662  -0.000040
     3  C   -0.044920   0.249004   4.634432   0.284841  -0.027828   0.004320
     4  O    0.003437  -0.041764   0.284841   8.233312   0.235624  -0.057416
     5  C   -0.000017   0.000662  -0.027828   0.235624   4.581922   0.558447
     6  C    0.000002  -0.000040   0.004320  -0.057416   0.558447   4.981400
     7  C   -0.000000   0.000000  -0.000029   0.001917  -0.017488   0.534530
     8  C   -0.000000   0.000000   0.000017   0.000359  -0.033995  -0.036553
     9  C   -0.000000   0.000000   0.000179   0.003711  -0.032040  -0.037583
    10  C    0.000022   0.000261  -0.011289  -0.051216   0.488091  -0.066186
    11  Li   0.004252  -0.002101   0.019746  -0.024929  -0.025283   0.003084
    12  H    0.383870  -0.029874   0.005067  -0.000066   0.000002  -0.000000
    13  H    0.356695  -0.040468  -0.007378  -0.000094  -0.000001  -0.000000
    14  H    0.355590  -0.040206  -0.007507  -0.000096  -0.000000  -0.000000
    15  H   -0.006228  -0.042181   0.329750  -0.042809  -0.000708  -0.000061
    16  H   -0.005702  -0.042433   0.330558  -0.042920  -0.000650  -0.000056
    17  H    0.000001  -0.000015  -0.000422   0.000344  -0.042320   0.333207
    18  H    0.000000  -0.000000   0.000003  -0.000052   0.004321  -0.045052
    19  H   -0.000000  -0.000000  -0.000001   0.000004   0.000562   0.006292
    20  H    0.000000  -0.000000  -0.000033  -0.000051   0.004570   0.001009
              7          8          9         10         11         12
     1  C   -0.000000  -0.000000  -0.000000   0.000022   0.004252   0.383870
     2  O    0.000000   0.000000   0.000000   0.000261  -0.002101  -0.029874
     3  C   -0.000029   0.000017   0.000179  -0.011289   0.019746   0.005067
     4  O    0.001917   0.000359   0.003711  -0.051216  -0.024929  -0.000066
     5  C   -0.017488  -0.033995  -0.032040   0.488091  -0.025283   0.000002
     6  C    0.534530  -0.036553  -0.037583  -0.066186   0.003084  -0.000000
     7  C    4.883529   0.550665  -0.027244  -0.053392   0.002936   0.000000
     8  C    0.550665   4.861867   0.556441  -0.032888   0.003854   0.000000
     9  C   -0.027244   0.556441   4.957514   0.493541  -0.025834  -0.000000
    10  C   -0.053392  -0.032888   0.493541   5.051251   0.355818  -0.000000
    11  Li   0.002936   0.003854  -0.025834   0.355818   2.379851  -0.001572
    12  H    0.000000   0.000000  -0.000000  -0.000000  -0.001572   0.533330
    13  H   -0.000000  -0.000000   0.000000  -0.000013   0.004033  -0.032596
    14  H   -0.000000  -0.000000   0.000000  -0.000014   0.004199  -0.032430
    15  H    0.000001  -0.000011  -0.000050  -0.000179   0.022935  -0.000073
    16  H    0.000001  -0.000011  -0.000052  -0.000171   0.022587  -0.000079
    17  H   -0.053459   0.006014   0.000092   0.009023   0.000186   0.000000
    18  H    0.359635  -0.045322   0.005201   0.000181  -0.000047  -0.000000
    19  H   -0.050408   0.346148  -0.049451   0.006703  -0.000515   0.000000
    20  H    0.003844  -0.053430   0.350519  -0.049319  -0.017087  -0.000000
             13         14         15         16         17         18
     1  C    0.356695   0.355590  -0.006228  -0.005702   0.000001   0.000000
     2  O   -0.040468  -0.040206  -0.042181  -0.042433  -0.000015  -0.000000
     3  C   -0.007378  -0.007507   0.329750   0.330558  -0.000422   0.000003
     4  O   -0.000094  -0.000096  -0.042809  -0.042920   0.000344  -0.000052
     5  C   -0.000001  -0.000000  -0.000708  -0.000650  -0.042320   0.004321
     6  C   -0.000000  -0.000000  -0.000061  -0.000056   0.333207  -0.045052
     7  C   -0.000000  -0.000000   0.000001   0.000001  -0.053459   0.359635
     8  C   -0.000000  -0.000000  -0.000011  -0.000011   0.006014  -0.045322
     9  C    0.000000   0.000000  -0.000050  -0.000052   0.000092   0.005201
    10  C   -0.000013  -0.000014  -0.000179  -0.000171   0.009023   0.000181
    11  Li   0.004033   0.004199   0.022935   0.022587   0.000186  -0.000047
    12  H   -0.032596  -0.032430  -0.000073  -0.000079   0.000000  -0.000000
    13  H    0.623899  -0.050069  -0.003484   0.013159   0.000000  -0.000000
    14  H   -0.050069   0.625601   0.013411  -0.003678   0.000000  -0.000000
    15  H   -0.003484   0.013411   0.694730  -0.091983   0.000025  -0.000000
    16  H    0.013159  -0.003678  -0.091983   0.694238   0.000025  -0.000000
    17  H    0.000000   0.000000   0.000025   0.000025   0.644756  -0.007522
    18  H   -0.000000  -0.000000  -0.000000  -0.000000  -0.007522   0.621661
    19  H    0.000000   0.000000   0.000000   0.000000  -0.000125  -0.006393
    20  H    0.000000   0.000000   0.000014   0.000013   0.000031  -0.000237
             19         20
     1  C   -0.000000   0.000000
     2  O   -0.000000  -0.000000
     3  C   -0.000001  -0.000033
     4  O    0.000004  -0.000051
     5  C    0.000562   0.004570
     6  C    0.006292   0.001009
     7  C   -0.050408   0.003844
     8  C    0.346148  -0.053430
     9  C   -0.049451   0.350519
    10  C    0.006703  -0.049319
    11  Li  -0.000515  -0.017087
    12  H    0.000000  -0.000000
    13  H    0.000000   0.000000
    14  H    0.000000   0.000000
    15  H    0.000000   0.000014
    16  H    0.000000   0.000013
    17  H   -0.000125   0.000031
    18  H   -0.006393  -0.000237
    19  H    0.654797  -0.003788
    20  H   -0.003788   0.675114
 Mulliken atomic charges:
              1
     1  C   -0.209922
     2  O   -0.445518
     3  C    0.241491
     4  O   -0.502136
     5  C    0.306129
     6  C   -0.179344
     7  C   -0.135040
     8  C   -0.123154
     9  C   -0.194944
    10  C   -0.140222
    11  Li   0.273887
    12  H    0.174421
    13  H    0.136315
    14  H    0.135199
    15  H    0.126901
    16  H    0.127153
    17  H    0.110160
    18  H    0.113623
    19  H    0.096173
    20  H    0.088830
 Sum of Mulliken atomic charges =  -0.00000
 Mulliken charges with hydrogens summed into heavy atoms:
              1
     1  C    0.236013
     2  O   -0.445518
     3  C    0.495546
     4  O   -0.502136
     5  C    0.306129
     6  C   -0.069185
     7  C   -0.021417
     8  C   -0.026982
     9  C   -0.106114
    10  C   -0.140222
    11  Li   0.273887
 Sum of Mulliken charges with hydrogens summed into heavy atoms =  -0.00000
 Electronic spatial extent (au):  <R**2>=           2111.5211
 Charge=             -0.0000 electrons
 Dipole moment (field-independent basis, Debye):
    X=              4.5623    Y=              6.0940    Z=              0.0096  Tot=              7.6126
 Quadrupole moment (field-independent basis, Debye-Ang):
   XX=            -56.2711   YY=            -45.8954   ZZ=            -65.3252
   XY=             10.8276   XZ=              0.0286   YZ=             -0.0291
 Traceless Quadrupole moment (field-independent basis, Debye-Ang):
   XX=             -0.4405   YY=              9.9351   ZZ=             -9.4946
   XY=             10.8276   XZ=              0.0286   YZ=             -0.0291
 Octapole moment (field-independent basis, Debye-Ang**2):
  XXX=             62.1177  YYY=             43.9072  ZZZ=              0.0073  XYY=             14.4769
  XXY=              4.6293  XXZ=              0.0435  XZZ=             15.7178  YZZ=             -3.3679
  YYZ=             -0.0725  XYZ=             -0.0177
 Hexadecapole moment (field-independent basis, Debye-Ang**3):
 XXXX=          -2086.6240 YYYY=           -273.3870 ZZZZ=            -88.1529 XXXY=             20.7517
 XXXZ=             -0.2577 YYYX=             37.6051 YYYZ=             -0.1817 ZZZX=              0.0882
 ZZZY=              0.0237 XXYY=           -457.9457 XXZZ=           -423.2986 YYZZ=            -94.8695
 XXYZ=              0.0071 YYXZ=             -0.1119 ZZXY=              0.8271
 N-N= 5.174766844459D+02 E-N=-2.126554055138D+03  KE= 4.638461037499D+02
 No NMR shielding tensors so no spin-rotation constants.
 Leave Link  601 at Sat Oct  2 17:38:12 2021, MaxMem=  805306368 cpu:       0.9
 (Enter /sw/target/amd/app/gaussian/Gaussian09RevA.02_gcc-4.9.2/g09/l701.exe)
 Compute integral first derivatives.
 ... and contract with generalized density number  0.
 Leave Link  701 at Sat Oct  2 17:38:15 2021, MaxMem=  805306368 cpu:       0.9
 (Enter /sw/target/amd/app/gaussian/Gaussian09RevA.02_gcc-4.9.2/g09/l702.exe)
 L702 exits ... SP integral derivatives will be done elsewhere.
 Leave Link  702 at Sat Oct  2 17:38:16 2021, MaxMem=  805306368 cpu:       0.1
 (Enter /sw/target/amd/app/gaussian/Gaussian09RevA.02_gcc-4.9.2/g09/l703.exe)
 Compute integral first derivatives, UseDBF=F ICtDFT=           0.
 Integral derivatives from FoFDir, PRISM(SPDF).
 Calling FoFJK, ICntrl=      2127 FMM=F ISym2X=0 I1Cent= 0 IOpClX= 0 NMat=1 NMatS=1 NMatT=0.
 FoFCou: FMM=F IPFlag=           0 FMFlag=      100000 FMFlg1=         800
         NFxFlg=           0 DoJE=F BraDBF=F KetDBF=F FulRan=T
         Omega=  0.000000  0.000000  1.000000  0.000000  0.000000 ICntrl=    2127 IOpCl=  0
         NMat0=    1 NMatS0=    1 NMatT0=    0 NMatD0=    1 NMtDS0=    0 NMtDT0=    0
         I1Cent=           0 NGrid=           0.
 Symmetry not used in FoFCou.
 Leave Link  703 at Sat Oct  2 17:40:49 2021, MaxMem=  805306368 cpu:      51.3
 (Enter /sw/target/amd/app/gaussian/Gaussian09RevA.02_gcc-4.9.2/g09/l716.exe)
 Dipole        = 1.79496109D+00 2.39755536D+00 3.75818338D-03
 ***** Axes restored to original set *****
 -------------------------------------------------------------------
 Center     Atomic                   Forces (Hartrees/Bohr)
 Number     Number              X              Y              Z
 -------------------------------------------------------------------
      1        6          -0.007230990    0.004126748    0.013015407
      2        8           0.008084431   -0.004778563   -0.008757207
      3        6           0.004395845   -0.002470257   -0.014982166
      4        8          -0.035295318    0.019379934    0.009958538
      5        6           0.032569628   -0.018231300   -0.024369736
      6        6          -0.008247447    0.004593177    0.001453809
      7        6           0.004296359   -0.002238960    0.009526215
      8        6           0.002756155   -0.001540885   -0.003017854
      9        6          -0.017836536    0.009607638   -0.007927457
     10        6           0.009045802   -0.004306625    0.038364992
     11        3          -0.002686320    0.001388538   -0.005370225
     12        1           0.005500416   -0.002876193   -0.008923946
     13        1          -0.003301538   -0.007380591   -0.000465790
     14        1           0.004065575    0.006906039   -0.000890049
     15        1           0.002437930    0.000576068    0.005655260
     16        1           0.000846784   -0.002301826    0.005665058
     17        1          -0.003878451    0.002117247    0.000317347
     18        1          -0.002211789    0.001176367   -0.002094403
     19        1           0.001412096   -0.000839843   -0.004960794
     20        1           0.005277368   -0.002906715   -0.002197001
 -------------------------------------------------------------------
 Cartesian Forces:  Max     0.038364992 RMS     0.010872718
 Leave Link  716 at Sat Oct  2 17:40:50 2021, MaxMem=  805306368 cpu:       0.1
 (Enter /sw/target/amd/app/gaussian/Gaussian09RevA.02_gcc-4.9.2/g09/l103.exe)

 GradGradGradGradGradGradGradGradGradGradGradGradGradGradGradGradGradGrad
 Berny optimization.
 Internal  Forces:  Max     0.027327585 RMS     0.006304403
 Search for a local minimum.
 Step number   1 out of a maximum of   97
 All quantities printed in internal units (Hartrees-Bohrs-Radians)
 RMS Force = .63044D-02 SwitMx=.10000D-02 MixMth= 1
 Mixed Optimization -- RFO/linear search
 Second derivative matrix not updated -- first step.
     Eigenvalues ---    0.01560   0.01567   0.01959   0.02030   0.02059
     Eigenvalues ---    0.02081   0.02089   0.02103   0.02114   0.02119
     Eigenvalues ---    0.02120   0.02121   0.02266   0.08414   0.08653
     Eigenvalues ---    0.09865   0.09983   0.10559   0.11987   0.14341
     Eigenvalues ---    0.16000   0.16000   0.16000   0.16000   0.16000
     Eigenvalues ---    0.16000   0.16000   0.22000   0.22264   0.22491
     Eigenvalues ---    0.24481   0.25000   0.25000   0.25000   0.25000
     Eigenvalues ---    0.32093   0.32094   0.32299   0.32318   0.32658
     Eigenvalues ---    0.35647   0.35701   0.35715   0.35777   0.41434
     Eigenvalues ---    0.41702   0.44003   0.44093   0.45008   0.45664
     Eigenvalues ---    0.45928   0.46021   0.49145   0.536471000.00000
     Eigenvalues --- 1000.000001000.000001000.000001000.000001000.00000
     Eigenvalues --- 1000.000001000.000001000.000001000.000001000.00000
     Eigenvalues --- 1000.000001000.000001000.000001000.000001000.00000
     Eigenvalues --- 1000.000001000.000001000.000001000.000001000.00000
     Eigenvalues --- 1000.000001000.000001000.000001000.000001000.00000
     Eigenvalues --- 1000.000001000.000001000.000001000.000001000.00000
     Eigenvalues --- 1000.000001000.00000
 RFO step:  Lambda=-1.32042461D-02 EMin= 1.55950899D-02
 Linear search not attempted -- first point.
 Iteration  1 RMS(Cart)=  0.03912246 RMS(Int)=  0.00089587
 Iteration  2 RMS(Cart)=  0.00212352 RMS(Int)=  0.00030666
 Iteration  3 RMS(Cart)=  0.00000100 RMS(Int)=  0.00030666
 Iteration  4 RMS(Cart)=  0.00000000 RMS(Int)=  0.00030666
 Variable       Old X    -DE/DX   Delta X   Delta X   Delta X     New X
                                 (Linear)    (Quad)   (Total)
    R1        2.66343   0.00224   0.00000   0.00494   0.00494   2.66838
    R2        2.09656  -0.01026   0.00000  -0.03021  -0.03021   2.06636
    R3        2.10266  -0.00655   0.00000  -0.01946  -0.01946   2.08320
    R4        2.10300  -0.00658   0.00000  -0.01956  -0.01956   2.08345
    R5        2.66451  -0.01015   0.00000  -0.02239  -0.02239   2.64212
    R6        2.60738  -0.00381   0.00000  -0.00754  -0.00754   2.59983
    R7        2.10674   0.00057   0.00000   0.00172   0.00172   2.10846
    R8        2.10673   0.00046   0.00000   0.00137   0.00137   2.10810
    R9        2.56354   0.01403   0.00000   0.02552   0.02552   2.58906
   R10        2.64804  -0.00159   0.00000  -0.00359  -0.00351   2.64453
   R11        2.65984   0.00024   0.00000   0.00085   0.00107   2.66091
   R12        2.64294  -0.00455   0.00000  -0.01013  -0.01027   2.63267
   R13        2.04637   0.00438   0.00000   0.01184   0.01184   2.05821
   R14        2.64102  -0.00162   0.00000  -0.00374  -0.00396   2.63706
   R15        2.04552   0.00297   0.00000   0.00802   0.00802   2.05354
   R16        2.64139   0.00327   0.00000   0.00708   0.00701   2.64839
   R17        2.04530   0.00502   0.00000   0.01355   0.01355   2.05885
   R18        2.64086   0.00934   0.00000   0.02021   0.02034   2.66121
   R19        2.04432   0.00583   0.00000   0.01570   0.01570   2.06002
   R20        3.82671  -0.00616   0.00000  -0.06326  -0.06326   3.76345
    A1        1.89026  -0.00472   0.00000  -0.02351  -0.02343   1.86683
    A2        1.94255   0.00256   0.00000   0.01282   0.01288   1.95543
    A3        1.94442   0.00218   0.00000   0.01062   0.01068   1.95510
    A4        1.86883   0.00269   0.00000   0.01929   0.01937   1.88820
    A5        1.86697   0.00285   0.00000   0.02015   0.02022   1.88719
    A6        1.94667  -0.00554   0.00000  -0.03844  -0.03839   1.90827
    A7        1.90799   0.01090   0.00000   0.04141   0.04141   1.94940
    A8        1.89249  -0.01255   0.00000  -0.05051  -0.05016   1.84233
    A9        1.92541  -0.00026   0.00000  -0.01326  -0.01291   1.91250
   A10        1.92658  -0.00024   0.00000  -0.01314  -0.01279   1.91379
   A11        1.89308   0.00849   0.00000   0.05194   0.05130   1.94438
   A12        1.89310   0.00849   0.00000   0.05191   0.05127   1.94437
   A13        1.93211  -0.00381   0.00000  -0.02517  -0.02661   1.90550
   A14        2.18580  -0.02733   0.00000  -0.10383  -0.10383   2.08197
   A15        2.07173  -0.01824   0.00000  -0.06930  -0.06945   2.00229
   A16        2.13117   0.00226   0.00000   0.00861   0.00846   2.13963
   A17        2.08028   0.01598   0.00000   0.06069   0.06099   2.14127
   A18        2.10152  -0.00439   0.00000  -0.02053  -0.02059   2.08093
   A19        2.09446   0.00148   0.00000   0.00614   0.00617   2.10064
   A20        2.08720   0.00291   0.00000   0.01439   0.01442   2.10162
   A21        2.09562   0.00146   0.00000   0.00430   0.00393   2.09956
   A22        2.09375  -0.00212   0.00000  -0.01019  -0.01000   2.08374
   A23        2.09381   0.00066   0.00000   0.00588   0.00607   2.09988
   A24        2.09358  -0.00262   0.00000  -0.01183  -0.01214   2.08144
   A25        2.09482  -0.00018   0.00000  -0.00269  -0.00254   2.09228
   A26        2.09479   0.00280   0.00000   0.01453   0.01468   2.10947
   A27        2.09561   0.00962   0.00000   0.04233   0.04239   2.13801
   A28        2.09686  -0.00755   0.00000  -0.03698  -0.03701   2.05985
   A29        2.09071  -0.00207   0.00000  -0.00535  -0.00538   2.08533
   A30        2.09975  -0.02004   0.00000  -0.07496  -0.07458   2.02517
   A31        2.11177   0.00950   0.00000   0.03551   0.03532   2.14709
   A32        2.07166   0.01054   0.00000   0.03945   0.03926   2.11092
    D1       -3.12782  -0.00006   0.00000  -0.00237  -0.00237  -3.13020
    D2        1.10551  -0.00193   0.00000  -0.01886  -0.01883   1.08668
    D3       -1.07917   0.00178   0.00000   0.01389   0.01386  -1.06531
    D4       -3.13753   0.00000   0.00000  -0.00002  -0.00002  -3.13755
    D5        1.07488  -0.00258   0.00000  -0.02490  -0.02491   1.04997
    D6       -1.06604   0.00258   0.00000   0.02482   0.02482  -1.04122
    D7       -3.13804  -0.00003   0.00000  -0.00089  -0.00089  -3.13893
    D8       -1.04693  -0.00268   0.00000  -0.01600  -0.01742  -1.06435
    D9        1.05260   0.00261   0.00000   0.01412   0.01553   1.06814
   D10       -3.13843  -0.00003   0.00000  -0.00099  -0.00100  -3.13943
   D11        0.00400  -0.00006   0.00000  -0.00172  -0.00170   0.00230
   D12       -3.14123  -0.00001   0.00000  -0.00012  -0.00010  -3.14133
   D13        0.00083  -0.00002   0.00000  -0.00053  -0.00051   0.00032
   D14       -0.00045   0.00002   0.00000   0.00057   0.00057   0.00012
   D15       -3.14158   0.00000   0.00000   0.00016   0.00017  -3.14141
   D16        3.14110  -0.00000   0.00000   0.00017   0.00019   3.14130
   D17       -0.00049   0.00001   0.00000   0.00042   0.00043  -0.00006
   D18        0.00035  -0.00002   0.00000  -0.00050  -0.00050  -0.00015
   D19       -3.14124  -0.00001   0.00000  -0.00025  -0.00027  -3.14151
   D20        0.00043  -0.00002   0.00000  -0.00041  -0.00040   0.00003
   D21       -3.14133  -0.00001   0.00000  -0.00026  -0.00025  -3.14159
   D22        3.14155  -0.00000   0.00000  -0.00001   0.00000   3.14156
   D23       -0.00021   0.00000   0.00000   0.00014   0.00015  -0.00006
   D24       -0.00030   0.00001   0.00000   0.00016   0.00016  -0.00014
   D25        3.14135   0.00001   0.00000   0.00023   0.00022   3.14158
   D26        3.14146  -0.00000   0.00000   0.00001   0.00002   3.14148
   D27       -0.00007   0.00000   0.00000   0.00007   0.00007   0.00000
   D28        0.00020  -0.00000   0.00000  -0.00009  -0.00009   0.00010
   D29        3.14131   0.00001   0.00000   0.00025   0.00024   3.14155
   D30       -3.14145  -0.00000   0.00000  -0.00015  -0.00016   3.14158
   D31       -0.00034   0.00001   0.00000   0.00019   0.00018  -0.00016
   D32       -0.00023   0.00001   0.00000   0.00027   0.00026   0.00004
   D33        3.14137  -0.00000   0.00000   0.00003   0.00003   3.14140
   D34       -3.14134  -0.00000   0.00000  -0.00006  -0.00007  -3.14141
   D35        0.00025  -0.00001   0.00000  -0.00030  -0.00030  -0.00005
         Item               Value     Threshold  Converged?
 Maximum Force            0.027328     0.000450     NO 
 RMS     Force            0.006304     0.000300     NO 
 Maximum Displacement     0.178028     0.001800     NO 
 RMS     Displacement     0.040358     0.001200     NO 
 Predicted change in Energy=-6.979727D-03
 GradGradGradGradGradGradGradGradGradGradGradGradGradGradGradGradGradGrad

 Leave Link  103 at Sat Oct  2 17:41:02 2021, MaxMem=  805306368 cpu:       2.9
 (Enter /sw/target/amd/app/gaussian/Gaussian09RevA.02_gcc-4.9.2/g09/l202.exe)
                          Input orientation:                          
 ---------------------------------------------------------------------
 Center     Atomic      Atomic             Coordinates (Angstroms)
 Number     Number       Type             X           Y           Z
 ---------------------------------------------------------------------
      1          6           0        4.105338   -0.964062    2.021952
      2          8           0        3.759890   -0.803818    0.662226
      3          6           0        4.732542   -1.343081   -0.185103
      4          8           0        4.276061   -1.115474   -1.462823
      5          6           0        5.025440   -1.540837   -2.527995
      6          6           0        4.473313   -1.257646   -3.782324
      7          6           0        5.157708   -1.649085   -4.930908
      8          6           0        6.379450   -2.315737   -4.829585
      9          6           0        6.908971   -2.586194   -3.560499
     10          6           0        6.254278   -2.210347   -2.371683
     11          3           0        7.049017   -2.618523   -0.591801
     12          1           0        3.292947   -0.529428    2.610839
     13          1           0        5.037332   -0.433535    2.277249
     14          1           0        4.201539   -2.026171    2.301598
     15          1           0        4.843145   -2.434332    0.019435
     16          1           0        5.709654   -0.835691   -0.005442
     17          1           0        3.519639   -0.737197   -3.859164
     18          1           0        4.731371   -1.430508   -5.906277
     19          1           0        6.908888   -2.618778   -5.732285
     20          1           0        7.864483   -3.107975   -3.504835
 ---------------------------------------------------------------------
                    Distance matrix (angstroms):
                    1          2          3          4          5
     1  C    0.000000
     2  O    1.412044   0.000000
     3  C    2.325538   1.398150   0.000000
     4  O    3.492238   2.208936   1.375773   0.000000
     5  C    4.677742   3.510316   2.369396   1.370070   0.000000
     6  C    5.823334   4.524263   3.607562   2.332210   1.399422
     7  C    7.065338   5.826793   4.774628   3.617963   2.408984
     8  C    7.344533   6.269608   5.022906   4.147284   2.780492
     9  C    6.454102   5.561024   4.204221   3.673619   2.388834
    10  C    5.047296   4.171918   2.801600   2.436825   1.408091
    11  Li   4.270151   3.960315   2.675484   3.272174   3.000853
    12  H    1.093469   2.022478   3.248347   4.231393   5.516529
    13  H    1.102382   2.092192   2.642602   3.877205   4.931189
    14  H    1.102512   2.092066   2.632917   3.873731   4.923345
    15  H    2.591549   2.060388   1.115749   2.063507   2.705728
    16  H    2.588558   2.061159   1.115559   2.063353   2.707148
    17  H    5.914562   4.528259   3.916243   2.541204   2.164552
    18  H    7.966574   6.669464   5.721843   4.477816   3.392852
    19  H    8.409885   7.355273   6.093859   5.236411   3.869989
    20  H    7.019466   6.286591   4.893315   4.584391   3.386784
                    6          7          8          9         10
     6  C    0.000000
     7  C    1.393150   0.000000
     8  C    2.418609   1.395473   0.000000
     9  C    2.783284   2.413112   1.401469   0.000000
    10  C    2.463612   2.840266   2.463343   1.408250   0.000000
    11  Li   4.320379   4.831636   4.301024   2.972175   1.991531
    12  H    6.541873   7.849135   8.250898   7.442535   6.034940
    13  H    6.141311   7.310922   7.473356   6.497405   5.123533
    14  H    6.138289   7.305175   7.461964   6.481357   5.107564
    15  H    3.996841   5.022097   5.087956   4.136016   2.785482
    16  H    3.996426   5.022595   5.090336   4.140176   2.790231
    17  H    1.089158   2.159501   3.407642   3.872410   3.443983
    18  H    2.146544   1.086685   2.158486   3.402973   3.926926
    19  H    3.403976   2.156186   1.089498   2.172030   3.448039
    20  H    3.873080   3.389494   2.141944   1.090118   2.163915
                   11         12         13         14         15
    11  Li   0.000000
    12  H    5.359971   0.000000
    13  H    4.129467   1.778582   0.000000
    14  H    4.102533   1.778035   1.798786   0.000000
    15  H    2.296390   3.570315   3.023014   2.405518   0.000000
    16  H    2.305689   3.574800   2.413385   3.002347   1.818546
    17  H    5.164451   6.477307   6.328600   6.330990   4.435704
    18  H    5.918321   8.684600   8.249707   8.246499   6.011175
    19  H    5.142393   9.329959   8.510619   8.498482   6.114213
    20  H    3.064362   8.059114   6.969785   6.949973   4.690710
                   16         17         18         19         20
    16  H    0.000000
    17  H    4.433626   0.000000
    18  H    6.010882   2.477830   0.000000
    19  H    6.116722   4.305338   2.486733   0.000000
    20  H    4.695989   4.962238   4.289197   2.472652   0.000000
 Stoichiometry    C8H9LiO2
 Framework group  C1[X(C8H9LiO2)]
 Deg. of freedom    54
 Full point group                 C1      NOp   1
 Largest Abelian subgroup         C1      NOp   1
 Largest concise Abelian subgroup C1      NOp   1
                         Standard orientation:                         
 ---------------------------------------------------------------------
 Center     Atomic      Atomic             Coordinates (Angstroms)
 Number     Number       Type             X           Y           Z
 ---------------------------------------------------------------------
      1          6           0        4.052108    0.211890    0.002626
      2          8           0        2.906157   -0.613106   -0.003952
      3          6           0        1.727705    0.139257    0.000878
      4          8           0        0.703483   -0.779283   -0.000958
      5          6           0       -0.593296   -0.337178   -0.000305
      6          6           0       -1.557446   -1.351475    0.000440
      7          6           0       -2.907312   -1.006906    0.000828
      8          6           0       -3.291398    0.334669    0.000444
      9          6           0       -2.304459    1.329690   -0.000171
     10          6           0       -0.928366    1.030465   -0.000542
     11          3           0        0.435300    2.481883   -0.001746
     12          1           0        4.922055   -0.450381   -0.013635
     13          1           0        4.109450    0.832967    0.911594
     14          1           0        4.098858    0.861528   -0.886934
     15          1           0        1.694544    0.787937   -0.906322
     16          1           0        1.696607    0.781887    0.912213
     17          1           0       -1.255509   -2.397945    0.000771
     18          1           0       -3.658212   -1.792421    0.001413
     19          1           0       -4.348979    0.596445    0.000735
     20          1           0       -2.627054    2.370982   -0.000501
 ---------------------------------------------------------------------
 Rotational constants (GHZ):      3.3328446      0.6129355      0.5212438
 Leave Link  202 at Sat Oct  2 17:41:03 2021, MaxMem=  805306368 cpu:       0.0
 (Enter /sw/target/amd/app/gaussian/Gaussian09RevA.02_gcc-4.9.2/g09/l301.exe)
 Standard basis: 6-31G(d) (6D, 7F)
 Ernie: Thresh=  0.10000D-02 Tol=  0.10000D-05 Strict=F.
 There are   183 symmetry adapted basis functions of A   symmetry.
 Integral buffers will be    131072 words long.
 Raffenetti 2 integral format.
 Two-electron integral symmetry is turned on.
   183 basis functions,   344 primitive gaussians,   183 cartesian basis functions
    38 alpha electrons       38 beta electrons
       nuclear repulsion energy       520.0163748194 Hartrees.
 IExCor=  402 DFT=T Ex+Corr=B3LYP ExCW=0 ScaHFX=  0.200000
 ScaDFX=  0.800000  0.720000  1.000000  0.810000 ScalE2=  1.000000  1.000000
 IRadAn=      0 IRanWt=     -1 IRanGd=            0 ICorTp=0
 NAtoms=   20 NActive=   20 NUniq=   20 SFac= 7.50D-01 NAtFMM=   80 NAOKFM=F Big=F
 Leave Link  301 at Sat Oct  2 17:41:03 2021, MaxMem=  805306368 cpu:       0.1
 (Enter /sw/target/amd/app/gaussian/Gaussian09RevA.02_gcc-4.9.2/g09/l302.exe)
 NPDir=0 NMtPBC=     1 NCelOv=     1 NCel=       1 NClECP=     1 NCelD=      1
         NCelK=      1 NCelE2=     1 NClLst=     1 CellRange=     0.0.
 One-electron integrals computed using PRISM.
 NBasis=   183 RedAO= T  NBF=   183
 NBsUse=   183 1.00D-06 NBFU=   183
 Precomputing XC quadrature grid using
 IXCGrd= 2 IRadAn=           0 IRanWt=          -1 IRanGd=           0 AccXCQ= 1.00D-10.
 NRdTot=    1285 NPtTot=      163186 NUsed=      172454 NTot=      172486
 NSgBfM=   183   183   183   183   183 NAtAll=    20    20.
 Leave Link  302 at Sat Oct  2 17:41:08 2021, MaxMem=  805306368 cpu:       1.2
 (Enter /sw/target/amd/app/gaussian/Gaussian09RevA.02_gcc-4.9.2/g09/l303.exe)
 DipDrv:  MaxL=1.
 Leave Link  303 at Sat Oct  2 17:41:09 2021, MaxMem=  805306368 cpu:       0.1
 (Enter /sw/target/amd/app/gaussian/Gaussian09RevA.02_gcc-4.9.2/g09/l401.exe)
 Initial guess read from the read-write file.
 B after Tr=     0.000000    0.000000    0.000000
         Rot=    1.000000    0.000000    0.000000    0.000000 Ang=   0.00 deg.
 Guess basis will be translated and rotated to current coordinates.
 Initial guess orbital symmetries:
       Occupied  (A) (A) (A) (A) (A) (A) (A) (A) (A) (A) (A) (A)
                 (A) (A) (A) (A) (A) (A) (A) (A) (A) (A) (A) (A)
                 (A) (A) (A) (A) (A) (A) (A) (A) (A) (A) (A) (A)
                 (A) (A)
       Virtual   (A) (A) (A) (A) (A) (A) (A) (A) (A) (A) (A) (A)
                 (A) (A) (A) (A) (A) (A) (A) (A) (A) (A) (A) (A)
                 (A) (A) (A) (A) (A) (A) (A) (A) (A) (A) (A) (A)
                 (A) (A) (A) (A) (A) (A) (A) (A) (A) (A) (A) (A)
                 (A) (A) (A) (A) (A) (A) (A) (A) (A) (A) (A) (A)
                 (A) (A) (A) (A) (A) (A) (A) (A) (A) (A) (A) (A)
                 (A) (A) (A) (A) (A) (A) (A) (A) (A) (A) (A) (A)
                 (A) (A) (A) (A) (A) (A) (A) (A) (A) (A) (A) (A)
                 (A) (A) (A) (A) (A) (A) (A) (A) (A) (A) (A) (A)
                 (A) (A) (A) (A) (A) (A) (A) (A) (A) (A) (A) (A)
                 (A) (A) (A) (A) (A) (A) (A) (A) (A) (A) (A) (A)
                 (A) (A) (A) (A) (A) (A) (A) (A) (A) (A) (A) (A)
                 (A)
 The electronic state of the initial guess is 1-A.
 Generating alternative initial guess.
 Harris functional with IExCor=  402 diagonalized for initial guess.
 ExpMin= 3.60D-02 ExpMax= 5.48D+03 ExpMxC= 8.25D+02 IAcc=3 IRadAn=         0 AccDes= 0.00D+00
 HarFok:  IExCor=  402 AccDes= 0.00D+00 IRadAn=         0 IDoV= 1
 ScaDFX=  1.000000  1.000000  1.000000  1.000000
 FoFCou: FMM=F IPFlag=           0 FMFlag=      100000 FMFlg1=           0
         NFxFlg=           0 DoJE=T BraDBF=F KetDBF=T FulRan=T
         Omega=  0.000000  0.000000  1.000000  0.000000  0.000000 ICntrl=     500 IOpCl=  0
         NMat0=    1 NMatS0=    1 NMatT0=    0 NMatD0=    1 NMtDS0=    0 NMtDT0=    0
         I1Cent=           4 NGrid=           0.
 Petite list used in FoFCou.
 Harris En= -468.296037928299    
 Leave Link  401 at Sat Oct  2 17:41:46 2021, MaxMem=  805306368 cpu:      12.6
 (Enter /sw/target/amd/app/gaussian/Gaussian09RevA.02_gcc-4.9.2/g09/l502.exe)
 Closed shell SCF:
 Requested convergence on RMS density matrix=1.00D-08 within  64 cycles.
 Requested convergence on MAX density matrix=1.00D-06.
 Requested convergence on             energy=1.00D-06.
 No special actions if energy rises.
 Using DIIS extrapolation, IDIIS=  1040.
 Integral symmetry usage will be decided dynamically.
       172261 words used for storage of precomputed grid.
 Keep R1 ints in memory in canonical form, NReq=145129287.
 IEnd=      280747 IEndB=      280747 NGot=   805306368 MDV=   663329624
 LenX=   663329624 LenY=   663295694
 Symmetry not used in FoFDir.
 MinBra= 0 MaxBra= 2 Meth= 1.
 IRaf=       0 NMat=   1 IRICut=       1 DoRegI=T DoRafI=F ISym2E= 0 JSym2E=0.

 Cycle   1  Pass 1  IDiag  1:
 E= -468.178119689485    
 DIIS: error= 2.30D-03 at cycle   1 NSaved=   1.
 NSaved= 1 IEnMin= 1 EnMin= -468.178119689485     IErMin= 1 ErrMin= 2.30D-03
 ErrMax= 2.30D-03 EMaxC= 1.00D-01 BMatC= 2.22D-03 BMatP= 2.22D-03
 IDIUse=3 WtCom= 9.77D-01 WtEn= 2.30D-02
 Coeff-Com:  0.100D+01
 Coeff-En:   0.100D+01
 Coeff:      0.100D+01
 Gap=     0.131 Goal=   None    Shift=    0.000
 GapD=    0.131 DampG=1.000 DampE=1.000 DampFc=1.0000 IDamp=-1.
 RMSDP=6.22D-04 MaxDP=1.00D-02              OVMax= 2.34D-02

 Cycle   2  Pass 1  IDiag  1:
 E= -468.181940872316     Delta-E=       -0.003821182830 Rises=F Damp=F
 DIIS: error= 9.11D-04 at cycle   2 NSaved=   2.
 NSaved= 2 IEnMin= 2 EnMin= -468.181940872316     IErMin= 2 ErrMin= 9.11D-04
 ErrMax= 9.11D-04 EMaxC= 1.00D-01 BMatC= 1.83D-04 BMatP= 2.22D-03
 IDIUse=3 WtCom= 9.91D-01 WtEn= 9.11D-03
 Coeff-Com:  0.481D-01 0.952D+00
 Coeff-En:   0.000D+00 0.100D+01
 Coeff:      0.476D-01 0.952D+00
 Gap=     0.130 Goal=   None    Shift=    0.000
 RMSDP=1.92D-04 MaxDP=5.71D-03 DE=-3.82D-03 OVMax= 1.18D-02

 Cycle   3  Pass 1  IDiag  1:
 E= -468.181732558258     Delta-E=        0.000208314058 Rises=F Damp=F
 DIIS: error= 1.28D-03 at cycle   3 NSaved=   3.
 NSaved= 3 IEnMin= 2 EnMin= -468.181940872316     IErMin= 2 ErrMin= 9.11D-04
 ErrMax= 1.28D-03 EMaxC= 1.00D-01 BMatC= 3.90D-04 BMatP= 1.83D-04
 IDIUse=3 WtCom= 2.19D-01 WtEn= 7.81D-01
 Coeff-Com: -0.357D-01 0.619D+00 0.417D+00
 Coeff-En:   0.000D+00 0.656D+00 0.344D+00
 Coeff:     -0.781D-02 0.648D+00 0.360D+00
 Gap=     0.129 Goal=   None    Shift=    0.000
 RMSDP=1.08D-04 MaxDP=3.41D-03 DE= 2.08D-04 OVMax= 7.63D-03

 Cycle   4  Pass 1  IDiag  1:
 E= -468.182133783549     Delta-E=       -0.000401225291 Rises=F Damp=F
 DIIS: error= 2.67D-04 at cycle   4 NSaved=   4.
 NSaved= 4 IEnMin= 4 EnMin= -468.182133783549     IErMin= 4 ErrMin= 2.67D-04
 ErrMax= 2.67D-04 EMaxC= 1.00D-01 BMatC= 6.07D-06 BMatP= 1.83D-04
 IDIUse=3 WtCom= 9.97D-01 WtEn= 2.67D-03
 Coeff-Com: -0.205D-01 0.263D+00 0.145D+00 0.612D+00
 Coeff-En:   0.000D+00 0.000D+00 0.000D+00 0.100D+01
 Coeff:     -0.205D-01 0.263D+00 0.145D+00 0.613D+00
 Gap=     0.129 Goal=   None    Shift=    0.000
 RMSDP=1.80D-05 MaxDP=5.23D-04 DE=-4.01D-04 OVMax= 9.26D-04

 Cycle   5  Pass 1  IDiag  1:
 E= -468.182138605545     Delta-E=       -0.000004821996 Rises=F Damp=F
 DIIS: error= 9.57D-05 at cycle   5 NSaved=   5.
 NSaved= 5 IEnMin= 5 EnMin= -468.182138605545     IErMin= 5 ErrMin= 9.57D-05
 ErrMax= 9.57D-05 EMaxC= 1.00D-01 BMatC= 1.34D-06 BMatP= 6.07D-06
 IDIUse=1 WtCom= 1.00D+00 WtEn= 0.00D+00
 Coeff-Com: -0.587D-02 0.571D-01 0.223D-01 0.350D+00 0.577D+00
 Coeff:     -0.587D-02 0.571D-01 0.223D-01 0.350D+00 0.577D+00
 Gap=     0.129 Goal=   None    Shift=    0.000
 RMSDP=8.00D-06 MaxDP=2.10D-04 DE=-4.82D-06 OVMax= 6.13D-04

 Cycle   6  Pass 1  IDiag  1:
 E= -468.182139978484     Delta-E=       -0.000001372939 Rises=F Damp=F
 DIIS: error= 2.42D-05 at cycle   6 NSaved=   6.
 NSaved= 6 IEnMin= 6 EnMin= -468.182139978484     IErMin= 6 ErrMin= 2.42D-05
 ErrMax= 2.42D-05 EMaxC= 1.00D-01 BMatC= 9.66D-08 BMatP= 1.34D-06
 IDIUse=1 WtCom= 1.00D+00 WtEn= 0.00D+00
 Coeff-Com: -0.155D-02 0.105D-01 0.309D-02 0.132D+00 0.299D+00 0.556D+00
 Coeff:     -0.155D-02 0.105D-01 0.309D-02 0.132D+00 0.299D+00 0.556D+00
 Gap=     0.129 Goal=   None    Shift=    0.000
 RMSDP=2.20D-06 MaxDP=5.73D-05 DE=-1.37D-06 OVMax= 1.28D-04

 Cycle   7  Pass 1  IDiag  1:
 E= -468.182140074927     Delta-E=       -0.000000096443 Rises=F Damp=F
 DIIS: error= 9.19D-06 at cycle   7 NSaved=   7.
 NSaved= 7 IEnMin= 7 EnMin= -468.182140074927     IErMin= 7 ErrMin= 9.19D-06
 ErrMax= 9.19D-06 EMaxC= 1.00D-01 BMatC= 1.05D-08 BMatP= 9.66D-08
 IDIUse=1 WtCom= 1.00D+00 WtEn= 0.00D+00
 Coeff-Com:  0.148D-03-0.469D-02-0.152D-02 0.112D-01 0.662D-01 0.281D+00
 Coeff-Com:  0.648D+00
 Coeff:      0.148D-03-0.469D-02-0.152D-02 0.112D-01 0.662D-01 0.281D+00
 Coeff:      0.648D+00
 Gap=     0.129 Goal=   None    Shift=    0.000
 RMSDP=6.61D-07 MaxDP=2.15D-05 DE=-9.64D-08 OVMax= 4.90D-05

 Cycle   8  Pass 1  IDiag  1:
 E= -468.182140084006     Delta-E=       -0.000000009079 Rises=F Damp=F
 DIIS: error= 1.88D-06 at cycle   8 NSaved=   8.
 NSaved= 8 IEnMin= 8 EnMin= -468.182140084006     IErMin= 8 ErrMin= 1.88D-06
 ErrMax= 1.88D-06 EMaxC= 1.00D-01 BMatC= 9.03D-10 BMatP= 1.05D-08
 IDIUse=1 WtCom= 1.00D+00 WtEn= 0.00D+00
 Coeff-Com:  0.175D-03-0.327D-02-0.897D-03-0.216D-02 0.172D-01 0.115D+00
 Coeff-Com:  0.335D+00 0.539D+00
[...]
     5  C    0.000008   0.000008  -0.005496  -0.005490  -0.032215   0.003794
     6  C   -0.000000  -0.000000  -0.000225  -0.000225   0.349976  -0.035386
     7  C   -0.000000  -0.000000   0.000007   0.000007  -0.040064   0.367030
     8  C    0.000000   0.000000   0.000004   0.000004   0.004599  -0.041430
     9  C    0.000000   0.000000   0.000055   0.000055   0.000031   0.004259
    10  C   -0.000025  -0.000025  -0.006904  -0.006912   0.005323   0.000221
    11  Li   0.011436   0.011405   0.038466   0.038431   0.000678  -0.000094
    12  H   -0.029512  -0.029524  -0.000001  -0.000001   0.000000  -0.000000
    13  H    0.568054  -0.045644  -0.002929   0.010319   0.000000  -0.000000
    14  H   -0.045644   0.568127   0.010324  -0.002922   0.000000  -0.000000
    15  H   -0.002929   0.010324   0.544864  -0.059356   0.000020  -0.000000
    16  H    0.010319  -0.002922  -0.059356   0.544904   0.000020  -0.000000
    17  H    0.000000   0.000000   0.000020   0.000020   0.538854  -0.005272
    18  H   -0.000000  -0.000000  -0.000000  -0.000000  -0.005272   0.541409
    19  H    0.000000   0.000000   0.000000   0.000000  -0.000084  -0.004541
    20  H    0.000000   0.000000   0.000011   0.000011   0.000023  -0.000170
             19         20
     1  C   -0.000000   0.000000
     2  O   -0.000000  -0.000000
     3  C   -0.000001  -0.000018
     4  O    0.000004  -0.000035
     5  C    0.000751   0.006454
     6  C    0.004575   0.000399
     7  C   -0.045288   0.004052
     8  C    0.358663  -0.060579
     9  C   -0.036319   0.373011
    10  C    0.004432  -0.034822
    11  Li   0.000194  -0.010463
    12  H    0.000000  -0.000000
    13  H    0.000000   0.000000
    14  H    0.000000   0.000000
    15  H    0.000000   0.000011
    16  H    0.000000   0.000011
    17  H   -0.000084   0.000023
    18  H   -0.004541  -0.000170
    19  H    0.545711  -0.002795
    20  H   -0.002795   0.559042
 Mulliken atomic charges:
              1
     1  C   -0.218524
     2  O   -0.472374
     3  C    0.204275
     4  O   -0.436781
     5  C    0.344313
     6  C   -0.147304
     7  C   -0.129750
     8  C   -0.063278
     9  C   -0.222629
    10  C   -0.066483
    11  Li  -0.384763
    12  H    0.166657
    13  H    0.166804
    14  H    0.166762
    15  H    0.202141
    16  H    0.202138
    17  H    0.177981
    18  H    0.170237
    19  H    0.174696
    20  H    0.165881
 Sum of Mulliken atomic charges =  -0.00000
 Mulliken charges with hydrogens summed into heavy atoms:
              1
     1  C    0.281698
     2  O   -0.472374
     3  C    0.608554
     4  O   -0.436781
     5  C    0.344313
     6  C    0.030678
     7  C    0.040488
     8  C    0.111418
     9  C   -0.056748
    10  C   -0.066483
    11  Li  -0.384763
 Sum of Mulliken charges with hydrogens summed into heavy atoms =  -0.00000
 Electronic spatial extent (au):  <R**2>=           2101.1264
 Charge=             -0.0000 electrons
 Dipole moment (field-independent basis, Debye):
    X=              5.0849    Y=             -5.8495    Z=             -0.0003  Tot=              7.7506
 Quadrupole moment (field-independent basis, Debye-Ang):
   XX=            -46.6139   YY=            -88.1844   ZZ=            -67.9518
   XY=              5.7647   XZ=             -0.0007   YZ=             -0.0018
 Traceless Quadrupole moment (field-independent basis, Debye-Ang):
   XX=             20.9695   YY=            -20.6010   ZZ=             -0.3685
   XY=              5.7647   XZ=             -0.0007   YZ=             -0.0018
 Octapole moment (field-independent basis, Debye-Ang**2):
  XXX=             21.7709  YYY=           -150.9650  ZZZ=             -0.0031  XYY=             53.6218
  XXY=            -25.6558  XXZ=             -0.0021  XZZ=             -3.0669  YZZ=            -22.4801
  YYZ=             -0.0062  XYZ=              0.0020
 Hexadecapole moment (field-independent basis, Debye-Ang**3):
 XXXX=          -1839.4653 YYYY=          -1062.9169 ZZZZ=           -115.6708 XXXY=             68.1678
 XXXZ=              0.0027 YYYX=            188.0482 YYYZ=             -0.0252 ZZZX=              0.0018
 ZZZY=             -0.0100 XXYY=           -544.9408 XXZZ=           -418.3588 YYZZ=           -164.6876
 XXYZ=             -0.0065 YYXZ=              0.0112 ZZXY=             25.4040
 N-N= 5.197482480857D+02 E-N=-2.127058959615D+03  KE= 4.639067990416D+02
 No NMR shielding tensors so no spin-rotation constants.
 Leave Link  601 at Sat Oct  2 23:40:34 2021, MaxMem=  805306368 cpu:       0.8
 (Enter /sw/target/amd/app/gaussian/Gaussian09RevA.02_gcc-4.9.2/g09/l604.exe)
 Evaluate density.
 Using the total density.
 Monte-Carlo method of calculating molar volume:
 based on  0.001 e/bohr**3 density envelope.
 Number of points per bohr**3 =   20 CutOff= 1.00D-04
 Using the CI density.
 There are       491 points.  Will hold       491 in memory.
 LenV=   805180879 MDV=   805306368.
 Box volume =14814.858 fraction occupied=0.086
 Integrated density= 5.8021297843468446D+01 error=-1.7978702156531554D+01
 Molar volume = 1267.259 bohr**3/mol (113.089 cm**3/mol)
 Recommended a0 for SCRF calculation =  4.41 angstrom (  8.33 bohr)
 Leave Link  604 at Sat Oct  2 23:40:36 2021, MaxMem=  805306368 cpu:       0.3
 (Enter /sw/target/amd/app/gaussian/Gaussian09RevA.02_gcc-4.9.2/g09/l607.exe)
 ******************************Gaussian NBO Version 3.1******************************
             N A T U R A L   A T O M I C   O R B I T A L   A N D
          N A T U R A L   B O N D   O R B I T A L   A N A L Y S I S
 ******************************Gaussian NBO Version 3.1******************************
       /RESON  / : Allow strongly delocalized NBO set

 Analyzing the CI density

 Job title: COCOc1ccccc1[Li]_conf_0                                         

 Storage needed:    101870 in NPA ( 805304168 available)


 NATURAL POPULATIONS:  Natural atomic orbital occupancies 
                                                          
   NAO  Atom  No  lang   Type(AO)    Occupancy
 --------------------------------------------
     1    C    1  S      Cor( 1S)     1.99944
     2    C    1  S      Val( 2S)     1.10085
     3    C    1  S      Ryd( 3S)     0.00175
     4    C    1  S      Ryd( 4S)     0.00004
     5    C    1  px     Val( 2p)     0.89938
     6    C    1  px     Ryd( 3p)     0.00235
     7    C    1  py     Val( 2p)     1.07640
     8    C    1  py     Ryd( 3p)     0.00376
     9    C    1  pz     Val( 2p)     1.23163
    10    C    1  pz     Ryd( 3p)     0.00020
    11    C    1  dxy    Ryd( 3d)     0.00201
    12    C    1  dxz    Ryd( 3d)     0.00093
    13    C    1  dyz    Ryd( 3d)     0.00163
    14    C    1  dx2y2  Ryd( 3d)     0.00110
    15    C    1  dz2    Ryd( 3d)     0.00109

    16    O    2  S      Cor( 1S)     1.99978
    17    O    2  S      Val( 2S)     1.61386
    18    O    2  S      Ryd( 3S)     0.00111
    19    O    2  S      Ryd( 4S)     0.00004
    20    O    2  px     Val( 2p)     1.33916
    21    O    2  px     Ryd( 3p)     0.00124
    22    O    2  py     Val( 2p)     1.68042
    23    O    2  py     Ryd( 3p)     0.00159
    24    O    2  pz     Val( 2p)     1.91436
    25    O    2  pz     Ryd( 3p)     0.00326
    26    O    2  dxy    Ryd( 3d)     0.00135
    27    O    2  dxz    Ryd( 3d)     0.00016
    28    O    2  dyz    Ryd( 3d)     0.00181
    29    O    2  dx2y2  Ryd( 3d)     0.00163
    30    O    2  dz2    Ryd( 3d)     0.00091

    31    C    3  S      Cor( 1S)     1.99934
    32    C    3  S      Val( 2S)     0.99859
    33    C    3  S      Ryd( 3S)     0.00702
    34    C    3  S      Ryd( 4S)     0.00011
    35    C    3  px     Val( 2p)     0.65868
    36    C    3  px     Ryd( 3p)     0.00366
    37    C    3  py     Val( 2p)     0.88669
    38    C    3  py     Ryd( 3p)     0.00796
    39    C    3  pz     Val( 2p)     1.21508
    40    C    3  pz     Ryd( 3p)     0.00024
    41    C    3  dxy    Ryd( 3d)     0.00311
    42    C    3  dxz    Ryd( 3d)     0.00215
    43    C    3  dyz    Ryd( 3d)     0.00237
    44    C    3  dx2y2  Ryd( 3d)     0.00201
    45    C    3  dz2    Ryd( 3d)     0.00145

    46    O    4  S      Cor( 1S)     1.99972
    47    O    4  S      Val( 2S)     1.60083
    48    O    4  S      Ryd( 3S)     0.00100
    49    O    4  S      Ryd( 4S)     0.00007
    50    O    4  px     Val( 2p)     1.39741
    51    O    4  px     Ryd( 3p)     0.00072
    52    O    4  py     Val( 2p)     1.74031
    53    O    4  py     Ryd( 3p)     0.00288
    54    O    4  pz     Val( 2p)     1.69265
    55    O    4  pz     Ryd( 3p)     0.00235
    56    O    4  dxy    Ryd( 3d)     0.00147
    57    O    4  dxz    Ryd( 3d)     0.00033
    58    O    4  dyz    Ryd( 3d)     0.00176
    59    O    4  dx2y2  Ryd( 3d)     0.00132
    60    O    4  dz2    Ryd( 3d)     0.00079

    61    C    5  S      Cor( 1S)     1.99871
    62    C    5  S      Val( 2S)     0.88464
    63    C    5  S      Ryd( 3S)     0.00157
    64    C    5  S      Ryd( 4S)     0.00015
    65    C    5  px     Val( 2p)     0.76758
    66    C    5  px     Ryd( 3p)     0.00451
    67    C    5  py     Val( 2p)     1.08594
    68    C    5  py     Ryd( 3p)     0.00853
    69    C    5  pz     Val( 2p)     0.83851
    70    C    5  pz     Ryd( 3p)     0.00054
    71    C    5  dxy    Ryd( 3d)     0.00202
    72    C    5  dxz    Ryd( 3d)     0.00157
    73    C    5  dyz    Ryd( 3d)     0.00088
    74    C    5  dx2y2  Ryd( 3d)     0.00178
    75    C    5  dz2    Ryd( 3d)     0.00047

    76    C    6  S      Cor( 1S)     1.99901
    77    C    6  S      Val( 2S)     0.98110
    78    C    6  S      Ryd( 3S)     0.00091
    79    C    6  S      Ryd( 4S)     0.00003
    80    C    6  px     Val( 2p)     1.07854
    81    C    6  px     Ryd( 3p)     0.00521
    82    C    6  py     Val( 2p)     1.19972
    83    C    6  py     Ryd( 3p)     0.00499
    84    C    6  pz     Val( 2p)     0.97675
    85    C    6  pz     Ryd( 3p)     0.00073
    86    C    6  dxy    Ryd( 3d)     0.00086
    87    C    6  dxz    Ryd( 3d)     0.00043
    88    C    6  dyz    Ryd( 3d)     0.00039
    89    C    6  dx2y2  Ryd( 3d)     0.00063
    90    C    6  dz2    Ryd( 3d)     0.00043

    91    C    7  S      Cor( 1S)     1.99912
    92    C    7  S      Val( 2S)     0.97735
    93    C    7  S      Ryd( 3S)     0.00060
    94    C    7  S      Ryd( 4S)     0.00005
    95    C    7  px     Val( 2p)     1.12976
    96    C    7  px     Ryd( 3p)     0.00501
    97    C    7  py     Val( 2p)     1.13397
    98    C    7  py     Ryd( 3p)     0.00498
    99    C    7  pz     Val( 2p)     0.96158
   100    C    7  pz     Ryd( 3p)     0.00053
   101    C    7  dxy    Ryd( 3d)     0.00088
   102    C    7  dxz    Ryd( 3d)     0.00048
   103    C    7  dyz    Ryd( 3d)     0.00041
   104    C    7  dx2y2  Ryd( 3d)     0.00065
   105    C    7  dz2    Ryd( 3d)     0.00043

   106    C    8  S      Cor( 1S)     1.99907
   107    C    8  S      Val( 2S)     0.99033
   108    C    8  S      Ryd( 3S)     0.00057
   109    C    8  S      Ryd( 4S)     0.00003
   110    C    8  px     Val( 2p)     1.20007
   111    C    8  px     Ryd( 3p)     0.00491
   112    C    8  py     Val( 2p)     1.06747
   113    C    8  py     Ryd( 3p)     0.00404
   114    C    8  pz     Val( 2p)     0.83140
   115    C    8  pz     Ryd( 3p)     0.00041
   116    C    8  dxy    Ryd( 3d)     0.00069
   117    C    8  dxz    Ryd( 3d)     0.00037
   118    C    8  dyz    Ryd( 3d)     0.00061
   119    C    8  dx2y2  Ryd( 3d)     0.00098
   120    C    8  dz2    Ryd( 3d)     0.00041

   121    C    9  S      Cor( 1S)     1.99916
   122    C    9  S      Val( 2S)     0.98281
   123    C    9  S      Ryd( 3S)     0.00096
   124    C    9  S      Ryd( 4S)     0.00005
   125    C    9  px     Val( 2p)     1.09205
   126    C    9  px     Ryd( 3p)     0.00696
   127    C    9  py     Val( 2p)     1.19191
   128    C    9  py     Ryd( 3p)     0.00497
   129    C    9  pz     Val( 2p)     0.98588
   130    C    9  pz     Ryd( 3p)     0.00036
   131    C    9  dxy    Ryd( 3d)     0.00116
   132    C    9  dxz    Ryd( 3d)     0.00033
   133    C    9  dyz    Ryd( 3d)     0.00038
   134    C    9  dx2y2  Ryd( 3d)     0.00088
   135    C    9  dz2    Ryd( 3d)     0.00042

   136    C   10  S      Cor( 1S)     1.99918
   137    C   10  S      Val( 2S)     1.19745
   138    C   10  S      Ryd( 3S)     0.00358
   139    C   10  S      Ryd( 4S)     0.00001
   140    C   10  px     Val( 2p)     1.26856
   141    C   10  px     Ryd( 3p)     0.00924
   142    C   10  py     Val( 2p)     1.23952
   143    C   10  py     Ryd( 3p)     0.00417
   144    C   10  pz     Val( 2p)     0.69823
   145    C   10  pz     Ryd( 3p)     0.00019
   146    C   10  dxy    Ryd( 3d)     0.00043
   147    C   10  dxz    Ryd( 3d)     0.00058
   148    C   10  dyz    Ryd( 3d)     0.00061
   149    C   10  dx2y2  Ryd( 3d)     0.00114
   150    C   10  dz2    Ryd( 3d)     0.00047

   151   Li   11  S      Cor( 1S)     1.99810
   152   Li   11  S      Val( 2S)     0.74113
   153   Li   11  S      Ryd( 3S)     0.00103
   154   Li   11  S      Ryd( 4S)     0.00007
   155   Li   11  px     Val( 2p)     0.14481
   156   Li   11  px     Ryd( 3p)     0.00185
   157   Li   11  py     Val( 2p)     0.16187
   158   Li   11  py     Ryd( 3p)     0.00067
   159   Li   11  pz     Val( 2p)     0.01092
   160   Li   11  pz     Ryd( 3p)     0.00013
   161   Li   11  dxy    Ryd( 3d)     0.00000
   162   Li   11  dxz    Ryd( 3d)     0.00000
   163   Li   11  dyz    Ryd( 3d)     0.00000
   164   Li   11  dx2y2  Ryd( 3d)     0.00016
   165   Li   11  dz2    Ryd( 3d)     0.00017

   166    H   12  S      Val( 1S)     0.77326
   167    H   12  S      Ryd( 2S)     0.00081

   168    H   13  S      Val( 1S)     0.79171
   169    H   13  S      Ryd( 2S)     0.00219

   170    H   14  S      Val( 1S)     0.79172
   171    H   14  S      Ryd( 2S)     0.00219

   172    H   15  S      Val( 1S)     0.80714
   173    H   15  S      Ryd( 2S)     0.00029

   174    H   16  S      Val( 1S)     0.80713
   175    H   16  S      Ryd( 2S)     0.00029

   176    H   17  S      Val( 1S)     0.73724
   177    H   17  S      Ryd( 2S)     0.00110

   178    H   18  S      Val( 1S)     0.74622
   179    H   18  S      Ryd( 2S)     0.00046

   180    H   19  S      Val( 1S)     0.75263
   181    H   19  S      Ryd( 2S)     0.00069

   182    H   20  S      Val( 1S)     0.75226
   183    H   20  S      Ryd( 2S)     0.00096

 WARNING:  1 low occupancy (<1.9990e) core orbital  found on  C    5
           1 low occupancy (<1.9990e) core orbital  found on Li   11


 Summary of Natural Population Analysis:                  
                                                          
                                       Natural Population 
                Natural  -----------------------------------------------
    Atom  No    Charge         Core      Valence    Rydberg      Total
 -----------------------------------------------------------------------
      C    1   -0.32255      1.99944     4.30825    0.01486     6.32255
      O    2   -0.56069      1.99978     6.54781    0.01310     8.56069
      C    3    0.21155      1.99934     3.75904    0.03008     5.78845
      O    4   -0.44361      1.99972     6.43120    0.01268     8.44361
      C    5    0.40259      1.99871     3.57667    0.02202     5.59741
      C    6   -0.24973      1.99901     4.23611    0.01461     6.24973
      C    7   -0.21582      1.99912     4.20267    0.01403     6.21582
      C    8   -0.10136      1.99907     4.08928    0.01302     6.10136
      C    9   -0.26829      1.99916     4.25266    0.01647     6.26829
      C   10   -0.42336      1.99918     4.40376    0.02043     6.42336
     Li   11   -0.06091      1.99810     1.05873    0.00408     3.06091
      H   12    0.22594      0.00000     0.77326    0.00081     0.77406
      H   13    0.20610      0.00000     0.79171    0.00219     0.79390
      H   14    0.20608      0.00000     0.79172    0.00219     0.79392
      H   15    0.19257      0.00000     0.80714    0.00029     0.80743
      H   16    0.19258      0.00000     0.80713    0.00029     0.80742
      H   17    0.26166      0.00000     0.73724    0.00110     0.73834
      H   18    0.25333      0.00000     0.74622    0.00046     0.74667
      H   19    0.24668      0.00000     0.75263    0.00069     0.75332
      H   20    0.24678      0.00000     0.75226    0.00096     0.75322
 =======================================================================
   * Total *   -0.00046     21.99063    53.82547    0.18436    76.00046

                                 Natural Population      
 --------------------------------------------------------
   Core                      21.99063 ( 99.9574% of  22)
   Valence                   53.82547 ( 99.6768% of  54)
   Natural Minimal Basis     75.81610 ( 99.7580% of  76)
   Natural Rydberg Basis      0.18436 (  0.2426% of  76)
 --------------------------------------------------------

    Atom  No          Natural Electron Configuration
 ----------------------------------------------------------------------------
      C    1      [core]2S( 1.10)2p( 3.21)3p( 0.01)3d( 0.01)
      O    2      [core]2S( 1.61)2p( 4.93)3p( 0.01)3d( 0.01)
      C    3      [core]2S( 1.00)2p( 2.76)3S( 0.01)3p( 0.01)3d( 0.01)
      O    4      [core]2S( 1.60)2p( 4.83)3p( 0.01)3d( 0.01)
      C    5      [core]2S( 0.88)2p( 2.69)3p( 0.01)3d( 0.01)
      C    6      [core]2S( 0.98)2p( 3.26)3p( 0.01)
      C    7      [core]2S( 0.98)2p( 3.23)3p( 0.01)
      C    8      [core]2S( 0.99)2p( 3.10)3p( 0.01)
      C    9      [core]2S( 0.98)2p( 3.27)3p( 0.01)
      C   10      [core]2S( 1.20)2p( 3.21)3p( 0.01)
     Li   11      [core]2S( 0.74)2p( 0.32)
      H   12            1S( 0.77)
      H   13            1S( 0.79)
      H   14            1S( 0.79)
      H   15            1S( 0.81)
      H   16            1S( 0.81)
      H   17            1S( 0.74)
      H   18            1S( 0.75)
      H   19            1S( 0.75)
      H   20            1S( 0.75)


 NBO analysis skipped by request.
 Leave Link  607 at Sat Oct  2 23:41:08 2021, MaxMem=  805306368 cpu:      11.2
 (Enter /sw/target/amd/app/gaussian/Gaussian09RevA.02_gcc-4.9.2/g09/l9999.exe)
 1\1\GINC-HERMITE\SP\RTD-B3LYP-FC\6-31G(d)\C8H9Li1O2\JSCHLEINITZ\02-Oct
 -2021\0\\#p TD(NStates=10, Root=1) b3lyp/6-31G* volume pop=NPA density
 =current Geom=AllCheck Guess=Read\\COCOc1ccccc1[Li]_conf_0\\0,1\C,0,4.
 1143344445,-0.9706571074,2.0302672268\O,0,3.7657326798,-0.8023381695,0
 .6738692321\C,0,4.7193607409,-1.3359674707,-0.193816129\O,0,4.26361257
 05,-1.1086395544,-1.4699053915\C,0,5.0503281276,-1.5543362391,-2.54348
 51481\C,0,4.4807918984,-1.2642890054,-3.7892674779\C,0,5.1575298675,-1
 .651390205,-4.9411635519\C,0,6.3830014463,-2.316985513,-4.8333519885\C
 ,0,6.9102085295,-2.5836842546,-3.5685125761\C,0,6.2740744251,-2.217748
 4514,-2.3575216772\Li,0,6.944495239,-2.5536469703,-0.5424054341\H,0,3.
 3131543229,-0.5238872407,2.6220975472\H,0,5.0622625922,-0.4630549144,2
 .2766387195\H,0,4.2039409037,-2.0360310825,2.3020280945\H,0,4.83681605
 01,-2.4326882482,0.0072057862\H,0,5.7069972403,-0.8349812904,-0.018970
 2225\H,0,3.5268918801,-0.7456060382,-3.8371116406\H,0,4.730287848,-1.4
 344799278,-5.9174723532\H,0,6.9181314087,-2.6228564378,-5.7301831662\H
 ,0,7.8690530631,-3.1051501675,-3.5263666152\\Version=AM64L-G09RevA.02\
 State=1-A\HF=-468.1834738\RMSD=8.077e-09\Dipole=-1.3150571,0.6731937,-
 2.6675543\Quadrupole=-7.1071553,-2.0963482,9.2035035,3.5361043,-11.550
 0452,6.44347\PG=C01 [X(C8H9Li1O2)]\\@


 NEVER LISTEN TO CRITICISM
 OR YOU'LL BE DOIN' EVERYBODY ELSE'S THING BUT BUT YOUR OWN.

                                               -- ANDY CAPP
 Job cpu time:  0 days  1 hours  8 minutes 45.6 seconds.
 File lengths (MBytes):  RWF=    100 Int=      0 D2E=      0 Chk=     16 Scr=      1
 Normal termination of Gaussian 09 at Sat Oct  2 23:41:17 2021.
