 Entering Gaussian System, Link 0=g09
 Input=C8H9BrMg_0e86_conf_0.com
 Output=C8H9BrMg_0e86_conf_0.log
 Initial command:
 /sw/target/amd/app/gaussian/Gaussian09RevA.02_gcc-4.9.2/g09/l1.exe /home/jschleinitz/gaussian/Gau-338367.inp -scrdir=/home/jschleinitz/gaussian/
 Entering Link 1 = /sw/target/amd/app/gaussian/Gaussian09RevA.02_gcc-4.9.2/g09/l1.exe PID=    338399.
  
 Copyright (c) 1988,1990,1992,1993,1995,1998,2003,2009, Gaussian, Inc.
                  All Rights Reserved.
  
 This is part of the Gaussian(R) 09 program.  It is based on
 the Gaussian(R) 03 system (copyright 2003, Gaussian, Inc.),
 the Gaussian(R) 98 system (copyright 1998, Gaussian, Inc.),
 the Gaussian(R) 94 system (copyright 1995, Gaussian, Inc.),
 the Gaussian 92(TM) system (copyright 1992, Gaussian, Inc.),
 the Gaussian 90(TM) system (copyright 1990, Gaussian, Inc.),
 the Gaussian 88(TM) system (copyright 1988, Gaussian, Inc.),
 the Gaussian 86(TM) system (copyright 1986, Carnegie Mellon
 University), and the Gaussian 82(TM) system (copyright 1983,
 Carnegie Mellon University). Gaussian is a federally registered
 trademark of Gaussian, Inc.
  
 This software contains proprietary and confidential information,
 including trade secrets, belonging to Gaussian, Inc.
  
 This software is provided under written license and may be
 used, copied, transmitted, or stored only in accord with that
 written license.
  
 The following legend is applicable only to US Government
 contracts under FAR:
  
                    RESTRICTED RIGHTS LEGEND
  
 Use, reproduction and disclosure by the US Government is
 subject to restrictions as set forth in subparagraphs (a)
 and (c) of the Commercial Computer Software - Restricted
 Rights clause in FAR 52.227-19.
  
 Gaussian, Inc.
 340 Quinnipiac St., Bldg. 40, Wallingford CT 06492
  
  
 ---------------------------------------------------------------
 Warning -- This program may not be used in any manner that
 competes with the business of Gaussian, Inc. or will provide
 assistance to any competitor of Gaussian, Inc.  The licensee
 of this program is prohibited from giving any competitor of
 Gaussian, Inc. access to this program.  By using this program,
 the user acknowledges that Gaussian, Inc. is engaged in the
 business of creating and licensing software in the field of
 computational chemistry and represents and warrants to the
 licensee that it is not a competitor of Gaussian, Inc. and that
 it will not use this program in any manner prohibited above.
 ---------------------------------------------------------------
  

 Cite this work as:
 Gaussian 09, Revision A.02,
 M. J. Frisch, G. W. Trucks, H. B. Schlegel, G. E. Scuseria, 
 M. A. Robb, J. R. Cheeseman, G. Scalmani, V. Barone, B. Mennucci, 
 G. A. Petersson, H. Nakatsuji, M. Caricato, X. Li, H. P. Hratchian, 
 A. F. Izmaylov, J. Bloino, G. Zheng, J. L. Sonnenberg, M. Hada, 
 M. Ehara, K. Toyota, R. Fukuda, J. Hasegawa, M. Ishida, T. Nakajima, 
 Y. Honda, O. Kitao, H. Nakai, T. Vreven, J. A. Montgomery, Jr., 
 J. E. Peralta, F. Ogliaro, M. Bearpark, J. J. Heyd, E. Brothers, 
 K. N. Kudin, V. N. Staroverov, R. Kobayashi, J. Normand, 
 K. Raghavachari, A. Rendell, J. C. Burant, S. S. Iyengar, J. Tomasi, 
 M. Cossi, N. Rega, J. M. Millam, M. Klene, J. E. Knox, J. B. Cross, 
 V. Bakken, C. Adamo, J. Jaramillo, R. Gomperts, R. E. Stratmann, 
 O. Yazyev, A. J. Austin, R. Cammi, C. Pomelli, J. W. Ochterski, 
 R. L. Martin, K. Morokuma, V. G. Zakrzewski, G. A. Voth, 
 P. Salvador, J. J. Dannenberg, S. Dapprich, A. D. Daniels, 
 O. Farkas, J. B. Foresman, J. V. Ortiz, J. Cioslowski, 
 and D. J. Fox, Gaussian, Inc., Wallingford CT, 2009.
 
 ******************************************
 Gaussian 09:  AM64L-G09RevA.02 11-Jun-2009
                 3-Oct-2021 
 ******************************************
 %nproc=3
 Will use up to    3 processors via shared memory.
 %mem=6gb
 %chk=C8H9BrMg_0e86_conf_0.chk
 -----------------------------------
 #p opt b3lyp/6-31G* scf=(xqc,tight)
 -----------------------------------
 1/14=-1,18=20,19=15,26=3,38=1/1,3;
 2/9=110,12=2,17=6,18=5,40=1/2;
 3/5=1,6=6,7=1,11=2,16=1,25=1,30=1,71=1,74=-5/1,2,3;
 4//1;
 5/5=2,8=3,13=1,32=2,38=5/2,8;
 6/7=2,8=2,9=2,10=2,28=1/1;
 7//1,2,3,16;
 1/14=-1,18=20,19=15/3(2);
 2/9=110/2;
 99//99;
 2/9=110/2;
 3/5=1,6=6,7=1,11=2,16=1,25=1,30=1,71=1,74=-5/1,2,3;
 4/5=5,16=3/1;
 5/5=2,8=3,13=1,32=2,38=5/2,8;
 7//1,2,3,16;
 1/14=-1,18=20,19=15/3(-5);
 2/9=110/2;
 6/7=2,8=2,9=2,10=2,19=2,28=1/1;
 99/9=1/99;
 Leave Link    1 at Sun Oct  3 11:33:58 2021, MaxMem=  805306368 cpu:       0.1
 (Enter /sw/target/amd/app/gaussian/Gaussian09RevA.02_gcc-4.9.2/g09/l101.exe)
 ---------------------------
 Br[Mg]c1cc(C)cc(c1)C_conf_0
 ---------------------------
 Symbolic Z-matrix:
 Charge =  0 Multiplicity = 1
 Br                    0.9587    0.04704   0.07799 
 Mg                    3.5687    0.04704   0.07799 
 C                     5.7387    0.04704   0.07799 
 C                     6.45023  -1.15422   0.08061 
 C                     7.85452  -1.14153   0.08202 
 C                     8.6342   -2.42314   0.08519 
 C                     8.53515   0.08669   0.08051 
 C                     7.81942   1.29564   0.07781 
 C                     6.41789   1.2665    0.07661 
 C                     8.53448   2.61451   0.07667 
 H                     5.90408  -2.08861   0.08192 
 H                     7.9634   -3.30848   0.08595 
 H                     9.2754   -2.46702   0.99068 
 H                     9.27782  -2.47031  -0.81842 
 H                     9.61879   0.09797   0.08163 
 H                     5.84897   2.18756   0.07492 
 H                     9.63714   2.4811    0.07809 
 H                     8.24939   3.19391   0.98002 
 H                     8.25126   3.19144  -0.82894 
 
 NAtoms=     19 NQM=     19 NQMF=      0 NMic=      0 NMicF=      0 NTot=     19.
                    Isotopes and Nuclear Properties:
 (Nuclear quadrupole moments (NQMom) in fm**2, nuclear magnetic moments (NMagM)
  in nuclear magnetons)

  Atom         1           2           3           4           5           6           7           8           9          10
 IAtWgt=          79          24          12          12          12          12          12          12          12          12
 AtmWgt=  78.9183361  23.9850450  12.0000000  12.0000000  12.0000000  12.0000000  12.0000000  12.0000000  12.0000000  12.0000000
 NucSpn=           3           0           0           0           0           0           0           0           0           0
 AtZEff=   0.0000000   0.0000000   0.0000000   0.0000000   0.0000000   0.0000000   0.0000000   0.0000000   0.0000000   0.0000000
 NQMom=   31.3000000   0.0000000   0.0000000   0.0000000   0.0000000   0.0000000   0.0000000   0.0000000   0.0000000   0.0000000
 NMagM=    2.1063990   0.0000000   0.0000000   0.0000000   0.0000000   0.0000000   0.0000000   0.0000000   0.0000000   0.0000000

  Atom        11          12          13          14          15          16          17          18          19
 IAtWgt=           1           1           1           1           1           1           1           1           1
 AtmWgt=   1.0078250   1.0078250   1.0078250   1.0078250   1.0078250   1.0078250   1.0078250   1.0078250   1.0078250
 NucSpn=           1           1           1           1           1           1           1           1           1
 AtZEff=   0.0000000   0.0000000   0.0000000   0.0000000   0.0000000   0.0000000   0.0000000   0.0000000   0.0000000
 NQMom=    0.0000000   0.0000000   0.0000000   0.0000000   0.0000000   0.0000000   0.0000000   0.0000000   0.0000000
 NMagM=    2.7928460   2.7928460   2.7928460   2.7928460   2.7928460   2.7928460   2.7928460   2.7928460   2.7928460
 Leave Link  101 at Sun Oct  3 11:34:03 2021, MaxMem=  805306368 cpu:       0.1
 (Enter /sw/target/amd/app/gaussian/Gaussian09RevA.02_gcc-4.9.2/g09/l103.exe)

 GradGradGradGradGradGradGradGradGradGradGradGradGradGradGradGradGradGrad
 Berny optimization.
 Initialization pass.
                           ----------------------------
                           !    Initial Parameters    !
                           ! (Angstroms and Degrees)  !
 --------------------------                            --------------------------
 ! Name  Definition              Value          Derivative Info.                !
 --------------------------------------------------------------------------------
 ! R1    R(1,2)                  2.61           estimate D2E/DX2                !
 ! R2    R(2,3)                  2.17           estimate D2E/DX2                !
 ! R3    R(3,4)                  1.3962         estimate D2E/DX2                !
 ! R4    R(3,9)                  1.3958         estimate D2E/DX2                !
 ! R5    R(4,5)                  1.4043         estimate D2E/DX2                !
 ! R6    R(4,11)                 1.0823         estimate D2E/DX2                !
 ! R7    R(5,6)                  1.5001         estimate D2E/DX2                !
 ! R8    R(5,7)                  1.4042         estimate D2E/DX2                !
 ! R9    R(6,12)                 1.1108         estimate D2E/DX2                !
 ! R10   R(6,13)                 1.1104         estimate D2E/DX2                !
 ! R11   R(6,14)                 1.1104         estimate D2E/DX2                !
 ! R12   R(7,8)                  1.4049         estimate D2E/DX2                !
 ! R13   R(7,15)                 1.0837         estimate D2E/DX2                !
 ! R14   R(8,9)                  1.4018         estimate D2E/DX2                !
 ! R15   R(8,10)                 1.5002         estimate D2E/DX2                !
 ! R16   R(9,16)                 1.0826         estimate D2E/DX2                !
 ! R17   R(10,17)                1.1107         estimate D2E/DX2                !
 ! R18   R(10,18)                1.1104         estimate D2E/DX2                !
 ! R19   R(10,19)                1.1105         estimate D2E/DX2                !
 ! A1    A(2,3,4)              120.6389         estimate D2E/DX2                !
 ! A2    A(2,3,9)              119.1157         estimate D2E/DX2                !
 ! A3    A(4,3,9)              120.2455         estimate D2E/DX2                !
 ! A4    A(3,4,5)              120.1212         estimate D2E/DX2                !
 ! A5    A(3,4,11)             119.055          estimate D2E/DX2                !
 ! A6    A(5,4,11)             120.8238         estimate D2E/DX2                !
 ! A7    A(4,5,6)              120.7968         estimate D2E/DX2                !
 ! A8    A(4,5,7)              119.5113         estimate D2E/DX2                !
 ! A9    A(6,5,7)              119.6919         estimate D2E/DX2                !
 ! A10   A(5,6,12)             111.5356         estimate D2E/DX2                !
 ! A11   A(5,6,13)             109.6093         estimate D2E/DX2                !
 ! A12   A(5,6,14)             109.6232         estimate D2E/DX2                !
 ! A13   A(12,6,13)            108.4615         estimate D2E/DX2                !
 ! A14   A(12,6,14)            108.466          estimate D2E/DX2                !
 ! A15   A(13,6,14)            109.0994         estimate D2E/DX2                !
 ! A16   A(5,7,8)              120.3798         estimate D2E/DX2                !
 ! A17   A(5,7,15)             119.59           estimate D2E/DX2                !
 ! A18   A(8,7,15)             120.0302         estimate D2E/DX2                !
 ! A19   A(7,8,9)              119.4357         estimate D2E/DX2                !
 ! A20   A(7,8,10)             120.9076         estimate D2E/DX2                !
 ! A21   A(9,8,10)             119.6567         estimate D2E/DX2                !
 ! A22   A(3,9,8)              120.3065         estimate D2E/DX2                !
 ! A23   A(3,9,16)             119.1815         estimate D2E/DX2                !
 ! A24   A(8,9,16)             120.5119         estimate D2E/DX2                !
 ! A25   A(8,10,17)            111.567          estimate D2E/DX2                !
 ! A26   A(8,10,18)            109.6158         estimate D2E/DX2                !
 ! A27   A(8,10,19)            109.6196         estimate D2E/DX2                !
 ! A28   A(17,10,18)           108.4527         estimate D2E/DX2                !
 ! A29   A(17,10,19)           108.46           estimate D2E/DX2                !
 ! A30   A(18,10,19)           109.0787         estimate D2E/DX2                !
 ! A31   L(1,2,3,9,-1)         180.0            estimate D2E/DX2                !
 ! A32   L(1,2,3,9,-2)         180.0            estimate D2E/DX2                !
 ! D1    D(2,3,4,5)           -179.9319         estimate D2E/DX2                !
 ! D2    D(2,3,4,11)             0.044          estimate D2E/DX2                !
 ! D3    D(9,3,4,5)              0.0071         estimate D2E/DX2                !
 ! D4    D(9,3,4,11)           179.9831         estimate D2E/DX2                !
 ! D5    D(2,3,9,8)            179.9413         estimate D2E/DX2                !
 ! D6    D(2,3,9,16)            -0.0392         estimate D2E/DX2                !
 ! D7    D(4,3,9,8)              0.0013         estimate D2E/DX2                !
 ! D8    D(4,3,9,16)          -179.9792         estimate D2E/DX2                !
 ! D9    D(3,4,5,6)            179.9847         estimate D2E/DX2                !
 ! D10   D(3,4,5,7)             -0.0125         estimate D2E/DX2                !
 ! D11   D(11,4,5,6)             0.0092         estimate D2E/DX2                !
 ! D12   D(11,4,5,7)          -179.9881         estimate D2E/DX2                !
 ! D13   D(4,5,6,12)             0.0102         estimate D2E/DX2                !
 ! D14   D(4,5,6,13)          -120.1213         estimate D2E/DX2                !
 ! D15   D(4,5,6,14)           120.1565         estimate D2E/DX2                !
 ! D16   D(7,5,6,12)          -179.9926         estimate D2E/DX2                !
 ! D17   D(7,5,6,13)            59.876          estimate D2E/DX2                !
 ! D18   D(7,5,6,14)           -59.8462         estimate D2E/DX2                !
 ! D19   D(4,5,7,8)              0.0097         estimate D2E/DX2                !
 ! D20   D(4,5,7,15)           179.9985         estimate D2E/DX2                !
 ! D21   D(6,5,7,8)           -179.9876         estimate D2E/DX2                !
 ! D22   D(6,5,7,15)             0.0012         estimate D2E/DX2                !
 ! D23   D(5,7,8,9)             -0.0013         estimate D2E/DX2                !
 ! D24   D(5,7,8,10)           179.978          estimate D2E/DX2                !
 ! D25   D(15,7,8,9)          -179.9901         estimate D2E/DX2                !
 ! D26   D(15,7,8,10)           -0.0107         estimate D2E/DX2                !
 ! D27   D(7,8,9,3)             -0.0042         estimate D2E/DX2                !
 ! D28   D(7,8,9,16)           179.9761         estimate D2E/DX2                !
 ! D29   D(10,8,9,3)          -179.9838         estimate D2E/DX2                !
 ! D30   D(10,8,9,16)           -0.0036         estimate D2E/DX2                !
 ! D31   D(7,8,10,17)            0.0062         estimate D2E/DX2                !
 ! D32   D(7,8,10,18)         -120.1387         estimate D2E/DX2                !
 ! D33   D(7,8,10,19)          120.1627         estimate D2E/DX2                !
 ! D34   D(9,8,10,17)          179.9855         estimate D2E/DX2                !
 ! D35   D(9,8,10,18)           59.8406         estimate D2E/DX2                !
 ! D36   D(9,8,10,19)          -59.8579         estimate D2E/DX2                !
 --------------------------------------------------------------------------------
 Trust Radius=3.00D-01 FncErr=1.00D-07 GrdErr=1.00D-06
 Number of steps in this run=  97 maximum allowed number of steps= 114.
 GradGradGradGradGradGradGradGradGradGradGradGradGradGradGradGradGradGrad

 Leave Link  103 at Sun Oct  3 11:34:03 2021, MaxMem=  805306368 cpu:       0.0
 (Enter /sw/target/amd/app/gaussian/Gaussian09RevA.02_gcc-4.9.2/g09/l202.exe)
                          Input orientation:                          
 ---------------------------------------------------------------------
 Center     Atomic      Atomic             Coordinates (Angstroms)
 Number     Number       Type             X           Y           Z
 ---------------------------------------------------------------------
      1         35           0        0.958704    0.047041    0.077986
      2         12           0        3.568704    0.047041    0.077986
      3          6           0        5.738704    0.047041    0.077986
      4          6           0        6.450229   -1.154218    0.080608
      5          6           0        7.854519   -1.141527    0.082024
      6          6           0        8.634196   -2.423136    0.085186
      7          6           0        8.535150    0.086688    0.080515
      8          6           0        7.819418    1.295641    0.077814
      9          6           0        6.417886    1.266504    0.076606
     10          6           0        8.534483    2.614506    0.076673
     11          1           0        5.904082   -2.088606    0.081921
     12          1           0        7.963403   -3.308482    0.085948
     13          1           0        9.275400   -2.467017    0.990678
     14          1           0        9.277823   -2.470306   -0.818421
     15          1           0        9.618794    0.097971    0.081629
     16          1           0        5.848968    2.187557    0.074917
     17          1           0        9.637139    2.481096    0.078095
     18          1           0        8.249385    3.193907    0.980020
     19          1           0        8.251258    3.191438   -0.828944
 ---------------------------------------------------------------------
                    Distance matrix (angstroms):
                    1          2          3          4          5
     1  Br   0.000000
     2  Mg   2.610000   0.000000
     3  C    4.780000   2.170000   0.000000
     4  C    5.621376   3.121893   1.396173   0.000000
     5  C    6.997497   4.447574   2.426805   1.404348   0.000000
     6  C    8.063188   5.635693   3.806008   2.525843   1.500143
     7  C    7.576550   4.966605   2.796728   2.426261   1.404198
     8  C    6.973406   4.430301   2.426596   2.806510   2.437424
     9  C    5.593724   3.099182   1.395844   2.420942   2.804025
    10  C    7.999018   5.590244   3.795820   4.306670   3.817088
    11  H    5.386814   3.164647   2.142045   1.082294   2.168217
    12  H    7.766943   5.529284   4.026026   2.632599   2.169693
    13  H    8.736184   6.302370   4.434153   3.245498   2.145106
    14  H    8.737753   6.303540   4.434630   3.245864   2.145286
    15  H    8.660241   6.050306   3.880426   3.407020   2.156159
    16  H    5.338211   3.127527   2.143356   3.395439   3.886526
    17  H    9.013315   6.538388   4.595913   4.834450   4.037468
    18  H    7.991900   5.711848   4.125524   4.790835   4.445032
    19  H    7.993190   5.712798   4.125855   4.791212   4.445430
                    6          7          8          9         10
     6  C    0.000000
     7  C    2.511782   0.000000
     8  C    3.806996   1.404937   0.000000
     9  C    4.304132   2.423797   1.401835   0.000000
    10  C    5.038636   2.527821   1.500241   2.509400   0.000000
    11  H    2.750535   3.413858   3.888658   3.394229   5.388720
    12  H    1.110766   3.442979   4.606381   4.828997   5.950463
    13  H    1.110398   2.810298   4.136520   4.789582   5.215960
    14  H    1.110400   2.810314   4.136731   4.789997   5.216230
    15  H    2.706553   1.083704   2.161524   3.407538   2.740202
    16  H    5.386658   3.410169   2.162913   1.082593   2.719242
    17  H    5.005740   2.635825   2.170118   3.440759   1.110698
    18  H    5.700875   3.247396   2.145288   2.808101   1.110416
    19  H    5.701378   3.247642   2.145400   2.808317   1.110499
                   11         12         13         14         15
    11  H    0.000000
    12  H    2.393516   0.000000
    13  H    3.512096   1.802203   0.000000
    14  H    3.512612   1.802256   1.809104   0.000000
    15  H    4.310477   3.787382   2.742891   2.742699   0.000000
    16  H    4.276525   5.888752   5.851847   5.852417   4.310221
    17  H    5.900670   6.026663   5.044550   5.044723   2.383198
    18  H    5.849101   6.569796   5.753163   6.031201   3.502458
    19  H    5.849596   6.570300   6.031418   5.754067   3.502690
                   16         17         18         19
    16  H    0.000000
    17  H    3.799527   0.000000
    18  H    2.755713   1.802063   0.000000
    19  H    2.756036   1.802213   1.808966   0.000000
 Stoichiometry    C8H9BrMg
 Framework group  C1[X(C8H9BrMg)]
 Deg. of freedom    51
 Full point group                 C1      NOp   1
 Largest Abelian subgroup         C1      NOp   1
 Largest concise Abelian subgroup C1      NOp   1
                         Standard orientation:                         
 ---------------------------------------------------------------------
 Center     Atomic      Atomic             Coordinates (Angstroms)
 Number     Number       Type             X           Y           Z
 ---------------------------------------------------------------------
      1         35           0       -3.948181   -0.004372   -0.001011
      2         12           0       -1.338193   -0.012194   -0.001011
      3          6           0        0.831798   -0.018697   -0.001011
      4          6           0        1.539719   -1.222083    0.001612
      5          6           0        2.944041   -1.213600    0.003027
      6          6           0        3.719874   -2.497540    0.006190
      7          6           0        3.628350    0.012570    0.001518
      8          6           0        2.916243    1.223662   -0.001183
      9          6           0        1.514630    1.198726   -0.002390
     10          6           0        3.635257    2.540378   -0.002324
     11          1           0        0.990774   -2.154830    0.002924
     12          1           0        3.046431   -3.380872    0.006952
     13          1           0        4.360943   -2.543342    0.911681
     14          1           0        4.363357   -2.546638   -0.897418
     15          1           0        4.712023    0.020605    0.002633
     16          1           0        0.948476    2.121479   -0.004080
     17          1           0        4.737509    2.403665   -0.000902
     18          1           0        3.351897    3.120632    0.901023
     19          1           0        3.353763    3.118157   -0.907940
 ---------------------------------------------------------------------
 Rotational constants (GHZ):      1.7692908      0.2376636      0.2100940
 Leave Link  202 at Sun Oct  3 11:34:03 2021, MaxMem=  805306368 cpu:       0.0
 (Enter /sw/target/amd/app/gaussian/Gaussian09RevA.02_gcc-4.9.2/g09/l301.exe)
 Standard basis: 6-31G(d) (6D, 7F)
 Ernie: Thresh=  0.10000D-02 Tol=  0.10000D-05 Strict=F.
 There are   187 symmetry adapted basis functions of A   symmetry.
 Integral buffers will be    131072 words long.
 Raffenetti 2 integral format.
 Two-electron integral symmetry is turned on.
   187 basis functions,   395 primitive gaussians,   187 cartesian basis functions
    52 alpha electrons       52 beta electrons
       nuclear repulsion energy       665.9783629858 Hartrees.
 IExCor=  402 DFT=T Ex+Corr=B3LYP ExCW=0 ScaHFX=  0.200000
 ScaDFX=  0.800000  0.720000  1.000000  0.810000 ScalE2=  1.000000  1.000000
 IRadAn=      0 IRanWt=     -1 IRanGd=            0 ICorTp=0
 NAtoms=   19 NActive=   19 NUniq=   19 SFac= 7.50D-01 NAtFMM=   80 NAOKFM=F Big=F
 Leave Link  301 at Sun Oct  3 11:34:04 2021, MaxMem=  805306368 cpu:       0.1
 (Enter /sw/target/amd/app/gaussian/Gaussian09RevA.02_gcc-4.9.2/g09/l302.exe)
 NPDir=0 NMtPBC=     1 NCelOv=     1 NCel=       1 NClECP=     1 NCelD=      1
         NCelK=      1 NCelE2=     1 NClLst=     1 CellRange=     0.0.
 One-electron integrals computed using PRISM.
 NBasis=   187 RedAO= T  NBF=   187
 NBsUse=   187 1.00D-06 NBFU=   187
 Precomputing XC quadrature grid using
 IXCGrd= 2 IRadAn=           0 IRanWt=          -1 IRanGd=           0 AccXCQ= 1.00D-10.
 NRdTot=    1214 NPtTot=      158046 NUsed=      166804 NTot=      166836
 NSgBfM=   183   183   183   183   183 NAtAll=    19    19.
 Leave Link  302 at Sun Oct  3 11:34:07 2021, MaxMem=  805306368 cpu:       1.2
 (Enter /sw/target/amd/app/gaussian/Gaussian09RevA.02_gcc-4.9.2/g09/l303.exe)
 DipDrv:  MaxL=1.
 Leave Link  303 at Sun Oct  3 11:34:08 2021, MaxMem=  805306368 cpu:       0.2
 (Enter /sw/target/amd/app/gaussian/Gaussian09RevA.02_gcc-4.9.2/g09/l401.exe)
 Harris functional with IExCor=  402 diagonalized for initial guess.
 ExpMin= 4.21D-02 ExpMax= 5.74D+05 ExpMxC= 5.74D+03 IAcc=2 IRadAn=         0 AccDes= 0.00D+00
 HarFok:  IExCor=  402 AccDes= 0.00D+00 IRadAn=         0 IDoV= 1
 ScaDFX=  1.000000  1.000000  1.000000  1.000000
 FoFCou: FMM=F IPFlag=           0 FMFlag=      100000 FMFlg1=           0
         NFxFlg=           0 DoJE=T BraDBF=F KetDBF=T FulRan=T
         Omega=  0.000000  0.000000  1.000000  0.000000  0.000000 ICntrl=     500 IOpCl=  0
         NMat0=    1 NMatS0=    1 NMatT0=    0 NMatD0=    1 NMtDS0=    0 NMtDT0=    0
         I1Cent=           4 NGrid=           0.
 Petite list used in FoFCou.
 Harris En= -3082.39410981812    
 Initial guess orbital symmetries:
       Occupied  (A) (A) (A) (A) (A) (A) (A) (A) (A) (A) (A) (A)
                 (A) (A) (A) (A) (A) (A) (A) (A) (A) (A) (A) (A)
                 (A) (A) (A) (A) (A) (A) (A) (A) (A) (A) (A) (A)
                 (A) (A) (A) (A) (A) (A) (A) (A) (A) (A) (A) (A)
                 (A) (A) (A) (A)
       Virtual   (A) (A) (A) (A) (A) (A) (A) (A) (A) (A) (A) (A)
                 (A) (A) (A) (A) (A) (A) (A) (A) (A) (A) (A) (A)
                 (A) (A) (A) (A) (A) (A) (A) (A) (A) (A) (A) (A)
                 (A) (A) (A) (A) (A) (A) (A) (A) (A) (A) (A) (A)
                 (A) (A) (A) (A) (A) (A) (A) (A) (A) (A) (A) (A)
                 (A) (A) (A) (A) (A) (A) (A) (A) (A) (A) (A) (A)
                 (A) (A) (A) (A) (A) (A) (A) (A) (A) (A) (A) (A)
                 (A) (A) (A) (A) (A) (A) (A) (A) (A) (A) (A) (A)
                 (A) (A) (A) (A) (A) (A) (A) (A) (A) (A) (A) (A)
                 (A) (A) (A) (A) (A) (A) (A) (A) (A) (A) (A) (A)
                 (A) (A) (A) (A) (A) (A) (A) (A) (A) (A) (A) (A)
                 (A) (A) (A)
 The electronic state of the initial guess is 1-A.
 Leave Link  401 at Sun Oct  3 11:34:31 2021, MaxMem=  805306368 cpu:      11.1
 (Enter /sw/target/amd/app/gaussian/Gaussian09RevA.02_gcc-4.9.2/g09/l502.exe)
 Closed shell SCF:
 Requested convergence on RMS density matrix=1.00D-08 within  64 cycles.
 Requested convergence on MAX density matrix=1.00D-06.
 Requested convergence on             energy=1.00D-06.
 No special actions if energy rises.
 Using DIIS extrapolation, IDIIS=  1040.
 Integral symmetry usage will be decided dynamically.
       166620 words used for storage of precomputed grid.
 Keep R1 ints in memory in canonical form, NReq=158103688.
 IEnd=      279601 IEndB=      279601 NGot=   805306368 MDV=   650564289
 LenX=   650564289 LenY=   650528879
 Symmetry not used in FoFDir.
 MinBra= 0 MaxBra= 2 Meth= 1.
 IRaf=       0 NMat=   1 IRICut=       1 DoRegI=T DoRafI=F ISym2E= 0 JSym2E=0.

 Cycle   1  Pass 1  IDiag  1:
 E= -3081.77636517074    
 DIIS: error= 1.42D-01 at cycle   1 NSaved=   1.
 NSaved= 1 IEnMin= 1 EnMin= -3081.77636517074     IErMin= 1 ErrMin= 1.42D-01
 ErrMax= 1.42D-01 EMaxC= 1.00D-01 BMatC= 7.03D-01 BMatP= 7.03D-01
 IDIUse=3 WtCom= 0.00D+00 WtEn= 1.00D+00
 Coeff-Com:  0.100D+01
 Coeff-En:   0.100D+01
 Coeff:      0.100D+01
 Gap=     0.447 Goal=   None    Shift=    0.000
 GapD=    0.447 DampG=2.000 DampE=0.250 DampFc=0.5000 IDamp=-1.
 Damping current iteration by 5.00D-01
 RMSDP=9.22D-03 MaxDP=5.49D-01              OVMax= 6.25D-01

 Cycle   2  Pass 1  IDiag  1:
 E= -3081.83725168448     Delta-E=       -0.060886513747 Rises=F Damp=T
 DIIS: error= 6.78D-02 at cycle   2 NSaved=   2.
 NSaved= 2 IEnMin= 2 EnMin= -3081.83725168448     IErMin= 2 ErrMin= 6.78D-02
 ErrMax= 6.78D-02 EMaxC= 1.00D-01 BMatC= 1.28D-01 BMatP= 7.03D-01
 IDIUse=3 WtCom= 3.22D-01 WtEn= 6.78D-01
 Coeff-Com: -0.487D-01 0.105D+01
 Coeff-En:   0.411D+00 0.589D+00
 Coeff:      0.263D+00 0.737D+00
 Gap=     0.237 Goal=   None    Shift=    0.000
 RMSDP=3.25D-03 MaxDP=1.67D-01 DE=-6.09D-02 OVMax= 4.35D-01

 Cycle   3  Pass 1  IDiag  1:
 E= -3082.10532267565     Delta-E=       -0.268070991170 Rises=F Damp=F
 DIIS: error= 1.21D-02 at cycle   3 NSaved=   3.
 NSaved= 3 IEnMin= 3 EnMin= -3082.10532267565     IErMin= 3 ErrMin= 1.21D-02
 ErrMax= 1.21D-02 EMaxC= 1.00D-01 BMatC= 2.69D-02 BMatP= 1.28D-01
 IDIUse=3 WtCom= 8.79D-01 WtEn= 1.21D-01
 Coeff-Com: -0.406D-01 0.289D+00 0.751D+00
 Coeff-En:   0.000D+00 0.000D+00 0.100D+01
 Coeff:     -0.357D-01 0.254D+00 0.782D+00
 Gap=     0.206 Goal=   None    Shift=    0.000
 RMSDP=1.87D-03 MaxDP=5.29D-02 DE=-2.68D-01 OVMax= 1.14D-01

 Cycle   4  Pass 1  IDiag  1:
 E= -3082.10299578208     Delta-E=        0.002326893573 Rises=F Damp=F
 DIIS: error= 1.45D-02 at cycle   4 NSaved=   4.
 NSaved= 4 IEnMin= 3 EnMin= -3082.10532267565     IErMin= 3 ErrMin= 1.21D-02
 ErrMax= 1.45D-02 EMaxC= 1.00D-01 BMatC= 2.95D-02 BMatP= 2.69D-02
 IDIUse=3 WtCom= 8.55D-01 WtEn= 1.45D-01
 Coeff-Com: -0.245D-01 0.900D-01 0.503D+00 0.431D+00
 Coeff-En:   0.000D+00 0.000D+00 0.515D+00 0.485D+00
 Coeff:     -0.209D-01 0.769D-01 0.505D+00 0.439D+00
 Gap=     0.192 Goal=   None    Shift=    0.000
 RMSDP=1.14D-03 MaxDP=2.81D-02 DE= 2.33D-03 OVMax= 7.66D-02

 Cycle   5  Pass 1  IDiag  1:
 E= -3082.13550280957     Delta-E=       -0.032507027493 Rises=F Damp=F
 DIIS: error= 2.04D-03 at cycle   5 NSaved=   5.
 NSaved= 5 IEnMin= 5 EnMin= -3082.13550280957     IErMin= 5 ErrMin= 2.04D-03
 ErrMax= 2.04D-03 EMaxC= 1.00D-01 BMatC= 8.29D-04 BMatP= 2.69D-02
 IDIUse=3 WtCom= 9.80D-01 WtEn= 2.04D-02
 Coeff-Com: -0.112D-01 0.367D-01 0.238D+00 0.237D+00 0.499D+00
 Coeff-En:   0.000D+00 0.000D+00 0.000D+00 0.000D+00 0.100D+01
 Coeff:     -0.109D-01 0.360D-01 0.234D+00 0.232D+00 0.510D+00
 Gap=     0.171 Goal=   None    Shift=    0.000
 RMSDP=2.42D-04 MaxDP=5.42D-03 DE=-3.25D-02 OVMax= 1.47D-02

 Cycle   6  Pass 1  IDiag  1:
 E= -3082.13638876346     Delta-E=       -0.000885953893 Rises=F Damp=F
 DIIS: error= 4.80D-04 at cycle   6 NSaved=   6.
 NSaved= 6 IEnMin= 6 EnMin= -3082.13638876346     IErMin= 6 ErrMin= 4.80D-04
 ErrMax= 4.80D-04 EMaxC= 1.00D-01 BMatC= 6.77D-05 BMatP= 8.29D-04
 IDIUse=3 WtCom= 9.95D-01 WtEn= 4.80D-03
 Coeff-Com: -0.123D-02 0.208D-02 0.269D-01 0.380D-01 0.248D+00 0.686D+00
 Coeff-En:   0.000D+00 0.000D+00 0.000D+00 0.000D+00 0.198D-01 0.980D+00
 Coeff:     -0.123D-02 0.207D-02 0.268D-01 0.378D-01 0.247D+00 0.688D+00
 Gap=     0.171 Goal=   None    Shift=    0.000
 RMSDP=4.82D-05 MaxDP=1.44D-03 DE=-8.86D-04 OVMax= 3.10D-03

 Cycle   7  Pass 1  IDiag  1:
 E= -3082.13645554705     Delta-E=       -0.000066783586 Rises=F Damp=F
 DIIS: error= 1.32D-04 at cycle   7 NSaved=   7.
 NSaved= 7 IEnMin= 7 EnMin= -3082.13645554705     IErMin= 7 ErrMin= 1.32D-04
 ErrMax= 1.32D-04 EMaxC= 1.00D-01 BMatC= 3.26D-06 BMatP= 6.77D-05
 IDIUse=3 WtCom= 9.99D-01 WtEn= 1.32D-03
 Coeff-Com:  0.160D-04-0.613D-03 0.556D-02 0.975D-02 0.101D+00 0.318D+00
 Coeff-Com:  0.567D+00
 Coeff-En:   0.000D+00 0.000D+00 0.000D+00 0.000D+00 0.000D+00 0.000D+00
 Coeff-En:   0.100D+01
 Coeff:      0.160D-04-0.612D-03 0.556D-02 0.974D-02 0.101D+00 0.317D+00
 Coeff:      0.567D+00
 Gap=     0.171 Goal=   None    Shift=    0.000
 RMSDP=1.14D-05 MaxDP=3.42D-04 DE=-6.68D-05 OVMax= 6.93D-04

 Cycle   8  Pass 1  IDiag  1:
 E= -3082.13645835212     Delta-E=       -0.000002805068 Rises=F Damp=F
 DIIS: error= 4.45D-05 at cycle   8 NSaved=   8.
 NSaved= 8 IEnMin= 8 EnMin= -3082.13645835212     IErMin= 8 ErrMin= 4.45D-05
 ErrMax= 4.45D-05 EMaxC= 1.00D-01 BMatC= 4.29D-07 BMatP= 3.26D-06
 IDIUse=1 WtCom= 1.00D+00 WtEn= 0.00D+00
 Coeff-Com:  0.294D-03-0.716D-03-0.443D-03-0.798D-03 0.121D-01 0.458D-01
 Coeff-Com:  0.273D+00 0.670D+00
 Coeff:      0.294D-03-0.716D-03-0.443D-03-0.798D-03 0.121D-01 0.458D-01
 Coeff:      0.273D+00 0.670D+00
 Gap=     0.171 Goal=   None    Shift=    0.000
 RMSDP=4.33D-06 MaxDP=1.07D-04 DE=-2.81D-06 OVMax= 2.21D-04

 Cycle   9  Pass 1  IDiag  1:
 E= -3082.13645879594     Delta-E=       -0.000000443822 Rises=F Damp=F
 DIIS: error= 5.52D-06 at cycle   9 NSaved=   9.
 NSaved= 9 IEnMin= 9 EnMin= -3082.13645879594     IErMin= 9 ErrMin= 5.52D-06
 ErrMax= 5.52D-06 EMaxC= 1.00D-01 BMatC= 1.40D-08 BMatP= 4.29D-07
 IDIUse=1 WtCom= 1.00D+00 WtEn= 0.00D+00
 Coeff-Com:  0.134D-03-0.262D-03-0.189D-03-0.586D-03 0.851D-03 0.492D-02
 Coeff-Com:  0.641D-01 0.227D+00 0.704D+00
 Coeff:      0.134D-03-0.262D-03-0.189D-03-0.586D-03 0.851D-03 0.492D-02
 Coeff:      0.641D-01 0.227D+00 0.704D+00
 Gap=     0.171 Goal=   None    Shift=    0.000
 RMSDP=9.77D-07 MaxDP=2.99D-05 DE=-4.44D-07 OVMax= 4.66D-05

 Cycle  10  Pass 1  IDiag  1:
 E= -3082.13645880922     Delta-E=       -0.000000013277 Rises=F Damp=F
 DIIS: error= 4.52D-06 at cycle  10 NSaved=  10.
 NSaved=10 IEnMin=10 EnMin= -3082.13645880922     IErMin=10 ErrMin= 4.52D-06
 ErrMax= 4.52D-06 EMaxC= 1.00D-01 BMatC= 2.32D-09 BMatP= 1.40D-08
 IDIUse=1 WtCom= 1.00D+00 WtEn= 0.00D+00
 Coeff-Com:  0.605D-04-0.114D-03 0.364D-05-0.220D-03 0.643D-04 0.721D-03
 Coeff-Com:  0.195D-01 0.845D-01 0.366D+00 0.530D+00
 Coeff:      0.605D-04-0.114D-03 0.364D-05-0.220D-03 0.643D-04 0.721D-03
 Coeff:      0.195D-01 0.845D-01 0.366D+00 0.530D+00
 Gap=     0.171 Goal=   None    Shift=    0.000
 RMSDP=3.95D-07 MaxDP=9.43D-06 DE=-1.33D-08 OVMax= 2.83D-05

 Cycle  11  Pass 1  IDiag  1:
 E= -3082.13645881129     Delta-E=       -0.000000002070 Rises=F Damp=F
 DIIS: error= 2.27D-06 at cycle  11 NSaved=  11.
 NSaved=11 IEnMin=11 EnMin= -3082.13645881129     IErMin=11 ErrMin= 2.27D-06
 ErrMax= 2.27D-06 EMaxC= 1.00D-01 BMatC= 5.86D-10 BMatP= 2.32D-09
 IDIUse=1 WtCom= 1.00D+00 WtEn= 0.00D+00
 Coeff-Com:  0.168D-04-0.310D-04 0.663D-04-0.200D-04-0.656D-04-0.361D-03
 Coeff-Com:  0.139D-03 0.107D-01 0.103D+00 0.356D+00 0.530D+00
 Coeff:      0.168D-04-0.310D-04 0.663D-04-0.200D-04-0.656D-04-0.361D-03
 Coeff:      0.139D-03 0.107D-01 0.103D+00 0.356D+00 0.530D+00
 Gap=     0.171 Goal=   None    Shift=    0.000
 RMSDP=1.61D-07 MaxDP=3.93D-06 DE=-2.07D-09 OVMax= 1.11D-05

 Cycle  12  Pass 1  IDiag  1:
 E= -3082.13645881199     Delta-E=       -0.000000000706 Rises=F Damp=F
 DIIS: error= 2.36D-07 at cycle  12 NSaved=  12.
 NSaved=12 IEnMin=12 EnMin= -3082.13645881199     IErMin=12 ErrMin= 2.36D-07
 ErrMax= 2.36D-07 EMaxC= 1.00D-01 BMatC= 1.36D-11 BMatP= 5.86D-10
 IDIUse=1 WtCom= 1.00D+00 WtEn= 0.00D+00
 Coeff-Com:  0.336D-05-0.636D-05 0.215D-04 0.351D-05-0.227D-04-0.973D-04
 Coeff-Com: -0.119D-02-0.246D-02 0.659D-02 0.818D-01 0.178D+00 0.738D+00
 Coeff:      0.336D-05-0.636D-05 0.215D-04 0.351D-05-0.227D-04-0.973D-04
 Coeff:     -0.119D-02-0.246D-02 0.659D-02 0.818D-01 0.178D+00 0.738D+00
 Gap=     0.171 Goal=   None    Shift=    0.000
 RMSDP=2.87D-08 MaxDP=1.15D-06 DE=-7.06D-10 OVMax= 1.76D-06

 Cycle  13  Pass 1  IDiag  1:
 E= -3082.13645881200     Delta-E=       -0.000000000007 Rises=F Damp=F
 DIIS: error= 6.95D-08 at cycle  13 NSaved=  13.
 NSaved=13 IEnMin=13 EnMin= -3082.13645881200     IErMin=13 ErrMin= 6.95D-08
 ErrMax= 6.95D-08 EMaxC= 1.00D-01 BMatC= 1.40D-12 BMatP= 1.36D-11
 IDIUse=1 WtCom= 1.00D+00 WtEn= 0.00D+00
 Coeff-Com:  0.936D-06-0.180D-05 0.852D-05 0.374D-05-0.111D-04-0.325D-04
 Coeff-Com: -0.646D-03-0.200D-02-0.287D-02 0.215D-01 0.615D-01 0.385D+00
 Coeff-Com:  0.537D+00
 Coeff:      0.936D-06-0.180D-05 0.852D-05 0.374D-05-0.111D-04-0.325D-04
 Coeff:     -0.646D-03-0.200D-02-0.287D-02 0.215D-01 0.615D-01 0.385D+00
 Coeff:      0.537D+00
 Gap=     0.171 Goal=   None    Shift=    0.000
 RMSDP=7.01D-09 MaxDP=3.93D-07 DE=-7.28D-12 OVMax= 4.32D-07

 SCF Done:  E(RB3LYP) =  -3082.13645881     A.U. after   13 cycles
             Convg  =    0.7009D-08             -V/T =  2.0065
 KE= 3.062174777205D+03 PE=-8.663335589861D+03 EE= 1.853045990858D+03
 Leave Link  502 at Sun Oct  3 11:42:31 2021, MaxMem=  805306368 cpu:     142.8
 (Enter /sw/target/amd/app/gaussian/Gaussian09RevA.02_gcc-4.9.2/g09/l508.exe)
 QCSCF skips out because SCF is already converged.
 Leave Link  508 at Sun Oct  3 11:42:33 2021, MaxMem=  805306368 cpu:       0.0
 (Enter /sw/target/amd/app/gaussian/Gaussian09RevA.02_gcc-4.9.2/g09/l601.exe)
 Copying SCF densities to generalized density rwf, IOpCl= 0 IROHF=0.

 **********************************************************************

            Population analysis using the SCF density.

 **********************************************************************

 Orbital symmetries:
       Occupied  (A) (A) (A) (A) (A) (A) (A) (A) (A) (A) (A) (A)
                 (A) (A) (A) (A) (A) (A) (A) (A) (A) (A) (A) (A)
                 (A) (A) (A) (A) (A) (A) (A) (A) (A) (A) (A) (A)
                 (A) (A) (A) (A) (A) (A) (A) (A) (A) (A) (A) (A)
                 (A) (A) (A) (A)
       Virtual   (A) (A) (A) (A) (A) (A) (A) (A) (A) (A) (A) (A)
                 (A) (A) (A) (A) (A) (A) (A) (A) (A) (A) (A) (A)
                 (A) (A) (A) (A) (A) (A) (A) (A) (A) (A) (A) (A)
                 (A) (A) (A) (A) (A) (A) (A) (A) (A) (A) (A) (A)
                 (A) (A) (A) (A) (A) (A) (A) (A) (A) (A) (A) (A)
                 (A) (A) (A) (A) (A) (A) (A) (A) (A) (A) (A) (A)
                 (A) (A) (A) (A) (A) (A) (A) (A) (A) (A) (A) (A)
                 (A) (A) (A) (A) (A) (A) (A) (A) (A) (A) (A) (A)
                 (A) (A) (A) (A) (A) (A) (A) (A) (A) (A) (A) (A)
                 (A) (A) (A) (A) (A) (A) (A) (A) (A) (A) (A) (A)
                 (A) (A) (A) (A) (A) (A) (A) (A) (A) (A) (A) (A)
                 (A) (A) (A)
 The electronic state is 1-A.
 Alpha  occ. eigenvalues -- -482.86433 -61.82623 -56.34415 -56.34261 -56.34257
 Alpha  occ. eigenvalues --  -46.86818 -10.19634 -10.19587 -10.18839 -10.18795
 Alpha  occ. eigenvalues --  -10.18485 -10.18467 -10.18441 -10.17780  -8.53510
 Alpha  occ. eigenvalues --   -6.48330  -6.47843  -6.47834  -3.15005  -2.59979
 Alpha  occ. eigenvalues --   -2.59845  -2.59838  -2.59449  -2.59449  -1.89678
 Alpha  occ. eigenvalues --   -1.89620  -1.88910  -0.85251  -0.78060  -0.74802
 Alpha  occ. eigenvalues --   -0.70265  -0.68752  -0.67644  -0.57498  -0.56657
 Alpha  occ. eigenvalues --   -0.50135  -0.46552  -0.42624  -0.41916  -0.41644
 Alpha  occ. eigenvalues --   -0.40186  -0.39693  -0.38399  -0.36987  -0.34068
 Alpha  occ. eigenvalues --   -0.33425  -0.30700  -0.26053  -0.26031  -0.25526
 Alpha  occ. eigenvalues --   -0.24300  -0.23480
 Alpha virt. eigenvalues --   -0.06330  -0.03145  -0.02399   0.00058   0.01499
 Alpha virt. eigenvalues --    0.06570   0.10239   0.11147   0.11345   0.12228
 Alpha virt. eigenvalues --    0.13155   0.13680   0.14736   0.16181   0.17157
 Alpha virt. eigenvalues --    0.17841   0.18101   0.18522   0.20718   0.23246
 Alpha virt. eigenvalues --    0.23362   0.25137   0.26945   0.27726   0.28340
 Alpha virt. eigenvalues --    0.29353   0.32822   0.34530   0.38177   0.39180
 Alpha virt. eigenvalues --    0.39699   0.44865   0.45647   0.51279   0.51409
 Alpha virt. eigenvalues --    0.51513   0.51736   0.53440   0.53511   0.55005
 Alpha virt. eigenvalues --    0.55216   0.56382   0.57919   0.59601   0.59804
 Alpha virt. eigenvalues --    0.61246   0.62923   0.64251   0.64761   0.64856
 Alpha virt. eigenvalues --    0.66942   0.69378   0.72437   0.74184   0.75065
 Alpha virt. eigenvalues --    0.75556   0.76642   0.79336   0.79549   0.81106
 Alpha virt. eigenvalues --    0.83783   0.85818   0.86767   0.87009   0.87635
 Alpha virt. eigenvalues --    0.88673   0.90078   0.91595   0.93574   0.94036
 Alpha virt. eigenvalues --    0.98793   1.01739   1.05391   1.08522   1.14338
 Alpha virt. eigenvalues --    1.16723   1.19746   1.22104   1.26148   1.28469
 Alpha virt. eigenvalues --    1.33092   1.37252   1.39617   1.40265   1.49001
 Alpha virt. eigenvalues --    1.49767   1.52736   1.55173   1.55361   1.68897
 Alpha virt. eigenvalues --    1.76259   1.81587   1.82900   1.87418   1.87779
 Alpha virt. eigenvalues --    1.89811   1.90653   1.90896   1.93104   1.96775
 Alpha virt. eigenvalues --    2.06534   2.07719   2.12596   2.14471   2.14680
 Alpha virt. eigenvalues --    2.18622   2.21850   2.29763   2.29959   2.30425
 Alpha virt. eigenvalues --    2.32517   2.36218   2.36722   2.37288   2.43912
 Alpha virt. eigenvalues --    2.58261   2.66020   2.66750   2.73629   2.78872
 Alpha virt. eigenvalues --    2.82340   2.82941   2.93262   3.09450   3.37612
 Alpha virt. eigenvalues --    4.10778   4.12173   4.16768   4.22571   4.23979
 Alpha virt. eigenvalues --    4.38162   4.42767   4.71446   8.74746  74.76946
          Condensed to atoms (all electrons):
              1          2          3          4          5          6
     1  Br  35.030045   0.340227  -0.001692   0.000003  -0.000000   0.000000
     2  Mg   0.340227  10.863446   0.355642  -0.025232   0.005046  -0.001089
     3  C   -0.001692   0.355642   4.829644   0.507115  -0.019994   0.007594
     4  C    0.000003  -0.025232   0.507115   5.037378   0.557029  -0.051791
     5  C   -0.000000   0.005046  -0.019994   0.557029   4.659046   0.330169
     6  C    0.000000  -0.001089   0.007594  -0.051791   0.330169   5.235319
     7  C   -0.000000   0.002304  -0.050842  -0.044493   0.520796  -0.068453
     8  C   -0.000000   0.004783  -0.014094  -0.041289  -0.011442   0.005667
     9  C    0.000011  -0.027103   0.513815  -0.056509  -0.042965   0.001113
    10  C    0.000000  -0.001108   0.006364   0.001096   0.006581  -0.000227
    11  H   -0.000005  -0.013672  -0.055051   0.352615  -0.044830  -0.009064
    12  H    0.000000  -0.000035   0.000184  -0.003562  -0.030356   0.363552
    13  H   -0.000000   0.000056  -0.000212   0.000628  -0.028577   0.360660
    14  H   -0.000000   0.000056  -0.000212   0.000632  -0.028561   0.360662
    15  H   -0.000000   0.000184   0.000022   0.005470  -0.053023  -0.008172
    16  H   -0.000006  -0.014183  -0.054778   0.005802   0.000645   0.000018
    17  H   -0.000000   0.000040  -0.000162  -0.000010   0.000087  -0.000008
    18  H   -0.000000   0.000079  -0.000032   0.000021  -0.000170   0.000004
    19  H   -0.000000   0.000080  -0.000033   0.000020  -0.000169   0.000004
              7          8          9         10         11         12
     1  Br  -0.000000  -0.000000   0.000011   0.000000  -0.000005   0.000000
     2  Mg   0.002304   0.004783  -0.027103  -0.001108  -0.013672  -0.000035
     3  C   -0.050842  -0.014094   0.513815   0.006364  -0.055051   0.000184
     4  C   -0.044493  -0.041289  -0.056509   0.001096   0.352615  -0.003562
     5  C    0.520796  -0.011442  -0.042965   0.006581  -0.044830  -0.030356
     6  C   -0.068453   0.005667   0.001113  -0.000227  -0.009064   0.363552
     7  C    5.054435   0.549235  -0.043551  -0.051318   0.005426   0.003638
     8  C    0.549235   4.645723   0.534116   0.330598   0.000569  -0.000109
     9  C   -0.043551   0.534116   5.059381  -0.069584   0.005755  -0.000013
    10  C   -0.051318   0.330598  -0.069584   5.234754   0.000016   0.000003
    11  H    0.005426   0.000569   0.005755   0.000016   0.640375   0.007281
    12  H    0.003638  -0.000109  -0.000013   0.000003   0.007281   0.562640
    13  H   -0.003289  -0.000066   0.000025  -0.000001   0.000079  -0.026951
    14  H   -0.003288  -0.000065   0.000025  -0.000001   0.000078  -0.026947
    15  H    0.353119  -0.042556   0.006039  -0.010494  -0.000192  -0.000009
    16  H    0.004885  -0.052756   0.357707  -0.006349  -0.000166  -0.000000
    17  H   -0.003446  -0.028912   0.003875   0.361304  -0.000000   0.000000
    18  H    0.000526  -0.029312  -0.003303   0.362018  -0.000000  -0.000000
    19  H    0.000528  -0.029301  -0.003300   0.361999  -0.000000  -0.000000
             13         14         15         16         17         18
     1  Br  -0.000000  -0.000000  -0.000000  -0.000006  -0.000000  -0.000000
     2  Mg   0.000056   0.000056   0.000184  -0.014183   0.000040   0.000079
     3  C   -0.000212  -0.000212   0.000022  -0.054778  -0.000162  -0.000032
     4  C    0.000628   0.000632   0.005470   0.005802  -0.000010   0.000021
     5  C   -0.028577  -0.028561  -0.053023   0.000645   0.000087  -0.000170
     6  C    0.360660   0.360662  -0.008172   0.000018  -0.000008   0.000004
     7  C   -0.003289  -0.003288   0.353119   0.004885  -0.003446   0.000526
     8  C   -0.000066  -0.000065  -0.042556  -0.052756  -0.028912  -0.029312
     9  C    0.000025   0.000025   0.006039   0.357707   0.003875  -0.003303
    10  C   -0.000001  -0.000001  -0.010494  -0.006349   0.361304   0.362018
    11  H    0.000079   0.000078  -0.000192  -0.000166  -0.000000  -0.000000
    12  H   -0.026951  -0.026947  -0.000009  -0.000000   0.000000  -0.000000
    13  H    0.564613  -0.029236   0.002369  -0.000000  -0.000000  -0.000000
    14  H   -0.029236   0.564583   0.002371  -0.000000  -0.000000   0.000000
    15  H    0.002369   0.002371   0.619737  -0.000198   0.007221   0.000096
    16  H   -0.000000  -0.000000  -0.000198   0.645104  -0.000008   0.002252
    17  H   -0.000000  -0.000000   0.007221  -0.000008   0.562432  -0.026795
    18  H   -0.000000   0.000000   0.000096   0.002252  -0.026795   0.564116
    19  H    0.000000  -0.000000   0.000096   0.002250  -0.026781  -0.029322
             19
     1  Br  -0.000000
     2  Mg   0.000080
     3  C   -0.000033
     4  C    0.000020
     5  C   -0.000169
     6  C    0.000004
     7  C    0.000528
     8  C   -0.029301
     9  C   -0.003300
    10  C    0.361999
    11  H   -0.000000
    12  H   -0.000000
    13  H    0.000000
    14  H   -0.000000
    15  H    0.000096
    16  H    0.002250
    17  H   -0.026781
    18  H   -0.029322
    19  H    0.564125
 Mulliken atomic charges:
              1
     1  Br  -0.368583
     2  Mg   0.510476
     3  C   -0.023280
     4  C   -0.244926
     5  C    0.180687
     6  C   -0.525958
     7  C   -0.226212
     8  C    0.179211
     9  C   -0.235534
    10  C   -0.525650
    11  H    0.110785
    12  H    0.150686
    13  H    0.159903
    14  H    0.159903
    15  H    0.117919
    16  H    0.109782
    17  H    0.151162
    18  H    0.159824
    19  H    0.159805
 Sum of Mulliken atomic charges =  -0.00000
 Mulliken charges with hydrogens summed into heavy atoms:
              1
     1  Br  -0.368583
     2  Mg   0.510476
     3  C   -0.023280
     4  C   -0.134141
     5  C    0.180687
     6  C   -0.055467
     7  C   -0.108294
     8  C    0.179211
     9  C   -0.125752
    10  C   -0.054858
 Sum of Mulliken charges with hydrogens summed into heavy atoms =  -0.00000
 Electronic spatial extent (au):  <R**2>=           4584.1966
 Charge=             -0.0000 electrons
 Dipole moment (field-independent basis, Debye):
    X=              3.7895    Y=              0.0632    Z=              0.0023  Tot=              3.7901
 Quadrupole moment (field-independent basis, Debye-Ang):
   XX=            -92.4413   YY=            -71.1741   ZZ=            -77.5520
   XY=              0.0508   XZ=              0.0044   YZ=             -0.0105
 Traceless Quadrupole moment (field-independent basis, Debye-Ang):
   XX=            -12.0522   YY=              9.2150   ZZ=              2.8372
   XY=              0.0508   XZ=              0.0044   YZ=             -0.0105
 Octapole moment (field-independent basis, Debye-Ang**2):
  XXX=             -1.1310  YYY=             -0.0760  ZZZ=             -0.0314  XYY=            -35.1418
  XXY=             -0.5240  XXZ=              0.0443  XZZ=            -45.9238  YZZ=              0.5912
  YYZ=             -0.0076  XYZ=             -0.0180
 Hexadecapole moment (field-independent basis, Debye-Ang**3):
 XXXX=          -4557.9506 YYYY=           -913.9876 ZZZZ=           -105.2117 XXXY=             -2.7751
 XXXZ=             -0.7182 YYYX=              2.5586 YYYZ=              0.6795 ZZZX=             -0.7577
 ZZZY=              0.6754 XXYY=           -878.7756 XXZZ=           -765.7233 YYZZ=           -170.0870
 XXYZ=              0.1989 YYXZ=             -0.2620 ZZXY=             -0.4425
 N-N= 6.659783629858D+02 E-N=-8.663335596213D+03  KE= 3.062174777205D+03
 No NMR shielding tensors so no spin-rotation constants.
 Leave Link  601 at Sun Oct  3 11:42:39 2021, MaxMem=  805306368 cpu:       0.8
 (Enter /sw/target/amd/app/gaussian/Gaussian09RevA.02_gcc-4.9.2/g09/l701.exe)
 Compute integral first derivatives.
 ... and contract with generalized density number  0.
 Leave Link  701 at Sun Oct  3 11:42:43 2021, MaxMem=  805306368 cpu:       1.0
 (Enter /sw/target/amd/app/gaussian/Gaussian09RevA.02_gcc-4.9.2/g09/l702.exe)
 L702 exits ... SP integral derivatives will be done elsewhere.
 Leave Link  702 at Sun Oct  3 11:42:43 2021, MaxMem=  805306368 cpu:       0.1
 (Enter /sw/target/amd/app/gaussian/Gaussian09RevA.02_gcc-4.9.2/g09/l703.exe)
 Compute integral first derivatives, UseDBF=F ICtDFT=           0.
 Integral derivatives from FoFDir, PRISM(SPDF).
 Calling FoFJK, ICntrl=      2127 FMM=F ISym2X=0 I1Cent= 0 IOpClX= 0 NMat=1 NMatS=1 NMatT=0.
 FoFCou: FMM=F IPFlag=           0 FMFlag=      100000 FMFlg1=         800
         NFxFlg=           0 DoJE=F BraDBF=F KetDBF=F FulRan=T
         Omega=  0.000000  0.000000  1.000000  0.000000  0.000000 ICntrl=    2127 IOpCl=  0
         NMat0=    1 NMatS0=    1 NMatT0=    0 NMatD0=    1 NMtDS0=    0 NMtDT0=    0
         I1Cent=           0 NGrid=           0.
 Symmetry not used in FoFCou.
 Leave Link  703 at Sun Oct  3 11:45:11 2021, MaxMem=  805306368 cpu:      56.6
 (Enter /sw/target/amd/app/gaussian/Gaussian09RevA.02_gcc-4.9.2/g09/l716.exe)
 Dipole        = 1.49091846D+00 2.48687612D-02 8.97709896D-04
 ***** Axes restored to original set *****
 -------------------------------------------------------------------
 Center     Atomic                   Forces (Hartrees/Bohr)
 Number     Number              X              Y              Z
 -------------------------------------------------------------------
      1       35           0.034870928    0.000048504    0.000001477
      2       12          -0.018953389   -0.000389963   -0.000013593
      3        6          -0.033119644    0.002117328   -0.000002469
      4        6           0.010064832    0.008053420    0.000016300
      5        6          -0.004394368   -0.001632029   -0.000032959
      6        6           0.004029944   -0.008555514    0.000034156
      7        6          -0.017549537    0.002751932   -0.000019503
      8        6           0.005740921   -0.003805871    0.000025095
      9        6           0.004598185   -0.009491268    0.000028142
     10        6           0.006196421    0.007396501   -0.000041306
     11        1           0.002905952   -0.006480289    0.000004406
     12        1           0.007383053    0.007443517   -0.000008747
     13        1          -0.002291255   -0.003208764   -0.008880457
     14        1          -0.002327715   -0.003166074    0.008885003
     15        1           0.002859811    0.000681942   -0.000000050
     16        1           0.002124891    0.006488037   -0.000018969
     17        1          -0.009983392    0.002801210   -0.000023581
     18        1           0.003921368   -0.000525162   -0.008907541
     19        1           0.003922994   -0.000527459    0.008954594
 -------------------------------------------------------------------
 Cartesian Forces:  Max     0.034870928 RMS     0.008608887
 Leave Link  716 at Sun Oct  3 11:45:11 2021, MaxMem=  805306368 cpu:       0.0
 (Enter /sw/target/amd/app/gaussian/Gaussian09RevA.02_gcc-4.9.2/g09/l103.exe)

 GradGradGradGradGradGradGradGradGradGradGradGradGradGradGradGradGradGrad
 Berny optimization.
 Internal  Forces:  Max     0.034870962 RMS     0.005920020
 Search for a local minimum.
 Step number   1 out of a maximum of   97
 All quantities printed in internal units (Hartrees-Bohrs-Radians)
 RMS Force = .59200D-02 SwitMx=.10000D-02 MixMth= 1
 Mixed Optimization -- RFO/linear search
 Second derivative matrix not updated -- first step.
     Eigenvalues ---    0.00240   0.00240   0.00763   0.00764   0.01505
     Eigenvalues ---    0.01549   0.02028   0.02033   0.02056   0.02083
     Eigenvalues ---    0.02103   0.02121   0.02142   0.05774   0.07276
     Eigenvalues ---    0.07281   0.07478   0.07479   0.10112   0.16000
     Eigenvalues ---    0.16000   0.16000   0.16000   0.16000   0.16000
     Eigenvalues ---    0.16000   0.16000   0.16000   0.23468   0.23480
     Eigenvalues ---    0.23500   0.25000   0.25000   0.25000   0.32352
     Eigenvalues ---    0.32362   0.32519   0.32526   0.32547   0.32556
     Eigenvalues ---    0.32558   0.32558   0.35551   0.35683   0.35719
     Eigenvalues ---    0.41424   0.41592   0.44882   0.45153   0.45684
     Eigenvalues ---    0.461291000.000001000.000001000.000001000.00000
     Eigenvalues --- 1000.000001000.000001000.000001000.000001000.00000
     Eigenvalues --- 1000.000001000.000001000.000001000.000001000.00000
     Eigenvalues --- 1000.000001000.000001000.000001000.000001000.00000
     Eigenvalues --- 1000.000001000.000001000.000001000.000001000.00000
     Eigenvalues --- 1000.000001000.000001000.000001000.000001000.00000
     Eigenvalues --- 1000.000001000.000001000.000001000.000001000.00000
     Eigenvalues --- 1000.000001000.00000
 RFO step:  Lambda=-2.26956683D-02 EMin= 2.39615807D-03
 Linear search not attempted -- first point.
 Maximum step size (   0.300) exceeded in Quadratic search.
    -- Step size scaled by   0.631
 Iteration  1 RMS(Cart)=  0.02993708 RMS(Int)=  0.00790076
 Iteration  2 RMS(Cart)=  0.00769069 RMS(Int)=  0.00003413
 Iteration  3 RMS(Cart)=  0.00000060 RMS(Int)=  0.00003413
 Variable       Old X    -DE/DX   Delta X   Delta X   Delta X     New X
                                 (Linear)    (Quad)   (Total)
    R1        4.93219  -0.03487   0.00000  -0.27362  -0.27362   4.65856
    R2        4.10071  -0.01592   0.00000  -0.08113  -0.08113   4.01957
    R3        2.63838   0.00955   0.00000   0.01306   0.01306   2.65145
    R4        2.63776   0.00734   0.00000   0.01027   0.01027   2.64803
    R5        2.65383  -0.00389   0.00000  -0.00530  -0.00530   2.64853
    R6        2.04524   0.00413   0.00000   0.00686   0.00686   2.05210
    R7        2.83486   0.00993   0.00000   0.01809   0.01809   2.85295
    R8        2.65355  -0.00140   0.00000  -0.00262  -0.00263   2.65092
    R9        2.09904  -0.01039   0.00000  -0.01886  -0.01886   2.08019
   R10        2.09835  -0.00844   0.00000  -0.01529  -0.01529   2.08306
   R11        2.09835  -0.00844   0.00000  -0.01530  -0.01530   2.08305
   R12        2.65495  -0.00566   0.00000  -0.00825  -0.00825   2.64669
   R13        2.04790   0.00287   0.00000   0.00478   0.00478   2.05269
   R14        2.64908   0.00148   0.00000   0.00206   0.00206   2.65115
   R15        2.83505   0.00997   0.00000   0.01818   0.01818   2.85322
   R16        2.04580   0.00440   0.00000   0.00732   0.00732   2.05313
   R17        2.09892  -0.01025   0.00000  -0.01859  -0.01859   2.08032
   R18        2.09838  -0.00853   0.00000  -0.01545  -0.01545   2.08293
   R19        2.09854  -0.00858   0.00000  -0.01554  -0.01554   2.08299
    A1        2.10555   0.00356   0.00000   0.00736   0.00736   2.11290
    A2        2.07896   0.00480   0.00000   0.01023   0.01022   2.08918
    A3        2.09868  -0.00836   0.00000  -0.01759  -0.01758   2.08110
    A4        2.09651   0.00474   0.00000   0.01264   0.01265   2.10916
    A5        2.07790   0.00354   0.00000   0.01411   0.01410   2.09200
    A6        2.10877  -0.00828   0.00000  -0.02674  -0.02675   2.08203
    A7        2.10830   0.00212   0.00000   0.00603   0.00603   2.11433
    A8        2.08587  -0.00399   0.00000  -0.01147  -0.01148   2.07439
    A9        2.08902   0.00187   0.00000   0.00545   0.00545   2.09446
   A10        1.94666   0.00006   0.00000   0.00047   0.00044   1.94710
   A11        1.91304   0.00542   0.00000   0.01861   0.01852   1.93156
   A12        1.91329   0.00539   0.00000   0.01850   0.01840   1.93169
   A13        1.89301  -0.00279   0.00000  -0.00939  -0.00941   1.88360
   A14        1.89309  -0.00279   0.00000  -0.00941  -0.00944   1.88365
   A15        1.90414  -0.00563   0.00000  -0.01995  -0.02010   1.88404
   A16        2.10102   0.00780   0.00000   0.01665   0.01664   2.11766
   A17        2.08724  -0.00323   0.00000  -0.00601  -0.00600   2.08124
   A18        2.09492  -0.00457   0.00000  -0.01064  -0.01063   2.08429
   A19        2.08455  -0.00400   0.00000  -0.01099  -0.01100   2.07355
   A20        2.11024   0.00080   0.00000   0.00273   0.00273   2.11297
   A21        2.08840   0.00320   0.00000   0.00826   0.00827   2.09667
   A22        2.09975   0.00381   0.00000   0.01078   0.01078   2.11052
   A23        2.08011   0.00343   0.00000   0.01304   0.01304   2.09315
   A24        2.10333  -0.00724   0.00000  -0.02381  -0.02382   2.07951
   A25        1.94721   0.00040   0.00000   0.00169   0.00166   1.94887
   A26        1.91316   0.00525   0.00000   0.01798   0.01789   1.93105
   A27        1.91322   0.00525   0.00000   0.01797   0.01788   1.93110
   A28        1.89286  -0.00285   0.00000  -0.00952  -0.00956   1.88330
   A29        1.89298  -0.00286   0.00000  -0.00958  -0.00962   1.88337
   A30        1.90378  -0.00552   0.00000  -0.01973  -0.01987   1.88392
   A31        3.14159  -0.00021   0.00000  -0.00519  -0.00519   3.13641
   A32        3.14159  -0.00000   0.00000  -0.00007  -0.00007   3.14152
    D1       -3.14040  -0.00002   0.00000  -0.00023  -0.00023  -3.14063
    D2        0.00077  -0.00001   0.00000  -0.00006  -0.00006   0.00071
    D3        0.00012  -0.00000   0.00000  -0.00004  -0.00004   0.00009
    D4        3.14130   0.00001   0.00000   0.00013   0.00013   3.14143
    D5        3.14057   0.00001   0.00000   0.00018   0.00018   3.14075
    D6       -0.00068   0.00000   0.00000   0.00004   0.00004  -0.00064
    D7        0.00002   0.00000   0.00000  -0.00000  -0.00000   0.00002
    D8       -3.14123  -0.00001   0.00000  -0.00015  -0.00015  -3.14138
    D9        3.14133   0.00001   0.00000   0.00008   0.00008   3.14140
   D10       -0.00022   0.00000   0.00000   0.00007   0.00007  -0.00015
   D11        0.00016  -0.00001   0.00000  -0.00010  -0.00010   0.00006
   D12       -3.14138  -0.00001   0.00000  -0.00011  -0.00011  -3.14149
   D13        0.00018   0.00000   0.00000   0.00003   0.00003   0.00021
   D14       -2.09651  -0.00013   0.00000  -0.00086  -0.00081  -2.09733
   D15        2.09713   0.00013   0.00000   0.00082   0.00077   2.09790
   D16       -3.14146   0.00001   0.00000   0.00003   0.00003  -3.14143
   D17        1.04503  -0.00013   0.00000  -0.00086  -0.00081   1.04422
   D18       -1.04451   0.00013   0.00000   0.00083   0.00078  -1.04374
   D19        0.00017  -0.00000   0.00000  -0.00006  -0.00006   0.00011
   D20        3.14157   0.00000   0.00000   0.00002   0.00002   3.14159
   D21       -3.14138  -0.00001   0.00000  -0.00007  -0.00007  -3.14145
   D22        0.00002   0.00000   0.00000   0.00002   0.00002   0.00004
   D23       -0.00002   0.00000   0.00000   0.00002   0.00002  -0.00000
   D24        3.14121   0.00001   0.00000   0.00015   0.00014   3.14135
   D25       -3.14142  -0.00000   0.00000  -0.00007  -0.00007  -3.14149
   D26       -0.00019   0.00000   0.00000   0.00006   0.00006  -0.00013
   D27       -0.00007   0.00000   0.00000   0.00001   0.00001  -0.00006
   D28        3.14117   0.00001   0.00000   0.00016   0.00016   3.14134
   D29       -3.14131  -0.00001   0.00000  -0.00011  -0.00011  -3.14142
   D30       -0.00006   0.00000   0.00000   0.00004   0.00004  -0.00002
   D31        0.00011   0.00000   0.00000  -0.00003  -0.00003   0.00008
   D32       -2.09682  -0.00017   0.00000  -0.00113  -0.00109  -2.09791
   D33        2.09724   0.00016   0.00000   0.00099   0.00095   2.09819
   D34        3.14134   0.00001   0.00000   0.00009   0.00009   3.14143
   D35        1.04442  -0.00016   0.00000  -0.00101  -0.00097   1.04345
   D36       -1.04472   0.00017   0.00000   0.00111   0.00107  -1.04365
         Item               Value     Threshold  Converged?
 Maximum Force            0.034871     0.000450     NO 
 RMS     Force            0.005920     0.000300     NO 
 Maximum Displacement     0.297393     0.001800     NO 
 RMS     Displacement     0.036576     0.001200     NO 
 Predicted change in Energy=-1.082488D-02
 GradGradGradGradGradGradGradGradGradGradGradGradGradGradGradGradGradGrad

 Leave Link  103 at Sun Oct  3 11:45:18 2021, MaxMem=  805306368 cpu:       2.4
 (Enter /sw/target/amd/app/gaussian/Gaussian09RevA.02_gcc-4.9.2/g09/l202.exe)
                          Input orientation:                          
 ---------------------------------------------------------------------
 Center     Atomic      Atomic             Coordinates (Angstroms)
 Number     Number       Type             X           Y           Z
 ---------------------------------------------------------------------
      1         35           0        1.116078    0.046236    0.077710
      2         12           0        3.581277    0.040443    0.077945
      3          6           0        5.708334    0.046478    0.078193
      4          6           0        6.435653   -1.153374    0.080800
      5          6           0        7.837166   -1.144140    0.082106
      6          6           0        8.626433   -2.431110    0.085155
      7          6           0        8.506018    0.088948    0.080581
      8          6           0        7.801700    1.299537    0.077926
      9          6           0        6.399184    1.265620    0.076788
     10          6           0        8.527815    2.623333    0.076605
     11          1           0        5.910614   -2.103933    0.082064
     12          1           0        7.965197   -3.311167    0.085896
     13          1           0        9.270832   -2.490248    0.977532
     14          1           0        9.272997   -2.493303   -0.805440
     15          1           0        9.592155    0.103543    0.081583
     16          1           0        5.847227    2.201437    0.074972
     17          1           0        9.620272    2.487585    0.077895
     18          1           0        8.258797    3.214942    0.966864
     19          1           0        8.260494    3.212310   -0.815948
 ---------------------------------------------------------------------
                    Distance matrix (angstroms):
                    1          2          3          4          5
     1  Br   0.000000
     2  Mg   2.465206   0.000000
     3  C    4.592256   2.127065   0.000000
     4  C    5.453160   3.093973   1.403085   0.000000
     5  C    6.825690   4.417674   2.439162   1.401544   0.000000
     6  C    7.908397   5.618027   3.828028   2.536168   1.509717
     7  C    7.390064   4.924980   2.798007   2.414493   1.402809
     8  C    6.802081   4.404235   2.439741   2.807644   2.443938
     9  C    5.422002   3.072728   1.401279   2.419273   2.806202
    10  C    7.846991   5.580283   3.819641   4.317485   3.830259
    11  H    5.254600   3.166098   2.159908   1.085923   2.152395
    12  H    7.627756   5.518343   4.045649   2.644920   2.170809
    13  H    8.587400   6.291636   4.464883   3.260306   2.160831
    14  H    8.588628   6.292528   4.465212   3.260575   2.160923
    15  H    8.476271   6.011210   3.884241   3.397550   2.153300
    16  H    5.198911   3.131203   2.159433   3.406030   3.892659
    17  H    8.847683   6.515977   4.611102   4.837188   4.045852
    18  H    7.864460   5.722483   4.163383   4.815719   4.467904
    19  H    7.865451   5.723185   4.163592   4.815953   4.468151
                    6          7          8          9         10
     6  C    0.000000
     7  C    2.522938   0.000000
     8  C    3.820728   1.400570   0.000000
     9  C    4.315846   2.413156   1.402927   0.000000
    10  C    5.055413   2.534482   1.509861   2.524768   0.000000
    11  H    2.735458   3.397771   3.893563   3.404794   5.403408
    12  H    1.100788   3.442862   4.613608   4.837299   5.961117
    13  H    1.102308   2.835791   4.162944   4.812925   5.245232
    14  H    1.102303   2.835721   4.163014   4.813173   5.245309
    15  H    2.712398   1.086235   2.153170   3.397868   2.735358
    16  H    5.402276   3.395852   2.152533   1.086468   2.713585
    17  H    5.018101   2.644812   2.172248   3.445084   1.100860
    18  H    5.726296   3.258597   2.160538   2.837296   1.102239
    19  H    5.726613   3.258748   2.160603   2.837437   1.102273
                   11         12         13         14         15
    11  H    0.000000
    12  H    2.383011   0.000000
    13  H    3.498881   1.781462   0.000000
    14  H    3.499269   1.781494   1.782976   0.000000
    15  H    4.292632   3.782493   2.762920   2.762659   0.000000
    16  H    4.305843   5.905483   5.877720   5.878062   4.292515
    17  H    5.902848   6.030329   5.070530   5.070516   2.384210
    18  H    5.881094   6.591843   5.794266   6.062485   3.498909
    19  H    5.881395   6.592138   6.062716   5.794765   3.499045
                   16         17         18         19
    16  H    0.000000
    17  H    3.783881   0.000000
    18  H    2.763753   1.781271   0.000000
    19  H    2.763957   1.781342   1.782815   0.000000
 Stoichiometry    C8H9BrMg
 Framework group  C1[X(C8H9BrMg)]
 Deg. of freedom    51
 Full point group                 C1      NOp   1
 Largest Abelian subgroup         C1      NOp   1
 Largest concise Abelian subgroup C1      NOp   1
                         Standard orientation:                         
 ---------------------------------------------------------------------
 Center     Atomic      Atomic             Coordinates (Angstroms)
 Number     Number       Type             X           Y           Z
 ---------------------------------------------------------------------
      1         35           0       -3.836748   -0.003217    0.000277
      2         12           0       -1.371583   -0.017370   -0.000482
      3          6           0        0.755482   -0.018549   -0.001073
      4          6           0        1.478729   -1.220864   -0.000770
      5          6           0        2.880265   -1.216385   -0.000008
      6          6           0        3.665164   -2.506027    0.000567
      7          6           0        3.553295    0.014429    0.000269
      8          6           0        2.853086    1.227402   -0.000073
      9          6           0        1.450463    1.198244   -0.000709
     10          6           0        3.583686    2.548729    0.000537
     11          1           0        0.950469   -2.169637   -0.000892
     12          1           0        3.000947   -3.383836    0.000095
     13          1           0        4.309709   -2.568848    0.892586
     14          1           0        4.311162   -2.568917   -0.890390
     15          1           0        4.639475    0.025340    0.000861
     16          1           0        0.901683    2.135929   -0.000734
     17          1           0        4.675677    2.409275    0.001163
     18          1           0        3.317027    3.139750    0.891895
     19          1           0        3.318013    3.140107   -0.890920
 ---------------------------------------------------------------------
 Rotational constants (GHZ):      1.7585241      0.2492878      0.2189426
 Leave Link  202 at Sun Oct  3 11:45:18 2021, MaxMem=  805306368 cpu:       0.0
 (Enter /sw/target/amd/app/gaussian/Gaussian09RevA.02_gcc-4.9.2/g09/l301.exe)
 Standard basis: 6-31G(d) (6D, 7F)
 Ernie: Thresh=  0.10000D-02 Tol=  0.10000D-05 Strict=F.
 There are   187 symmetry adapted basis functions of A   symmetry.
 Integral buffers will be    131072 words long.
 Raffenetti 2 integral format.
 Two-electron integral symmetry is turned on.
   187 basis functions,   395 primitive gaussians,   187 cartesian basis functions
    52 alpha electrons       52 beta electrons
       nuclear repulsion energy       675.5595912109 Hartrees.
 IExCor=  402 DFT=T Ex+Corr=B3LYP ExCW=0 ScaHFX=  0.200000
 ScaDFX=  0.800000  0.720000  1.000000  0.810000 ScalE2=  1.000000  1.000000
 IRadAn=      0 IRanWt=     -1 IRanGd=            0 ICorTp=0
 NAtoms=   19 NActive=   19 NUniq=   19 SFac= 7.50D-01 NAtFMM=   80 NAOKFM=F Big=F
 Leave Link  301 at Sun Oct  3 11:45:19 2021, MaxMem=  805306368 cpu:       0.1
 (Enter /sw/target/amd/app/gaussian/Gaussian09RevA.02_gcc-4.9.2/g09/l302.exe)
 NPDir=0 NMtPBC=     1 NCelOv=     1 NCel=       1 NClECP=     1 NCelD=      1
         NCelK=      1 NCelE2=     1 NClLst=     1 CellRange=     0.0.
 One-electron integrals computed using PRISM.
 NBasis=   187 RedAO= T  NBF=   187
 NBsUse=   187 1.00D-06 NBFU=   187
 Precomputing XC quadrature grid using
 IXCGrd= 2 IRadAn=           0 IRanWt=          -1 IRanGd=           0 AccXCQ= 1.00D-10.
 NRdTot=    1214 NPtTot=      158046 NUsed=      166804 NTot=      166836
 NSgBfM=   183   183   183   183   183 NAtAll=    19    19.
 Leave Link  302 at Sun Oct  3 11:45:22 2021, MaxMem=  805306368 cpu:       1.2
 (Enter /sw/target/amd/app/gaussian/Gaussian09RevA.02_gcc-4.9.2/g09/l303.exe)
 DipDrv:  MaxL=1.
 Leave Link  303 at Sun Oct  3 11:45:23 2021, MaxMem=  805306368 cpu:       0.1
 (Enter /sw/target/amd/app/gaussian/Gaussian09RevA.02_gcc-4.9.2/g09/l401.exe)
 Initial guess read from the read-write file.
 B after Tr=     0.000000    0.000000    0.000000
         Rot=    1.000000    0.000000    0.000000    0.000000 Ang=   0.00 deg.
 Guess basis will be translated and rotated to current coordinates.
 Initial guess orbital symmetries:
       Occupied  (A) (A) (A) (A) (A) (A) (A) (A) (A) (A) (A) (A)
                 (A) (A) (A) (A) (A) (A) (A) (A) (A) (A) (A) (A)
                 (A) (A) (A) (A) (A) (A) (A) (A) (A) (A) (A) (A)
                 (A) (A) (A) (A) (A) (A) (A) (A) (A) (A) (A) (A)
                 (A) (A) (A) (A)
       Virtual   (A) (A) (A) (A) (A) (A) (A) (A) (A) (A) (A) (A)
                 (A) (A) (A) (A) (A) (A) (A) (A) (A) (A) (A) (A)
                 (A) (A) (A) (A) (A) (A) (A) (A) (A) (A) (A) (A)
                 (A) (A) (A) (A) (A) (A) (A) (A) (A) (A) (A) (A)
                 (A) (A) (A) (A) (A) (A) (A) (A) (A) (A) (A) (A)
                 (A) (A) (A) (A) (A) (A) (A) (A) (A) (A) (A) (A)
                 (A) (A) (A) (A) (A) (A) (A) (A) (A) (A) (A) (A)
                 (A) (A) (A) (A) (A) (A) (A) (A) (A) (A) (A) (A)
                 (A) (A) (A) (A) (A) (A) (A) (A) (A) (A) (A) (A)
                 (A) (A) (A) (A) (A) (A) (A) (A) (A) (A) (A) (A)
                 (A) (A) (A) (A) (A) (A) (A) (A) (A) (A) (A) (A)
                 (A) (A) (A)
 The electronic state of the initial guess is 1-A.
 Generating alternative initial guess.
 Harris functional with IExCor=  402 diagonalized for initial guess.
 ExpMin= 4.21D-02 ExpMax= 5.74D+05 ExpMxC= 5.74D+03 IAcc=2 IRadAn=         0 AccDes= 0.00D+00
 HarFok:  IExCor=  402 AccDes= 0.00D+00 IRadAn=         0 IDoV= 1
 ScaDFX=  1.000000  1.000000  1.000000  1.000000
 FoFCou: FMM=F IPFlag=           0 FMFlag=      100000 FMFlg1=           0
         NFxFlg=           0 DoJE=T BraDBF=F KetDBF=T FulRan=T
         Omega=  0.000000  0.000000  1.000000  0.000000  0.000000 ICntrl=     500 IOpCl=  0
         NMat0=    1 NMatS0=    1 NMatT0=    0 NMatD0=    1 NMtDS0=    0 NMtDT0=    0
         I1Cent=           4 NGrid=           0.
 Petite list used in FoFCou.
 Harris En= -3082.39956902751    
 Leave Link  401 at Sun Oct  3 11:45:52 2021, MaxMem=  805306368 cpu:      11.9
 (Enter /sw/target/amd/app/gaussian/Gaussian09RevA.02_gcc-4.9.2/g09/l502.exe)
 Closed shell SCF:
 Requested convergence on RMS density matrix=1.00D-08 within  64 cycles.
 Requested convergence on MAX density matrix=1.00D-06.
 Requested convergence on             energy=1.00D-06.
 No special actions if energy rises.
 Using DIIS extrapolation, IDIIS=  1040.
 Integral symmetry usage will be decided dynamically.
       166620 words used for storage of precomputed grid.
 Keep R1 ints in memory in canonical form, NReq=158103688.
 IEnd=      279601 IEndB=      279601 NGot=   805306368 MDV=   650564289
 LenX=   650564289 LenY=   650528879
 Symmetry not used in FoFDir.
 MinBra= 0 MaxBra= 2 Meth= 1.
 IRaf=       0 NMat=   1 IRICut=       1 DoRegI=T DoRafI=F ISym2E= 0 JSym2E=0.

 Cycle   1  Pass 1  IDiag  1:
 E= -3082.14661573175    
 DIIS: error= 1.23D-02 at cycle   1 NSaved=   1.
 NSaved= 1 IEnMin= 1 EnMin= -3082.14661573175     IErMin= 1 ErrMin= 1.23D-02
 ErrMax= 1.23D-02 EMaxC= 1.00D-01 BMatC= 1.24D-02 BMatP= 1.24D-02
 IDIUse=3 WtCom= 8.77D-01 WtEn= 1.23D-01
 Coeff-Com:  0.100D+01
 Coeff-En:   0.100D+01
 Coeff:      0.100D+01
 Recover alternate guess density for next cycle.
 RMSDP=4.22D-03 MaxDP=1.61D-01              OVMax= 0.00D+00

 Cycle   2  Pass 1  IDiag  1:
 E= -3081.79596677252     Delta-E=        0.350648959231 Rises=F Damp=F
 Switch densities from cycles 1 and 2 for lowest energy.
 DIIS: error= 1.27D-01 at cycle   2 NSaved=   2.
 NSaved= 2 IEnMin= 1 EnMin= -3082.14661573175     IErMin= 1 ErrMin= 1.23D-02
 ErrMax= 1.27D-01 EMaxC= 1.00D+00 BMatC= 7.02D-01 BMatP= 1.24D-02
 IDIUse=1 WtCom= 1.00D+00 WtEn= 0.00D+00
 Coeff-Com:  0.979D+00 0.205D-01
 Coeff:      0.979D+00 0.205D-01
 Gap=     0.277 Goal=   None    Shift=    0.000
 RMSDP=5.90D-04 MaxDP=2.71D-02 DE= 3.51D-01 OVMax= 1.96D-01

 Cycle   3  Pass 1  IDiag  1:
 E= -3082.14766414639     Delta-E=       -0.351697373865 Rises=F Damp=F
 DIIS: error= 9.69D-04 at cycle   3 NSaved=   3.
 NSaved= 3 IEnMin= 3 EnMin= -3082.14766414639     IErMin= 3 ErrMin= 9.69D-04
 ErrMax= 9.69D-04 EMaxC= 1.00D+00 BMatC= 2.14D-04 BMatP= 1.24D-02
 IDIUse=1 WtCom= 1.00D+00 WtEn= 0.00D+00
 Coeff-Com:  0.186D-01 0.892D-02 0.972D+00
 Coeff:      0.186D-01 0.892D-02 0.972D+00
 Gap=     0.184 Goal=   None    Shift=    0.000
 RMSDP=1.98D-04 MaxDP=7.86D-03 DE=-3.52D-01 OVMax= 1.15D-02

 Cycle   4  Pass 1  IDiag  1:
 E= -3082.14769409275     Delta-E=       -0.000029946363 Rises=F Damp=F
 DIIS: error= 1.12D-03 at cycle   4 NSaved=   4.
 NSaved= 4 IEnMin= 4 EnMin= -3082.14769409275     IErMin= 3 ErrMin= 9.69D-04
 ErrMax= 1.12D-03 EMaxC= 1.00D+00 BMatC= 1.87D-04 BMatP= 2.14D-04
 IDIUse=1 WtCom= 1.00D+00 WtEn= 0.00D+00
 Coeff-Com:  0.482D-03 0.129D-02 0.499D+00 0.499D+00
 Coeff:      0.482D-03 0.129D-02 0.499D+00 0.499D+00
 Gap=     0.181 Goal=   None    Shift=    0.000
 RMSDP=1.03D-04 MaxDP=3.41D-03 DE=-2.99D-05 OVMax= 6.39D-03

 Cycle   5  Pass 1  IDiag  1:
 E= -3082.14789312122     Delta-E=       -0.000199028468 Rises=F Damp=F
 DIIS: error= 4.32D-04 at cycle   5 NSaved=   5.
 NSaved= 5 IEnMin= 5 EnMin= -3082.14789312122     IErMin= 5 ErrMin= 4.32D-04
 ErrMax= 4.32D-04 EMaxC= 1.00D+00 BMatC= 1.77D-05 BMatP= 1.87D-04
 IDIUse=1 WtCom= 1.00D+00 WtEn= 0.00D+00
 Coeff-Com: -0.479D-03 0.199D-03 0.261D+00 0.314D+00 0.425D+00
 Coeff:     -0.479D-03 0.199D-03 0.261D+00 0.314D+00 0.425D+00
 Gap=     0.181 Goal=   None    Shift=    0.000
 RMSDP=2.95D-05 MaxDP=6.23D-04 DE=-1.99D-04 OVMax= 2.04D-03

 Cycle   6  Pass 1  IDiag  1:
 E= -3082.14791284450     Delta-E=       -0.000019723284 Rises=F Damp=F
 DIIS: error= 5.97D-05 at cycle   6 NSaved=   6.
 NSaved= 6 IEnMin= 6 EnMin= -3082.14791284450     IErMin= 6 ErrMin= 5.97D-05
 ErrMax= 5.97D-05 EMaxC= 1.00D+00 BMatC= 7.38D-07 BMatP= 1.77D-05
 IDIUse=1 WtCom= 1.00D+00 WtEn= 0.00D+00
 Coeff-Com: -0.266D-03-0.163D-04 0.111D+00 0.143D+00 0.242D+00 0.505D+00
 Coeff:     -0.266D-03-0.163D-04 0.111D+00 0.143D+00 0.242D+00 0.505D+00
 Gap=     0.181 Goal=   None    Shift=    0.000
 RMSDP=5.65D-06 MaxDP=1.74D-04 DE=-1.97D-05 OVMax= 4.43D-04

 Cycle   7  Pass 1  IDiag  1:
 E= -3082.14791361680     Delta-E=       -0.000000772295 Rises=F Damp=F
 DIIS: error= 1.51D-05 at cycle   7 NSaved=   7.
 NSaved= 7 IEnMin= 7 EnMin= -3082.14791361680     IErMin= 7 ErrMin= 1.51D-05
 ErrMax= 1.51D-05 EMaxC= 1.00D+00 BMatC= 3.68D-08 BMatP= 7.38D-07
 IDIUse=1 WtCom= 1.00D+00 WtEn= 0.00D+00
 Coeff-Com: -0.410D-04-0.194D-05 0.294D-02 0.942D-02 0.374D-01 0.201D+00
 Coeff-Com:  0.749D+00
 Coeff:     -0.410D-04-0.194D-05 0.294D-02 0.942D-02 0.374D-01 0.201D+00
 Coeff:      0.749D+00
 Gap=     0.181 Goal=   None    Shift=    0.000
 RMSDP=1.33D-06 MaxDP=4.53D-05 DE=-7.72D-07 OVMax= 9.90D-05

 Cycle   8  Pass 1  IDiag  1:
 E= -3082.14791365714     Delta-E=       -0.000000040339 Rises=F Damp=F
 DIIS: error= 3.30D-06 at cycle   8 NSaved=   8.
 NSaved= 8 IEnMin= 8 EnMin= -3082.14791365714     IErMin= 8 ErrMin= 3.30D-06
 ErrMax= 3.30D-06 EMaxC= 1.00D+00 BMatC= 2.75D-09 BMatP= 3.68D-08
 IDIUse=1 WtCom= 1.00D+00 WtEn= 0.00D+00
 Coeff-Com: -0.749D-05-0.540D-05-0.417D-02-0.259D-02 0.538D-02 0.665D-01
 Coeff-Com:  0.352D+00 0.583D+00
 Coeff:     -0.749D-05-0.540D-05-0.417D-02-0.259D-02 0.538D-02 0.665D-01
 Coeff:      0.352D+00 0.583D+00
 Gap=     0.181 Goal=   None    Shift=    0.000
 RMSDP=3.30D-07 MaxDP=9.97D-06 DE=-4.03D-08 OVMax= 1.95D-05

 Cycle   9  Pass 1  IDiag  1:
 E= -3082.14791365956     Delta-E=       -0.000000002426 Rises=F Damp=F
 DIIS: error= 1.19D-06 at cycle   9 NSaved=   9.
 NSaved= 9 IEnMin= 9 EnMin= -3082.14791365956     IErMin= 9 ErrMin= 1.19D-06
 ErrMax= 1.19D-06 EMaxC= 1.00D+00 BMatC= 3.10D-10 BMatP= 2.75D-09
 IDIUse=1 WtCom= 1.00D+00 WtEn= 0.00D+00
 Coeff-Com:  0.264D-05-0.210D-05-0.254D-02-0.258D-02-0.214D-02 0.850D-02
 Coeff-Com:  0.939D-01 0.285D+00 0.620D+00
 Coeff:      0.264D-05-0.210D-05-0.254D-02-0.258D-02-0.214D-02 0.850D-02
 Coeff:      0.939D-01 0.285D+00 0.620D+00
 Gap=     0.181 Goal=   None    Shift=    0.000
 RMSDP=1.21D-07 MaxDP=3.79D-06 DE=-2.43D-09 OVMax= 8.11D-06

 Cycle  10  Pass 1  IDiag  1:
 E= -3082.14791365986     Delta-E=       -0.000000000297 Rises=F Damp=F
 DIIS: error= 3.85D-07 at cycle  10 NSaved=  10.
 NSaved=10 IEnMin=10 EnMin= -3082.14791365986     IErMin=10 ErrMin= 3.85D-07
 ErrMax= 3.85D-07 EMaxC= 1.00D+00 BMatC= 2.32D-11 BMatP= 3.10D-10
 IDIUse=1 WtCom= 1.00D+00 WtEn= 0.00D+00
 Coeff-Com:  0.153D-05-0.819D-06-0.111D-02-0.121D-02-0.128D-02 0.147D-02
 Coeff-Com:  0.339D-01 0.106D+00 0.315D+00 0.547D+00
 Coeff:      0.153D-05-0.819D-06-0.111D-02-0.121D-02-0.128D-02 0.147D-02
 Coeff:      0.339D-01 0.106D+00 0.315D+00 0.547D+00
 Gap=     0.181 Goal=   None    Shift=    0.000
 RMSDP=4.05D-08 MaxDP=9.91D-07 DE=-2.97D-10 OVMax= 3.19D-06

 Cycle  11  Pass 1  IDiag  1:
 E= -3082.14791365987     Delta-E=       -0.000000000014 Rises=F Damp=F
 DIIS: error= 2.11D-07 at cycle  11 NSaved=  11.
 NSaved=11 IEnMin=11 EnMin= -3082.14791365987     IErMin=11 ErrMin= 2.11D-07
 ErrMax= 2.11D-07 EMaxC= 1.00D+00 BMatC= 6.13D-12 BMatP= 2.32D-11
 IDIUse=1 WtCom= 1.00D+00 WtEn= 0.00D+00
 Coeff-Com:  0.363D-06-0.127D-07-0.178D-03-0.243D-03-0.409D-03-0.116D-02
 Coeff-Com:  0.163D-02 0.327D-02 0.818D-01 0.369D+00 0.546D+00
 Coeff:      0.363D-06-0.127D-07-0.178D-03-0.243D-03-0.409D-03-0.116D-02
 Coeff:      0.163D-02 0.327D-02 0.818D-01 0.369D+00 0.546D+00
 Gap=     0.181 Goal=   None    Shift=    0.000
 RMSDP=1.67D-08 MaxDP=4.93D-07 DE=-1.36D-11 OVMax= 1.42D-06

 Cycle  12  Pass 1  IDiag  1:
 E= -3082.14791365993     Delta-E=       -0.000000000060 Rises=F Damp=F
 DIIS: error= 2.61D-08 at cycle  12 NSaved=  12.
 NSaved=12 IEnMin=12 EnMin= -3082.14791365993     IErMin=12 ErrMin= 2.61D-08
 ErrMax= 2.61D-08 EMaxC= 1.00D+00 BMatC= 1.70D-13 BMatP= 6.13D-12
 IDIUse=1 WtCom= 1.00D+00 WtEn= 0.00D+00
 Coeff-Com: -0.290D-08 0.678D-07 0.170D-04 0.740D-05-0.437D-04-0.497D-03
 Coeff-Com: -0.150D-02-0.702D-02 0.948D-02 0.969D-01 0.209D+00 0.693D+00
 Coeff:     -0.290D-08 0.678D-07 0.170D-04 0.740D-05-0.437D-04-0.497D-03
 Coeff:     -0.150D-02-0.702D-02 0.948D-02 0.969D-01 0.209D+00 0.693D+00
 Gap=     0.181 Goal=   None    Shift=    0.000
 RMSDP=3.99D-09 MaxDP=1.73D-07 DE=-6.00D-11 OVMax= 2.38D-07

 SCF Done:  E(RB3LYP) =  -3082.14791366     A.U. after   12 cycles
             Convg  =    0.3986D-08             -V/T =  2.0065
[...]
             13         14         15         16         17         18
     1  Br   0.000000   0.000000  -0.000000  -0.000162   0.000000  -0.000000
     2  Mg  -0.000022  -0.000022   0.000345   0.013403  -0.000044   0.000200
     3  C   -0.000173  -0.000173  -0.000171  -0.047598  -0.000132  -0.000034
     4  C    0.001297   0.001298   0.004933   0.007621  -0.000012   0.000023
     5  C   -0.021013  -0.021017  -0.050490   0.000349   0.000180  -0.000191
     6  C    0.360359   0.360363  -0.006725   0.000024  -0.000013   0.000003
     7  C   -0.002317  -0.002316   0.364170   0.003683  -0.002002   0.000296
     8  C   -0.000122  -0.000121  -0.039379  -0.073805  -0.029041  -0.023916
     9  C    0.000003   0.000003   0.005653   0.353825   0.003559  -0.001213
    10  C   -0.000001  -0.000001  -0.009141  -0.001412   0.366498   0.362972
    11  H    0.000011   0.000010  -0.000158   0.000025  -0.000001   0.000000
    12  H   -0.024803  -0.024805   0.000032  -0.000000   0.000000  -0.000000
    13  H    0.506189  -0.022655   0.001745  -0.000000   0.000000   0.000000
    14  H   -0.022655   0.506199   0.001747  -0.000000   0.000000  -0.000000
    15  H    0.001745   0.001747   0.572457  -0.000161   0.006147   0.000111
    16  H   -0.000000  -0.000000  -0.000161   0.563564  -0.000066   0.001965
    17  H    0.000000   0.000000   0.006147  -0.000066   0.527478  -0.025426
    18  H    0.000000  -0.000000   0.000111   0.001965  -0.025426   0.511412
    19  H   -0.000000   0.000000   0.000111   0.001965  -0.025425  -0.025253
             19
     1  Br  -0.000000
     2  Mg   0.000200
     3  C   -0.000034
     4  C    0.000023
     5  C   -0.000191
     6  C    0.000003
     7  C    0.000296
     8  C   -0.023915
     9  C   -0.001213
    10  C    0.362971
    11  H    0.000000
    12  H   -0.000000
    13  H   -0.000000
    14  H    0.000000
    15  H    0.000111
    16  H    0.001965
    17  H   -0.025425
    18  H   -0.025253
    19  H    0.511410
 Mulliken atomic charges:
              1
     1  Br  -0.275121
     2  Mg  -0.138474
     3  C    0.009772
     4  C   -0.201302
     5  C    0.226048
     6  C   -0.546417
     7  C   -0.233897
     8  C    0.217482
     9  C   -0.184561
    10  C   -0.540901
    11  H    0.170785
    12  H    0.191642
    13  H    0.201503
    14  H    0.201490
    15  H    0.148772
    16  H    0.176778
    17  H    0.178298
    18  H    0.199050
    19  H    0.199052
 Sum of Mulliken atomic charges =  -0.00000
 Mulliken charges with hydrogens summed into heavy atoms:
              1
     1  Br  -0.275121
     2  Mg  -0.138474
     3  C    0.009772
     4  C   -0.030517
     5  C    0.226048
     6  C    0.048218
     7  C   -0.085125
     8  C    0.217482
     9  C   -0.007783
    10  C    0.035499
 Sum of Mulliken charges with hydrogens summed into heavy atoms =  -0.00000
 Electronic spatial extent (au):  <R**2>=           4256.3323
 Charge=             -0.0000 electrons
 Dipole moment (field-independent basis, Debye):
    X=             15.4565    Y=             -0.0855    Z=              0.0003  Tot=             15.4567
 Quadrupole moment (field-independent basis, Debye-Ang):
   XX=            -82.9359   YY=            -65.5913   ZZ=            -81.1111
   XY=             -0.7858   XZ=             -0.0004   YZ=             -0.0002
 Traceless Quadrupole moment (field-independent basis, Debye-Ang):
   XX=             -6.3898   YY=             10.9548   ZZ=             -4.5650
   XY=             -0.7858   XZ=             -0.0004   YZ=             -0.0002
 Octapole moment (field-independent basis, Debye-Ang**2):
  XXX=            106.6270  YYY=              0.2995  ZZZ=              0.0010  XYY=             14.9997
  XXY=             -5.7564  XXZ=              0.0001  XZZ=            -25.6860  YZZ=              0.4896
  YYZ=              0.0006  XYZ=             -0.0008
 Hexadecapole moment (field-independent basis, Debye-Ang**3):
 XXXX=          -4034.8768 YYYY=           -844.2480 ZZZZ=           -136.6560 XXXY=            -29.0159
 XXXZ=             -0.0042 YYYX=              0.9441 YYYZ=             -0.0006 ZZZX=              0.0020
 ZZZY=             -0.0016 XXYY=           -718.2481 XXZZ=           -711.0672 YYZZ=           -172.2801
 XXYZ=             -0.0032 YYXZ=              0.0020 ZZXY=             -1.5044
 N-N= 6.856334321610D+02 E-N=-8.702675541027D+03  KE= 3.062607401680D+03
 No NMR shielding tensors so no spin-rotation constants.
 Leave Link  601 at Sun Oct  3 16:36:30 2021, MaxMem=  805306368 cpu:       0.9
 (Enter /sw/target/amd/app/gaussian/Gaussian09RevA.02_gcc-4.9.2/g09/l604.exe)
 Evaluate density.
 Using the total density.
 Monte-Carlo method of calculating molar volume:
 based on  0.001 e/bohr**3 density envelope.
 Number of points per bohr**3 =   20 CutOff= 1.00D-04
 Using the CI density.
 There are       517 points.  Will hold       517 in memory.
 LenV=   805172465 MDV=   805306368.
 Box volume =17341.142 fraction occupied=0.110
 Integrated density= 5.3918728618149252D+01 error=-5.0081271381850748D+01
 Molar volume = 1911.886 bohr**3/mol (170.615 cm**3/mol)
 Recommended a0 for SCRF calculation =  4.98 angstrom (  9.42 bohr)
 Leave Link  604 at Sun Oct  3 16:36:32 2021, MaxMem=  805306368 cpu:       0.3
 (Enter /sw/target/amd/app/gaussian/Gaussian09RevA.02_gcc-4.9.2/g09/l607.exe)
 ******************************Gaussian NBO Version 3.1******************************
             N A T U R A L   A T O M I C   O R B I T A L   A N D
          N A T U R A L   B O N D   O R B I T A L   A N A L Y S I S
 ******************************Gaussian NBO Version 3.1******************************
       /RESON  / : Allow strongly delocalized NBO set

 Analyzing the CI density

 Job title: Br[Mg]c1cc(C)cc(c1)C_conf_0                                     

 Storage needed:    106196 in NPA ( 805304373 available)


 NATURAL POPULATIONS:  Natural atomic orbital occupancies 
                                                          
   NAO  Atom  No  lang   Type(AO)    Occupancy
 --------------------------------------------
     1   Br    1  S      Cor( 1S)     2.00000
     2   Br    1  S      Cor( 2S)     1.99996
     3   Br    1  S      Cor( 3S)     1.99989
     4   Br    1  S      Val( 4S)     1.94124
     5   Br    1  S      Ryd( 5S)     0.00266
     6   Br    1  S      Ryd( 6S)     0.00002
     7   Br    1  S      Ryd( 8S)     0.00000
     8   Br    1  S      Ryd( 7S)     0.00000
     9   Br    1  px     Cor( 2p)     1.99997
    10   Br    1  px     Cor( 3p)     1.99997
    11   Br    1  px     Val( 4p)     1.85513
    12   Br    1  px     Ryd( 5p)     0.00057
    13   Br    1  py     Cor( 3p)     2.00000
    14   Br    1  py     Cor( 2p)     2.00000
    15   Br    1  py     Val( 4p)     1.92853
    16   Br    1  py     Ryd( 5p)     0.00000
    17   Br    1  pz     Cor( 3p)     2.00000
    18   Br    1  pz     Cor( 2p)     2.00000
    19   Br    1  pz     Val( 4p)     1.93138
    20   Br    1  pz     Ryd( 5p)     0.00000
    21   Br    1  dxy    Cor( 3d)     1.99999
    22   Br    1  dxy    Ryd( 4d)     0.00102
    23   Br    1  dxz    Cor( 3d)     1.99999
    24   Br    1  dxz    Ryd( 4d)     0.00104
    25   Br    1  dyz    Cor( 3d)     2.00000
    26   Br    1  dyz    Ryd( 4d)     0.00000
    27   Br    1  dx2y2  Cor( 3d)     1.99998
    28   Br    1  dx2y2  Ryd( 4d)     0.00370
    29   Br    1  dz2    Cor( 3d)     1.99999
    30   Br    1  dz2    Ryd( 4d)     0.00124

    31   Mg    2  S      Cor( 1S)     2.00000
    32   Mg    2  S      Cor( 2S)     1.99933
    33   Mg    2  S      Val( 3S)     1.13365
    34   Mg    2  S      Ryd( 4S)     0.01992
    35   Mg    2  S      Ryd( 5S)     0.00032
    36   Mg    2  px     Cor( 2p)     1.99936
    37   Mg    2  px     Val( 3p)     0.11148
    38   Mg    2  px     Ryd( 4p)     0.00246
    39   Mg    2  py     Cor( 2p)     1.99975
    40   Mg    2  py     Val( 3p)     0.06961
    41   Mg    2  py     Ryd( 4p)     0.00009
    42   Mg    2  pz     Cor( 2p)     1.99975
    43   Mg    2  pz     Val( 3p)     0.06021
    44   Mg    2  pz     Ryd( 4p)     0.00014
    45   Mg    2  dxy    Ryd( 3d)     0.00171
    46   Mg    2  dxz    Ryd( 3d)     0.00154
    47   Mg    2  dyz    Ryd( 3d)     0.00000
    48   Mg    2  dx2y2  Ryd( 3d)     0.00246
    49   Mg    2  dz2    Ryd( 3d)     0.00057

    50    C    3  S      Cor( 1S)     1.99931
    51    C    3  S      Val( 2S)     1.17316
    52    C    3  S      Ryd( 3S)     0.00700
    53    C    3  S      Ryd( 4S)     0.00002
    54    C    3  px     Val( 2p)     1.55180
    55    C    3  px     Ryd( 3p)     0.01561
    56    C    3  py     Val( 2p)     0.98546
    57    C    3  py     Ryd( 3p)     0.00893
    58    C    3  pz     Val( 2p)     0.81825
    59    C    3  pz     Ryd( 3p)     0.00090
    60    C    3  dxy    Ryd( 3d)     0.00104
    61    C    3  dxz    Ryd( 3d)     0.00069
    62    C    3  dyz    Ryd( 3d)     0.00013
    63    C    3  dx2y2  Ryd( 3d)     0.00018
    64    C    3  dz2    Ryd( 3d)     0.00040

    65    C    4  S      Cor( 1S)     1.99905
    66    C    4  S      Val( 2S)     0.98311
    67    C    4  S      Ryd( 3S)     0.00096
    68    C    4  S      Ryd( 4S)     0.00004
    69    C    4  px     Val( 2p)     1.07417
    70    C    4  px     Ryd( 3p)     0.00291
    71    C    4  py     Val( 2p)     1.20816
    72    C    4  py     Ryd( 3p)     0.00624
    73    C    4  pz     Val( 2p)     0.83653
    74    C    4  pz     Ryd( 3p)     0.00022
    75    C    4  dxy    Ryd( 3d)     0.00090
    76    C    4  dxz    Ryd( 3d)     0.00041
    77    C    4  dyz    Ryd( 3d)     0.00034
    78    C    4  dx2y2  Ryd( 3d)     0.00118
    79    C    4  dz2    Ryd( 3d)     0.00041

    80    C    5  S      Cor( 1S)     1.99903
    81    C    5  S      Val( 2S)     0.91731
    82    C    5  S      Ryd( 3S)     0.00054
    83    C    5  S      Ryd( 4S)     0.00006
    84    C    5  px     Val( 2p)     1.08949
    85    C    5  px     Ryd( 3p)     0.00435
    86    C    5  py     Val( 2p)     1.06869
    87    C    5  py     Ryd( 3p)     0.00445
    88    C    5  pz     Val( 2p)     0.77909
    89    C    5  pz     Ryd( 3p)     0.00110
    90    C    5  dxy    Ryd( 3d)     0.00083
    91    C    5  dxz    Ryd( 3d)     0.00070
    92    C    5  dyz    Ryd( 3d)     0.00064
    93    C    5  dx2y2  Ryd( 3d)     0.00089
    94    C    5  dz2    Ryd( 3d)     0.00031

    95    C    6  S      Cor( 1S)     1.99938
    96    C    6  S      Val( 2S)     1.10884
    97    C    6  S      Ryd( 3S)     0.00027
    98    C    6  S      Ryd( 4S)     0.00001
    99    C    6  px     Val( 2p)     1.22489
   100    C    6  px     Ryd( 3p)     0.00260
   101    C    6  py     Val( 2p)     1.12576
   102    C    6  py     Ryd( 3p)     0.00161
   103    C    6  pz     Val( 2p)     1.25153
   104    C    6  pz     Ryd( 3p)     0.00034
   105    C    6  dxy    Ryd( 3d)     0.00089
   106    C    6  dxz    Ryd( 3d)     0.00101
   107    C    6  dyz    Ryd( 3d)     0.00014
   108    C    6  dx2y2  Ryd( 3d)     0.00041
   109    C    6  dz2    Ryd( 3d)     0.00066

   110    C    7  S      Cor( 1S)     1.99898
   111    C    7  S      Val( 2S)     0.95451
   112    C    7  S      Ryd( 3S)     0.00080
   113    C    7  S      Ryd( 4S)     0.00006
   114    C    7  px     Val( 2p)     1.20659
   115    C    7  px     Ryd( 3p)     0.00540
   116    C    7  py     Val( 2p)     1.05930
   117    C    7  py     Ryd( 3p)     0.00313
   118    C    7  pz     Val( 2p)     1.05268
   119    C    7  pz     Ryd( 3p)     0.00065
   120    C    7  dxy    Ryd( 3d)     0.00066
   121    C    7  dxz    Ryd( 3d)     0.00038
   122    C    7  dyz    Ryd( 3d)     0.00026
   123    C    7  dx2y2  Ryd( 3d)     0.00088
   124    C    7  dz2    Ryd( 3d)     0.00041

   125    C    8  S      Cor( 1S)     1.99904
   126    C    8  S      Val( 2S)     0.91382
   127    C    8  S      Ryd( 3S)     0.00056
   128    C    8  S      Ryd( 4S)     0.00005
   129    C    8  px     Val( 2p)     1.08760
   130    C    8  px     Ryd( 3p)     0.00452
   131    C    8  py     Val( 2p)     1.07315
   132    C    8  py     Ryd( 3p)     0.00457
   133    C    8  pz     Val( 2p)     0.82837
   134    C    8  pz     Ryd( 3p)     0.00112
   135    C    8  dxy    Ryd( 3d)     0.00079
   136    C    8  dxz    Ryd( 3d)     0.00055
   137    C    8  dyz    Ryd( 3d)     0.00075
   138    C    8  dx2y2  Ryd( 3d)     0.00090
   139    C    8  dz2    Ryd( 3d)     0.00031

   140    C    9  S      Cor( 1S)     1.99905
   141    C    9  S      Val( 2S)     0.98661
   142    C    9  S      Ryd( 3S)     0.00098
   143    C    9  S      Ryd( 4S)     0.00004
   144    C    9  px     Val( 2p)     1.07445
   145    C    9  px     Ryd( 3p)     0.00270
   146    C    9  py     Val( 2p)     1.20488
   147    C    9  py     Ryd( 3p)     0.00605
   148    C    9  pz     Val( 2p)     0.78558
   149    C    9  pz     Ryd( 3p)     0.00025
   150    C    9  dxy    Ryd( 3d)     0.00094
   151    C    9  dxz    Ryd( 3d)     0.00045
   152    C    9  dyz    Ryd( 3d)     0.00036
   153    C    9  dx2y2  Ryd( 3d)     0.00118
   154    C    9  dz2    Ryd( 3d)     0.00041

   155    C   10  S      Cor( 1S)     1.99939
   156    C   10  S      Val( 2S)     1.10645
   157    C   10  S      Ryd( 3S)     0.00027
   158    C   10  S      Ryd( 4S)     0.00001
   159    C   10  px     Val( 2p)     1.21965
   160    C   10  px     Ryd( 3p)     0.00276
   161    C   10  py     Val( 2p)     1.12564
   162    C   10  py     Ryd( 3p)     0.00142
   163    C   10  pz     Val( 2p)     1.25160
   164    C   10  pz     Ryd( 3p)     0.00031
   165    C   10  dxy    Ryd( 3d)     0.00051
   166    C   10  dxz    Ryd( 3d)     0.00029
   167    C   10  dyz    Ryd( 3d)     0.00091
   168    C   10  dx2y2  Ryd( 3d)     0.00077
   169    C   10  dz2    Ryd( 3d)     0.00066

   170    H   11  S      Val( 1S)     0.76101
   171    H   11  S      Ryd( 2S)     0.00266

   172    H   12  S      Val( 1S)     0.74247
   173    H   12  S      Ryd( 2S)     0.00070

   174    H   13  S      Val( 1S)     0.72717
   175    H   13  S      Ryd( 2S)     0.00054

   176    H   14  S      Val( 1S)     0.72718
   177    H   14  S      Ryd( 2S)     0.00054

   178    H   15  S      Val( 1S)     0.75312
   179    H   15  S      Ryd( 2S)     0.00098

   180    H   16  S      Val( 1S)     0.76241
   181    H   16  S      Ryd( 2S)     0.00276

   182    H   17  S      Val( 1S)     0.74915
   183    H   17  S      Ryd( 2S)     0.00070

   184    H   18  S      Val( 1S)     0.73007
   185    H   18  S      Ryd( 2S)     0.00067

   186    H   19  S      Val( 1S)     0.73006
   187    H   19  S      Ryd( 2S)     0.00067

 WARNING:  1 low occupancy (<1.9990e) core orbital  found on  C    7


 Summary of Natural Population Analysis:                  
                                                          
                                       Natural Population 
                Natural  -----------------------------------------------
    Atom  No    Charge         Core      Valence    Rydberg      Total
 -----------------------------------------------------------------------
     Br    1   -0.66628     27.99974     7.65628    0.01026    35.66628
     Mg    2    0.59763      9.99820     1.37496    0.02921    11.40237
      C    3   -0.56288      1.99931     4.52867    0.03489     6.56288
      C    4   -0.11462      1.99905     4.10196    0.01360     6.11462
      C    5    0.13252      1.99903     3.85458    0.01387     5.86748
      C    6   -0.71833      1.99938     4.71102    0.00793     6.71833
      C    7   -0.28470      1.99898     4.27310    0.01263     6.28470
      C    8    0.08389      1.99904     3.90294    0.01412     5.91611
      C    9   -0.06393      1.99905     4.05152    0.01336     6.06393
      C   10   -0.71064      1.99939     4.70334    0.00791     6.71064
      H   11    0.23633      0.00000     0.76101    0.00266     0.76367
      H   12    0.25683      0.00000     0.74247    0.00070     0.74317
      H   13    0.27230      0.00000     0.72717    0.00054     0.72770
      H   14    0.27228      0.00000     0.72718    0.00054     0.72772
      H   15    0.24590      0.00000     0.75312    0.00098     0.75410
      H   16    0.23482      0.00000     0.76241    0.00276     0.76518
      H   17    0.25014      0.00000     0.74915    0.00070     0.74986
      H   18    0.26927      0.00000     0.73007    0.00067     0.73073
      H   19    0.26927      0.00000     0.73006    0.00067     0.73073
 =======================================================================
   * Total *   -0.00017     53.99117    49.84101    0.16799   104.00017

                                 Natural Population      
 --------------------------------------------------------
   Core                      53.99117 ( 99.9836% of  54)
   Valence                   49.84101 ( 99.6820% of  50)
   Natural Minimal Basis    103.83218 ( 99.8386% of 104)
   Natural Rydberg Basis      0.16799 (  0.1615% of 104)
 --------------------------------------------------------

    Atom  No          Natural Electron Configuration
 ----------------------------------------------------------------------------
     Br    1      [core]4S( 1.94)4p( 5.72)4d( 0.01)
     Mg    2      [core]3S( 1.13)3p( 0.24)4S( 0.02)3d( 0.01)
      C    3      [core]2S( 1.17)2p( 3.36)3S( 0.01)3p( 0.03)
      C    4      [core]2S( 0.98)2p( 3.12)3p( 0.01)
      C    5      [core]2S( 0.92)2p( 2.94)3p( 0.01)
      C    6      [core]2S( 1.11)2p( 3.60)
      C    7      [core]2S( 0.95)2p( 3.32)3p( 0.01)
      C    8      [core]2S( 0.91)2p( 2.99)3p( 0.01)
      C    9      [core]2S( 0.99)2p( 3.06)3p( 0.01)
      C   10      [core]2S( 1.11)2p( 3.60)
      H   11            1S( 0.76)
      H   12            1S( 0.74)
      H   13            1S( 0.73)
      H   14            1S( 0.73)
      H   15            1S( 0.75)
      H   16            1S( 0.76)
      H   17            1S( 0.75)
      H   18            1S( 0.73)
      H   19            1S( 0.73)


 NBO analysis skipped by request.
 Leave Link  607 at Sun Oct  3 16:37:02 2021, MaxMem=  805306368 cpu:      11.4
 (Enter /sw/target/amd/app/gaussian/Gaussian09RevA.02_gcc-4.9.2/g09/l9999.exe)
 1\1\GINC-HERMITE\SP\RTD-B3LYP-FC\6-31G(d)\C8H9Br1Mg1\JSCHLEINITZ\03-Oc
 t-2021\0\\#p TD(NStates=10, Root=1) b3lyp/6-31G* volume pop=NPA densit
 y=current Geom=AllCheck Guess=Read\\Br[Mg]c1cc(C)cc(c1)C_conf_0\\0,1\B
 r,0,1.2630870485,0.0055062757,0.0763241603\Mg,0,3.5979910773,0.0311612
 797,0.0777706962\C,0,5.6696544731,0.0558352587,0.079060147\C,0,6.42388
 61431,-1.1372117794,0.0815085258\C,0,7.8223125981,-1.1402570505,0.0823
 323912\C,0,8.6056953643,-2.4333711023,0.0849910293\C,0,8.4889907885,0.
 0932704255,0.0806429673\C,0,7.7927414463,1.3034250667,0.0782050014\C,0
 ,6.3889260944,1.2638544686,0.0774544491\C,0,8.5260669181,2.6259891175,
 0.0764101472\H,0,5.9197600465,-2.1045642716,0.0828463713\H,0,7.9407396
 384,-3.3031201351,0.0858338047\H,0,9.253626598,-2.5085805712,0.9674405
 954\H,0,9.2550356384,-2.5113556663,-0.7961788791\H,0,9.5782949649,0.10
 80388713,0.0812501801\H,0,5.8604494974,2.2186682001,0.0755498392\H,0,9
 .6113546438,2.4823672999,0.0773067536\H,0,8.2692847506,3.2282317372,0.
 9570352335\H,0,8.2703477491,3.2252494823,-0.8065557282\\Version=AM64L-
 G09RevA.02\State=1-A\HF=-3082.1520851\RMSD=5.585e-09\Dipole=6.0810267,
 0.036215,0.0038337\Quadrupole=-4.7355453,8.1294588,-3.3939135,-0.73217
 84,0.0000791,-0.0199903\PG=C01 [X(C8H9Br1Mg1)]\\@


 THEORY:  SUPPOSITION WHICH HAS SCIENTIFIC BASIS,
          BUT NOT EXPERIMENTALLY PROVEN.
 FACT:    A THEORY WHICH HAS BEEN PROVEN BY ENOUGH 
          MONEY TO PAY FOR THE EXPERIMENTS.

                          --  THE WIZARD OF ID
 Job cpu time:  0 days  1 hours  1 minutes 31.2 seconds.
 File lengths (MBytes):  RWF=     87 Int=      0 D2E=      0 Chk=     15 Scr=      1
 Normal termination of Gaussian 09 at Sun Oct  3 16:37:12 2021.
