 Entering Gaussian System, Link 0=g09
 Input=C9H10O4_9258_conf_0.com
 Output=C9H10O4_9258_conf_0.log
 Initial command:
 /sw/target/amd/app/gaussian/Gaussian09RevA.02_gcc-4.9.2/g09/l1.exe /home/jschleinitz/gaussian/Gau-1014088.inp -scrdir=/home/jschleinitz/gaussian/
 Entering Link 1 = /sw/target/amd/app/gaussian/Gaussian09RevA.02_gcc-4.9.2/g09/l1.exe PID=   1014090.
  
 Copyright (c) 1988,1990,1992,1993,1995,1998,2003,2009, Gaussian, Inc.
                  All Rights Reserved.
  
 This is part of the Gaussian(R) 09 program.  It is based on
 the Gaussian(R) 03 system (copyright 2003, Gaussian, Inc.),
 the Gaussian(R) 98 system (copyright 1998, Gaussian, Inc.),
 the Gaussian(R) 94 system (copyright 1995, Gaussian, Inc.),
 the Gaussian 92(TM) system (copyright 1992, Gaussian, Inc.),
 the Gaussian 90(TM) system (copyright 1990, Gaussian, Inc.),
 the Gaussian 88(TM) system (copyright 1988, Gaussian, Inc.),
 the Gaussian 86(TM) system (copyright 1986, Carnegie Mellon
 University), and the Gaussian 82(TM) system (copyright 1983,
 Carnegie Mellon University). Gaussian is a federally registered
 trademark of Gaussian, Inc.
  
 This software contains proprietary and confidential information,
 including trade secrets, belonging to Gaussian, Inc.
  
 This software is provided under written license and may be
 used, copied, transmitted, or stored only in accord with that
 written license.
  
 The following legend is applicable only to US Government
 contracts under FAR:
  
                    RESTRICTED RIGHTS LEGEND
  
 Use, reproduction and disclosure by the US Government is
 subject to restrictions as set forth in subparagraphs (a)
 and (c) of the Commercial Computer Software - Restricted
 Rights clause in FAR 52.227-19.
  
 Gaussian, Inc.
 340 Quinnipiac St., Bldg. 40, Wallingford CT 06492
  
  
 ---------------------------------------------------------------
 Warning -- This program may not be used in any manner that
 competes with the business of Gaussian, Inc. or will provide
 assistance to any competitor of Gaussian, Inc.  The licensee
 of this program is prohibited from giving any competitor of
 Gaussian, Inc. access to this program.  By using this program,
 the user acknowledges that Gaussian, Inc. is engaged in the
 business of creating and licensing software in the field of
 computational chemistry and represents and warrants to the
 licensee that it is not a competitor of Gaussian, Inc. and that
 it will not use this program in any manner prohibited above.
 ---------------------------------------------------------------
  

 Cite this work as:
 Gaussian 09, Revision A.02,
 M. J. Frisch, G. W. Trucks, H. B. Schlegel, G. E. Scuseria, 
 M. A. Robb, J. R. Cheeseman, G. Scalmani, V. Barone, B. Mennucci, 
 G. A. Petersson, H. Nakatsuji, M. Caricato, X. Li, H. P. Hratchian, 
 A. F. Izmaylov, J. Bloino, G. Zheng, J. L. Sonnenberg, M. Hada, 
 M. Ehara, K. Toyota, R. Fukuda, J. Hasegawa, M. Ishida, T. Nakajima, 
 Y. Honda, O. Kitao, H. Nakai, T. Vreven, J. A. Montgomery, Jr., 
 J. E. Peralta, F. Ogliaro, M. Bearpark, J. J. Heyd, E. Brothers, 
 K. N. Kudin, V. N. Staroverov, R. Kobayashi, J. Normand, 
 K. Raghavachari, A. Rendell, J. C. Burant, S. S. Iyengar, J. Tomasi, 
 M. Cossi, N. Rega, J. M. Millam, M. Klene, J. E. Knox, J. B. Cross, 
 V. Bakken, C. Adamo, J. Jaramillo, R. Gomperts, R. E. Stratmann, 
 O. Yazyev, A. J. Austin, R. Cammi, C. Pomelli, J. W. Ochterski, 
 R. L. Martin, K. Morokuma, V. G. Zakrzewski, G. A. Voth, 
 P. Salvador, J. J. Dannenberg, S. Dapprich, A. D. Daniels, 
 O. Farkas, J. B. Foresman, J. V. Ortiz, J. Cioslowski, 
 and D. J. Fox, Gaussian, Inc., Wallingford CT, 2009.
 
 ******************************************
 Gaussian 09:  AM64L-G09RevA.02 11-Jun-2009
                29-Sep-2021 
 ******************************************
 %nproc=3
 Will use up to    3 processors via shared memory.
 %mem=6gb
 %chk=C9H10O4_9258_conf_0.chk
 -----------------------------------
 #p opt b3lyp/6-31G* scf=(xqc,tight)
 -----------------------------------
 1/14=-1,18=20,19=15,26=3,38=1/1,3;
 2/9=110,12=2,17=6,18=5,40=1/2;
 3/5=1,6=6,7=1,11=2,16=1,25=1,30=1,71=1,74=-5/1,2,3;
 4//1;
 5/5=2,8=3,13=1,32=2,38=5/2,8;
 6/7=2,8=2,9=2,10=2,28=1/1;
 7//1,2,3,16;
 1/14=-1,18=20,19=15/3(2);
 2/9=110/2;
 99//99;
 2/9=110/2;
 3/5=1,6=6,7=1,11=2,16=1,25=1,30=1,71=1,74=-5/1,2,3;
 4/5=5,16=3/1;
 5/5=2,8=3,13=1,32=2,38=5/2,8;
 7//1,2,3,16;
 1/14=-1,18=20,19=15/3(-5);
 2/9=110/2;
 6/7=2,8=2,9=2,10=2,19=2,28=1/1;
 99/9=1/99;
 Leave Link    1 at Wed Sep 29 23:56:50 2021, MaxMem=  805306368 cpu:       0.1
 (Enter /sw/target/amd/app/gaussian/Gaussian09RevA.02_gcc-4.9.2/g09/l101.exe)
 ---------------------------
 COC(=O)Oc1ccc(cc1)OC_conf_0
 ---------------------------
 Symbolic Z-matrix:
 Charge =  0 Multiplicity = 1
 C                     2.97422   2.18983  -1.16083 
 O                     3.41521   1.19062  -0.24098 
 C                     4.34538   1.58284   0.66975 
 O                     4.84386   2.69454   0.74221 
 O                     4.60109   0.49866   1.50099 
 C                     5.47808   0.62833   2.59367 
 C                     5.10646  -0.04587   3.7581 
 C                     5.93421  -0.0001    4.88498 
 C                     7.13589   0.70818   4.83688 
 C                     7.49893   1.37664   3.66316 
 C                     6.68199   1.32217   2.53126 
 O                     8.01591   0.8441    5.8756 
 C                     7.99949  -0.19879   6.84291 
 H                     1.88548   2.12113  -1.23704 
 H                     3.40564   1.97732  -2.14282 
 H                     3.22965   3.2099   -0.85967 
 H                     4.17192  -0.59894   3.79408 
 H                     5.60722  -0.50941   5.78362 
 H                     8.43005   1.93403   3.62844 
 H                     7.00083   1.82792   1.6246 
 H                     8.8442   -0.03681   7.52048 
 H                     8.13239  -1.17798   6.36986 
 H                     7.08572  -0.17161   7.44337 
 
 NAtoms=     23 NQM=     23 NQMF=      0 NMic=      0 NMicF=      0 NTot=     23.
                    Isotopes and Nuclear Properties:
 (Nuclear quadrupole moments (NQMom) in fm**2, nuclear magnetic moments (NMagM)
  in nuclear magnetons)

  Atom         1           2           3           4           5           6           7           8           9          10
 IAtWgt=          12          16          12          16          16          12          12          12          12          12
 AtmWgt=  12.0000000  15.9949146  12.0000000  15.9949146  15.9949146  12.0000000  12.0000000  12.0000000  12.0000000  12.0000000
 NucSpn=           0           0           0           0           0           0           0           0           0           0
 AtZEff=   0.0000000   0.0000000   0.0000000   0.0000000   0.0000000   0.0000000   0.0000000   0.0000000   0.0000000   0.0000000
 NQMom=    0.0000000   0.0000000   0.0000000   0.0000000   0.0000000   0.0000000   0.0000000   0.0000000   0.0000000   0.0000000
 NMagM=    0.0000000   0.0000000   0.0000000   0.0000000   0.0000000   0.0000000   0.0000000   0.0000000   0.0000000   0.0000000

  Atom        11          12          13          14          15          16          17          18          19          20
 IAtWgt=          12          16          12           1           1           1           1           1           1           1
 AtmWgt=  12.0000000  15.9949146  12.0000000   1.0078250   1.0078250   1.0078250   1.0078250   1.0078250   1.0078250   1.0078250
 NucSpn=           0           0           0           1           1           1           1           1           1           1
 AtZEff=   0.0000000   0.0000000   0.0000000   0.0000000   0.0000000   0.0000000   0.0000000   0.0000000   0.0000000   0.0000000
 NQMom=    0.0000000   0.0000000   0.0000000   0.0000000   0.0000000   0.0000000   0.0000000   0.0000000   0.0000000   0.0000000
 NMagM=    0.0000000   0.0000000   0.0000000   2.7928460   2.7928460   2.7928460   2.7928460   2.7928460   2.7928460   2.7928460

  Atom        21          22          23
 IAtWgt=           1           1           1
 AtmWgt=   1.0078250   1.0078250   1.0078250
 NucSpn=           1           1           1
 AtZEff=   0.0000000   0.0000000   0.0000000
 NQMom=    0.0000000   0.0000000   0.0000000
 NMagM=    2.7928460   2.7928460   2.7928460
 Leave Link  101 at Wed Sep 29 23:56:51 2021, MaxMem=  805306368 cpu:       0.2
 (Enter /sw/target/amd/app/gaussian/Gaussian09RevA.02_gcc-4.9.2/g09/l103.exe)

 GradGradGradGradGradGradGradGradGradGradGradGradGradGradGradGradGradGrad
 Berny optimization.
 Initialization pass.
                           ----------------------------
                           !    Initial Parameters    !
                           ! (Angstroms and Degrees)  !
 --------------------------                            --------------------------
 ! Name  Definition              Value          Derivative Info.                !
 --------------------------------------------------------------------------------
 ! R1    R(1,2)                  1.4279         estimate D2E/DX2                !
 ! R2    R(1,14)                 1.0936         estimate D2E/DX2                !
 ! R3    R(1,15)                 1.0934         estimate D2E/DX2                !
 ! R4    R(1,16)                 1.0938         estimate D2E/DX2                !
 ! R5    R(2,3)                  1.3596         estimate D2E/DX2                !
 ! R6    R(3,4)                  1.2205         estimate D2E/DX2                !
 ! R7    R(3,5)                  1.3899         estimate D2E/DX2                !
 ! R8    R(5,6)                  1.4071         estimate D2E/DX2                !
 ! R9    R(6,7)                  1.3959         estimate D2E/DX2                !
 ! R10   R(6,11)                 1.3909         estimate D2E/DX2                !
 ! R11   R(7,8)                  1.399          estimate D2E/DX2                !
 ! R12   R(7,17)                 1.0865         estimate D2E/DX2                !
 ! R13   R(8,9)                  1.3957         estimate D2E/DX2                !
 ! R14   R(8,18)                 1.0835         estimate D2E/DX2                !
 ! R15   R(9,10)                 1.3987         estimate D2E/DX2                !
 ! R16   R(9,12)                 1.3681         estimate D2E/DX2                !
 ! R17   R(10,11)                1.397          estimate D2E/DX2                !
 ! R18   R(10,19)                1.0858         estimate D2E/DX2                !
 ! R19   R(11,20)                1.086          estimate D2E/DX2                !
 ! R20   R(12,13)                1.4225         estimate D2E/DX2                !
 ! R21   R(13,21)                1.0949         estimate D2E/DX2                !
 ! R22   R(13,22)                1.0956         estimate D2E/DX2                !
 ! R23   R(13,23)                1.0937         estimate D2E/DX2                !
 ! A1    A(2,1,14)             107.9629         estimate D2E/DX2                !
 ! A2    A(2,1,15)             108.7042         estimate D2E/DX2                !
 ! A3    A(2,1,16)             113.7712         estimate D2E/DX2                !
 ! A4    A(14,1,15)            108.5442         estimate D2E/DX2                !
 ! A5    A(14,1,16)            108.0741         estimate D2E/DX2                !
 ! A6    A(15,1,16)            109.6556         estimate D2E/DX2                !
 ! A7    A(1,2,3)              116.1633         estimate D2E/DX2                !
 ! A8    A(2,3,4)              125.5885         estimate D2E/DX2                !
 ! A9    A(2,3,5)              107.5451         estimate D2E/DX2                !
 ! A10   A(4,3,5)              126.8604         estimate D2E/DX2                !
 ! A11   A(3,5,6)              120.4782         estimate D2E/DX2                !
 ! A12   A(5,6,7)              115.9351         estimate D2E/DX2                !
 ! A13   A(5,6,11)             123.4075         estimate D2E/DX2                !
 ! A14   A(7,6,11)             120.5824         estimate D2E/DX2                !
 ! A15   A(6,7,8)              119.9084         estimate D2E/DX2                !
 ! A16   A(6,7,17)             120.1627         estimate D2E/DX2                !
 ! A17   A(8,7,17)             119.9268         estimate D2E/DX2                !
 ! A18   A(7,8,9)              119.886          estimate D2E/DX2                !
 ! A19   A(7,8,18)             118.3039         estimate D2E/DX2                !
 ! A20   A(9,8,18)             121.8016         estimate D2E/DX2                !
 ! A21   A(8,9,10)             119.6647         estimate D2E/DX2                !
 ! A22   A(8,9,12)             125.3136         estimate D2E/DX2                !
 ! A23   A(10,9,12)            115.0039         estimate D2E/DX2                !
 ! A24   A(9,10,11)            120.6317         estimate D2E/DX2                !
 ! A25   A(9,10,19)            119.6552         estimate D2E/DX2                !
 ! A26   A(11,10,19)           119.7096         estimate D2E/DX2                !
 ! A27   A(6,11,10)            119.2915         estimate D2E/DX2                !
 ! A28   A(6,11,20)            121.5917         estimate D2E/DX2                !
 ! A29   A(10,11,20)           119.116          estimate D2E/DX2                !
 ! A30   A(9,12,13)            115.8494         estimate D2E/DX2                !
 ! A31   A(12,13,21)           107.664          estimate D2E/DX2                !
 ! A32   A(12,13,22)           111.1146         estimate D2E/DX2                !
 ! A33   A(12,13,23)           111.3913         estimate D2E/DX2                !
 ! A34   A(21,13,22)           107.8092         estimate D2E/DX2                !
 ! A35   A(21,13,23)           107.5251         estimate D2E/DX2                !
 ! A36   A(22,13,23)           111.1376         estimate D2E/DX2                !
 ! D1    D(14,1,2,3)          -135.5943         estimate D2E/DX2                !
 ! D2    D(15,1,2,3)           106.8418         estimate D2E/DX2                !
 ! D3    D(16,1,2,3)           -15.6488         estimate D2E/DX2                !
 ! D4    D(1,2,3,4)             -1.6194         estimate D2E/DX2                !
 ! D5    D(1,2,3,5)            177.5385         estimate D2E/DX2                !
 ! D6    D(2,3,5,6)           -176.5959         estimate D2E/DX2                !
 ! D7    D(4,3,5,6)              2.5482         estimate D2E/DX2                !
 ! D8    D(3,5,6,7)            141.2973         estimate D2E/DX2                !
 ! D9    D(3,5,6,11)           -41.8419         estimate D2E/DX2                !
 ! D10   D(5,6,7,8)            178.4628         estimate D2E/DX2                !
 ! D11   D(5,6,7,17)            -2.064          estimate D2E/DX2                !
 ! D12   D(11,6,7,8)             1.5067         estimate D2E/DX2                !
 ! D13   D(11,6,7,17)         -179.0201         estimate D2E/DX2                !
 ! D14   D(5,6,11,10)         -178.869          estimate D2E/DX2                !
 ! D15   D(5,6,11,20)            1.4608         estimate D2E/DX2                !
 ! D16   D(7,6,11,10)           -2.1484         estimate D2E/DX2                !
 ! D17   D(7,6,11,20)          178.1814         estimate D2E/DX2                !
 ! D18   D(6,7,8,9)             -0.6647         estimate D2E/DX2                !
 ! D19   D(6,7,8,18)           178.3004         estimate D2E/DX2                !
 ! D20   D(17,7,8,9)           179.8609         estimate D2E/DX2                !
 ! D21   D(17,7,8,18)           -1.1741         estimate D2E/DX2                !
 ! D22   D(7,8,9,10)             0.4922         estimate D2E/DX2                !
 ! D23   D(7,8,9,12)           178.8791         estimate D2E/DX2                !
 ! D24   D(18,8,9,10)         -178.4356         estimate D2E/DX2                !
 ! D25   D(18,8,9,12)           -0.0487         estimate D2E/DX2                !
 ! D26   D(8,9,10,11)           -1.157          estimate D2E/DX2                !
 ! D27   D(8,9,10,19)          179.5229         estimate D2E/DX2                !
 ! D28   D(12,9,10,11)        -179.7046         estimate D2E/DX2                !
 ! D29   D(12,9,10,19)           0.9753         estimate D2E/DX2                !
 ! D30   D(8,9,12,13)           26.4574         estimate D2E/DX2                !
 ! D31   D(10,9,12,13)        -155.0892         estimate D2E/DX2                !
 ! D32   D(9,10,11,6)            1.976          estimate D2E/DX2                !
 ! D33   D(9,10,11,20)        -178.3456         estimate D2E/DX2                !
 ! D34   D(19,10,11,6)        -178.7042         estimate D2E/DX2                !
 ! D35   D(19,10,11,20)          0.9742         estimate D2E/DX2                !
 ! D36   D(9,12,13,21)         171.6585         estimate D2E/DX2                !
 ! D37   D(9,12,13,22)          53.8152         estimate D2E/DX2                !
 ! D38   D(9,12,13,23)         -70.6865         estimate D2E/DX2                !
 --------------------------------------------------------------------------------
 Trust Radius=3.00D-01 FncErr=1.00D-07 GrdErr=1.00D-06
 Number of steps in this run= 107 maximum allowed number of steps= 138.
 GradGradGradGradGradGradGradGradGradGradGradGradGradGradGradGradGradGrad

 Leave Link  103 at Wed Sep 29 23:56:51 2021, MaxMem=  805306368 cpu:       0.0
 (Enter /sw/target/amd/app/gaussian/Gaussian09RevA.02_gcc-4.9.2/g09/l202.exe)
                          Input orientation:                          
 ---------------------------------------------------------------------
 Center     Atomic      Atomic             Coordinates (Angstroms)
 Number     Number       Type             X           Y           Z
 ---------------------------------------------------------------------
      1          6           0        2.974221    2.189825   -1.160834
      2          8           0        3.415209    1.190621   -0.240979
      3          6           0        4.345379    1.582840    0.669754
      4          8           0        4.843859    2.694541    0.742211
      5          8           0        4.601091    0.498662    1.500989
      6          6           0        5.478076    0.628334    2.593667
      7          6           0        5.106463   -0.045870    3.758097
      8          6           0        5.934210   -0.000097    4.884977
      9          6           0        7.135890    0.708183    4.836884
     10          6           0        7.498926    1.376638    3.663161
     11          6           0        6.681986    1.322168    2.531258
     12          8           0        8.015910    0.844095    5.875597
     13          6           0        7.999490   -0.198794    6.842912
     14          1           0        1.885477    2.121135   -1.237035
     15          1           0        3.405645    1.977323   -2.142815
     16          1           0        3.229651    3.209904   -0.859672
     17          1           0        4.171921   -0.598935    3.794084
     18          1           0        5.607218   -0.509410    5.783616
     19          1           0        8.430054    1.934026    3.628435
     20          1           0        7.000832    1.827916    1.624595
     21          1           0        8.844196   -0.036808    7.520482
     22          1           0        8.132387   -1.177985    6.369859
     23          1           0        7.085717   -0.171610    7.443367
 ---------------------------------------------------------------------
                    Distance matrix (angstroms):
                    1          2          3          4          5
     1  C    0.000000
     2  O    1.427939   0.000000
     3  C    2.366339   1.359591   0.000000
     4  O    2.715118   2.295534   1.220496   0.000000
     5  O    3.548526   2.218012   1.389885   2.335929   0.000000
     6  C    4.775335   3.550607   2.428070   2.845933   1.407077
     7  C    5.808672   4.514628   3.573486   4.083427   2.376227
     8  C    7.078779   5.834261   4.774743   5.060874   3.671150
     9  C    7.448985   6.313550   5.090869   5.095623   4.194914
    10  C    6.663719   5.652757   4.352914   4.161514   3.720656
    11  C    5.303950   4.286541   2.998813   2.909090   2.463684
    12  O    8.760193   7.661530   6.412437   6.311712   5.560352
    13  C    9.747758   8.551469   7.391524   7.453050   6.369592
    14  H    1.093567   2.048917   3.158596   3.605306   4.183749
    15  H    1.093422   2.058147   2.991532   3.302459   4.110090
    16  H    1.093848   2.120074   2.496263   2.331800   3.847648
    17  H    5.810583   4.478489   3.814664   4.540089   2.578215
    18  H    7.902147   6.632553   5.667568   6.021942   4.513247
    19  H    7.264203   6.377593   5.055858   4.665777   4.609475
    20  H    4.909500   4.091847   2.832528   2.486398   2.746080
    21  H   10.713531   9.550956   8.354345   8.331141   7.384102
    22  H    9.729345   8.459624   7.379347   7.581641   6.243964
    23  H    9.824106   8.624239   7.514611   7.625368   6.475685
                    6          7          8          9         10
     6  C    0.000000
     7  C    1.395903   0.000000
     8  C    2.419314   1.398971   0.000000
     9  C    2.790474   2.418874   1.395710   0.000000
    10  C    2.405745   2.785036   2.415899   1.398661   0.000000
    11  C    1.390934   2.420524   2.801347   2.428769   1.396984
    12  O    4.154301   3.706849   2.455090   1.368150   2.333613
    13  C    5.009765   4.231912   2.852783   2.364860   3.583765
    14  H    5.459808   6.326295   7.640085   8.152041   7.488458
    15  H    5.343128   6.465822   7.726169   8.015089   7.129175
    16  H    4.862661   5.953677   7.114754   7.346295   6.484102
    17  H    2.157135   1.086529   2.157387   3.403102   3.871562
    18  H    3.389235   2.137371   1.083456   2.171560   3.410582
    19  H    3.389653   3.870796   3.398377   2.153579   1.085765
    20  H    2.167229   3.413435   3.887081   3.404533   2.146509
    21  H    6.003888   5.303421   3.926226   3.267265   4.322789
    22  H    4.956589   4.154419   2.902460   2.626908   3.775392
    23  H    5.171461   4.185030   2.810827   2.751419   4.105822
                   11         12         13         14         15
    11  C    0.000000
    12  O    3.632150   0.000000
    13  C    4.758099   1.422528   0.000000
    14  H    6.151819   9.476423  10.394651   0.000000
    15  H    5.745485   9.318460  10.323865   1.775395   0.000000
    16  H    5.194282   8.594718   9.679896   1.770487   1.787928
    17  H    3.403791   4.603400   4.909761   6.159445   6.516982
    18  H    3.884281   2.764460   2.634683   8.370225   8.594131
    19  H    2.152652   2.531640   3.881645   8.157163   7.652052
    20  H    1.086039   4.479878   5.686449   5.868711   5.209710
    21  H    5.604848   2.041493   1.094929  11.391865  11.270043
    22  H    4.805131   2.084866   1.095561  10.381373  10.235413
    23  H    5.150067   2.086820   1.093739  10.375383  10.490746
                   16         17         18         19         20
    16  H    0.000000
    17  H    6.087082   0.000000
    18  H    7.976177   2.454859   0.000000
    19  H    6.986785   4.957321   4.310869   0.000000
    20  H    4.722635   4.312659   4.970182   2.463597   0.000000
    21  H   10.596755   6.002682   3.703793   4.382205   6.452648
    22  H    9.775300   4.759748   2.677153   4.157958   5.730042
    23  H    9.759320   4.689359   2.248298   4.560115   6.153326
                   21         22         23
    21  H    0.000000
    22  H    1.769998   0.000000
    23  H    1.765323   1.805748   0.000000
 Stoichiometry    C9H10O4
 Framework group  C1[X(C9H10O4)]
 Deg. of freedom    63
 Full point group                 C1      NOp   1
 Largest Abelian subgroup         C1      NOp   1
 Largest concise Abelian subgroup C1      NOp   1
                         Standard orientation:                         
 ---------------------------------------------------------------------
 Center     Atomic      Atomic             Coordinates (Angstroms)
 Number     Number       Type             X           Y           Z
 ---------------------------------------------------------------------
      1          6           0       -4.910953    0.042003    0.220748
      2          8           0       -3.714542   -0.599432   -0.222168
      3          6           0       -2.553405    0.065697    0.018351
      4          8           0       -2.458963    1.161074    0.548296
      5          8           0       -1.510523   -0.736369   -0.429833
      6          6           0       -0.173727   -0.337091   -0.247024
      7          6           0        0.726499   -1.351240    0.084089
      8          6           0        2.082653   -1.052322    0.253250
      9          6           0        2.533545    0.256705    0.076748
     10          6           0        1.622313    1.263445   -0.258490
     11          6           0        0.269544    0.966850   -0.441822
     12          8           0        3.826260    0.675958    0.234689
     13          6           0        4.828453   -0.312086    0.027410
     14          1           0       -5.536157   -0.710616    0.709187
     15          1           0       -5.446574    0.425998   -0.651736
     16          1           0       -4.738184    0.853903    0.933119
     17          1           0        0.375140   -2.370485    0.219112
     18          1           0        2.753835   -1.853957    0.537457
     19          1           0        1.972011    2.283147   -0.388132
     20          1           0       -0.411818    1.762581   -0.728248
     21          1           0        5.799951    0.192847    0.037604
     22          1           0        4.711511   -0.793965   -0.949509
     23          1           0        4.832891   -1.051087    0.833713
 ---------------------------------------------------------------------
 Rotational constants (GHZ):      3.3217494      0.3162612      0.2952284
 Leave Link  202 at Wed Sep 29 23:56:51 2021, MaxMem=  805306368 cpu:       0.0
 (Enter /sw/target/amd/app/gaussian/Gaussian09RevA.02_gcc-4.9.2/g09/l301.exe)
 Standard basis: 6-31G(d) (6D, 7F)
 Ernie: Thresh=  0.10000D-02 Tol=  0.10000D-05 Strict=F.
 There are   215 symmetry adapted basis functions of A   symmetry.
 Integral buffers will be    131072 words long.
 Raffenetti 2 integral format.
 Two-electron integral symmetry is turned on.
   215 basis functions,   404 primitive gaussians,   215 cartesian basis functions
    48 alpha electrons       48 beta electrons
       nuclear repulsion energy       761.9736233520 Hartrees.
 IExCor=  402 DFT=T Ex+Corr=B3LYP ExCW=0 ScaHFX=  0.200000
 ScaDFX=  0.800000  0.720000  1.000000  0.810000 ScalE2=  1.000000  1.000000
 IRadAn=      0 IRanWt=     -1 IRanGd=            0 ICorTp=0
 NAtoms=   23 NActive=   23 NUniq=   23 SFac= 7.50D-01 NAtFMM=   80 NAOKFM=F Big=F
 Leave Link  301 at Wed Sep 29 23:56:52 2021, MaxMem=  805306368 cpu:       0.1
 (Enter /sw/target/amd/app/gaussian/Gaussian09RevA.02_gcc-4.9.2/g09/l302.exe)
 NPDir=0 NMtPBC=     1 NCelOv=     1 NCel=       1 NClECP=     1 NCelD=      1
         NCelK=      1 NCelE2=     1 NClLst=     1 CellRange=     0.0.
 One-electron integrals computed using PRISM.
 NBasis=   215 RedAO= T  NBF=   215
 NBsUse=   215 1.00D-06 NBFU=   215
 Precomputing XC quadrature grid using
 IXCGrd= 2 IRadAn=           0 IRanWt=          -1 IRanGd=           0 AccXCQ= 1.00D-10.
 NRdTot=    1463 NPtTot=      186570 NUsed=      197123 NTot=      197155
 NSgBfM=   213   213   213   213   213 NAtAll=    23    23.
 Leave Link  302 at Wed Sep 29 23:56:55 2021, MaxMem=  805306368 cpu:       1.4
 (Enter /sw/target/amd/app/gaussian/Gaussian09RevA.02_gcc-4.9.2/g09/l303.exe)
 DipDrv:  MaxL=1.
 Leave Link  303 at Wed Sep 29 23:56:55 2021, MaxMem=  805306368 cpu:       0.1
 (Enter /sw/target/amd/app/gaussian/Gaussian09RevA.02_gcc-4.9.2/g09/l401.exe)
 Harris functional with IExCor=  402 diagonalized for initial guess.
 ExpMin= 1.61D-01 ExpMax= 5.48D+03 ExpMxC= 8.25D+02 IAcc=1 IRadAn=         1 AccDes= 0.00D+00
 HarFok:  IExCor=  402 AccDes= 0.00D+00 IRadAn=         1 IDoV= 1
 ScaDFX=  1.000000  1.000000  1.000000  1.000000
 FoFCou: FMM=F IPFlag=           0 FMFlag=      100000 FMFlg1=           0
         NFxFlg=           0 DoJE=T BraDBF=F KetDBF=T FulRan=T
         Omega=  0.000000  0.000000  1.000000  0.000000  0.000000 ICntrl=     500 IOpCl=  0
         NMat0=    1 NMatS0=    1 NMatT0=    0 NMatD0=    1 NMtDS0=    0 NMtDT0=    0
         I1Cent=           4 NGrid=           0.
 Petite list used in FoFCou.
 Harris En= -649.935405484452    
 Initial guess orbital symmetries:
       Occupied  (A) (A) (A) (A) (A) (A) (A) (A) (A) (A) (A) (A)
                 (A) (A) (A) (A) (A) (A) (A) (A) (A) (A) (A) (A)
                 (A) (A) (A) (A) (A) (A) (A) (A) (A) (A) (A) (A)
                 (A) (A) (A) (A) (A) (A) (A) (A) (A) (A) (A) (A)
       Virtual   (A) (A) (A) (A) (A) (A) (A) (A) (A) (A) (A) (A)
                 (A) (A) (A) (A) (A) (A) (A) (A) (A) (A) (A) (A)
                 (A) (A) (A) (A) (A) (A) (A) (A) (A) (A) (A) (A)
                 (A) (A) (A) (A) (A) (A) (A) (A) (A) (A) (A) (A)
                 (A) (A) (A) (A) (A) (A) (A) (A) (A) (A) (A) (A)
                 (A) (A) (A) (A) (A) (A) (A) (A) (A) (A) (A) (A)
                 (A) (A) (A) (A) (A) (A) (A) (A) (A) (A) (A) (A)
                 (A) (A) (A) (A) (A) (A) (A) (A) (A) (A) (A) (A)
                 (A) (A) (A) (A) (A) (A) (A) (A) (A) (A) (A) (A)
                 (A) (A) (A) (A) (A) (A) (A) (A) (A) (A) (A) (A)
                 (A) (A) (A) (A) (A) (A) (A) (A) (A) (A) (A) (A)
                 (A) (A) (A) (A) (A) (A) (A) (A) (A) (A) (A) (A)
                 (A) (A) (A) (A) (A) (A) (A) (A) (A) (A) (A) (A)
                 (A) (A) (A) (A) (A) (A) (A) (A) (A) (A) (A)
 The electronic state of the initial guess is 1-A.
 Leave Link  401 at Wed Sep 29 23:57:07 2021, MaxMem=  805306368 cpu:       6.1
 (Enter /sw/target/amd/app/gaussian/Gaussian09RevA.02_gcc-4.9.2/g09/l502.exe)
 Closed shell SCF:
 Requested convergence on RMS density matrix=1.00D-08 within  64 cycles.
 Requested convergence on MAX density matrix=1.00D-06.
 Requested convergence on             energy=1.00D-06.
 No special actions if energy rises.
 Using DIIS extrapolation, IDIIS=  1040.
 Integral symmetry usage will be decided dynamically.
       196903 words used for storage of precomputed grid.
 Keep R1 ints in memory in canonical form, NReq=274978593.
 IEnd=      344029 IEndB=      344029 NGot=   805306368 MDV=   535417166
 LenX=   535417166 LenY=   535370500
 Symmetry not used in FoFDir.
 MinBra= 0 MaxBra= 2 Meth= 1.
 IRaf=       0 NMat=   1 IRICut=       1 DoRegI=T DoRafI=F ISym2E= 0 JSym2E=0.
 Integral accuracy reduced to 1.0D-05 until final iterations.

 Cycle   1  Pass 0  IDiag  1:
 E= -649.539931306434    
 DIIS: error= 3.84D-02 at cycle   1 NSaved=   1.
 NSaved= 1 IEnMin= 1 EnMin= -649.539931306434     IErMin= 1 ErrMin= 3.84D-02
 ErrMax= 3.84D-02 EMaxC= 1.00D-01 BMatC= 3.58D-01 BMatP= 3.58D-01
 IDIUse=3 WtCom= 6.16D-01 WtEn= 3.84D-01
 Coeff-Com:  0.100D+01
 Coeff-En:   0.100D+01
 Coeff:      0.100D+01
 Gap=     0.252 Goal=   None    Shift=    0.000
 GapD=    0.252 DampG=1.000 DampE=0.500 DampFc=0.5000 IDamp=-1.
 Damping current iteration by 5.00D-01
 RMSDP=5.57D-03 MaxDP=2.19D-01              OVMax= 2.15D-01

 Cycle   2  Pass 0  IDiag  1:
 E= -649.630751094360     Delta-E=       -0.090819787926 Rises=F Damp=T
 DIIS: error= 1.42D-02 at cycle   2 NSaved=   2.
 NSaved= 2 IEnMin= 2 EnMin= -649.630751094360     IErMin= 2 ErrMin= 1.42D-02
 ErrMax= 1.42D-02 EMaxC= 1.00D-01 BMatC= 5.80D-02 BMatP= 3.58D-01
 IDIUse=3 WtCom= 8.58D-01 WtEn= 1.42D-01
 Coeff-Com:  0.216D+00 0.784D+00
 Coeff-En:   0.331D+00 0.669D+00
 Coeff:      0.233D+00 0.767D+00
 Gap=     0.216 Goal=   None    Shift=    0.000
 RMSDP=1.77D-03 MaxDP=6.90D-02 DE=-9.08D-02 OVMax= 1.67D-01

 Cycle   3  Pass 0  IDiag  1:
 E= -649.813149509444     Delta-E=       -0.182398415084 Rises=F Damp=F
 DIIS: error= 1.59D-02 at cycle   3 NSaved=   3.
 NSaved= 3 IEnMin= 3 EnMin= -649.813149509444     IErMin= 2 ErrMin= 1.42D-02
 ErrMax= 1.59D-02 EMaxC= 1.00D-01 BMatC= 5.74D-02 BMatP= 5.80D-02
 IDIUse=3 WtCom= 8.41D-01 WtEn= 1.59D-01
 Coeff-Com:  0.754D-01 0.487D+00 0.437D+00
 Coeff-En:   0.000D+00 0.000D+00 0.100D+01
 Coeff:      0.634D-01 0.410D+00 0.527D+00
 Gap=     0.212 Goal=   None    Shift=    0.000
 RMSDP=1.33D-03 MaxDP=6.03D-02 DE=-1.82D-01 OVMax= 1.04D-01

 Cycle   4  Pass 0  IDiag  1:
 E= -649.849141758903     Delta-E=       -0.035992249458 Rises=F Damp=F
 DIIS: error= 7.01D-03 at cycle   4 NSaved=   4.
 NSaved= 4 IEnMin= 4 EnMin= -649.849141758903     IErMin= 4 ErrMin= 7.01D-03
 ErrMax= 7.01D-03 EMaxC= 1.00D-01 BMatC= 1.49D-02 BMatP= 5.74D-02
 IDIUse=3 WtCom= 9.30D-01 WtEn= 7.01D-02
 Coeff-Com:  0.188D-01 0.112D+00 0.339D+00 0.531D+00
 Coeff-En:   0.000D+00 0.000D+00 0.234D+00 0.766D+00
 Coeff:      0.174D-01 0.104D+00 0.331D+00 0.547D+00
 Gap=     0.211 Goal=   None    Shift=    0.000
 RMSDP=4.80D-04 MaxDP=2.11D-02 DE=-3.60D-02 OVMax= 3.91D-02

 Cycle   5  Pass 0  IDiag  1:
 E= -649.860011910755     Delta-E=       -0.010870151853 Rises=F Damp=F
 DIIS: error= 1.34D-03 at cycle   5 NSaved=   5.
 NSaved= 5 IEnMin= 5 EnMin= -649.860011910755     IErMin= 5 ErrMin= 1.34D-03
 ErrMax= 1.34D-03 EMaxC= 1.00D-01 BMatC= 6.50D-04 BMatP= 1.49D-02
 IDIUse=3 WtCom= 9.87D-01 WtEn= 1.34D-02
 Coeff-Com:  0.335D-02 0.113D-01 0.128D+00 0.296D+00 0.562D+00
 Coeff-En:   0.000D+00 0.000D+00 0.000D+00 0.000D+00 0.100D+01
 Coeff:      0.330D-02 0.111D-01 0.126D+00 0.292D+00 0.568D+00
 Gap=     0.211 Goal=   None    Shift=    0.000
 RMSDP=1.19D-04 MaxDP=3.98D-03 DE=-1.09D-02 OVMax= 5.96D-03

 Cycle   6  Pass 0  IDiag  1:
 E= -649.860518862652     Delta-E=       -0.000506951896 Rises=F Damp=F
 DIIS: error= 2.82D-04 at cycle   6 NSaved=   6.
 NSaved= 6 IEnMin= 6 EnMin= -649.860518862652     IErMin= 6 ErrMin= 2.82D-04
 ErrMax= 2.82D-04 EMaxC= 1.00D-01 BMatC= 3.72D-05 BMatP= 6.50D-04
 IDIUse=3 WtCom= 9.97D-01 WtEn= 2.82D-03
 Coeff-Com:  0.403D-03-0.190D-02 0.364D-01 0.969D-01 0.280D+00 0.588D+00
 Coeff-En:   0.000D+00 0.000D+00 0.000D+00 0.000D+00 0.000D+00 0.100D+01
 Coeff:      0.402D-03-0.189D-02 0.363D-01 0.966D-01 0.279D+00 0.589D+00
 Gap=     0.211 Goal=   None    Shift=    0.000
 RMSDP=3.40D-05 MaxDP=8.91D-04 DE=-5.07D-04 OVMax= 2.49D-03

 Cycle   7  Pass 0  IDiag  1:
 E= -649.860547921106     Delta-E=       -0.000029058455 Rises=F Damp=F
 DIIS: error= 1.14D-04 at cycle   7 NSaved=   7.
 NSaved= 7 IEnMin= 7 EnMin= -649.860547921106     IErMin= 7 ErrMin= 1.14D-04
 ErrMax= 1.14D-04 EMaxC= 1.00D-01 BMatC= 4.09D-06 BMatP= 3.72D-05
 IDIUse=3 WtCom= 9.99D-01 WtEn= 1.14D-03
 Coeff-Com:  0.149D-04-0.177D-02 0.112D-01 0.318D-01 0.119D+00 0.334D+00
 Coeff-Com:  0.506D+00
 Coeff-En:   0.000D+00 0.000D+00 0.000D+00 0.000D+00 0.000D+00 0.351D-01
 Coeff-En:   0.965D+00
 Coeff:      0.149D-04-0.177D-02 0.112D-01 0.318D-01 0.119D+00 0.333D+00
 Coeff:      0.507D+00
 Gap=     0.211 Goal=   None    Shift=    0.000
 RMSDP=1.21D-05 MaxDP=3.63D-04 DE=-2.91D-05 OVMax= 1.05D-03

 Cycle   8  Pass 0  IDiag  1:
 E= -649.860551785882     Delta-E=       -0.000003864776 Rises=F Damp=F
 DIIS: error= 3.93D-05 at cycle   8 NSaved=   8.
 NSaved= 8 IEnMin= 8 EnMin= -649.860551785882     IErMin= 8 ErrMin= 3.93D-05
 ErrMax= 3.93D-05 EMaxC= 1.00D-01 BMatC= 3.83D-07 BMatP= 4.09D-06
 IDIUse=1 WtCom= 1.00D+00 WtEn= 0.00D+00
 Coeff-Com: -0.291D-05-0.807D-03 0.261D-02 0.768D-02 0.398D-01 0.129D+00
 Coeff-Com:  0.280D+00 0.542D+00
 Coeff:     -0.291D-05-0.807D-03 0.261D-02 0.768D-02 0.398D-01 0.129D+00
 Coeff:      0.280D+00 0.542D+00
 Gap=     0.211 Goal=   None    Shift=    0.000
 RMSDP=3.55D-06 MaxDP=1.10D-04 DE=-3.86D-06 OVMax= 2.78D-04

 Initial convergence to 1.0D-05 achieved.  Increase integral accuracy.
 Cycle   9  Pass 1  IDiag  1:
 E= -649.860523608748     Delta-E=        0.000028177134 Rises=F Damp=F
 DIIS: error= 1.84D-05 at cycle   1 NSaved=   1.
 NSaved= 1 IEnMin= 1 EnMin= -649.860523608748     IErMin= 1 ErrMin= 1.84D-05
 ErrMax= 1.84D-05 EMaxC= 1.00D-01 BMatC= 1.17D-07 BMatP= 1.17D-07
 IDIUse=1 WtCom= 1.00D+00 WtEn= 0.00D+00
 Coeff-Com:  0.100D+01
 Coeff:      0.100D+01
 Gap=     0.211 Goal=   None    Shift=    0.000
 RMSDP=3.55D-06 MaxDP=1.10D-04 DE= 2.82D-05 OVMax= 1.80D-04

 Cycle  10  Pass 1  IDiag  1:
 E= -649.860523645600     Delta-E=       -0.000000036852 Rises=F Damp=F
 DIIS: error= 1.55D-05 at cycle   2 NSaved=   2.
 NSaved= 2 IEnMin= 2 EnMin= -649.860523645600     IErMin= 2 ErrMin= 1.55D-05
 ErrMax= 1.55D-05 EMaxC= 1.00D-01 BMatC= 1.20D-07 BMatP= 1.17D-07
 IDIUse=1 WtCom= 1.00D+00 WtEn= 0.00D+00
 Coeff-Com:  0.505D+00 0.495D+00
 Coeff:      0.505D+00 0.495D+00
 Gap=     0.211 Goal=   None    Shift=    0.000
 RMSDP=2.10D-06 MaxDP=6.88D-05 DE=-3.69D-08 OVMax= 1.50D-04

 Cycle  11  Pass 1  IDiag  1:
 E= -649.860523731495     Delta-E=       -0.000000085895 Rises=F Damp=F
 DIIS: error= 8.14D-06 at cycle   3 NSaved=   3.
 NSaved= 3 IEnMin= 3 EnMin= -649.860523731495     IErMin= 3 ErrMin= 8.14D-06
 ErrMax= 8.14D-06 EMaxC= 1.00D-01 BMatC= 2.59D-08 BMatP= 1.17D-07
 IDIUse=1 WtCom= 1.00D+00 WtEn= 0.00D+00
 Coeff-Com:  0.213D-01 0.313D+00 0.666D+00
 Coeff:      0.213D-01 0.313D+00 0.666D+00
 Gap=     0.211 Goal=   None    Shift=    0.000
 RMSDP=8.17D-07 MaxDP=2.32D-05 DE=-8.59D-08 OVMax= 5.94D-05

 Cycle  12  Pass 1  IDiag  1:
 E= -649.860523753235     Delta-E=       -0.000000021740 Rises=F Damp=F
 DIIS: error= 2.86D-06 at cycle   4 NSaved=   4.
 NSaved= 4 IEnMin= 4 EnMin= -649.860523753235     IErMin= 4 ErrMin= 2.86D-06
 ErrMax= 2.86D-06 EMaxC= 1.00D-01 BMatC= 2.47D-09 BMatP= 2.59D-08
 IDIUse=1 WtCom= 1.00D+00 WtEn= 0.00D+00
 Coeff-Com: -0.155D-01 0.160D+00 0.399D+00 0.457D+00
 Coeff:     -0.155D-01 0.160D+00 0.399D+00 0.457D+00
 Gap=     0.211 Goal=   None    Shift=    0.000
 RMSDP=2.14D-07 MaxDP=1.06D-05 DE=-2.17D-08 OVMax= 1.27D-05

 Cycle  13  Pass 1  IDiag  1:
 E= -649.860523755257     Delta-E=       -0.000000002022 Rises=F Damp=F
 DIIS: error= 5.81D-07 at cycle   5 NSaved=   5.
 NSaved= 5 IEnMin= 5 EnMin= -649.860523755257     IErMin= 5 ErrMin= 5.81D-07
 ErrMax= 5.81D-07 EMaxC= 1.00D-01 BMatC= 9.13D-11 BMatP= 2.47D-09
 IDIUse=1 WtCom= 1.00D+00 WtEn= 0.00D+00
 Coeff-Com: -0.889D-02 0.743D-01 0.188D+00 0.254D+00 0.492D+00
 Coeff:     -0.889D-02 0.743D-01 0.188D+00 0.254D+00 0.492D+00
 Gap=     0.211 Goal=   None    Shift=    0.000
 RMSDP=4.64D-08 MaxDP=1.69D-06 DE=-2.02D-09 OVMax= 2.64D-06

 Cycle  14  Pass 1  IDiag  1:
 E= -649.860523755319     Delta-E=       -0.000000000062 Rises=F Damp=F
 DIIS: error= 1.83D-07 at cycle   6 NSaved=   6.
 NSaved= 6 IEnMin= 6 EnMin= -649.860523755319     IErMin= 6 ErrMin= 1.83D-07
 ErrMax= 1.83D-07 EMaxC= 1.00D-01 BMatC= 1.25D-11 BMatP= 9.13D-11
 IDIUse=1 WtCom= 1.00D+00 WtEn= 0.00D+00
 Coeff-Com: -0.345D-02 0.254D-01 0.648D-01 0.999D-01 0.301D+00 0.512D+00
 Coeff:     -0.345D-02 0.254D-01 0.648D-01 0.999D-01 0.301D+00 0.512D+00
 Gap=     0.211 Goal=   None    Shift=    0.000
 RMSDP=1.96D-08 MaxDP=5.14D-07 DE=-6.18D-11 OVMax= 1.54D-06

 Cycle  15  Pass 1  IDiag  1:
 E= -649.860523755325     Delta-E=       -0.000000000006 Rises=F Damp=F
 DIIS: error= 6.13D-08 at cycle   7 NSaved=   7.
 NSaved= 7 IEnMin= 7 EnMin= -649.860523755325     IErMin= 7 ErrMin= 6.13D-08
 ErrMax= 6.13D-08 EMaxC= 1.00D-01 BMatC= 1.45D-12 BMatP= 1.25D-11
 IDIUse=1 WtCom= 1.00D+00 WtEn= 0.00D+00
 Coeff-Com: -0.818D-03 0.456D-02 0.118D-01 0.239D-01 0.104D+00 0.302D+00
 Coeff-Com:  0.554D+00
 Coeff:     -0.818D-03 0.456D-02 0.118D-01 0.239D-01 0.104D+00 0.302D+00
 Coeff:      0.554D+00
 Gap=     0.211 Goal=   None    Shift=    0.000
 RMSDP=5.81D-09 MaxDP=1.82D-07 DE=-5.91D-12 OVMax= 3.30D-07

 SCF Done:  E(RB3LYP) =  -649.860523755     A.U. after   15 cycles
             Convg  =    0.5813D-08             -V/T =  2.0094
 KE= 6.437912231521D+02 PE=-3.041132437991D+03 EE= 9.855070677318D+02
 Leave Link  502 at Thu Sep 30 00:02:53 2021, MaxMem=  805306368 cpu:     150.3
 (Enter /sw/target/amd/app/gaussian/Gaussian09RevA.02_gcc-4.9.2/g09/l508.exe)
 QCSCF skips out because SCF is already converged.
 Leave Link  508 at Thu Sep 30 00:02:55 2021, MaxMem=  805306368 cpu:       0.0
 (Enter /sw/target/amd/app/gaussian/Gaussian09RevA.02_gcc-4.9.2/g09/l601.exe)
 Copying SCF densities to generalized density rwf, IOpCl= 0 IROHF=0.

 **********************************************************************

            Population analysis using the SCF density.

 **********************************************************************

 Orbital symmetries:
       Occupied  (A) (A) (A) (A) (A) (A) (A) (A) (A) (A) (A) (A)
                 (A) (A) (A) (A) (A) (A) (A) (A) (A) (A) (A) (A)
                 (A) (A) (A) (A) (A) (A) (A) (A) (A) (A) (A) (A)
                 (A) (A) (A) (A) (A) (A) (A) (A) (A) (A) (A) (A)
       Virtual   (A) (A) (A) (A) (A) (A) (A) (A) (A) (A) (A) (A)
                 (A) (A) (A) (A) (A) (A) (A) (A) (A) (A) (A) (A)
                 (A) (A) (A) (A) (A) (A) (A) (A) (A) (A) (A) (A)
                 (A) (A) (A) (A) (A) (A) (A) (A) (A) (A) (A) (A)
                 (A) (A) (A) (A) (A) (A) (A) (A) (A) (A) (A) (A)
                 (A) (A) (A) (A) (A) (A) (A) (A) (A) (A) (A) (A)
                 (A) (A) (A) (A) (A) (A) (A) (A) (A) (A) (A) (A)
                 (A) (A) (A) (A) (A) (A) (A) (A) (A) (A) (A) (A)
                 (A) (A) (A) (A) (A) (A) (A) (A) (A) (A) (A) (A)
                 (A) (A) (A) (A) (A) (A) (A) (A) (A) (A) (A) (A)
                 (A) (A) (A) (A) (A) (A) (A) (A) (A) (A) (A) (A)
                 (A) (A) (A) (A) (A) (A) (A) (A) (A) (A) (A) (A)
                 (A) (A) (A) (A) (A) (A) (A) (A) (A) (A) (A) (A)
                 (A) (A) (A) (A) (A) (A) (A) (A) (A) (A) (A)
 The electronic state is 1-A.
 Alpha  occ. eigenvalues --  -19.20635 -19.20461 -19.17540 -19.14428 -10.37190
 Alpha  occ. eigenvalues --  -10.24988 -10.24638 -10.24545 -10.24036 -10.19700
 Alpha  occ. eigenvalues --  -10.19391 -10.19326 -10.18828  -1.13277  -1.06159
 Alpha  occ. eigenvalues --   -1.05705  -1.01966  -0.85390  -0.76687  -0.75260
 Alpha  occ. eigenvalues --   -0.73178  -0.69502  -0.62823  -0.61873  -0.57397
 Alpha  occ. eigenvalues --   -0.54599  -0.52888  -0.49899  -0.49302  -0.47898
 Alpha  occ. eigenvalues --   -0.47039  -0.45620  -0.44839  -0.43944  -0.43040
 Alpha  occ. eigenvalues --   -0.42737  -0.41120  -0.39186  -0.37236  -0.36932
 Alpha  occ. eigenvalues --   -0.36225  -0.34610  -0.32502  -0.30624  -0.30082
 Alpha  occ. eigenvalues --   -0.29111  -0.25322  -0.21616
 Alpha virt. eigenvalues --   -0.00545   0.00472   0.03553   0.08256   0.10325
 Alpha virt. eigenvalues --    0.10667   0.11581   0.13417   0.14514   0.15047
 Alpha virt. eigenvalues --    0.15357   0.15921   0.16163   0.17128   0.18194
 Alpha virt. eigenvalues --    0.19504   0.21244   0.23658   0.24772   0.29652
 Alpha virt. eigenvalues --    0.30721   0.33638   0.33808   0.36011   0.39282
 Alpha virt. eigenvalues --    0.47202   0.49189   0.50238   0.51054   0.52087
 Alpha virt. eigenvalues --    0.52119   0.53126   0.54080   0.55127   0.56170
 Alpha virt. eigenvalues --    0.57092   0.58725   0.59557   0.60136   0.61012
 Alpha virt. eigenvalues --    0.62113   0.62265   0.63432   0.65923   0.67206
 Alpha virt. eigenvalues --    0.68873   0.69600   0.74524   0.76400   0.80573
 Alpha virt. eigenvalues --    0.81533   0.82962   0.83573   0.84029   0.84887
 Alpha virt. eigenvalues --    0.85085   0.86439   0.87702   0.88490   0.90271
 Alpha virt. eigenvalues --    0.92439   0.93116   0.93962   0.94985   0.97115
 Alpha virt. eigenvalues --    0.97649   0.99399   1.00122   1.02799   1.03456
 Alpha virt. eigenvalues --    1.05524   1.07076   1.11092   1.12516   1.16238
 Alpha virt. eigenvalues --    1.16977   1.18474   1.20231   1.22021   1.25551
 Alpha virt. eigenvalues --    1.26148   1.31417   1.34755   1.37782   1.39278
 Alpha virt. eigenvalues --    1.40538   1.42955   1.45438   1.47179   1.49372
 Alpha virt. eigenvalues --    1.50475   1.52114   1.52720   1.55681   1.58766
 Alpha virt. eigenvalues --    1.59516   1.68389   1.68973   1.74157   1.77471
 Alpha virt. eigenvalues --    1.78220   1.80506   1.80743   1.81949   1.84841
 Alpha virt. eigenvalues --    1.87489   1.89169   1.92614   1.94647   1.97623
 Alpha virt. eigenvalues --    1.98484   1.99881   2.01458   2.02615   2.04607
 Alpha virt. eigenvalues --    2.06533   2.08898   2.09545   2.10579   2.11460
 Alpha virt. eigenvalues --    2.14511   2.15307   2.16807   2.21236   2.24663
 Alpha virt. eigenvalues --    2.28289   2.29855   2.30313   2.30947   2.32606
 Alpha virt. eigenvalues --    2.37196   2.39058   2.45570   2.47247   2.51095
 Alpha virt. eigenvalues --    2.56430   2.59405   2.62033   2.63943   2.65056
 Alpha virt. eigenvalues --    2.67196   2.70683   2.74017   2.74670   2.75732
 Alpha virt. eigenvalues --    2.82340   2.88223   2.91873   2.95851   2.99924
 Alpha virt. eigenvalues --    3.12819   3.17561   3.27391   3.43670   3.94589
 Alpha virt. eigenvalues --    4.04155   4.07524   4.11912   4.12842   4.18359
 Alpha virt. eigenvalues --    4.24956   4.31709   4.33328   4.35883   4.44680
 Alpha virt. eigenvalues --    4.50610   4.81142
          Condensed to atoms (all electrons):
              1          2          3          4          5          6
     1  C    4.918311   0.226398  -0.026917  -0.009129   0.002808  -0.000039
     2  O    0.226398   8.151803   0.305387  -0.071010  -0.074539   0.000833
     3  C   -0.026917   0.305387   4.144673   0.521463   0.290149  -0.015154
     4  O   -0.009129  -0.071010   0.521463   8.063758  -0.065814  -0.001707
     5  O    0.002808  -0.074539   0.290149  -0.065814   8.274090   0.199815
     6  C   -0.000039   0.000833  -0.015154  -0.001707   0.199815   4.553509
     7  C    0.000002  -0.000087   0.000672   0.000171  -0.047700   0.549131
     8  C   -0.000000   0.000001  -0.000028   0.000001   0.003435  -0.019613
     9  C   -0.000000   0.000000   0.000019   0.000002   0.000133  -0.036900
    10  C   -0.000000   0.000000   0.000265  -0.000055   0.003488  -0.013033
    11  C    0.000009   0.000058  -0.003290   0.001063  -0.047356   0.507182
    12  O   -0.000000   0.000000  -0.000000   0.000000   0.000000   0.000157
    13  C    0.000000  -0.000000  -0.000000  -0.000000  -0.000000   0.000008
    14  H    0.378670  -0.034427   0.002884   0.000407  -0.000004   0.000001
    15  H    0.379833  -0.036094   0.000158   0.000484  -0.000044  -0.000001
    16  H    0.361216  -0.026097  -0.009354   0.019990   0.000176   0.000020
    17  H    0.000000  -0.000015   0.000100   0.000015  -0.000689  -0.035304
    18  H    0.000000  -0.000000   0.000000  -0.000000  -0.000057   0.003790
    19  H    0.000000  -0.000000  -0.000012  -0.000003  -0.000042   0.003675
    20  H    0.000014  -0.000067   0.001539   0.008060  -0.006259  -0.035079
    21  H    0.000000  -0.000000  -0.000000   0.000000  -0.000000  -0.000000
    22  H    0.000000   0.000000  -0.000000   0.000000   0.000000  -0.000017
    23  H   -0.000000  -0.000000   0.000000  -0.000000   0.000000  -0.000000
              7          8          9         10         11         12
     1  C    0.000002  -0.000000  -0.000000  -0.000000   0.000009  -0.000000
     2  O   -0.000087   0.000001   0.000000   0.000000   0.000058   0.000000
     3  C    0.000672  -0.000028   0.000019   0.000265  -0.003290  -0.000000
     4  O    0.000171   0.000001   0.000002  -0.000055   0.001063   0.000000
     5  O   -0.047700   0.003435   0.000133   0.003488  -0.047356   0.000000
     6  C    0.549131  -0.019613  -0.036900  -0.013033   0.507182   0.000157
     7  C    4.973913   0.483456  -0.005336  -0.034969  -0.065221   0.003721
     8  C    0.483456   5.092362   0.471760  -0.067060  -0.036261  -0.060396
     9  C   -0.005336   0.471760   4.515118   0.542466  -0.017701   0.273078
    10  C   -0.034969  -0.067060   0.542466   5.004779   0.489417  -0.056007
    11  C   -0.065221  -0.036261  -0.017701   0.489417   4.989093   0.003577
    12  O    0.003721  -0.060396   0.273078  -0.056007   0.003577   8.207656
    13  C    0.000240  -0.006640  -0.043120   0.003508  -0.000158   0.248884
    14  H   -0.000000   0.000000   0.000000  -0.000000  -0.000000   0.000000
    15  H    0.000000  -0.000000  -0.000000   0.000000   0.000001  -0.000000
    16  H    0.000000  -0.000000   0.000000  -0.000000  -0.000008  -0.000000
    17  H    0.347626  -0.037657   0.003311   0.000235   0.006507  -0.000043
    18  H   -0.037353   0.353805  -0.043724   0.004893   0.000401  -0.006684
    19  H    0.000181   0.007212  -0.035000   0.347009  -0.038874  -0.000162
    20  H    0.005523   0.000159   0.003953  -0.037069   0.352105  -0.000055
    21  H    0.000003   0.000155   0.003574  -0.000104   0.000003  -0.031230
    22  H   -0.000205   0.005486  -0.001947   0.000836  -0.000030  -0.036690
    23  H   -0.000139   0.002838  -0.006679  -0.000219   0.000015  -0.036233
             13         14         15         16         17         18
     1  C    0.000000   0.378670   0.379833   0.361216   0.000000   0.000000
     2  O   -0.000000  -0.034427  -0.036094  -0.026097  -0.000015  -0.000000
     3  C   -0.000000   0.002884   0.000158  -0.009354   0.000100   0.000000
     4  O   -0.000000   0.000407   0.000484   0.019990   0.000015  -0.000000
     5  O   -0.000000  -0.000004  -0.000044   0.000176  -0.000689  -0.000057
     6  C    0.000008   0.000001  -0.000001   0.000020  -0.035304   0.003790
     7  C    0.000240  -0.000000   0.000000   0.000000   0.347626  -0.037353
     8  C   -0.006640   0.000000  -0.000000  -0.000000  -0.037657   0.353805
     9  C   -0.043120   0.000000  -0.000000   0.000000   0.003311  -0.043724
    10  C    0.003508  -0.000000   0.000000  -0.000000   0.000235   0.004893
    11  C   -0.000158  -0.000000   0.000001  -0.000008   0.006507   0.000401
    12  O    0.248884   0.000000  -0.000000  -0.000000  -0.000043  -0.006684
    13  C    4.899113   0.000000  -0.000000   0.000000  -0.000006   0.004589
    14  H    0.000000   0.550902  -0.038605  -0.029021  -0.000000  -0.000000
    15  H   -0.000000  -0.038605   0.557982  -0.030949  -0.000000   0.000000
    16  H    0.000000  -0.029021  -0.030949   0.521439  -0.000000   0.000000
    17  H   -0.000006  -0.000000  -0.000000  -0.000000   0.575042  -0.006158
    18  H    0.004589  -0.000000   0.000000   0.000000  -0.006158   0.586167
    19  H   -0.000174  -0.000000  -0.000000  -0.000000   0.000013  -0.000165
    20  H    0.000003  -0.000000   0.000001  -0.000005  -0.000150   0.000011
    21  H    0.382785  -0.000000   0.000000  -0.000000  -0.000000  -0.000132
    22  H    0.362187  -0.000000   0.000000  -0.000000  -0.000000   0.000993
    23  H    0.366597   0.000000  -0.000000   0.000000   0.000005   0.002682
             19         20         21         22         23
     1  C    0.000000   0.000014   0.000000   0.000000  -0.000000
     2  O   -0.000000  -0.000067  -0.000000   0.000000  -0.000000
     3  C   -0.000012   0.001539  -0.000000  -0.000000   0.000000
     4  O   -0.000003   0.008060   0.000000   0.000000  -0.000000
     5  O   -0.000042  -0.006259  -0.000000   0.000000   0.000000
     6  C    0.003675  -0.035079  -0.000000  -0.000017  -0.000000
     7  C    0.000181   0.005523   0.000003  -0.000205  -0.000139
     8  C    0.007212   0.000159   0.000155   0.005486   0.002838
     9  C   -0.035000   0.003953   0.003574  -0.001947  -0.006679
    10  C    0.347009  -0.037069  -0.000104   0.000836  -0.000219
    11  C   -0.038874   0.352105   0.000003  -0.000030   0.000015
    12  O   -0.000162  -0.000055  -0.031230  -0.036690  -0.036233
    13  C   -0.000174   0.000003   0.382785   0.362187   0.366597
    14  H   -0.000000  -0.000000  -0.000000  -0.000000   0.000000
    15  H   -0.000000   0.000001   0.000000   0.000000  -0.000000
    16  H   -0.000000  -0.000005  -0.000000  -0.000000   0.000000
    17  H    0.000013  -0.000150  -0.000000  -0.000000   0.000005
    18  H   -0.000165   0.000011  -0.000132   0.000993   0.002682
    19  H    0.576858  -0.006139  -0.000034   0.000037   0.000028
    20  H   -0.006139   0.552064  -0.000000   0.000000  -0.000000
    21  H   -0.000034  -0.000000   0.544951  -0.030995  -0.036569
    22  H    0.000037   0.000000  -0.030995   0.592433  -0.046026
    23  H    0.000028  -0.000000  -0.036569  -0.046026   0.602958
 Mulliken atomic charges:
              1
     1  C   -0.231176
     2  O   -0.442143
     3  C    0.787446
     4  O   -0.467696
     5  O   -0.531589
     6  C    0.338726
     7  C   -0.173630
     8  C   -0.193012
     9  C    0.376993
    10  C   -0.188379
    11  C   -0.140532
    12  O   -0.509573
    13  C   -0.217816
    14  H    0.169192
    15  H    0.167234
    16  H    0.192590
    17  H    0.147167
    18  H    0.136942
    19  H    0.145591
    20  H    0.161390
    21  H    0.167593
    22  H    0.153938
    23  H    0.150742
 Sum of Mulliken atomic charges =  -0.00000
 Mulliken charges with hydrogens summed into heavy atoms:
              1
     1  C    0.297840
     2  O   -0.442143
     3  C    0.787446
     4  O   -0.467696
     5  O   -0.531589
     6  C    0.338726
     7  C   -0.026463
     8  C   -0.056071
     9  C    0.376993
    10  C   -0.042789
    11  C    0.020858
    12  O   -0.509573
    13  C    0.254458
 Sum of Mulliken charges with hydrogens summed into heavy atoms =  -0.00000
 Electronic spatial extent (au):  <R**2>=           3593.1854
 Charge=             -0.0000 electrons
 Dipole moment (field-independent basis, Debye):
    X=              0.3275    Y=             -1.3187    Z=             -0.2616  Tot=              1.3837
 Quadrupole moment (field-independent basis, Debye-Ang):
   XX=            -51.2665   YY=            -74.0890   ZZ=            -76.2282
   XY=             -5.4235   XZ=             -1.6044   YZ=             -4.2014
 Traceless Quadrupole moment (field-independent basis, Debye-Ang):
   XX=             15.9281   YY=             -6.8944   ZZ=             -9.0337
   XY=             -5.4235   XZ=             -1.6044   YZ=             -4.2014
 Octapole moment (field-independent basis, Debye-Ang**2):
  XXX=            -46.9573  YYY=             -0.8918  ZZZ=              1.0537  XYY=              5.0906
  XXY=            -16.5200  XXZ=              5.4816  XZZ=             -9.7780  YZZ=              0.5141
  YYZ=             -0.7287  XYZ=              3.2076
 Hexadecapole moment (field-independent basis, Debye-Ang**3):
 XXXX=          -3112.5794 YYYY=           -393.2956 ZZZZ=           -123.1660 XXXY=            -94.7027
 XXXZ=            -50.7034 YYYX=             13.7849 YYYZ=             -7.3881 ZZZX=              2.4201
 ZZZY=              4.7880 XXYY=           -763.0497 XXZZ=           -685.6448 YYZZ=            -92.2436
 XXYZ=            -26.9348 YYXZ=              2.9752 ZZXY=             -0.2137
 N-N= 7.619736233520D+02 E-N=-3.041132440350D+03  KE= 6.437912231521D+02
 No NMR shielding tensors so no spin-rotation constants.
 Leave Link  601 at Thu Sep 30 00:02:57 2021, MaxMem=  805306368 cpu:       0.9
 (Enter /sw/target/amd/app/gaussian/Gaussian09RevA.02_gcc-4.9.2/g09/l701.exe)
 Compute integral first derivatives.
 ... and contract with generalized density number  0.
 Leave Link  701 at Thu Sep 30 00:02:59 2021, MaxMem=  805306368 cpu:       0.9
 (Enter /sw/target/amd/app/gaussian/Gaussian09RevA.02_gcc-4.9.2/g09/l702.exe)
 L702 exits ... SP integral derivatives will be done elsewhere.
 Leave Link  702 at Thu Sep 30 00:02:59 2021, MaxMem=  805306368 cpu:       0.1
 (Enter /sw/target/amd/app/gaussian/Gaussian09RevA.02_gcc-4.9.2/g09/l703.exe)
 Compute integral first derivatives, UseDBF=F ICtDFT=           0.
 Integral derivatives from FoFDir, PRISM(SPDF).
 Calling FoFJK, ICntrl=      2127 FMM=F ISym2X=0 I1Cent= 0 IOpClX= 0 NMat=1 NMatS=1 NMatT=0.
 FoFCou: FMM=F IPFlag=           0 FMFlag=      100000 FMFlg1=         800
         NFxFlg=           0 DoJE=F BraDBF=F KetDBF=F FulRan=T
         Omega=  0.000000  0.000000  1.000000  0.000000  0.000000 ICntrl=    2127 IOpCl=  0
         NMat0=    1 NMatS0=    1 NMatT0=    0 NMatD0=    1 NMtDS0=    0 NMtDT0=    0
         I1Cent=           0 NGrid=           0.
 Symmetry not used in FoFCou.
 Leave Link  703 at Thu Sep 30 00:04:20 2021, MaxMem=  805306368 cpu:      56.3
 (Enter /sw/target/amd/app/gaussian/Gaussian09RevA.02_gcc-4.9.2/g09/l716.exe)
 Dipole        = 1.28859508D-01-5.18802853D-01-1.02934534D-01
 ***** Axes restored to original set *****
 -------------------------------------------------------------------
 Center     Atomic                   Forces (Hartrees/Bohr)
 Number     Number              X              Y              Z
 -------------------------------------------------------------------
      1        6          -0.005442740    0.006466815   -0.008765198
      2        8           0.012797296   -0.000596780    0.019677829
      3        6           0.004507192    0.004964054    0.007567363
      4        8          -0.008209357   -0.023522758    0.000396434
      5        8          -0.006197067    0.017024103   -0.017977490
      6        6          -0.006699550   -0.001119824   -0.002115662
      7        6           0.001511095    0.002968211   -0.001083737
      8        6          -0.004032456   -0.003236595   -0.002321995
      9        6           0.004670030    0.007221905   -0.002252318
     10        6          -0.004629923   -0.000976698   -0.008368416
     11        6           0.007987358    0.004675532    0.002054405
     12        8           0.000527913   -0.006465910    0.003883127
     13        6           0.004839565    0.003091099    0.004640017
     14        1           0.000249892   -0.003939432    0.001628141
     15        1           0.001394897    0.000289234   -0.000245987
     16        1           0.004174003   -0.004325781    0.003455909
     17        1           0.000345851    0.001405668   -0.001478878
     18        1           0.001684330   -0.000771532    0.000722713
     19        1           0.000195026   -0.001515316    0.001661364
     20        1          -0.003370248   -0.000858009    0.001720793
     21        1          -0.000101975    0.003398889   -0.002608770
     22        1          -0.003646257   -0.001434720   -0.000567375
     23        1          -0.002554876   -0.002742156    0.000377731
 -------------------------------------------------------------------
 Cartesian Forces:  Max     0.023522758 RMS     0.006240543
 Leave Link  716 at Thu Sep 30 00:04:21 2021, MaxMem=  805306368 cpu:       0.1
 (Enter /sw/target/amd/app/gaussian/Gaussian09RevA.02_gcc-4.9.2/g09/l103.exe)

 GradGradGradGradGradGradGradGradGradGradGradGradGradGradGradGradGradGrad
 Berny optimization.
 Internal  Forces:  Max     0.032030203 RMS     0.005364011
 Search for a local minimum.
 Step number   1 out of a maximum of  107
 All quantities printed in internal units (Hartrees-Bohrs-Radians)
 RMS Force = .53640D-02 SwitMx=.10000D-02 MixMth= 1
 Mixed Optimization -- RFO/linear search
 Second derivative matrix not updated -- first step.
     Eigenvalues ---    0.01322   0.01394   0.01598   0.01826   0.02024
     Eigenvalues ---    0.02076   0.02113   0.02116   0.02117   0.02121
     Eigenvalues ---    0.02125   0.02130   0.02134   0.02165   0.02180
     Eigenvalues ---    0.02226   0.09887   0.09963   0.10525   0.10545
     Eigenvalues ---    0.15997   0.15999   0.15999   0.16000   0.16000
     Eigenvalues ---    0.16000   0.16000   0.16000   0.16000   0.16000
     Eigenvalues ---    0.21994   0.22981   0.23989   0.24962   0.24991
     Eigenvalues ---    0.24999   0.25000   0.25000   0.25000   0.25000
     Eigenvalues ---    0.34178   0.34249   0.34372   0.34384   0.34404
     Eigenvalues ---    0.34420   0.35217   0.35274   0.35307   0.35580
     Eigenvalues ---    0.41287   0.41772   0.42082   0.42461   0.44468
     Eigenvalues ---    0.45916   0.46027   0.46269   0.46882   0.47339
     Eigenvalues ---    0.51334   0.53030   0.951641000.000001000.00000
     Eigenvalues --- 1000.000001000.000001000.000001000.000001000.00000
     Eigenvalues --- 1000.000001000.000001000.000001000.000001000.00000
     Eigenvalues --- 1000.000001000.000001000.000001000.000001000.00000
     Eigenvalues --- 1000.000001000.000001000.000001000.000001000.00000
     Eigenvalues --- 1000.000001000.000001000.000001000.000001000.00000
     Eigenvalues --- 1000.000001000.000001000.000001000.000001000.00000
     Eigenvalues --- 1000.000001000.00000
 RFO step:  Lambda=-8.07150116D-03 EMin= 1.32219729D-02
 Linear search not attempted -- first point.
 Iteration  1 RMS(Cart)=  0.07757010 RMS(Int)=  0.00286448
 Iteration  2 RMS(Cart)=  0.00600750 RMS(Int)=  0.00026559
 Iteration  3 RMS(Cart)=  0.00001784 RMS(Int)=  0.00026546
 Iteration  4 RMS(Cart)=  0.00000000 RMS(Int)=  0.00026546
 Variable       Old X    -DE/DX   Delta X   Delta X   Delta X     New X
                                 (Linear)    (Quad)   (Total)
    R1        2.69841   0.00137   0.00000   0.00324   0.00324   2.70166
    R2        2.06654  -0.00012   0.00000  -0.00033  -0.00033   2.06621
    R3        2.06627   0.00072   0.00000   0.00203   0.00203   2.06830
    R4        2.06707  -0.00210   0.00000  -0.00598  -0.00598   2.06109
    R5        2.56925  -0.01897   0.00000  -0.03523  -0.03523   2.53403
    R6        2.30640  -0.02475   0.00000  -0.02579  -0.02579   2.28061
    R7        2.62650  -0.03203   0.00000  -0.06653  -0.06653   2.55997
    R8        2.65899  -0.00617   0.00000  -0.01363  -0.01363   2.64536
    R9        2.63787  -0.00522   0.00000  -0.01143  -0.01141   2.62646
   R10        2.62848   0.00302   0.00000   0.00612   0.00612   2.63460
   R11        2.64367  -0.00196   0.00000  -0.00437  -0.00435   2.63932
   R12        2.05324  -0.00106   0.00000  -0.00295  -0.00295   2.05030
   R13        2.63751   0.00254   0.00000   0.00556   0.00556   2.64307
   R14        2.04744   0.00045   0.00000   0.00125   0.00125   2.04868
   R15        2.64309   0.00217   0.00000   0.00500   0.00498   2.64807
   R16        2.58543   0.00332   0.00000   0.00638   0.00638   2.59180
   R17        2.63992  -0.00387   0.00000  -0.00808  -0.00811   2.63181
   R18        2.05180  -0.00066   0.00000  -0.00184  -0.00184   2.04996
   R19        2.05232  -0.00283   0.00000  -0.00783  -0.00783   2.04448
   R20        2.68819  -0.00042   0.00000  -0.00097  -0.00097   2.68722
   R21        2.06912  -0.00119   0.00000  -0.00340  -0.00340   2.06571
   R22        2.07031   0.00109   0.00000   0.00311   0.00311   2.07342
   R23        2.06687   0.00228   0.00000   0.00647   0.00647   2.07333
    A1        1.88431  -0.00358   0.00000  -0.01897  -0.01923   1.86508
    A2        1.89725   0.00162   0.00000   0.00906   0.00889   1.90614
    A3        1.98568  -0.00862   0.00000  -0.05318  -0.05351   1.93217
    A4        1.89445   0.00258   0.00000   0.01942   0.01936   1.91381
    A5        1.88625   0.00648   0.00000   0.03934   0.03891   1.92515
    A6        1.91385   0.00190   0.00000   0.00704   0.00678   1.92063
    A7        2.02743  -0.00029   0.00000  -0.00111  -0.00111   2.02632
    A8        2.19193   0.00900   0.00000   0.03526   0.03391   2.22584
    A9        1.87702  -0.01154   0.00000  -0.04432  -0.04565   1.83136
   A10        2.21413   0.00257   0.00000   0.01035   0.00904   2.22318
   A11        2.10274  -0.00454   0.00000  -0.01761  -0.01761   2.08513
   A12        2.02345  -0.00266   0.00000  -0.01022  -0.01028   2.01317
   A13        2.15387   0.00159   0.00000   0.00626   0.00618   2.16005
   A14        2.10456   0.00104   0.00000   0.00287   0.00276   2.10732
   A15        2.09280   0.00090   0.00000   0.00302   0.00300   2.09579
   A16        2.09724  -0.00219   0.00000  -0.01186  -0.01188   2.08535
   A17        2.09312   0.00130   0.00000   0.00894   0.00892   2.10204
   A18        2.09241  -0.00026   0.00000  -0.00096  -0.00099   2.09141
   A19        2.06479   0.00167   0.00000   0.00973   0.00971   2.07451
   A20        2.12584  -0.00140   0.00000  -0.00858  -0.00860   2.11724
   A21        2.08854  -0.00141   0.00000  -0.00436  -0.00441   2.08413
   A22        2.18713  -0.00377   0.00000  -0.01514  -0.01511   2.17202
   A23        2.00720   0.00518   0.00000   0.01954   0.01957   2.02676
   A24        2.10542   0.00064   0.00000   0.00406   0.00395   2.10937
   A25        2.08838  -0.00237   0.00000  -0.01417  -0.01414   2.07423
   A26        2.08933   0.00173   0.00000   0.01023   0.01026   2.09958
   A27        2.08203  -0.00087   0.00000  -0.00366  -0.00375   2.07828
   A28        2.12218  -0.00190   0.00000  -0.01204  -0.01202   2.11016
   A29        2.07897   0.00277   0.00000   0.01575   0.01577   2.09473
   A30        2.02195   0.00838   0.00000   0.03247   0.03247   2.05442
   A31        1.87909  -0.00549   0.00000  -0.03026  -0.03020   1.84890
   A32        1.93932   0.00051   0.00000   0.00202   0.00205   1.94137
   A33        1.94415   0.00243   0.00000   0.01292   0.01297   1.95712
   A34        1.88163   0.00366   0.00000   0.02479   0.02483   1.90645
   A35        1.87667   0.00229   0.00000   0.01542   0.01551   1.89218
   A36        1.93972  -0.00335   0.00000  -0.02415  -0.02412   1.91560
    D1       -2.36657   0.00028   0.00000  -0.00868  -0.00898  -2.37554
    D2        1.86474  -0.00169   0.00000  -0.02619  -0.02604   1.83871
    D3       -0.27312   0.00054   0.00000  -0.00567  -0.00552  -0.27864
    D4       -0.02826  -0.00035   0.00000  -0.01496  -0.01533  -0.04359
    D5        3.09863   0.00218   0.00000   0.07528   0.07565  -3.10891
    D6       -3.08218  -0.00208   0.00000  -0.07495  -0.07449   3.12651
    D7        0.04447   0.00055   0.00000   0.01703   0.01657   0.06104
    D8        2.46610  -0.00017   0.00000  -0.00896  -0.00899   2.45711
    D9       -0.73028  -0.00081   0.00000  -0.03196  -0.03192  -0.76220
   D10        3.11476  -0.00105   0.00000  -0.03694  -0.03681   3.07795
   D11       -0.03602  -0.00069   0.00000  -0.02493  -0.02487  -0.06090
   D12        0.02630  -0.00046   0.00000  -0.01476  -0.01476   0.01153
   D13       -3.12449  -0.00010   0.00000  -0.00275  -0.00283  -3.12732
   D14       -3.12185   0.00154   0.00000   0.05039   0.05043  -3.07142
   D15        0.02550   0.00119   0.00000   0.03903   0.03919   0.06468
   D16       -0.03750   0.00077   0.00000   0.02598   0.02593  -0.01156
   D17        3.10985   0.00042   0.00000   0.01462   0.01469   3.12454
   D18       -0.01160   0.00026   0.00000   0.00808   0.00809  -0.00351
   D19        3.11193   0.00056   0.00000   0.01902   0.01912   3.13105
   D20        3.13916  -0.00009   0.00000  -0.00379  -0.00385   3.13532
   D21       -0.02049   0.00022   0.00000   0.00714   0.00718  -0.01331
   D22        0.00859  -0.00039   0.00000  -0.01285  -0.01281  -0.00422
   D23        3.12203  -0.00028   0.00000  -0.01079  -0.01075   3.11128
   D24       -3.11429  -0.00074   0.00000  -0.02438  -0.02431  -3.13860
   D25       -0.00085  -0.00063   0.00000  -0.02232  -0.02225  -0.02310
   D26       -0.02019   0.00068   0.00000   0.02426   0.02431   0.00412
   D27        3.13327   0.00031   0.00000   0.01212   0.01227  -3.13765
   D28       -3.13644   0.00071   0.00000   0.02291   0.02293  -3.11351
   D29        0.01702   0.00034   0.00000   0.01078   0.01089   0.02791
   D30        0.46177  -0.00303   0.00000  -0.10432  -0.10433   0.35744
   D31       -2.70682  -0.00301   0.00000  -0.10267  -0.10266  -2.80948
   D32        0.03449  -0.00091   0.00000  -0.03079  -0.03078   0.00371
   D33       -3.11272  -0.00058   0.00000  -0.01981  -0.01973  -3.13245
   D34       -3.11898  -0.00056   0.00000  -0.01882  -0.01873  -3.13771
   D35        0.01700  -0.00024   0.00000  -0.00783  -0.00768   0.00933
   D36        2.99601  -0.00033   0.00000  -0.02228  -0.02224   2.97377
   D37        0.93925  -0.00173   0.00000  -0.03514  -0.03514   0.90412
   D38       -1.23371   0.00047   0.00000  -0.01470  -0.01475  -1.24846
         Item               Value     Threshold  Converged?
 Maximum Force            0.032030     0.000450     NO 
 RMS     Force            0.005364     0.000300     NO 
 Maximum Displacement     0.259222     0.001800     NO 
 RMS     Displacement     0.078830     0.001200     NO 
 Predicted change in Energy=-4.319896D-03
 GradGradGradGradGradGradGradGradGradGradGradGradGradGradGradGradGradGrad

 Leave Link  103 at Thu Sep 30 00:04:27 2021, MaxMem=  805306368 cpu:       2.9
 (Enter /sw/target/amd/app/gaussian/Gaussian09RevA.02_gcc-4.9.2/g09/l202.exe)
                          Input orientation:                          
 ---------------------------------------------------------------------
 Center     Atomic      Atomic             Coordinates (Angstroms)
 Number     Number       Type             X           Y           Z
 ---------------------------------------------------------------------
      1          6           0        3.012996    2.143336   -1.162241
      2          8           0        3.433009    1.190162   -0.182973
      3          6           0        4.285525    1.639145    0.749643
      4          8           0        4.770112    2.741269    0.833189
      5          8           0        4.560954    0.559132    1.519624
      6          6           0        5.450882    0.687224    2.592585
      7          6           0        5.101952   -0.012318    3.741765
      8          6           0        5.957320   -0.016048    4.845855
      9          6           0        7.167780    0.682492    4.790510
     10          6           0        7.509663    1.375296    3.621419
     11          6           0        6.658372    1.380261    2.519205
     12          8           0        8.060707    0.770736    5.827801
     13          6           0        7.983271   -0.212312    6.852372
     14          1           0        1.934650    2.014059   -1.288573
     15          1           0        3.522019    1.935578   -2.108632
     16          1           0        3.236388    3.158751   -0.832670
     17          1           0        4.163288   -0.555610    3.771834
     18          1           0        5.660979   -0.560049    5.735548
     19          1           0        8.452376    1.910922    3.587221
     20          1           0        6.939731    1.912668    1.620386
     21          1           0        8.871582   -0.069356    7.473177
     22          1           0        7.995212   -1.225849    6.432298
     23          1           0        7.095039   -0.082789    7.483268
 ---------------------------------------------------------------------
                    Distance matrix (angstroms):
                    1          2          3          4          5
     1  C    0.000000
     2  O    1.429656   0.000000
     3  C    2.351348   1.340949   0.000000
     4  O    2.725201   2.286125   1.206848   0.000000
     5  O    3.478257   2.137591   1.354680   2.297098   0.000000
     6  C    4.707681   3.468210   2.379211   2.788910   1.399866
     7  C    5.749769   4.431128   3.513784   4.018976   2.357360
     8  C    7.030590   5.754668   4.723718   5.011361   3.653011
     9  C    7.404832   6.240335   5.054818   5.064361   4.184430
    10  C    6.610090   5.579138   4.325711   4.140681   3.711947
    11  C    5.236802   4.211992   2.971325   2.874111   2.464260
    12  O    8.730641   7.597428   6.387004   6.297393   5.554587
    13  C    9.720428   8.495169   7.371873   7.434957   6.383227
    14  H    1.093391   2.036231   3.133927   3.615322   4.110991
    15  H    1.094497   2.066816   2.973306   3.295631   4.017241
    16  H    1.090683   2.082333   2.431790   2.302540   3.747770
    17  H    5.740433   4.384236   3.737048   4.457945   2.544256
    18  H    7.867629   6.561706   5.620283   5.977078   4.498515
    19  H    7.224836   6.318853   5.048599   4.672604   4.609280
    20  H    4.818242   4.008892   2.806744   2.452244   2.738757
    21  H   10.667215   9.475289   8.316057   8.295246   7.377080
    22  H    9.687668   8.391223   7.366311   7.582171   6.254171
    23  H    9.816493   8.590816   7.496675   7.589739   6.511429
                    6          7          8          9         10
     6  C    0.000000
     7  C    1.389865   0.000000
     8  C    2.414187   1.396669   0.000000
     9  C    2.789020   2.418734   1.398654   0.000000
    10  C    2.402190   2.781552   2.417612   1.401298   0.000000
    11  C    1.394172   2.419995   2.802579   2.430063   1.392694
    12  O    4.157497   3.703911   2.451017   1.371524   2.353139
    13  C    5.036660   4.244747   2.858165   2.391019   3.630959
    14  H    5.402570   6.280310   7.611466   8.131049   7.456326
    15  H    5.232622   6.365345   7.622625   7.903161   7.003477
    16  H    4.769151   5.870388   7.051841   7.294371   6.424990
    17  H    2.143166   1.084970   2.159445   3.405520   3.866425
    18  H    3.387927   2.141890   1.084117   2.169667   3.410680
    19  H    3.390531   3.866275   3.394507   2.146423   1.084792
    20  H    2.159526   3.403418   3.884421   3.408083   2.148889
    21  H    6.007810   5.304414   3.924103   3.265719   4.333346
    22  H    4.987671   4.133109   2.851916   2.649883   3.860409
    23  H    5.216795   4.239836   2.873118   2.800338   4.148711
                   11         12         13         14         15
    11  C    0.000000
    12  O    3.644842   0.000000
    13  C    4.802914   1.422014   0.000000
    14  H    6.100362   9.471916  10.383522   0.000000
    15  H    5.618003   9.216480  10.237958   1.788406   0.000000
    16  H    5.109605   8.563792   9.641412   1.792398   1.790479
    17  H    3.397369   4.601746   4.919333   6.097355   6.418497
    18  H    3.886446   2.745577   2.600242   8.357621   8.504967
    19  H    2.154230   2.544333   3.922932   8.140316   7.533376
    20  H    1.081895   4.501438   5.742664   5.789918   5.058344
    21  H    5.616184   2.017557   1.093129  11.367933  11.155655
    22  H    4.887868   2.087118   1.097206  10.336308  10.146504
    23  H    5.193565   2.097997   1.097161  10.390937  10.432872
                   16         17         18         19         20
    16  H    0.000000
    17  H    5.988078   0.000000
    18  H    7.927774   2.469671   0.000000
    19  H    6.949751   4.951175   4.302663   0.000000
    20  H    4.613562   4.292989   4.968309   2.481237   0.000000
    21  H   10.543395   6.008695   3.683491   4.381540   6.474228
    22  H    9.728869   4.712848   2.525351   4.259437   5.841133
    23  H    9.723765   4.753259   2.310591   4.582186   6.195108
                   21         22         23
    21  H    0.000000
    22  H    1.785757   0.000000
    23  H    1.776622   1.794836   0.000000
 Stoichiometry    C9H10O4
 Framework group  C1[X(C9H10O4)]
 Deg. of freedom    63
 Full point group                 C1      NOp   1
 Largest Abelian subgroup         C1      NOp   1
 Largest concise Abelian subgroup C1      NOp   1
                         Standard orientation:                         
 ---------------------------------------------------------------------
 Center     Atomic      Atomic             Coordinates (Angstroms)
 Number     Number       Type             X           Y           Z
 ---------------------------------------------------------------------
      1          6           0       -4.882962    0.039033    0.118107
      2          8           0       -3.655948   -0.599126   -0.243978
      3          6           0       -2.531714    0.046863    0.097984
      4          8           0       -2.436806    1.121973    0.637996
      5          8           0       -1.526507   -0.723487   -0.382931
      6          6           0       -0.199723   -0.313516   -0.206309
      7          6           0        0.701812   -1.328258    0.092455
      8          6           0        2.063406   -1.041736    0.213499
      9          6           0        2.517789    0.268142    0.029134
     10          6           0        1.597613    1.278511   -0.280808
     11          6           0        0.239474    0.995094   -0.402169
     12          8           0        3.825389    0.661172    0.158700
     13          6           0        4.829876   -0.340414    0.058916
     14          1           0       -5.535497   -0.737156    0.527047
     15          1           0       -5.341563    0.471781   -0.776509
     16          1           0       -4.708038    0.817097    0.862155
     17          1           0        0.339278   -2.341882    0.227708
     18          1           0        2.747878   -1.846475    0.456813
     19          1           0        1.960549    2.290495   -0.425513
     20          1           0       -0.458031    1.784038   -0.650266
     21          1           0        5.782618    0.193567    0.013315
     22          1           0        4.706283   -0.937639   -0.853174
     23          1           0        4.844081   -1.000396    0.935263
 ---------------------------------------------------------------------
 Rotational constants (GHZ):      3.3727795      0.3198598      0.2985726
 Leave Link  202 at Thu Sep 30 00:04:27 2021, MaxMem=  805306368 cpu:       0.0
 (Enter /sw/target/amd/app/gaussian/Gaussian09RevA.02_gcc-4.9.2/g09/l301.exe)
 Standard basis: 6-31G(d) (6D, 7F)
 Ernie: Thresh=  0.10000D-02 Tol=  0.10000D-05 Strict=F.
 There are   215 symmetry adapted basis functions of A   symmetry.
 Integral buffers will be    131072 words long.
 Raffenetti 2 integral format.
 Two-electron integral symmetry is turned on.
   215 basis functions,   404 primitive gaussians,   215 cartesian basis functions
    48 alpha electrons       48 beta electrons
       nuclear repulsion energy       766.1174838175 Hartrees.
 IExCor=  402 DFT=T Ex+Corr=B3LYP ExCW=0 ScaHFX=  0.200000
 ScaDFX=  0.800000  0.720000  1.000000  0.810000 ScalE2=  1.000000  1.000000
 IRadAn=      0 IRanWt=     -1 IRanGd=            0 ICorTp=0
 NAtoms=   23 NActive=   23 NUniq=   23 SFac= 7.50D-01 NAtFMM=   80 NAOKFM=F Big=F
 Leave Link  301 at Thu Sep 30 00:04:27 2021, MaxMem=  805306368 cpu:       0.1
 (Enter /sw/target/amd/app/gaussian/Gaussian09RevA.02_gcc-4.9.2/g09/l302.exe)
 NPDir=0 NMtPBC=     1 NCelOv=     1 NCel=       1 NClECP=     1 NCelD=      1
         NCelK=      1 NCelE2=     1 NClLst=     1 CellRange=     0.0.
 One-electron integrals computed using PRISM.
 NBasis=   215 RedAO= T  NBF=   215
 NBsUse=   215 1.00D-06 NBFU=   215
 Precomputing XC quadrature grid using
 IXCGrd= 2 IRadAn=           0 IRanWt=          -1 IRanGd=           0 AccXCQ= 1.00D-10.
 NRdTot=    1463 NPtTot=      186570 NUsed=      197123 NTot=      197155
 NSgBfM=   213   213   213   213   213 NAtAll=    23    23.
 Leave Link  302 at Thu Sep 30 00:04:30 2021, MaxMem=  805306368 cpu:       1.4
 (Enter /sw/target/amd/app/gaussian/Gaussian09RevA.02_gcc-4.9.2/g09/l303.exe)
 DipDrv:  MaxL=1.
 Leave Link  303 at Thu Sep 30 00:04:30 2021, MaxMem=  805306368 cpu:       0.1
 (Enter /sw/target/amd/app/gaussian/Gaussian09RevA.02_gcc-4.9.2/g09/l401.exe)
 Initial guess read from the read-write file.
 B after Tr=     0.000000    0.000000    0.000000
         Rot=    1.000000    0.000000    0.000000    0.000000 Ang=   0.00 deg.
 Guess basis will be translated and rotated to current coordinates.
 Initial guess orbital symmetries:
       Occupied  (A) (A) (A) (A) (A) (A) (A) (A) (A) (A) (A) (A)
                 (A) (A) (A) (A) (A) (A) (A) (A) (A) (A) (A) (A)
                 (A) (A) (A) (A) (A) (A) (A) (A) (A) (A) (A) (A)
                 (A) (A) (A) (A) (A) (A) (A) (A) (A) (A) (A) (A)
       Virtual   (A) (A) (A) (A) (A) (A) (A) (A) (A) (A) (A) (A)
                 (A) (A) (A) (A) (A) (A) (A) (A) (A) (A) (A) (A)
                 (A) (A) (A) (A) (A) (A) (A) (A) (A) (A) (A) (A)
                 (A) (A) (A) (A) (A) (A) (A) (A) (A) (A) (A) (A)
                 (A) (A) (A) (A) (A) (A) (A) (A) (A) (A) (A) (A)
                 (A) (A) (A) (A) (A) (A) (A) (A) (A) (A) (A) (A)
                 (A) (A) (A) (A) (A) (A) (A) (A) (A) (A) (A) (A)
                 (A) (A) (A) (A) (A) (A) (A) (A) (A) (A) (A) (A)
[...]
     7  C   -0.197900
     8  C   -0.212950
     9  C    0.365481
    10  C   -0.210490
    11  C   -0.164628
    12  O   -0.445968
    13  C   -0.228415
    14  H    0.171725
    15  H    0.174330
    16  H    0.175310
    17  H    0.134561
    18  H    0.125030
    19  H    0.131676
    20  H    0.142747
    21  H    0.179786
    22  H    0.173234
    23  H    0.173883
 Sum of Mulliken atomic charges =  -0.00000
 Mulliken charges with hydrogens summed into heavy atoms:
              1
     1  C    0.303747
     2  O   -0.442669
     3  C    0.786188
     4  O   -0.466149
     5  O   -0.496122
     6  C    0.348958
     7  C   -0.063338
     8  C   -0.087920
     9  C    0.365481
    10  C   -0.078814
    11  C   -0.021881
    12  O   -0.445968
    13  C    0.298487
 Sum of Mulliken charges with hydrogens summed into heavy atoms =  -0.00000
 Electronic spatial extent (au):  <R**2>=           3534.6079
 Charge=             -0.0000 electrons
 Dipole moment (field-independent basis, Debye):
    X=              1.2836    Y=             -1.3467    Z=              0.3081  Tot=              1.8858
 Quadrupole moment (field-independent basis, Debye-Ang):
   XX=            -43.4429   YY=            -74.8948   ZZ=            -77.2211
   XY=             -5.0879   XZ=              1.9351   YZ=             -3.8912
 Traceless Quadrupole moment (field-independent basis, Debye-Ang):
   XX=             21.7434   YY=             -9.7085   ZZ=            -12.0349
   XY=             -5.0879   XZ=              1.9351   YZ=             -3.8912
 Octapole moment (field-independent basis, Debye-Ang**2):
  XXX=            -12.4043  YYY=              0.0114  ZZZ=              3.6081  XYY=              1.8427
  XXY=            -16.2814  XXZ=             17.9406  XZZ=             -6.0083  YZZ=             -0.7353
  YYZ=             -1.7559  XYZ=              5.4641
 Hexadecapole moment (field-independent basis, Debye-Ang**3):
 XXXX=          -2871.2880 YYYY=           -388.4300 ZZZZ=           -141.8784 XXXY=            -86.9765
 XXXZ=             21.5256 YYYX=              7.9160 YYYZ=             -5.4696 ZZZX=              2.1169
 ZZZY=              4.7179 XXYY=           -733.1340 XXZZ=           -675.9515 YYZZ=            -96.8442
 XXYZ=            -19.6096 YYXZ=              5.7471 ZZXY=              3.6002
 N-N= 7.664847671775D+02 E-N=-3.050131231799D+03  KE= 6.441649492511D+02
 No NMR shielding tensors so no spin-rotation constants.
 Leave Link  601 at Thu Sep 30 05:52:13 2021, MaxMem=  805306368 cpu:       0.9
 (Enter /sw/target/amd/app/gaussian/Gaussian09RevA.02_gcc-4.9.2/g09/l604.exe)
 Evaluate density.
 Using the total density.
 Monte-Carlo method of calculating molar volume:
 based on  0.001 e/bohr**3 density envelope.
 Number of points per bohr**3 =   20 CutOff= 1.00D-04
 Using the CI density.
 There are       403 points.  Will hold       403 in memory.
 LenV=   805171671 MDV=   805306368.
 Box volume = 8198.335 fraction occupied=0.196
 Integrated density= 1.1972782208021192D+02 error= 2.3727822080211922D+01
 Molar volume = 1607.118 bohr**3/mol (143.417 cm**3/mol)
 Recommended a0 for SCRF calculation =  4.73 angstrom (  8.94 bohr)
 Leave Link  604 at Thu Sep 30 05:52:15 2021, MaxMem=  805306368 cpu:       0.3
 (Enter /sw/target/amd/app/gaussian/Gaussian09RevA.02_gcc-4.9.2/g09/l607.exe)
 ******************************Gaussian NBO Version 3.1******************************
             N A T U R A L   A T O M I C   O R B I T A L   A N D
          N A T U R A L   B O N D   O R B I T A L   A N A L Y S I S
 ******************************Gaussian NBO Version 3.1******************************
       /RESON  / : Allow strongly delocalized NBO set

 Analyzing the CI density

 Job title: COC(=O)Oc1ccc(cc1)OC_conf_0                                     

 Storage needed:    140500 in NPA ( 805303493 available)


 NATURAL POPULATIONS:  Natural atomic orbital occupancies 
                                                          
   NAO  Atom  No  lang   Type(AO)    Occupancy
 --------------------------------------------
     1    C    1  S      Cor( 1S)     1.99942
     2    C    1  S      Val( 2S)     1.11189
     3    C    1  S      Ryd( 3S)     0.00135
     4    C    1  S      Ryd( 4S)     0.00003
     5    C    1  px     Val( 2p)     0.86896
     6    C    1  px     Ryd( 3p)     0.00245
     7    C    1  py     Val( 2p)     1.14677
     8    C    1  py     Ryd( 3p)     0.00222
     9    C    1  pz     Val( 2p)     1.17688
    10    C    1  pz     Ryd( 3p)     0.00123
    11    C    1  dxy    Ryd( 3d)     0.00157
    12    C    1  dxz    Ryd( 3d)     0.00118
    13    C    1  dyz    Ryd( 3d)     0.00067
    14    C    1  dx2y2  Ryd( 3d)     0.00136
    15    C    1  dz2    Ryd( 3d)     0.00151

    16    O    2  S      Cor( 1S)     1.99973
    17    O    2  S      Val( 2S)     1.62268
    18    O    2  S      Ryd( 3S)     0.00111
    19    O    2  S      Ryd( 4S)     0.00009
    20    O    2  px     Val( 2p)     1.37639
    21    O    2  px     Ryd( 3p)     0.00094
    22    O    2  py     Val( 2p)     1.75336
    23    O    2  py     Ryd( 3p)     0.00144
    24    O    2  pz     Val( 2p)     1.77549
    25    O    2  pz     Ryd( 3p)     0.00160
    26    O    2  dxy    Ryd( 3d)     0.00107
    27    O    2  dxz    Ryd( 3d)     0.00073
    28    O    2  dyz    Ryd( 3d)     0.00154
    29    O    2  dx2y2  Ryd( 3d)     0.00136
    30    O    2  dz2    Ryd( 3d)     0.00144

    31    C    3  S      Cor( 1S)     1.99953
    32    C    3  S      Val( 2S)     0.68685
    33    C    3  S      Ryd( 3S)     0.00194
    34    C    3  S      Ryd( 4S)     0.00041
    35    C    3  px     Val( 2p)     0.70426
    36    C    3  px     Ryd( 3p)     0.00612
    37    C    3  py     Val( 2p)     0.73922
    38    C    3  py     Ryd( 3p)     0.01898
    39    C    3  pz     Val( 2p)     0.77054
    40    C    3  pz     Ryd( 3p)     0.00991
    41    C    3  dxy    Ryd( 3d)     0.00429
    42    C    3  dxz    Ryd( 3d)     0.00350
    43    C    3  dyz    Ryd( 3d)     0.00122
    44    C    3  dx2y2  Ryd( 3d)     0.00272
    45    C    3  dz2    Ryd( 3d)     0.00233

    46    O    4  S      Cor( 1S)     1.99977
    47    O    4  S      Val( 2S)     1.71288
    48    O    4  S      Ryd( 3S)     0.00052
    49    O    4  S      Ryd( 4S)     0.00010
    50    O    4  px     Val( 2p)     1.81247
    51    O    4  px     Ryd( 3p)     0.00083
    52    O    4  py     Val( 2p)     1.54769
    53    O    4  py     Ryd( 3p)     0.00050
    54    O    4  pz     Val( 2p)     1.52668
    55    O    4  pz     Ryd( 3p)     0.00062
    56    O    4  dxy    Ryd( 3d)     0.00378
    57    O    4  dxz    Ryd( 3d)     0.00198
    58    O    4  dyz    Ryd( 3d)     0.00493
    59    O    4  dx2y2  Ryd( 3d)     0.00360
    60    O    4  dz2    Ryd( 3d)     0.00364

    61    O    5  S      Cor( 1S)     1.99967
    62    O    5  S      Val( 2S)     1.59592
    63    O    5  S      Ryd( 3S)     0.00085
    64    O    5  S      Ryd( 4S)     0.00008
    65    O    5  px     Val( 2p)     1.41025
    66    O    5  px     Ryd( 3p)     0.00100
    67    O    5  py     Val( 2p)     1.77345
    68    O    5  py     Ryd( 3p)     0.00222
    69    O    5  pz     Val( 2p)     1.71704
    70    O    5  pz     Ryd( 3p)     0.00133
    71    O    5  dxy    Ryd( 3d)     0.00111
    72    O    5  dxz    Ryd( 3d)     0.00079
    73    O    5  dyz    Ryd( 3d)     0.00141
    74    O    5  dx2y2  Ryd( 3d)     0.00121
    75    O    5  dz2    Ryd( 3d)     0.00143

    76    C    6  S      Cor( 1S)     1.99867
    77    C    6  S      Val( 2S)     0.84957
    78    C    6  S      Ryd( 3S)     0.00121
    79    C    6  S      Ryd( 4S)     0.00011
    80    C    6  px     Val( 2p)     0.74479
    81    C    6  px     Ryd( 3p)     0.00593
    82    C    6  py     Val( 2p)     1.07023
    83    C    6  py     Ryd( 3p)     0.00624
    84    C    6  pz     Val( 2p)     0.96326
    85    C    6  pz     Ryd( 3p)     0.00254
    86    C    6  dxy    Ryd( 3d)     0.00145
    87    C    6  dxz    Ryd( 3d)     0.00128
    88    C    6  dyz    Ryd( 3d)     0.00124
    89    C    6  dx2y2  Ryd( 3d)     0.00162
    90    C    6  dz2    Ryd( 3d)     0.00066

    91    C    7  S      Cor( 1S)     1.99904
    92    C    7  S      Val( 2S)     0.95763
    93    C    7  S      Ryd( 3S)     0.00091
    94    C    7  S      Ryd( 4S)     0.00005
    95    C    7  px     Val( 2p)     1.06698
    96    C    7  px     Ryd( 3p)     0.00547
    97    C    7  py     Val( 2p)     1.17853
    98    C    7  py     Ryd( 3p)     0.00467
    99    C    7  pz     Val( 2p)     1.09306
   100    C    7  pz     Ryd( 3p)     0.00651
   101    C    7  dxy    Ryd( 3d)     0.00078
   102    C    7  dxz    Ryd( 3d)     0.00062
   103    C    7  dyz    Ryd( 3d)     0.00044
   104    C    7  dx2y2  Ryd( 3d)     0.00057
   105    C    7  dz2    Ryd( 3d)     0.00048

   106    C    8  S      Cor( 1S)     1.99906
   107    C    8  S      Val( 2S)     0.95697
   108    C    8  S      Ryd( 3S)     0.00059
   109    C    8  S      Ryd( 4S)     0.00005
   110    C    8  px     Val( 2p)     1.11880
   111    C    8  px     Ryd( 3p)     0.00378
   112    C    8  py     Val( 2p)     1.12855
   113    C    8  py     Ryd( 3p)     0.00421
   114    C    8  pz     Val( 2p)     1.12007
   115    C    8  pz     Ryd( 3p)     0.00574
   116    C    8  dxy    Ryd( 3d)     0.00074
   117    C    8  dxz    Ryd( 3d)     0.00061
   118    C    8  dyz    Ryd( 3d)     0.00050
   119    C    8  dx2y2  Ryd( 3d)     0.00058
   120    C    8  dz2    Ryd( 3d)     0.00045

   121    C    9  S      Cor( 1S)     1.99879
   122    C    9  S      Val( 2S)     0.84258
   123    C    9  S      Ryd( 3S)     0.00154
   124    C    9  S      Ryd( 4S)     0.00012
   125    C    9  px     Val( 2p)     0.76394
   126    C    9  px     Ryd( 3p)     0.00598
   127    C    9  py     Val( 2p)     1.06611
   128    C    9  py     Ryd( 3p)     0.00675
   129    C    9  pz     Val( 2p)     0.97329
   130    C    9  pz     Ryd( 3p)     0.00185
   131    C    9  dxy    Ryd( 3d)     0.00154
   132    C    9  dxz    Ryd( 3d)     0.00158
   133    C    9  dyz    Ryd( 3d)     0.00133
   134    C    9  dx2y2  Ryd( 3d)     0.00164
   135    C    9  dz2    Ryd( 3d)     0.00066

   136    C   10  S      Cor( 1S)     1.99907
   137    C   10  S      Val( 2S)     0.95744
   138    C   10  S      Ryd( 3S)     0.00085
   139    C   10  S      Ryd( 4S)     0.00005
   140    C   10  px     Val( 2p)     1.06744
   141    C   10  px     Ryd( 3p)     0.00559
   142    C   10  py     Val( 2p)     1.16837
   143    C   10  py     Ryd( 3p)     0.00447
   144    C   10  pz     Val( 2p)     1.10290
   145    C   10  pz     Ryd( 3p)     0.00663
   146    C   10  dxy    Ryd( 3d)     0.00080
   147    C   10  dxz    Ryd( 3d)     0.00064
   148    C   10  dyz    Ryd( 3d)     0.00042
   149    C   10  dx2y2  Ryd( 3d)     0.00054
   150    C   10  dz2    Ryd( 3d)     0.00048

   151    C   11  S      Cor( 1S)     1.99903
   152    C   11  S      Val( 2S)     0.95890
   153    C   11  S      Ryd( 3S)     0.00072
   154    C   11  S      Ryd( 4S)     0.00005
   155    C   11  px     Val( 2p)     1.12244
   156    C   11  px     Ryd( 3p)     0.00428
   157    C   11  py     Val( 2p)     1.12858
   158    C   11  py     Ryd( 3p)     0.00469
   159    C   11  pz     Val( 2p)     1.09518
   160    C   11  pz     Ryd( 3p)     0.00569
   161    C   11  dxy    Ryd( 3d)     0.00069
   162    C   11  dxz    Ryd( 3d)     0.00066
   163    C   11  dyz    Ryd( 3d)     0.00051
   164    C   11  dx2y2  Ryd( 3d)     0.00064
   165    C   11  dz2    Ryd( 3d)     0.00045

   166    O   12  S      Cor( 1S)     1.99975
   167    O   12  S      Val( 2S)     1.59805
   168    O   12  S      Ryd( 3S)     0.00077
   169    O   12  S      Ryd( 4S)     0.00006
   170    O   12  px     Val( 2p)     1.41032
   171    O   12  px     Ryd( 3p)     0.00095
   172    O   12  py     Val( 2p)     1.70971
   173    O   12  py     Ryd( 3p)     0.00225
   174    O   12  pz     Val( 2p)     1.69410
   175    O   12  pz     Ryd( 3p)     0.00216
   176    O   12  dxy    Ryd( 3d)     0.00132
   177    O   12  dxz    Ryd( 3d)     0.00057
   178    O   12  dyz    Ryd( 3d)     0.00151
   179    O   12  dx2y2  Ryd( 3d)     0.00134
   180    O   12  dz2    Ryd( 3d)     0.00077

   181    C   13  S      Cor( 1S)     1.99942
   182    C   13  S      Val( 2S)     1.10461
   183    C   13  S      Ryd( 3S)     0.00149
   184    C   13  S      Ryd( 4S)     0.00003
   185    C   13  px     Val( 2p)     0.98949
   186    C   13  px     Ryd( 3p)     0.00236
   187    C   13  py     Val( 2p)     1.00804
   188    C   13  py     Ryd( 3p)     0.00331
   189    C   13  pz     Val( 2p)     1.21033
   190    C   13  pz     Ryd( 3p)     0.00045
   191    C   13  dxy    Ryd( 3d)     0.00185
   192    C   13  dxz    Ryd( 3d)     0.00074
   193    C   13  dyz    Ryd( 3d)     0.00157
   194    C   13  dx2y2  Ryd( 3d)     0.00117
   195    C   13  dz2    Ryd( 3d)     0.00116

   196    H   14  S      Val( 1S)     0.77373
   197    H   14  S      Ryd( 2S)     0.00062

   198    H   15  S      Val( 1S)     0.77861
   199    H   15  S      Ryd( 2S)     0.00144

   200    H   16  S      Val( 1S)     0.77807
   201    H   16  S      Ryd( 2S)     0.00145

   202    H   17  S      Val( 1S)     0.75646
   203    H   17  S      Ryd( 2S)     0.00113

   204    H   18  S      Val( 1S)     0.76905
   205    H   18  S      Ryd( 2S)     0.00094

   206    H   19  S      Val( 1S)     0.75859
   207    H   19  S      Ryd( 2S)     0.00119

   208    H   20  S      Val( 1S)     0.75003
   209    H   20  S      Ryd( 2S)     0.00105

   210    H   21  S      Val( 1S)     0.76679
   211    H   21  S      Ryd( 2S)     0.00053

   212    H   22  S      Val( 1S)     0.78003
   213    H   22  S      Ryd( 2S)     0.00198

   214    H   23  S      Val( 1S)     0.77953
   215    H   23  S      Ryd( 2S)     0.00198

 WARNING:  1 low occupancy (<1.9990e) core orbital  found on  C    6
           1 low occupancy (<1.9990e) core orbital  found on  C    9


 Summary of Natural Population Analysis:                  
                                                          
                                       Natural Population 
                Natural  -----------------------------------------------
    Atom  No    Charge         Core      Valence    Rydberg      Total
 -----------------------------------------------------------------------
      C    1   -0.31748      1.99942     4.30450    0.01357     6.31748
      O    2   -0.53896      1.99973     6.52792    0.01131     8.53896
      C    3    1.04816      1.99953     2.90089    0.05142     4.95184
      O    4   -0.61999      1.99977     6.59972    0.02050     8.61999
      O    5   -0.50777      1.99967     6.49666    0.01144     8.50777
      C    6    0.35119      1.99867     3.62786    0.02228     5.64881
      C    7   -0.31573      1.99904     4.29620    0.02049     6.31573
      C    8   -0.34069      1.99906     4.32439    0.01725     6.34069
      C    9    0.33231      1.99879     3.64592    0.02298     5.66769
      C   10   -0.31571      1.99907     4.29615    0.02048     6.31571
      C   11   -0.32251      1.99903     4.30511    0.01837     6.32251
      O   12   -0.42363      1.99975     6.41219    0.01169     8.42363
      C   13   -0.32601      1.99942     4.31248    0.01411     6.32601
      H   14    0.22565      0.00000     0.77373    0.00062     0.77435
      H   15    0.21995      0.00000     0.77861    0.00144     0.78005
      H   16    0.22049      0.00000     0.77807    0.00145     0.77951
      H   17    0.24241      0.00000     0.75646    0.00113     0.75759
      H   18    0.23001      0.00000     0.76905    0.00094     0.76999
      H   19    0.24022      0.00000     0.75859    0.00119     0.75978
      H   20    0.24893      0.00000     0.75003    0.00105     0.75107
      H   21    0.23268      0.00000     0.76679    0.00053     0.76732
      H   22    0.21799      0.00000     0.78003    0.00198     0.78201
      H   23    0.21849      0.00000     0.77953    0.00198     0.78151
 =======================================================================
   * Total *   -0.00000     25.99096    69.74086    0.26818    96.00000

                                 Natural Population      
 --------------------------------------------------------
   Core                      25.99096 ( 99.9652% of  26)
   Valence                   69.74086 ( 99.6298% of  70)
   Natural Minimal Basis     95.73182 ( 99.7206% of  96)
   Natural Rydberg Basis      0.26818 (  0.2794% of  96)
 --------------------------------------------------------

    Atom  No          Natural Electron Configuration
 ----------------------------------------------------------------------------
      C    1      [core]2S( 1.11)2p( 3.19)3p( 0.01)3d( 0.01)
      O    2      [core]2S( 1.62)2p( 4.91)3d( 0.01)
      C    3      [core]2S( 0.69)2p( 2.21)3p( 0.04)3d( 0.01)
      O    4      [core]2S( 1.71)2p( 4.89)3d( 0.02)
      O    5      [core]2S( 1.60)2p( 4.90)3d( 0.01)
      C    6      [core]2S( 0.85)2p( 2.78)3p( 0.01)3d( 0.01)
      C    7      [core]2S( 0.96)2p( 3.34)3p( 0.02)
      C    8      [core]2S( 0.96)2p( 3.37)3p( 0.01)
      C    9      [core]2S( 0.84)2p( 2.80)3p( 0.01)3d( 0.01)
      C   10      [core]2S( 0.96)2p( 3.34)3p( 0.02)
      C   11      [core]2S( 0.96)2p( 3.35)3p( 0.01)
      O   12      [core]2S( 1.60)2p( 4.81)3p( 0.01)3d( 0.01)
      C   13      [core]2S( 1.10)2p( 3.21)3p( 0.01)3d( 0.01)
      H   14            1S( 0.77)
      H   15            1S( 0.78)
      H   16            1S( 0.78)
      H   17            1S( 0.76)
      H   18            1S( 0.77)
      H   19            1S( 0.76)
      H   20            1S( 0.75)
      H   21            1S( 0.77)
      H   22            1S( 0.78)
      H   23            1S( 0.78)


 NBO analysis skipped by request.
 Leave Link  607 at Thu Sep 30 05:52:32 2021, MaxMem=  805306368 cpu:      10.5
 (Enter /sw/target/amd/app/gaussian/Gaussian09RevA.02_gcc-4.9.2/g09/l9999.exe)
 1\1\GINC-HERMITE\SP\RTD-B3LYP-FC\6-31G(d)\C9H10O4\JSCHLEINITZ\30-Sep-2
 021\0\\#p TD(NStates=10, Root=1) b3lyp/6-31G* volume pop=NPA density=c
 urrent Geom=AllCheck Guess=Read\\COC(=O)Oc1ccc(cc1)OC_conf_0\\0,1\C,0,
 2.9559314381,2.2531194711,-1.0558061539\O,0,3.407176978,1.2002974396,-
 0.1891010583\C,0,4.281851747,1.5901900489,0.7493131574\O,0,4.697051498
 6,2.7131071333,0.9114865534\O,0,4.6017117506,0.4877874088,1.4633211925
 \C,0,5.500846659,0.5906625874,2.5320443777\C,0,5.1444319002,-0.0678999
 37,3.7007963439\C,0,6.0223406128,-0.0918521038,4.7881705403\C,0,7.2600
 448766,0.5534938626,4.6923222667\C,0,7.6078449106,1.2126477585,3.50337
 8306\C,0,6.7372960651,1.2306914398,2.4214173387\O,0,8.1940995054,0.597
 9421485,5.687916614\C,0,7.8965349047,-0.0485875189,6.9143067376\H,0,2.
 2649773877,1.7757203757,-1.750889746\H,0,3.7978784733,2.6960367107,-1.
 5943595387\H,0,2.4471124302,3.0325093168,-0.4826173655\H,0,4.181812376
 1,-0.5661394716,3.7564098366\H,0,5.7284809758,-0.6121394543,5.69219710
 34\H,0,8.5729945425,1.70582699,3.448110032\H,0,7.0079365928,1.74607242
 59,1.5083332406\H,0,8.7650263114,0.1113540946,7.5558713668\H,0,7.74259
 18167,-1.1272435701,6.7759953516\H,0,7.0078341461,0.3831030534,7.39399
 2718\\Version=AM64L-G09RevA.02\State=1-A\HF=-649.8667656\RMSD=9.616e-0
 9\Dipole=-0.147542,-0.3751752,0.6228384\Quadrupole=-2.3383037,-9.09754
 08,11.4358445,-2.7993007,7.662251,-6.7409963\PG=C01 [X(C9H10O4)]\\@


 LET US PLACE AT THE END OF EVERY CHAPTER.....THE
 TWO LETTERS USED BY THE ROMAN JUDGES WHEN THEY DID
 NOT UNDERSTAND A PLEADING.
 N. L. -NON LIQUET- IT IS NOT CLEAR.
                                              -- VOLTAIRE
 Job cpu time:  0 days  1 hours 51 minutes 53.3 seconds.
 File lengths (MBytes):  RWF=    162 Int=      0 D2E=      0 Chk=     22 Scr=      1
 Normal termination of Gaussian 09 at Thu Sep 30 05:52:36 2021.
