 Entering Gaussian System, Link 0=g09
 Input=C9H10O2_172f_conf_0.com
 Output=C9H10O2_172f_conf_0.log
 Initial command:
 /sw/target/amd/app/gaussian/Gaussian09RevA.02_gcc-4.9.2/g09/l1.exe /home/jschleinitz/gaussian/Gau-487598.inp -scrdir=/home/jschleinitz/gaussian/
 Entering Link 1 = /sw/target/amd/app/gaussian/Gaussian09RevA.02_gcc-4.9.2/g09/l1.exe PID=    487600.
  
 Copyright (c) 1988,1990,1992,1993,1995,1998,2003,2009, Gaussian, Inc.
                  All Rights Reserved.
  
 This is part of the Gaussian(R) 09 program.  It is based on
 the Gaussian(R) 03 system (copyright 2003, Gaussian, Inc.),
 the Gaussian(R) 98 system (copyright 1998, Gaussian, Inc.),
 the Gaussian(R) 94 system (copyright 1995, Gaussian, Inc.),
 the Gaussian 92(TM) system (copyright 1992, Gaussian, Inc.),
 the Gaussian 90(TM) system (copyright 1990, Gaussian, Inc.),
 the Gaussian 88(TM) system (copyright 1988, Gaussian, Inc.),
 the Gaussian 86(TM) system (copyright 1986, Carnegie Mellon
 University), and the Gaussian 82(TM) system (copyright 1983,
 Carnegie Mellon University). Gaussian is a federally registered
 trademark of Gaussian, Inc.
  
 This software contains proprietary and confidential information,
 including trade secrets, belonging to Gaussian, Inc.
  
 This software is provided under written license and may be
 used, copied, transmitted, or stored only in accord with that
 written license.
  
 The following legend is applicable only to US Government
 contracts under FAR:
  
                    RESTRICTED RIGHTS LEGEND
  
 Use, reproduction and disclosure by the US Government is
 subject to restrictions as set forth in subparagraphs (a)
 and (c) of the Commercial Computer Software - Restricted
 Rights clause in FAR 52.227-19.
  
 Gaussian, Inc.
 340 Quinnipiac St., Bldg. 40, Wallingford CT 06492
  
  
 ---------------------------------------------------------------
 Warning -- This program may not be used in any manner that
 competes with the business of Gaussian, Inc. or will provide
 assistance to any competitor of Gaussian, Inc.  The licensee
 of this program is prohibited from giving any competitor of
 Gaussian, Inc. access to this program.  By using this program,
 the user acknowledges that Gaussian, Inc. is engaged in the
 business of creating and licensing software in the field of
 computational chemistry and represents and warrants to the
 licensee that it is not a competitor of Gaussian, Inc. and that
 it will not use this program in any manner prohibited above.
 ---------------------------------------------------------------
  

 Cite this work as:
 Gaussian 09, Revision A.02,
 M. J. Frisch, G. W. Trucks, H. B. Schlegel, G. E. Scuseria, 
 M. A. Robb, J. R. Cheeseman, G. Scalmani, V. Barone, B. Mennucci, 
 G. A. Petersson, H. Nakatsuji, M. Caricato, X. Li, H. P. Hratchian, 
 A. F. Izmaylov, J. Bloino, G. Zheng, J. L. Sonnenberg, M. Hada, 
 M. Ehara, K. Toyota, R. Fukuda, J. Hasegawa, M. Ishida, T. Nakajima, 
 Y. Honda, O. Kitao, H. Nakai, T. Vreven, J. A. Montgomery, Jr., 
 J. E. Peralta, F. Ogliaro, M. Bearpark, J. J. Heyd, E. Brothers, 
 K. N. Kudin, V. N. Staroverov, R. Kobayashi, J. Normand, 
 K. Raghavachari, A. Rendell, J. C. Burant, S. S. Iyengar, J. Tomasi, 
 M. Cossi, N. Rega, J. M. Millam, M. Klene, J. E. Knox, J. B. Cross, 
 V. Bakken, C. Adamo, J. Jaramillo, R. Gomperts, R. E. Stratmann, 
 O. Yazyev, A. J. Austin, R. Cammi, C. Pomelli, J. W. Ochterski, 
 R. L. Martin, K. Morokuma, V. G. Zakrzewski, G. A. Voth, 
 P. Salvador, J. J. Dannenberg, S. Dapprich, A. D. Daniels, 
 O. Farkas, J. B. Foresman, J. V. Ortiz, J. Cioslowski, 
 and D. J. Fox, Gaussian, Inc., Wallingford CT, 2009.
 
 ******************************************
 Gaussian 09:  AM64L-G09RevA.02 11-Jun-2009
                29-Sep-2021 
 ******************************************
 %nproc=3
 Will use up to    3 processors via shared memory.
 %mem=6gb
 %chk=C9H10O2_172f_conf_0.chk
 -----------------------------------
 #p opt b3lyp/6-31G* scf=(xqc,tight)
 -----------------------------------
 1/14=-1,18=20,19=15,26=3,38=1/1,3;
 2/9=110,12=2,17=6,18=5,40=1/2;
 3/5=1,6=6,7=1,11=2,16=1,25=1,30=1,71=1,74=-5/1,2,3;
 4//1;
 5/5=2,8=3,13=1,32=2,38=5/2,8;
 6/7=2,8=2,9=2,10=2,28=1/1;
 7//1,2,3,16;
 1/14=-1,18=20,19=15/3(2);
 2/9=110/2;
 99//99;
 2/9=110/2;
 3/5=1,6=6,7=1,11=2,16=1,25=1,30=1,71=1,74=-5/1,2,3;
 4/5=5,16=3/1;
 5/5=2,8=3,13=1,32=2,38=5/2,8;
 7//1,2,3,16;
 1/14=-1,18=20,19=15/3(-5);
 2/9=110/2;
 6/7=2,8=2,9=2,10=2,19=2,28=1/1;
 99/9=1/99;
 Leave Link    1 at Wed Sep 29 00:34:56 2021, MaxMem=  805306368 cpu:       0.1
 (Enter /sw/target/amd/app/gaussian/Gaussian09RevA.02_gcc-4.9.2/g09/l101.exe)
 -------------------------
 COc1cccc(c1)C(=O)C_conf_0
 -------------------------
 Symbolic Z-matrix:
 Charge =  0 Multiplicity = 1
 C                     3.40175  -0.13136   0.28043 
 O                     2.6647    0.78446  -0.52405 
 C                     3.40255   1.51004  -1.4184 
 C                     2.89063   2.76888  -1.73456 
 C                     3.54893   3.59243  -2.64833 
 C                     4.71912   3.15124  -3.26956 
 C                     5.22759   1.88014  -2.9783 
 C                     4.56267   1.06267  -2.05046 
 C                     6.46238   1.34621  -3.62702 
 O                     6.87449   0.22635  -3.33398 
 C                     7.19176   2.20321  -4.63044 
 H                     2.70326  -0.58812   0.98815 
 H                     4.17234   0.39199   0.85692 
 H                     3.83583  -0.94109  -0.31337 
 H                     1.97642   3.11379  -1.2562 
 H                     3.14595   4.57603  -2.87668 
 H                     5.20702   3.81394  -3.97823 
 H                     4.95655   0.06868  -1.85525 
 H                     6.53153   2.46231  -5.4621 
 H                     8.03629   1.63768  -5.03613 
 H                     7.58211   3.09996  -4.14472 
 
 NAtoms=     21 NQM=     21 NQMF=      0 NMic=      0 NMicF=      0 NTot=     21.
                    Isotopes and Nuclear Properties:
 (Nuclear quadrupole moments (NQMom) in fm**2, nuclear magnetic moments (NMagM)
  in nuclear magnetons)

  Atom         1           2           3           4           5           6           7           8           9          10
 IAtWgt=          12          16          12          12          12          12          12          12          12          16
 AtmWgt=  12.0000000  15.9949146  12.0000000  12.0000000  12.0000000  12.0000000  12.0000000  12.0000000  12.0000000  15.9949146
 NucSpn=           0           0           0           0           0           0           0           0           0           0
 AtZEff=   0.0000000   0.0000000   0.0000000   0.0000000   0.0000000   0.0000000   0.0000000   0.0000000   0.0000000   0.0000000
 NQMom=    0.0000000   0.0000000   0.0000000   0.0000000   0.0000000   0.0000000   0.0000000   0.0000000   0.0000000   0.0000000
 NMagM=    0.0000000   0.0000000   0.0000000   0.0000000   0.0000000   0.0000000   0.0000000   0.0000000   0.0000000   0.0000000

  Atom        11          12          13          14          15          16          17          18          19          20
 IAtWgt=          12           1           1           1           1           1           1           1           1           1
 AtmWgt=  12.0000000   1.0078250   1.0078250   1.0078250   1.0078250   1.0078250   1.0078250   1.0078250   1.0078250   1.0078250
 NucSpn=           0           1           1           1           1           1           1           1           1           1
 AtZEff=   0.0000000   0.0000000   0.0000000   0.0000000   0.0000000   0.0000000   0.0000000   0.0000000   0.0000000   0.0000000
 NQMom=    0.0000000   0.0000000   0.0000000   0.0000000   0.0000000   0.0000000   0.0000000   0.0000000   0.0000000   0.0000000
 NMagM=    0.0000000   2.7928460   2.7928460   2.7928460   2.7928460   2.7928460   2.7928460   2.7928460   2.7928460   2.7928460

  Atom        21
 IAtWgt=           1
 AtmWgt=   1.0078250
 NucSpn=           1
 AtZEff=   0.0000000
 NQMom=    0.0000000
 NMagM=    2.7928460
 Leave Link  101 at Wed Sep 29 00:34:57 2021, MaxMem=  805306368 cpu:       0.2
 (Enter /sw/target/amd/app/gaussian/Gaussian09RevA.02_gcc-4.9.2/g09/l103.exe)

 GradGradGradGradGradGradGradGradGradGradGradGradGradGradGradGradGradGrad
 Berny optimization.
 Initialization pass.
                           ----------------------------
                           !    Initial Parameters    !
                           ! (Angstroms and Degrees)  !
 --------------------------                            --------------------------
 ! Name  Definition              Value          Derivative Info.                !
 --------------------------------------------------------------------------------
 ! R1    R(1,2)                  1.4245         estimate D2E/DX2                !
 ! R2    R(1,12)                 1.0943         estimate D2E/DX2                !
 ! R3    R(1,13)                 1.0955         estimate D2E/DX2                !
 ! R4    R(1,14)                 1.0939         estimate D2E/DX2                !
 ! R5    R(2,3)                  1.3678         estimate D2E/DX2                !
 ! R6    R(3,4)                  1.3952         estimate D2E/DX2                !
 ! R7    R(3,8)                  1.3948         estimate D2E/DX2                !
 ! R8    R(4,5)                  1.3952         estimate D2E/DX2                !
 ! R9    R(4,15)                 1.0879         estimate D2E/DX2                !
 ! R10   R(5,6)                  1.3964         estimate D2E/DX2                !
 ! R11   R(5,16)                 1.0872         estimate D2E/DX2                !
 ! R12   R(6,7)                  1.3997         estimate D2E/DX2                !
 ! R13   R(6,17)                 1.086          estimate D2E/DX2                !
 ! R14   R(7,8)                  1.404          estimate D2E/DX2                !
 ! R15   R(7,9)                  1.4935         estimate D2E/DX2                !
 ! R16   R(8,18)                 1.0869         estimate D2E/DX2                !
 ! R17   R(9,10)                 1.2287         estimate D2E/DX2                !
 ! R18   R(9,11)                 1.5077         estimate D2E/DX2                !
 ! R19   R(11,19)                1.093          estimate D2E/DX2                !
 ! R20   R(11,20)                1.0944         estimate D2E/DX2                !
 ! R21   R(11,21)                1.092          estimate D2E/DX2                !
 ! A1    A(2,1,12)             107.6581         estimate D2E/DX2                !
 ! A2    A(2,1,13)             110.7337         estimate D2E/DX2                !
 ! A3    A(2,1,14)             112.0026         estimate D2E/DX2                !
 ! A4    A(12,1,13)            107.943          estimate D2E/DX2                !
 ! A5    A(12,1,14)            107.1807         estimate D2E/DX2                !
 ! A6    A(13,1,14)            111.1104         estimate D2E/DX2                !
 ! A7    A(1,2,3)              115.5441         estimate D2E/DX2                !
 ! A8    A(2,3,4)              115.3955         estimate D2E/DX2                !
 ! A9    A(2,3,8)              125.0893         estimate D2E/DX2                !
 ! A10   A(4,3,8)              119.4631         estimate D2E/DX2                !
 ! A11   A(3,4,5)              120.5214         estimate D2E/DX2                !
 ! A12   A(3,4,15)             119.6515         estimate D2E/DX2                !
 ! A13   A(5,4,15)             119.824          estimate D2E/DX2                !
 ! A14   A(4,5,6)              120.0181         estimate D2E/DX2                !
 ! A15   A(4,5,16)             119.7819         estimate D2E/DX2                !
 ! A16   A(6,5,16)             120.1997         estimate D2E/DX2                !
 ! A17   A(5,6,7)              119.9195         estimate D2E/DX2                !
 ! A18   A(5,6,17)             118.2938         estimate D2E/DX2                !
 ! A19   A(7,6,17)             121.7853         estimate D2E/DX2                !
 ! A20   A(6,7,8)              119.6188         estimate D2E/DX2                !
 ! A21   A(6,7,9)              122.3178         estimate D2E/DX2                !
 ! A22   A(8,7,9)              118.0628         estimate D2E/DX2                !
 ! A23   A(3,8,7)              120.4388         estimate D2E/DX2                !
 ! A24   A(3,8,18)             120.888          estimate D2E/DX2                !
 ! A25   A(7,8,18)             118.656          estimate D2E/DX2                !
 ! A26   A(7,9,10)             119.9681         estimate D2E/DX2                !
 ! A27   A(7,9,11)             119.0663         estimate D2E/DX2                !
 ! A28   A(10,9,11)            120.964          estimate D2E/DX2                !
 ! A29   A(9,11,19)            110.4198         estimate D2E/DX2                !
 ! A30   A(9,11,20)            109.0443         estimate D2E/DX2                !
 ! A31   A(9,11,21)            110.1012         estimate D2E/DX2                !
 ! A32   A(19,11,20)           107.8529         estimate D2E/DX2                !
 ! A33   A(19,11,21)           111.0814         estimate D2E/DX2                !
 ! A34   A(20,11,21)           108.265          estimate D2E/DX2                !
 ! D1    D(12,1,2,3)           176.2427         estimate D2E/DX2                !
 ! D2    D(13,1,2,3)            58.4551         estimate D2E/DX2                !
 ! D3    D(14,1,2,3)           -66.178          estimate D2E/DX2                !
 ! D4    D(1,2,3,4)           -151.0105         estimate D2E/DX2                !
 ! D5    D(1,2,3,8)             31.6418         estimate D2E/DX2                !
 ! D6    D(2,3,4,5)           -179.2019         estimate D2E/DX2                !
 ! D7    D(2,3,4,15)             1.4357         estimate D2E/DX2                !
 ! D8    D(8,3,4,5)             -1.6944         estimate D2E/DX2                !
 ! D9    D(8,3,4,15)           178.9432         estimate D2E/DX2                !
 ! D10   D(2,3,8,7)            178.5023         estimate D2E/DX2                !
 ! D11   D(2,3,8,18)             0.0305         estimate D2E/DX2                !
 ! D12   D(4,3,8,7)              1.2543         estimate D2E/DX2                !
 ! D13   D(4,3,8,18)          -177.2175         estimate D2E/DX2                !
 ! D14   D(3,4,5,6)              0.9477         estimate D2E/DX2                !
 ! D15   D(3,4,5,16)          -179.2504         estimate D2E/DX2                !
 ! D16   D(15,4,5,6)          -179.691          estimate D2E/DX2                !
 ! D17   D(15,4,5,16)            0.1109         estimate D2E/DX2                !
 ! D18   D(4,5,6,7)              0.2505         estimate D2E/DX2                !
 ! D19   D(4,5,6,17)           179.8275         estimate D2E/DX2                !
 ! D20   D(16,5,6,7)          -179.5506         estimate D2E/DX2                !
 ! D21   D(16,5,6,17)            0.0264         estimate D2E/DX2                !
 ! D22   D(5,6,7,8)             -0.6826         estimate D2E/DX2                !
 ! D23   D(5,6,7,9)            179.0265         estimate D2E/DX2                !
 ! D24   D(17,6,7,8)           179.7556         estimate D2E/DX2                !
 ! D25   D(17,6,7,9)            -0.5354         estimate D2E/DX2                !
 ! D26   D(6,7,8,3)             -0.073          estimate D2E/DX2                !
 ! D27   D(6,7,8,18)           178.4325         estimate D2E/DX2                !
 ! D28   D(9,7,8,3)           -179.7943         estimate D2E/DX2                !
 ! D29   D(9,7,8,18)            -1.2889         estimate D2E/DX2                !
 ! D30   D(6,7,9,10)           179.6297         estimate D2E/DX2                !
 ! D31   D(6,7,9,11)             0.081          estimate D2E/DX2                !
 ! D32   D(8,7,9,10)            -0.657          estimate D2E/DX2                !
 ! D33   D(8,7,9,11)           179.7944         estimate D2E/DX2                !
 ! D34   D(7,9,11,19)          -58.8966         estimate D2E/DX2                !
 ! D35   D(7,9,11,20)         -177.2289         estimate D2E/DX2                !
 ! D36   D(7,9,11,21)           64.1251         estimate D2E/DX2                !
 ! D37   D(10,9,11,19)         121.5594         estimate D2E/DX2                !
 ! D38   D(10,9,11,20)           3.2271         estimate D2E/DX2                !
 ! D39   D(10,9,11,21)        -115.4189         estimate D2E/DX2                !
 --------------------------------------------------------------------------------
 Trust Radius=3.00D-01 FncErr=1.00D-07 GrdErr=1.00D-06
 Number of steps in this run= 104 maximum allowed number of steps= 126.
 GradGradGradGradGradGradGradGradGradGradGradGradGradGradGradGradGradGrad

 Leave Link  103 at Wed Sep 29 00:34:57 2021, MaxMem=  805306368 cpu:       0.0
 (Enter /sw/target/amd/app/gaussian/Gaussian09RevA.02_gcc-4.9.2/g09/l202.exe)
                          Input orientation:                          
 ---------------------------------------------------------------------
 Center     Atomic      Atomic             Coordinates (Angstroms)
 Number     Number       Type             X           Y           Z
 ---------------------------------------------------------------------
      1          6           0        3.401754   -0.131357    0.280426
      2          8           0        2.664696    0.784463   -0.524049
      3          6           0        3.402547    1.510038   -1.418397
      4          6           0        2.890626    2.768882   -1.734559
      5          6           0        3.548925    3.592431   -2.648331
      6          6           0        4.719116    3.151243   -3.269557
      7          6           0        5.227589    1.880137   -2.978296
      8          6           0        4.562672    1.062672   -2.050458
      9          6           0        6.462376    1.346209   -3.627020
     10          8           0        6.874487    0.226354   -3.333978
     11          6           0        7.191765    2.203211   -4.630438
     12          1           0        2.703260   -0.588117    0.988152
     13          1           0        4.172336    0.391993    0.856923
     14          1           0        3.835826   -0.941090   -0.313371
     15          1           0        1.976418    3.113789   -1.256196
     16          1           0        3.145946    4.576033   -2.876682
     17          1           0        5.207024    3.813942   -3.978229
     18          1           0        4.956551    0.068680   -1.855251
     19          1           0        6.531525    2.462313   -5.462103
     20          1           0        8.036287    1.637677   -5.036133
     21          1           0        7.582108    3.099958   -4.144723
 ---------------------------------------------------------------------
                    Distance matrix (angstroms):
                    1          2          3          4          5
     1  C    0.000000
     2  O    1.424486   0.000000
     3  C    2.362240   1.367750   0.000000
     4  C    3.568305   2.335443   1.395245   0.000000
     5  C    4.739818   3.630306   2.422917   1.395196   0.000000
     6  C    5.011315   4.166546   2.802446   2.417808   1.396393
     7  C    4.242529   3.713792   2.429205   2.792517   2.420484
     8  C    2.864691   2.451456   1.394821   2.409706   2.790128
     9  C    5.178681   4.936229   3.777222   4.285185   3.806775
    10  O    5.025111   5.092104   4.167932   4.989363   4.781208
    11  C    6.628045   6.274522   5.015563   5.215928   4.373667
    12  H    1.094258   2.042600   3.268445   4.326395   5.605010
    13  H    1.095463   2.081849   2.649467   3.742747   4.787301
    14  H    1.093929   2.096059   2.723387   4.083756   5.107559
    15  H    3.863128   2.536833   2.152248   1.087919   2.154047
    16  H    5.673825   4.488038   3.404815   2.153005   1.087203
    17  H    6.079517   5.250956   3.888040   3.389972   2.137051
    18  H    2.649249   2.745367   2.164089   3.402015   3.876494
    19  H    7.035568   6.492451   5.200854   5.219647   4.253279
    20  H    7.271463   7.066885   5.880124   6.217544   5.446015
    21  H    6.891930   6.530830   5.237311   5.284743   4.329929
                    6          7          8          9         10
     6  C    0.000000
     7  C    1.399675   0.000000
     8  C    2.423387   1.404011   0.000000
     9  C    2.534735   1.493526   2.484918   0.000000
    10  O    3.633834   2.360885   2.773327   1.228734   0.000000
    11  C    2.977374   2.586878   3.856068   1.507750   2.385255
    12  H    6.014530   5.310106   3.926279   6.258784   6.061625
    13  H    4.994023   4.247003   3.009158   5.124505   4.989258
    14  H    5.125078   4.122881   2.749697   4.807366   4.440770
    15  H    3.402561   3.880418   3.395091   5.372985   6.053556
    16  H    2.158528   3.407554   3.877301   4.689720   5.747247
    17  H    1.086021   2.177129   3.420670   2.790871   4.008277
    18  H    3.399828   2.148504   1.086861   2.653066   2.426927
    19  H    2.926894   2.865043   4.180275   2.148952   3.105809
    20  H    4.051580   3.490310   4.616372   2.132545   2.497789
    21  H    2.994206   2.896942   4.201604   2.144167   3.068492
                   11         12         13         14         15
    11  C    0.000000
    12  H    7.714061   0.000000
    13  H    6.519861   1.770881   0.000000
    14  H    6.307616   1.761039   1.805529   0.000000
    15  H    6.278097   4.389704   4.086012   4.559425   0.000000
    16  H    5.007454   6.465397   5.700831   6.122511   2.476274
    17  H    2.637996   7.093088   6.013236   6.158059   4.282114
    18  H    4.153802   3.686955   2.841726   2.157093   4.302644
    19  H    1.093030   8.097315   7.055642   6.734937   6.234026
    20  H    1.094365   8.347895   7.156113   6.826301   7.293068
    21  H    1.091990   7.984451   6.631447   6.711479   6.306151
                   16         17         18         19         20
    16  H    0.000000
    17  H    2.458095   0.000000
    18  H    4.963653   4.312397   0.000000
    19  H    4.755456   2.404804   4.606453   0.000000
    20  H    6.100213   3.722904   4.697291   1.767988   0.000000
    21  H    4.844198   2.485662   4.617779   1.801611   1.771766
                   21
    21  H    0.000000
 Stoichiometry    C9H10O2
 Framework group  C1[X(C9H10O2)]
 Deg. of freedom    57
 Full point group                 C1      NOp   1
 Largest Abelian subgroup         C1      NOp   1
 Largest concise Abelian subgroup C1      NOp   1
                         Standard orientation:                         
 ---------------------------------------------------------------------
 Center     Atomic      Atomic             Coordinates (Angstroms)
 Number     Number       Type             X           Y           Z
 ---------------------------------------------------------------------
      1          6           0       -2.979989   -1.587429    0.293987
      2          8           0       -2.794928   -0.284097   -0.250292
      3          6           0       -1.535743    0.234667   -0.123500
      4          6           0       -1.466747    1.626095   -0.046836
      5          6           0       -0.233877    2.269177    0.067404
      6          6           0        0.945133    1.521174    0.085924
      7          6           0        0.888642    0.126324   -0.015524
      8          6           0       -0.357506   -0.511842   -0.120920
      9          6           0        2.116386   -0.724093   -0.022801
     10          8           0        2.016263   -1.945847   -0.106945
     11          6           0        3.466720   -0.061972    0.084451
     12          1           0       -4.037554   -1.845990    0.183974
     13          1           0       -2.739064   -1.599266    1.362563
     14          1           0       -2.404420   -2.343456   -0.248067
     15          1           0       -2.383035    2.212283   -0.066015
     16          1           0       -0.194873    3.353347    0.138558
     17          1           0        1.889346    2.050629    0.172985
     18          1           0       -0.382047   -1.593445   -0.224838
     19          1           0        3.612496    0.642436   -0.738515
     20          1           0        4.246145   -0.826879    0.013405
     21          1           0        3.564215    0.437278    1.050726
 ---------------------------------------------------------------------
 Rotational constants (GHZ):      1.9034579      0.7637915      0.5528852
 Leave Link  202 at Wed Sep 29 00:34:57 2021, MaxMem=  805306368 cpu:       0.0
 (Enter /sw/target/amd/app/gaussian/Gaussian09RevA.02_gcc-4.9.2/g09/l301.exe)
 Standard basis: 6-31G(d) (6D, 7F)
 Ernie: Thresh=  0.10000D-02 Tol=  0.10000D-05 Strict=F.
 There are   185 symmetry adapted basis functions of A   symmetry.
 Integral buffers will be    131072 words long.
 Raffenetti 2 integral format.
 Two-electron integral symmetry is turned on.
   185 basis functions,   348 primitive gaussians,   185 cartesian basis functions
    40 alpha electrons       40 beta electrons
       nuclear repulsion energy       576.2389325470 Hartrees.
 IExCor=  402 DFT=T Ex+Corr=B3LYP ExCW=0 ScaHFX=  0.200000
 ScaDFX=  0.800000  0.720000  1.000000  0.810000 ScalE2=  1.000000  1.000000
 IRadAn=      0 IRanWt=     -1 IRanGd=            0 ICorTp=0
 NAtoms=   21 NActive=   21 NUniq=   21 SFac= 7.50D-01 NAtFMM=   80 NAOKFM=F Big=F
 Leave Link  301 at Wed Sep 29 00:34:57 2021, MaxMem=  805306368 cpu:       0.1
 (Enter /sw/target/amd/app/gaussian/Gaussian09RevA.02_gcc-4.9.2/g09/l302.exe)
 NPDir=0 NMtPBC=     1 NCelOv=     1 NCel=       1 NClECP=     1 NCelD=      1
         NCelK=      1 NCelE2=     1 NClLst=     1 CellRange=     0.0.
 One-electron integrals computed using PRISM.
 NBasis=   185 RedAO= T  NBF=   185
 NBsUse=   185 1.00D-06 NBFU=   185
 Precomputing XC quadrature grid using
 IXCGrd= 2 IRadAn=           0 IRanWt=          -1 IRanGd=           0 AccXCQ= 1.00D-10.
 NRdTot=    1321 NPtTot=      167996 NUsed=      177529 NTot=      177561
 NSgBfM=   185   185   185   185   185 NAtAll=    21    21.
 Leave Link  302 at Wed Sep 29 00:35:00 2021, MaxMem=  805306368 cpu:       1.2
 (Enter /sw/target/amd/app/gaussian/Gaussian09RevA.02_gcc-4.9.2/g09/l303.exe)
 DipDrv:  MaxL=1.
 Leave Link  303 at Wed Sep 29 00:35:00 2021, MaxMem=  805306368 cpu:       0.1
 (Enter /sw/target/amd/app/gaussian/Gaussian09RevA.02_gcc-4.9.2/g09/l401.exe)
 Harris functional with IExCor=  402 diagonalized for initial guess.
 ExpMin= 1.61D-01 ExpMax= 5.48D+03 ExpMxC= 8.25D+02 IAcc=1 IRadAn=         1 AccDes= 0.00D+00
 HarFok:  IExCor=  402 AccDes= 0.00D+00 IRadAn=         1 IDoV= 1
 ScaDFX=  1.000000  1.000000  1.000000  1.000000
 FoFCou: FMM=F IPFlag=           0 FMFlag=      100000 FMFlg1=           0
         NFxFlg=           0 DoJE=T BraDBF=F KetDBF=T FulRan=T
         Omega=  0.000000  0.000000  1.000000  0.000000  0.000000 ICntrl=     500 IOpCl=  0
         NMat0=    1 NMatS0=    1 NMatT0=    0 NMatD0=    1 NMtDS0=    0 NMtDT0=    0
         I1Cent=           4 NGrid=           0.
 Petite list used in FoFCou.
 Harris En= -499.483473298863    
 Initial guess orbital symmetries:
       Occupied  (A) (A) (A) (A) (A) (A) (A) (A) (A) (A) (A) (A)
                 (A) (A) (A) (A) (A) (A) (A) (A) (A) (A) (A) (A)
                 (A) (A) (A) (A) (A) (A) (A) (A) (A) (A) (A) (A)
                 (A) (A) (A) (A)
       Virtual   (A) (A) (A) (A) (A) (A) (A) (A) (A) (A) (A) (A)
                 (A) (A) (A) (A) (A) (A) (A) (A) (A) (A) (A) (A)
                 (A) (A) (A) (A) (A) (A) (A) (A) (A) (A) (A) (A)
                 (A) (A) (A) (A) (A) (A) (A) (A) (A) (A) (A) (A)
                 (A) (A) (A) (A) (A) (A) (A) (A) (A) (A) (A) (A)
                 (A) (A) (A) (A) (A) (A) (A) (A) (A) (A) (A) (A)
                 (A) (A) (A) (A) (A) (A) (A) (A) (A) (A) (A) (A)
                 (A) (A) (A) (A) (A) (A) (A) (A) (A) (A) (A) (A)
                 (A) (A) (A) (A) (A) (A) (A) (A) (A) (A) (A) (A)
                 (A) (A) (A) (A) (A) (A) (A) (A) (A) (A) (A) (A)
                 (A) (A) (A) (A) (A) (A) (A) (A) (A) (A) (A) (A)
                 (A) (A) (A) (A) (A) (A) (A) (A) (A) (A) (A) (A)
                 (A)
 The electronic state of the initial guess is 1-A.
 Leave Link  401 at Wed Sep 29 00:35:10 2021, MaxMem=  805306368 cpu:       5.5
 (Enter /sw/target/amd/app/gaussian/Gaussian09RevA.02_gcc-4.9.2/g09/l502.exe)
 Closed shell SCF:
 Requested convergence on RMS density matrix=1.00D-08 within  64 cycles.
 Requested convergence on MAX density matrix=1.00D-06.
 Requested convergence on             energy=1.00D-06.
 No special actions if energy rises.
 Using DIIS extrapolation, IDIIS=  1040.
 Integral symmetry usage will be decided dynamically.
       177327 words used for storage of precomputed grid.
 Keep R1 ints in memory in canonical form, NReq=151520015.
 IEnd=      288051 IEndB=      288051 NGot=   805306368 MDV=   657042309
 LenX=   657042309 LenY=   657007643
 Symmetry not used in FoFDir.
 MinBra= 0 MaxBra= 2 Meth= 1.
 IRaf=       0 NMat=   1 IRICut=       1 DoRegI=T DoRafI=F ISym2E= 0 JSym2E=0.
 Integral accuracy reduced to 1.0D-05 until final iterations.

 Cycle   1  Pass 0  IDiag  1:
 E= -499.142800640022    
 DIIS: error= 3.34D-02 at cycle   1 NSaved=   1.
 NSaved= 1 IEnMin= 1 EnMin= -499.142800640022     IErMin= 1 ErrMin= 3.34D-02
 ErrMax= 3.34D-02 EMaxC= 1.00D-01 BMatC= 2.78D-01 BMatP= 2.78D-01
 IDIUse=3 WtCom= 6.66D-01 WtEn= 3.34D-01
 Coeff-Com:  0.100D+01
 Coeff-En:   0.100D+01
 Coeff:      0.100D+01
 Gap=     0.172 Goal=   None    Shift=    0.000
 GapD=    0.172 DampG=1.000 DampE=0.500 DampFc=0.5000 IDamp=-1.
 Damping current iteration by 5.00D-01
 RMSDP=6.90D-03 MaxDP=1.86D-01              OVMax= 2.02D-01

 Cycle   2  Pass 0  IDiag  1:
 E= -499.255160090223     Delta-E=       -0.112359450201 Rises=F Damp=T
 DIIS: error= 1.34D-02 at cycle   2 NSaved=   2.
 NSaved= 2 IEnMin= 2 EnMin= -499.255160090223     IErMin= 2 ErrMin= 1.34D-02
 ErrMax= 1.34D-02 EMaxC= 1.00D-01 BMatC= 2.70D-02 BMatP= 2.78D-01
 IDIUse=3 WtCom= 8.66D-01 WtEn= 1.34D-01
 Coeff-Com:  0.125D+00 0.875D+00
 Coeff-En:   0.164D+00 0.836D+00
 Coeff:      0.130D+00 0.870D+00
 Gap=     0.207 Goal=   None    Shift=    0.000
 RMSDP=1.97D-03 MaxDP=5.86D-02 DE=-1.12D-01 OVMax= 1.62D-01

 Cycle   3  Pass 0  IDiag  1:
 E= -499.384368132026     Delta-E=       -0.129208041803 Rises=F Damp=F
 DIIS: error= 2.50D-02 at cycle   3 NSaved=   3.
 NSaved= 3 IEnMin= 3 EnMin= -499.384368132026     IErMin= 2 ErrMin= 1.34D-02
 ErrMax= 2.50D-02 EMaxC= 1.00D-01 BMatC= 3.75D-02 BMatP= 2.70D-02
 IDIUse=2 WtCom= 0.00D+00 WtEn= 1.00D+00
 Coeff-En:   0.000D+00 0.000D+00 0.100D+01
 Coeff:      0.000D+00 0.000D+00 0.100D+01
 Gap=     0.185 Goal=   None    Shift=    0.000
 RMSDP=3.53D-03 MaxDP=1.45D-01 DE=-1.29D-01 OVMax= 1.64D-01

 Cycle   4  Pass 0  IDiag  1:
 E= -499.241331859644     Delta-E=        0.143036272382 Rises=F Damp=F
 DIIS: error= 5.77D-02 at cycle   4 NSaved=   4.
 NSaved= 4 IEnMin= 3 EnMin= -499.384368132026     IErMin= 2 ErrMin= 1.34D-02
 ErrMax= 5.77D-02 EMaxC= 1.00D-01 BMatC= 2.17D-01 BMatP= 2.70D-02
 IDIUse=2 WtCom= 0.00D+00 WtEn= 1.00D+00
 Coeff-En:   0.000D+00 0.000D+00 0.793D+00 0.207D+00
 Coeff:      0.000D+00 0.000D+00 0.793D+00 0.207D+00
 Gap=     0.176 Goal=   None    Shift=    0.000
 RMSDP=2.00D-03 MaxDP=7.45D-02 DE= 1.43D-01 OVMax= 7.71D-02

 Cycle   5  Pass 0  IDiag  1:
 E= -499.403129993790     Delta-E=       -0.161798134146 Rises=F Damp=F
 DIIS: error= 1.60D-02 at cycle   5 NSaved=   5.
 NSaved= 5 IEnMin= 5 EnMin= -499.403129993790     IErMin= 2 ErrMin= 1.34D-02
 ErrMax= 1.60D-02 EMaxC= 1.00D-01 BMatC= 1.56D-02 BMatP= 2.70D-02
 IDIUse=3 WtCom= 8.40D-01 WtEn= 1.60D-01
 Coeff-Com:  0.107D-02 0.170D-01 0.331D+00-0.574D-01 0.708D+00
 Coeff-En:   0.000D+00 0.000D+00 0.334D+00 0.000D+00 0.666D+00
 Coeff:      0.899D-03 0.143D-01 0.331D+00-0.482D-01 0.702D+00
 Gap=     0.193 Goal=   None    Shift=    0.000
 RMSDP=6.74D-04 MaxDP=2.79D-02 DE=-1.62D-01 OVMax= 3.13D-02

 Cycle   6  Pass 0  IDiag  1:
 E= -499.415680026196     Delta-E=       -0.012550032406 Rises=F Damp=F
 DIIS: error= 6.89D-04 at cycle   6 NSaved=   6.
 NSaved= 6 IEnMin= 6 EnMin= -499.415680026196     IErMin= 6 ErrMin= 6.89D-04
 ErrMax= 6.89D-04 EMaxC= 1.00D-01 BMatC= 1.05D-04 BMatP= 1.56D-02
 IDIUse=3 WtCom= 9.93D-01 WtEn= 6.89D-03
 Coeff-Com: -0.307D-02 0.111D-01 0.143D+00-0.571D-01 0.437D+00 0.470D+00
 Coeff-En:   0.000D+00 0.000D+00 0.000D+00 0.000D+00 0.000D+00 0.100D+01
 Coeff:     -0.304D-02 0.110D-01 0.142D+00-0.567D-01 0.434D+00 0.474D+00
 Gap=     0.177 Goal=   None    Shift=    0.000
 RMSDP=7.28D-05 MaxDP=1.72D-03 DE=-1.26D-02 OVMax= 5.19D-03

 Cycle   7  Pass 0  IDiag  1:
 E= -499.415791114449     Delta-E=       -0.000111088253 Rises=F Damp=F
 DIIS: error= 1.46D-04 at cycle   7 NSaved=   7.
 NSaved= 7 IEnMin= 7 EnMin= -499.415791114449     IErMin= 7 ErrMin= 1.46D-04
 ErrMax= 1.46D-04 EMaxC= 1.00D-01 BMatC= 4.69D-06 BMatP= 1.05D-04
 IDIUse=3 WtCom= 9.99D-01 WtEn= 1.46D-03
 Coeff-Com: -0.106D-02 0.330D-02 0.497D-01-0.233D-01 0.161D+00 0.231D+00
 Coeff-Com:  0.579D+00
 Coeff-En:   0.000D+00 0.000D+00 0.000D+00 0.000D+00 0.000D+00 0.000D+00
 Coeff-En:   0.100D+01
 Coeff:     -0.106D-02 0.330D-02 0.496D-01-0.232D-01 0.161D+00 0.230D+00
 Coeff:      0.580D+00
 Gap=     0.177 Goal=   None    Shift=    0.000
 RMSDP=1.39D-05 MaxDP=5.03D-04 DE=-1.11D-04 OVMax= 1.01D-03

 Cycle   8  Pass 0  IDiag  1:
 E= -499.415795211216     Delta-E=       -0.000004096767 Rises=F Damp=F
 DIIS: error= 5.31D-05 at cycle   8 NSaved=   8.
 NSaved= 8 IEnMin= 8 EnMin= -499.415795211216     IErMin= 8 ErrMin= 5.31D-05
 ErrMax= 5.31D-05 EMaxC= 1.00D-01 BMatC= 5.00D-07 BMatP= 4.69D-06
 IDIUse=1 WtCom= 1.00D+00 WtEn= 0.00D+00
 Coeff-Com:  0.389D-04-0.305D-03 0.104D-01-0.473D-02 0.313D-01 0.670D-01
 Coeff-Com:  0.289D+00 0.608D+00
 Coeff:      0.389D-04-0.305D-03 0.104D-01-0.473D-02 0.313D-01 0.670D-01
 Coeff:      0.289D+00 0.608D+00
 Gap=     0.177 Goal=   None    Shift=    0.000
 RMSDP=3.99D-06 MaxDP=1.33D-04 DE=-4.10D-06 OVMax= 2.38D-04

 Initial convergence to 1.0D-05 achieved.  Increase integral accuracy.
 Cycle   9  Pass 1  IDiag  1:
 E= -499.415811608301     Delta-E=       -0.000016397086 Rises=F Damp=F
 DIIS: error= 3.39D-05 at cycle   1 NSaved=   1.
 NSaved= 1 IEnMin= 1 EnMin= -499.415811608301     IErMin= 1 ErrMin= 3.39D-05
 ErrMax= 3.39D-05 EMaxC= 1.00D-01 BMatC= 8.55D-08 BMatP= 8.55D-08
 IDIUse=1 WtCom= 1.00D+00 WtEn= 0.00D+00
 Coeff-Com:  0.100D+01
 Coeff:      0.100D+01
 Gap=     0.177 Goal=   None    Shift=    0.000
 RMSDP=3.99D-06 MaxDP=1.33D-04 DE=-1.64D-05 OVMax= 1.91D-04

 Cycle  10  Pass 1  IDiag  1:
 E= -499.415811616077     Delta-E=       -0.000000007775 Rises=F Damp=F
 DIIS: error= 2.02D-05 at cycle   2 NSaved=   2.
 NSaved= 2 IEnMin= 2 EnMin= -499.415811616077     IErMin= 2 ErrMin= 2.02D-05
 ErrMax= 2.02D-05 EMaxC= 1.00D-01 BMatC= 1.03D-07 BMatP= 8.55D-08
 IDIUse=1 WtCom= 1.00D+00 WtEn= 0.00D+00
 Coeff-Com:  0.531D+00 0.469D+00
 Coeff:      0.531D+00 0.469D+00
 Gap=     0.177 Goal=   None    Shift=    0.000
 RMSDP=2.54D-06 MaxDP=7.01D-05 DE=-7.78D-09 OVMax= 1.75D-04

 Cycle  11  Pass 1  IDiag  1:
 E= -499.415811698535     Delta-E=       -0.000000082459 Rises=F Damp=F
 DIIS: error= 9.85D-06 at cycle   3 NSaved=   3.
 NSaved= 3 IEnMin= 3 EnMin= -499.415811698535     IErMin= 3 ErrMin= 9.85D-06
 ErrMax= 9.85D-06 EMaxC= 1.00D-01 BMatC= 1.89D-08 BMatP= 8.55D-08
 IDIUse=1 WtCom= 1.00D+00 WtEn= 0.00D+00
 Coeff-Com:  0.200D-01 0.295D+00 0.685D+00
 Coeff:      0.200D-01 0.295D+00 0.685D+00
 Gap=     0.177 Goal=   None    Shift=    0.000
 RMSDP=9.52D-07 MaxDP=2.95D-05 DE=-8.25D-08 OVMax= 5.42D-05

 Cycle  12  Pass 1  IDiag  1:
 E= -499.415811714996     Delta-E=       -0.000000016460 Rises=F Damp=F
 DIIS: error= 3.85D-06 at cycle   4 NSaved=   4.
 NSaved= 4 IEnMin= 4 EnMin= -499.415811714996     IErMin= 4 ErrMin= 3.85D-06
 ErrMax= 3.85D-06 EMaxC= 1.00D-01 BMatC= 2.41D-09 BMatP= 1.89D-08
 IDIUse=1 WtCom= 1.00D+00 WtEn= 0.00D+00
 Coeff-Com: -0.146D-01 0.160D+00 0.430D+00 0.425D+00
 Coeff:     -0.146D-01 0.160D+00 0.430D+00 0.425D+00
 Gap=     0.177 Goal=   None    Shift=    0.000
 RMSDP=3.23D-07 MaxDP=1.11D-05 DE=-1.65D-08 OVMax= 1.27D-05

 Cycle  13  Pass 1  IDiag  1:
 E= -499.415811716939     Delta-E=       -0.000000001944 Rises=F Damp=F
 DIIS: error= 1.41D-06 at cycle   5 NSaved=   5.
 NSaved= 5 IEnMin= 5 EnMin= -499.415811716939     IErMin= 5 ErrMin= 1.41D-06
 ErrMax= 1.41D-06 EMaxC= 1.00D-01 BMatC= 1.67D-10 BMatP= 2.41D-09
 IDIUse=1 WtCom= 1.00D+00 WtEn= 0.00D+00
 Coeff-Com: -0.105D-01 0.802D-01 0.223D+00 0.266D+00 0.441D+00
 Coeff:     -0.105D-01 0.802D-01 0.223D+00 0.266D+00 0.441D+00
 Gap=     0.177 Goal=   None    Shift=    0.000
 RMSDP=6.92D-08 MaxDP=2.63D-06 DE=-1.94D-09 OVMax= 3.78D-06

 Cycle  14  Pass 1  IDiag  1:
 E= -499.415811717086     Delta-E=       -0.000000000147 Rises=F Damp=F
 DIIS: error= 2.20D-07 at cycle   6 NSaved=   6.
 NSaved= 6 IEnMin= 6 EnMin= -499.415811717086     IErMin= 6 ErrMin= 2.20D-07
 ErrMax= 2.20D-07 EMaxC= 1.00D-01 BMatC= 6.46D-12 BMatP= 1.67D-10
 IDIUse=1 WtCom= 1.00D+00 WtEn= 0.00D+00
 Coeff-Com: -0.349D-02 0.223D-01 0.643D-01 0.836D-01 0.215D+00 0.618D+00
 Coeff:     -0.349D-02 0.223D-01 0.643D-01 0.836D-01 0.215D+00 0.618D+00
 Gap=     0.177 Goal=   None    Shift=    0.000
 RMSDP=1.95D-08 MaxDP=4.93D-07 DE=-1.47D-10 OVMax= 1.14D-06

 Cycle  15  Pass 1  IDiag  1:
 E= -499.415811717085     Delta-E=        0.000000000001 Rises=F Damp=F
 DIIS: error= 5.78D-08 at cycle   7 NSaved=   7.
 NSaved= 7 IEnMin= 6 EnMin= -499.415811717086     IErMin= 7 ErrMin= 5.78D-08
 ErrMax= 5.78D-08 EMaxC= 1.00D-01 BMatC= 1.13D-12 BMatP= 6.46D-12
 IDIUse=1 WtCom= 1.00D+00 WtEn= 0.00D+00
 Coeff-Com: -0.808D-03 0.389D-02 0.123D-01 0.183D-01 0.736D-01 0.351D+00
 Coeff-Com:  0.541D+00
 Coeff:     -0.808D-03 0.389D-02 0.123D-01 0.183D-01 0.736D-01 0.351D+00
 Coeff:      0.541D+00
 Gap=     0.177 Goal=   None    Shift=    0.000
 RMSDP=8.05D-09 MaxDP=2.04D-07 DE= 1.36D-12 OVMax= 5.46D-07

 SCF Done:  E(RB3LYP) =  -499.415811717     A.U. after   15 cycles
             Convg  =    0.8055D-08             -V/T =  2.0093
 KE= 4.947993793911D+02 PE=-2.314867542051D+03 EE= 7.444134183954D+02
 Leave Link  502 at Wed Sep 29 00:37:48 2021, MaxMem=  805306368 cpu:      96.3
 (Enter /sw/target/amd/app/gaussian/Gaussian09RevA.02_gcc-4.9.2/g09/l508.exe)
 QCSCF skips out because SCF is already converged.
 Leave Link  508 at Wed Sep 29 00:37:48 2021, MaxMem=  805306368 cpu:       0.0
 (Enter /sw/target/amd/app/gaussian/Gaussian09RevA.02_gcc-4.9.2/g09/l601.exe)
 Copying SCF densities to generalized density rwf, IOpCl= 0 IROHF=0.

 **********************************************************************

            Population analysis using the SCF density.

 **********************************************************************

 Orbital symmetries:
       Occupied  (A) (A) (A) (A) (A) (A) (A) (A) (A) (A) (A) (A)
                 (A) (A) (A) (A) (A) (A) (A) (A) (A) (A) (A) (A)
                 (A) (A) (A) (A) (A) (A) (A) (A) (A) (A) (A) (A)
                 (A) (A) (A) (A)
       Virtual   (A) (A) (A) (A) (A) (A) (A) (A) (A) (A) (A) (A)
                 (A) (A) (A) (A) (A) (A) (A) (A) (A) (A) (A) (A)
                 (A) (A) (A) (A) (A) (A) (A) (A) (A) (A) (A) (A)
                 (A) (A) (A) (A) (A) (A) (A) (A) (A) (A) (A) (A)
                 (A) (A) (A) (A) (A) (A) (A) (A) (A) (A) (A) (A)
                 (A) (A) (A) (A) (A) (A) (A) (A) (A) (A) (A) (A)
                 (A) (A) (A) (A) (A) (A) (A) (A) (A) (A) (A) (A)
                 (A) (A) (A) (A) (A) (A) (A) (A) (A) (A) (A) (A)
                 (A) (A) (A) (A) (A) (A) (A) (A) (A) (A) (A) (A)
                 (A) (A) (A) (A) (A) (A) (A) (A) (A) (A) (A) (A)
                 (A) (A) (A) (A) (A) (A) (A) (A) (A) (A) (A) (A)
                 (A) (A) (A) (A) (A) (A) (A) (A) (A) (A) (A) (A)
                 (A)
 The electronic state is 1-A.
 Alpha  occ. eigenvalues --  -19.17771 -19.13246 -10.27391 -10.25129 -10.23999
 Alpha  occ. eigenvalues --  -10.20182 -10.19951 -10.19748 -10.19572 -10.19355
 Alpha  occ. eigenvalues --  -10.18851  -1.06384  -1.02896  -0.85968  -0.77653
 Alpha  occ. eigenvalues --   -0.75291  -0.73836  -0.69628  -0.63390  -0.60021
 Alpha  occ. eigenvalues --   -0.55506  -0.51533  -0.49335  -0.48089  -0.47075
 Alpha  occ. eigenvalues --   -0.45607  -0.44769  -0.44235  -0.42569  -0.40846
 Alpha  occ. eigenvalues --   -0.38921  -0.38402  -0.37658  -0.36044  -0.35686
 Alpha  occ. eigenvalues --   -0.33707  -0.31054  -0.25652  -0.24645  -0.23069
 Alpha virt. eigenvalues --   -0.05396   0.00013   0.04481   0.08840   0.10629
 Alpha virt. eigenvalues --    0.11317   0.13202   0.15009   0.15118   0.15506
 Alpha virt. eigenvalues --    0.16271   0.16748   0.18198   0.19090   0.20204
 Alpha virt. eigenvalues --    0.23459   0.25519   0.28932   0.30258   0.31249
 Alpha virt. eigenvalues --    0.32350   0.38853   0.39496   0.46247   0.50010
 Alpha virt. eigenvalues --    0.50864   0.51146   0.53628   0.54339   0.54554
 Alpha virt. eigenvalues --    0.56179   0.57331   0.58983   0.59483   0.60339
 Alpha virt. eigenvalues --    0.60903   0.61178   0.62276   0.65719   0.66660
 Alpha virt. eigenvalues --    0.67394   0.69923   0.73335   0.75288   0.75501
 Alpha virt. eigenvalues --    0.77939   0.82060   0.82368   0.83220   0.84407
 Alpha virt. eigenvalues --    0.85482   0.86834   0.87777   0.88420   0.90060
 Alpha virt. eigenvalues --    0.91507   0.93490   0.94007   0.95447   0.98844
 Alpha virt. eigenvalues --    0.99608   1.02526   1.02908   1.04888   1.06124
 Alpha virt. eigenvalues --    1.10497   1.14530   1.14725   1.18534   1.21274
 Alpha virt. eigenvalues --    1.23394   1.27807   1.32182   1.33452   1.35119
 Alpha virt. eigenvalues --    1.37202   1.41380   1.42499   1.44803   1.47137
 Alpha virt. eigenvalues --    1.48863   1.49095   1.50353   1.53587   1.66323
 Alpha virt. eigenvalues --    1.67745   1.71218   1.76254   1.76382   1.79539
 Alpha virt. eigenvalues --    1.82469   1.85472   1.86356   1.87357   1.91945
 Alpha virt. eigenvalues --    1.93412   1.94163   1.97082   2.00671   2.02554
 Alpha virt. eigenvalues --    2.03066   2.06195   2.07230   2.09579   2.12776
 Alpha virt. eigenvalues --    2.16086   2.16195   2.22568   2.23636   2.24880
 Alpha virt. eigenvalues --    2.26800   2.28677   2.29096   2.33031   2.36319
 Alpha virt. eigenvalues --    2.42205   2.43019   2.50209   2.51440   2.56824
 Alpha virt. eigenvalues --    2.59345   2.64233   2.65037   2.67397   2.71383
 Alpha virt. eigenvalues --    2.74807   2.80473   2.81653   2.91557   2.97227
 Alpha virt. eigenvalues --    3.00055   3.08394   3.20020   3.42990   3.96783
 Alpha virt. eigenvalues --    4.03760   4.08480   4.13055   4.19757   4.22714
 Alpha virt. eigenvalues --    4.29409   4.33648   4.42846   4.53090   4.76929
          Condensed to atoms (all electrons):
              1          2          3          4          5          6
     1  C    4.901593   0.246751  -0.042268   0.003171  -0.000187   0.000028
     2  O    0.246751   8.212007   0.267552  -0.057261   0.003552   0.000359
     3  C   -0.042268   0.267552   4.578354   0.539659  -0.012278  -0.036125
     4  C    0.003171  -0.057261   0.539659   4.975439   0.527191  -0.040871
     5  C   -0.000187   0.003552  -0.012278   0.527191   4.877141   0.512618
     6  C    0.000028   0.000359  -0.036125  -0.040871   0.512618   5.065020
     7  C    0.000471   0.003344  -0.002309  -0.031624  -0.009873   0.507687
     8  C   -0.005920  -0.054823   0.403253  -0.071912  -0.039202  -0.093169
     9  C   -0.000018  -0.000059   0.006060   0.000476   0.004192  -0.043019
    10  O   -0.000003   0.000000   0.001517  -0.000003  -0.000077   0.004642
    11  C   -0.000000   0.000000  -0.000051   0.000005  -0.000190  -0.010438
    12  H    0.381434  -0.030591   0.003443  -0.000129   0.000002   0.000000
    13  H    0.365481  -0.037896  -0.000832   0.000999  -0.000030  -0.000019
    14  H    0.367014  -0.034577  -0.008278  -0.000191   0.000019  -0.000002
    15  H   -0.000158  -0.000102  -0.037362   0.346782  -0.042601   0.005178
    16  H    0.000003  -0.000060   0.003823  -0.038506   0.358985  -0.039139
    17  H   -0.000000   0.000002   0.000478   0.004637  -0.045476   0.353113
    18  H    0.003631  -0.005639  -0.044353   0.004705   0.000171   0.005774
    19  H    0.000000   0.000000  -0.000005   0.000000   0.000123   0.000803
    20  H    0.000000  -0.000000   0.000001   0.000000   0.000000   0.000132
    21  H    0.000000   0.000000  -0.000002  -0.000001   0.000083   0.000497
              7          8          9         10         11         12
     1  C    0.000471  -0.005920  -0.000018  -0.000003  -0.000000   0.381434
     2  O    0.003344  -0.054823  -0.000059   0.000000   0.000000  -0.030591
     3  C   -0.002309   0.403253   0.006060   0.001517  -0.000051   0.003443
     4  C   -0.031624  -0.071912   0.000476  -0.000003   0.000005  -0.000129
     5  C   -0.009873  -0.039202   0.004192  -0.000077  -0.000190   0.000002
     6  C    0.507687  -0.093169  -0.043019   0.004642  -0.010438   0.000000
     7  C    5.029097   0.438435   0.270749  -0.090440  -0.126893   0.000007
     8  C    0.438435   5.297156  -0.020652  -0.001236   0.011059   0.000277
     9  C    0.270749  -0.020652   4.558919   0.573706   0.322453  -0.000000
    10  O   -0.090440  -0.001236   0.573706   8.033416  -0.091762  -0.000000
    11  C   -0.126893   0.011059   0.322453  -0.091762   5.379065  -0.000000
    12  H    0.000007   0.000277  -0.000000  -0.000000  -0.000000   0.545862
    13  H   -0.000191   0.004035   0.000001   0.000001   0.000000  -0.031848
    14  H   -0.000119   0.003731   0.000007  -0.000034  -0.000000  -0.035450
    15  H    0.000200   0.007103   0.000010   0.000000  -0.000000  -0.000033
    16  H    0.003343   0.000604  -0.000121   0.000000   0.000009  -0.000000
    17  H   -0.037196   0.005810  -0.012112   0.000050   0.007898  -0.000000
    18  H   -0.041255   0.343921  -0.009612   0.020622   0.000864  -0.000149
    19  H    0.002000  -0.000415  -0.017836   0.001684   0.347810   0.000000
    20  H    0.005509  -0.000129  -0.020291   0.005991   0.349909   0.000000
    21  H    0.002125  -0.000367  -0.018030   0.001258   0.350007   0.000000
             13         14         15         16         17         18
     1  C    0.365481   0.367014  -0.000158   0.000003  -0.000000   0.003631
     2  O   -0.037896  -0.034577  -0.000102  -0.000060   0.000002  -0.005639
     3  C   -0.000832  -0.008278  -0.037362   0.003823   0.000478  -0.044353
     4  C    0.000999  -0.000191   0.346782  -0.038506   0.004637   0.004705
     5  C   -0.000030   0.000019  -0.042601   0.358985  -0.045476   0.000171
     6  C   -0.000019  -0.000002   0.005178  -0.039139   0.353113   0.005774
     7  C   -0.000191  -0.000119   0.000200   0.003343  -0.037196  -0.041255
     8  C    0.004035   0.003731   0.007103   0.000604   0.005810   0.343921
     9  C    0.000001   0.000007   0.000010  -0.000121  -0.012112  -0.009612
    10  O    0.000001  -0.000034   0.000000   0.000000   0.000050   0.020622
    11  C    0.000000  -0.000000  -0.000000   0.000009   0.007898   0.000864
    12  H   -0.031848  -0.035450  -0.000033  -0.000000  -0.000000  -0.000149
    13  H    0.587523  -0.044199   0.000032   0.000000   0.000000   0.000730
    14  H   -0.044199   0.589552   0.000030  -0.000000   0.000000   0.003060
    15  H    0.000032   0.000030   0.583443  -0.006040  -0.000166  -0.000141
    16  H    0.000000  -0.000000  -0.006040   0.585449  -0.005074   0.000016
    17  H    0.000000   0.000000  -0.000166  -0.005074   0.593702  -0.000142
    18  H    0.000730   0.003060  -0.000141   0.000016  -0.000142   0.552494
    19  H    0.000000   0.000000   0.000000  -0.000004   0.001220  -0.000027
    20  H   -0.000000   0.000000  -0.000000  -0.000000  -0.000064  -0.000019
    21  H   -0.000000   0.000000   0.000000  -0.000004   0.000906  -0.000024
             19         20         21
     1  C    0.000000   0.000000   0.000000
     2  O    0.000000  -0.000000   0.000000
     3  C   -0.000005   0.000001  -0.000002
     4  C    0.000000   0.000000  -0.000001
     5  C    0.000123   0.000000   0.000083
     6  C    0.000803   0.000132   0.000497
     7  C    0.002000   0.005509   0.002125
     8  C   -0.000415  -0.000129  -0.000367
     9  C   -0.017836  -0.020291  -0.018030
    10  O    0.001684   0.005991   0.001258
    11  C    0.347810   0.349909   0.350007
    12  H    0.000000   0.000000   0.000000
    13  H    0.000000  -0.000000  -0.000000
    14  H    0.000000   0.000000   0.000000
    15  H    0.000000  -0.000000   0.000000
    16  H   -0.000004  -0.000000  -0.000004
    17  H    0.001220  -0.000064   0.000906
    18  H   -0.000027  -0.000019  -0.000024
    19  H    0.540467  -0.023438  -0.024461
    20  H   -0.023438   0.524009  -0.022254
    21  H   -0.024461  -0.022254   0.535951
 Mulliken atomic charges:
              1
     1  C   -0.221025
     2  O   -0.512561
     3  C    0.379722
     4  C   -0.162569
     5  C   -0.134163
     6  C   -0.193068
     7  C    0.076934
     8  C   -0.227559
     9  C    0.405176
    10  O   -0.459332
    11  C   -0.539744
    12  H    0.167175
    13  H    0.156212
    14  H    0.159438
    15  H    0.143825
    16  H    0.136715
    17  H    0.132414
    18  H    0.165374
    19  H    0.172079
    20  H    0.180642
    21  H    0.174315
 Sum of Mulliken atomic charges =  -0.00000
 Mulliken charges with hydrogens summed into heavy atoms:
              1
     1  C    0.261800
     2  O   -0.512561
     3  C    0.379722
     4  C   -0.018744
     5  C    0.002553
     6  C   -0.060654
     7  C    0.076934
     8  C   -0.062185
     9  C    0.405176
    10  O   -0.459332
    11  C   -0.012708
 Sum of Mulliken charges with hydrogens summed into heavy atoms =  -0.00000
 Electronic spatial extent (au):  <R**2>=           1999.2578
 Charge=             -0.0000 electrons
 Dipole moment (field-independent basis, Debye):
    X=             -0.3310    Y=              1.7888    Z=              0.8060  Tot=              1.9897
 Quadrupole moment (field-independent basis, Debye-Ang):
   XX=            -58.6066   YY=            -62.9011   ZZ=            -65.2982
   XY=              9.2180   XZ=             -1.3611   YZ=             -0.5161
 Traceless Quadrupole moment (field-independent basis, Debye-Ang):
   XX=              3.6621   YY=             -0.6325   ZZ=             -3.0296
   XY=              9.2180   XZ=             -1.3611   YZ=             -0.5161
 Octapole moment (field-independent basis, Debye-Ang**2):
  XXX=              5.3589  YYY=             11.4112  ZZZ=             -0.0424  XYY=            -25.5470
  XXY=             -3.4445  XXZ=              6.8140  XZZ=              1.3108  YZZ=             -6.8055
  YYZ=              1.1147  XYZ=              1.1168
 Hexadecapole moment (field-independent basis, Debye-Ang**3):
 XXXX=          -1674.2663 YYYY=           -725.0091 ZZZZ=            -84.5132 XXXY=             49.5680
 XXXZ=            -14.9983 YYYX=             30.8039 YYYZ=              2.9847 ZZZX=              0.0684
 ZZZY=             -0.4713 XXYY=           -402.9482 XXZZ=           -304.8838 YYZZ=           -145.1803
 XXYZ=             -6.7241 YYXZ=              1.6653 ZZXY=              0.1274
 N-N= 5.762389325470D+02 E-N=-2.314867552060D+03  KE= 4.947993793911D+02
 No NMR shielding tensors so no spin-rotation constants.
 Leave Link  601 at Wed Sep 29 00:37:50 2021, MaxMem=  805306368 cpu:       0.8
 (Enter /sw/target/amd/app/gaussian/Gaussian09RevA.02_gcc-4.9.2/g09/l701.exe)
 Compute integral first derivatives.
 ... and contract with generalized density number  0.
 Leave Link  701 at Wed Sep 29 00:37:51 2021, MaxMem=  805306368 cpu:       0.8
 (Enter /sw/target/amd/app/gaussian/Gaussian09RevA.02_gcc-4.9.2/g09/l702.exe)
 L702 exits ... SP integral derivatives will be done elsewhere.
 Leave Link  702 at Wed Sep 29 00:37:51 2021, MaxMem=  805306368 cpu:       0.1
 (Enter /sw/target/amd/app/gaussian/Gaussian09RevA.02_gcc-4.9.2/g09/l703.exe)
 Compute integral first derivatives, UseDBF=F ICtDFT=           0.
 Integral derivatives from FoFDir, PRISM(SPDF).
 Calling FoFJK, ICntrl=      2127 FMM=F ISym2X=0 I1Cent= 0 IOpClX= 0 NMat=1 NMatS=1 NMatT=0.
 FoFCou: FMM=F IPFlag=           0 FMFlag=      100000 FMFlg1=         800
         NFxFlg=           0 DoJE=F BraDBF=F KetDBF=F FulRan=T
         Omega=  0.000000  0.000000  1.000000  0.000000  0.000000 ICntrl=    2127 IOpCl=  0
         NMat0=    1 NMatS0=    1 NMatT0=    0 NMatD0=    1 NMtDS0=    0 NMtDT0=    0
         I1Cent=           0 NGrid=           0.
 Symmetry not used in FoFCou.
 Leave Link  703 at Wed Sep 29 00:38:49 2021, MaxMem=  805306368 cpu:      42.1
 (Enter /sw/target/amd/app/gaussian/Gaussian09RevA.02_gcc-4.9.2/g09/l716.exe)
 Dipole        =-1.30227766D-01 7.03751904D-01 3.17106595D-01
 ***** Axes restored to original set *****
 -------------------------------------------------------------------
 Center     Atomic                   Forces (Hartrees/Bohr)
 Number     Number              X              Y              Z
 -------------------------------------------------------------------
      1        6          -0.005145778   -0.004573168    0.003872594
      2        8           0.004891851   -0.003066886    0.003685095
      3        6          -0.002579116    0.000547856   -0.003427950
      4        6          -0.002966435    0.012888943   -0.003534150
      5        6          -0.000680992   -0.004947574    0.001508849
      6        6          -0.002455880    0.004935467   -0.001039529
      7        6          -0.002254608    0.002112567    0.000620091
      8        6          -0.000305860   -0.004874195    0.003036865
      9        6           0.001648602   -0.014455796    0.007514758
     10        8          -0.001265162    0.007103271   -0.003321968
     11        6           0.006059068   -0.006457781   -0.004351738
     12        1          -0.002797404    0.002863104   -0.002105740
     13        1           0.003392223   -0.000664885   -0.002142583
     14        1           0.002908325    0.000184663   -0.000373833
     15        1           0.001167361   -0.002594432    0.000937060
     16        1           0.000217923   -0.000678613    0.000199148
     17        1           0.001787820   -0.002096176    0.000175166
     18        1           0.001839859    0.003331132   -0.001151163
     19        1          -0.000542583    0.005762055    0.000055662
     20        1          -0.001012673   -0.000411962    0.001981947
     21        1          -0.001906540    0.005092409   -0.002138583
 -------------------------------------------------------------------
 Cartesian Forces:  Max     0.014455796 RMS     0.003978239
 Leave Link  716 at Wed Sep 29 00:38:49 2021, MaxMem=  805306368 cpu:       0.0
 (Enter /sw/target/amd/app/gaussian/Gaussian09RevA.02_gcc-4.9.2/g09/l103.exe)

 GradGradGradGradGradGradGradGradGradGradGradGradGradGradGradGradGradGrad
 Berny optimization.
 Internal  Forces:  Max     0.010784007 RMS     0.002484880
 Search for a local minimum.
 Step number   1 out of a maximum of  104
 All quantities printed in internal units (Hartrees-Bohrs-Radians)
 RMS Force = .24849D-02 SwitMx=.10000D-02 MixMth= 1
 Mixed Optimization -- RFO/linear search
 Second derivative matrix not updated -- first step.
     Eigenvalues ---    0.00663   0.00738   0.00852   0.01368   0.01695
     Eigenvalues ---    0.02070   0.02102   0.02114   0.02118   0.02133
     Eigenvalues ---    0.02144   0.02151   0.02152   0.02154   0.07245
     Eigenvalues ---    0.07552   0.09923   0.10533   0.15995   0.15999
     Eigenvalues ---    0.16000   0.16000   0.16000   0.16000   0.16000
     Eigenvalues ---    0.16000   0.16000   0.16000   0.21998   0.23469
     Eigenvalues ---    0.23487   0.24972   0.24999   0.25000   0.25000
     Eigenvalues ---    0.25000   0.31578   0.33066   0.34189   0.34313
     Eigenvalues ---    0.34325   0.34362   0.34465   0.34584   0.35054
     Eigenvalues ---    0.35138   0.35178   0.35277   0.41664   0.41792
     Eigenvalues ---    0.42160   0.45459   0.46011   0.46324   0.46447
     Eigenvalues ---    0.51411   0.916161000.000001000.000001000.00000
     Eigenvalues --- 1000.000001000.000001000.000001000.000001000.00000
     Eigenvalues --- 1000.000001000.000001000.000001000.000001000.00000
     Eigenvalues --- 1000.000001000.000001000.000001000.000001000.00000
     Eigenvalues --- 1000.000001000.000001000.000001000.000001000.00000
     Eigenvalues --- 1000.000001000.000001000.000001000.000001000.00000
     Eigenvalues --- 1000.000001000.000001000.000001000.000001000.00000
     Eigenvalues --- 1000.000001000.000001000.000001000.00000
 RFO step:  Lambda=-3.62909532D-03 EMin= 6.63435684D-03
 Linear search not attempted -- first point.
 Iteration  1 RMS(Cart)=  0.07630658 RMS(Int)=  0.00460085
 Iteration  2 RMS(Cart)=  0.00628055 RMS(Int)=  0.00008415
 Iteration  3 RMS(Cart)=  0.00004226 RMS(Int)=  0.00007964
 Iteration  4 RMS(Cart)=  0.00000000 RMS(Int)=  0.00007964
 Variable       Old X    -DE/DX   Delta X   Delta X   Delta X     New X
                                 (Linear)    (Quad)   (Total)
    R1        2.69189   0.00014   0.00000   0.00033   0.00033   2.69222
    R2        2.06785  -0.00077   0.00000  -0.00222  -0.00222   2.06562
    R3        2.07013   0.00094   0.00000   0.00273   0.00273   2.07286
    R4        2.06723   0.00122   0.00000   0.00351   0.00351   2.07074
    R5        2.58467   0.00295   0.00000   0.00570   0.00570   2.59038
    R6        2.63663   0.00678   0.00000   0.01480   0.01478   2.65141
    R7        2.63583   0.00015   0.00000   0.00056   0.00056   2.63639
    R8        2.63654  -0.00260   0.00000  -0.00549  -0.00550   2.63103
    R9        2.05587  -0.00139   0.00000  -0.00393  -0.00393   2.05194
   R10        2.63880   0.00054   0.00000   0.00091   0.00092   2.63972
   R11        2.05452  -0.00074   0.00000  -0.00207  -0.00207   2.05244
   R12        2.64500   0.00148   0.00000   0.00289   0.00291   2.64792
   R13        2.05228  -0.00059   0.00000  -0.00166  -0.00166   2.05063
   R14        2.65320  -0.00077   0.00000  -0.00177  -0.00176   2.65144
   R15        2.82235   0.00378   0.00000   0.01131   0.01131   2.83367
   R16        2.05387  -0.00259   0.00000  -0.00728  -0.00728   2.04659
   R17        2.32197  -0.00769   0.00000  -0.00836  -0.00836   2.31361
   R18        2.84923   0.00648   0.00000   0.02030   0.02030   2.86953
   R19        2.06553   0.00165   0.00000   0.00474   0.00474   2.07027
   R20        2.06805  -0.00130   0.00000  -0.00376  -0.00376   2.06429
   R21        2.06356   0.00255   0.00000   0.00729   0.00729   2.07085
    A1        1.87899  -0.00590   0.00000  -0.03345  -0.03339   1.84560
    A2        1.93267   0.00125   0.00000   0.00654   0.00658   1.93925
    A3        1.95481   0.00126   0.00000   0.00605   0.00609   1.96090
    A4        1.88396   0.00353   0.00000   0.02490   0.02497   1.90893
    A5        1.87066   0.00306   0.00000   0.02063   0.02068   1.89134
    A6        1.93924  -0.00313   0.00000  -0.02370  -0.02368   1.91556
    A7        2.01663   0.01078   0.00000   0.04252   0.04252   2.05914
    A8        2.01403   0.00268   0.00000   0.01019   0.01019   2.02422
    A9        2.18322  -0.00297   0.00000  -0.01214  -0.01215   2.17107
   A10        2.08502   0.00031   0.00000   0.00257   0.00248   2.08750
   A11        2.10350  -0.00166   0.00000  -0.00642  -0.00654   2.09696
   A12        2.08831  -0.00188   0.00000  -0.01328  -0.01328   2.07503
   A13        2.09132   0.00354   0.00000   0.01986   0.01986   2.11118
   A14        2.09471   0.00147   0.00000   0.00638   0.00630   2.10102
   A15        2.09059  -0.00081   0.00000  -0.00362  -0.00363   2.08696
   A16        2.09788  -0.00066   0.00000  -0.00272  -0.00272   2.09516
   A17        2.09299  -0.00038   0.00000  -0.00268  -0.00272   2.09027
   A18        2.06462   0.00294   0.00000   0.01821   0.01819   2.08280
   A19        2.12555  -0.00256   0.00000  -0.01544  -0.01546   2.11009
   A20        2.08774   0.00085   0.00000   0.00280   0.00280   2.09055
   A21        2.13485   0.00134   0.00000   0.00557   0.00557   2.14042
   A22        2.06058  -0.00219   0.00000  -0.00836  -0.00837   2.05222
   A23        2.10205  -0.00058   0.00000  -0.00193  -0.00203   2.10002
   A24        2.10989   0.00305   0.00000   0.01807   0.01799   2.12789
   A25        2.07094  -0.00246   0.00000  -0.01558  -0.01566   2.05528
   A26        2.09384   0.00264   0.00000   0.01044   0.01041   2.10425
   A27        2.07810  -0.00073   0.00000  -0.00285  -0.00288   2.07522
   A28        2.11122  -0.00191   0.00000  -0.00749  -0.00752   2.10370
   A29        1.92719   0.00290   0.00000   0.01455   0.01453   1.94172
   A30        1.90318  -0.00233   0.00000  -0.00614  -0.00619   1.89700
   A31        1.92163   0.00280   0.00000   0.01201   0.01202   1.93365
   A32        1.88239   0.00156   0.00000   0.01963   0.01955   1.90194
   A33        1.93874  -0.00585   0.00000  -0.05086  -0.05083   1.88791
   A34        1.88958   0.00087   0.00000   0.01148   0.01146   1.90104
    D1        3.07602  -0.00077   0.00000  -0.05562  -0.05563   3.02038
    D2        1.02023  -0.00222   0.00000  -0.06940  -0.06936   0.95087
    D3       -1.15502   0.00000   0.00000  -0.04780  -0.04783  -1.20285
    D4       -2.63563  -0.00309   0.00000  -0.12468  -0.12467  -2.76030
    D5        0.55225  -0.00349   0.00000  -0.14062  -0.14064   0.41162
    D6       -3.12766   0.00053   0.00000   0.01758   0.01731  -3.11036
    D7        0.02506   0.00007   0.00000   0.00069   0.00071   0.02576
    D8       -0.02957   0.00081   0.00000   0.03212   0.03203   0.00246
    D9        3.12315   0.00034   0.00000   0.01523   0.01543   3.13858
   D10        3.11545   0.00006   0.00000   0.00049   0.00046   3.11591
   D11        0.00053  -0.00053   0.00000  -0.02420  -0.02442  -0.02388
   D12        0.02189  -0.00041   0.00000  -0.01621  -0.01622   0.00567
   D13       -3.09303  -0.00100   0.00000  -0.04089  -0.04110  -3.13413
   D14        0.01654  -0.00065   0.00000  -0.02577  -0.02572  -0.00918
   D15       -3.12851  -0.00033   0.00000  -0.01220  -0.01211  -3.14062
   D16       -3.13620  -0.00022   0.00000  -0.00907  -0.00898   3.13800
   D17        0.00194   0.00011   0.00000   0.00451   0.00463   0.00657
   D18        0.00437   0.00005   0.00000   0.00322   0.00334   0.00771
   D19        3.13858   0.00039   0.00000   0.01656   0.01674  -3.12786
   D20       -3.13375  -0.00027   0.00000  -0.01041  -0.01033   3.13910
   D21        0.00046   0.00006   0.00000   0.00293   0.00306   0.00352
   D22       -0.01191   0.00031   0.00000   0.01235   0.01233   0.00041
   D23        3.12460   0.00037   0.00000   0.01481   0.01471   3.13931
   D24        3.13733  -0.00006   0.00000  -0.00162  -0.00143   3.13590
   D25       -0.00934   0.00000   0.00000   0.00084   0.00095  -0.00839
   D26       -0.00127  -0.00015   0.00000  -0.00585  -0.00583  -0.00710
   D27        3.11423   0.00051   0.00000   0.01879   0.01853   3.13276
   D28       -3.13800  -0.00022   0.00000  -0.00824  -0.00813   3.13705
   D29       -0.02249   0.00044   0.00000   0.01640   0.01623  -0.00627
   D30        3.13513   0.00001   0.00000   0.00337   0.00346   3.13859
   D31        0.00141  -0.00015   0.00000  -0.01152  -0.01152  -0.01011
   D32       -0.01147   0.00008   0.00000   0.00582   0.00583  -0.00564
   D33        3.13800  -0.00008   0.00000  -0.00907  -0.00916   3.12885
   D34       -1.02794   0.00189   0.00000   0.02261   0.02262  -1.00532
   D35       -3.09323  -0.00032   0.00000  -0.00625  -0.00630  -3.09953
   D36        1.11919  -0.00162   0.00000  -0.02365  -0.02371   1.09549
   D37        2.12161   0.00172   0.00000   0.00748   0.00756   2.12917
   D38        0.05632  -0.00049   0.00000  -0.02137  -0.02136   0.03496
   D39       -2.01444  -0.00180   0.00000  -0.03878  -0.03877  -2.05321
         Item               Value     Threshold  Converged?
 Maximum Force            0.010784     0.000450     NO 
 RMS     Force            0.002485     0.000300     NO 
 Maximum Displacement     0.341874     0.001800     NO 
 RMS     Displacement     0.078400     0.001200     NO 
 Predicted change in Energy=-1.936433D-03
 GradGradGradGradGradGradGradGradGradGradGradGradGradGradGradGradGradGrad

 Leave Link  103 at Wed Sep 29 00:38:56 2021, MaxMem=  805306368 cpu:       2.9
 (Enter /sw/target/amd/app/gaussian/Gaussian09RevA.02_gcc-4.9.2/g09/l202.exe)
                          Input orientation:                          
 ---------------------------------------------------------------------
 Center     Atomic      Atomic             Coordinates (Angstroms)
 Number     Number       Type             X           Y           Z
 ---------------------------------------------------------------------
      1          6           0        3.386632   -0.188949    0.261560
      2          8           0        2.704403    0.829591   -0.464246
      3          6           0        3.418740    1.551655   -1.384765
      4          6           0        2.892620    2.807562   -1.723120
      5          6           0        3.528068    3.597925   -2.677051
      6          6           0        4.698541    3.153570   -3.296574
      7          6           0        5.230256    1.901061   -2.962049
      8          6           0        4.583195    1.101693   -2.007605
      9          6           0        6.480419    1.359711   -3.588603
     10          8           0        6.913352    0.261032   -3.265483
     11          6           0        7.195700    2.192734   -4.637537
     12          1           0        2.677212   -0.542710    1.014155
     13          1           0        4.277587    0.211081    0.760944
     14          1           0        3.667308   -1.036518   -0.373732
     15          1           0        1.984226    3.145070   -1.233266
     16          1           0        3.113234    4.568976   -2.931212
     17          1           0        5.186886    3.788860   -4.028328
     18          1           0        5.017861    0.136192   -1.780045
     19          1           0        6.532720    2.428575   -5.477207
     20          1           0        8.052513    1.626477   -5.009709
     21          1           0        7.552360    3.135876   -4.208399
 ---------------------------------------------------------------------
                    Distance matrix (angstroms):
                    1          2          3          4          5
     1  C    0.000000
     2  O    1.424659   0.000000
     3  C    2.396063   1.370769   0.000000
     4  C    3.627958   2.352139   1.403064   0.000000
     5  C    4.795399   3.638489   2.422639   1.392284   0.000000
     6  C    5.055082   4.171276   2.803397   2.420089   1.396878
     7  C    4.261307   3.710390   2.427240   2.796647   2.420334
     8  C    2.871693   2.446600   1.395116   2.418463   2.791528
     9  C    5.176255   4.929597   3.777250   4.295184   3.815351
    10  O    5.008019   5.087773   4.173142   5.002997   4.789703
    11  C    6.646996   6.280626   5.025628   5.233388   4.389715
    12  H    1.093080   2.017330   3.269717   4.331674   5.611936
    13  H    1.096908   2.087714   2.671857   3.851028   4.883882
    14  H    1.095786   2.101842   2.789734   4.147040   5.177136
    15  H    3.913685   2.543912   2.149362   1.085840   2.161722
    16  H    5.736409   4.498451   3.404270   2.147263   1.086105
    17  H    6.121030   5.255728   3.888425   3.397145   2.148042
    18  H    2.633395   2.750312   2.171858   3.414105   3.873978
    19  H    7.048598   6.507114   5.216698   5.242817   4.270385
    20  H    7.269972   7.063890   5.883678   6.230661   5.458801
    21  H    6.956167   6.545250   5.250664   5.291274   4.330524
                    6          7          8          9         10
     6  C    0.000000
     7  C    1.401217   0.000000
     8  C    2.425891   1.403082   0.000000
     9  C    2.545250   1.499513   2.483061   0.000000
    10  O    3.643231   2.369510   2.778237   1.224309   0.000000
    11  C    2.992857   2.599097   3.864208   1.518492   2.386153
    12  H    6.027491   5.319797   3.932921   6.266496   6.075046
    13  H    5.029801   4.198128   2.924286   5.009030   4.812677
    14  H    5.211841   4.215633   2.842593   4.898051   4.536812
    15  H    3.409519   3.882391   3.395531   5.380602   6.061672
    16  H    2.156400   3.405951   3.877613   4.697816   5.754217
    17  H    1.085144   2.168552   3.415938   2.786996   4.001023
    18  H    3.392108   2.134715   1.083010   2.628109   2.411430
    19  H    2.940237   2.881095   4.195165   2.170721   3.120072
    20  H    4.063985   3.497634   4.617814   2.135928   2.490875
    21  H    2.996000   2.910382   4.218689   2.165170   3.092272
                   11         12         13         14         15
    11  C    0.000000
    12  H    7.735697   0.000000
    13  H    6.448715   1.787041   0.000000
    14  H    6.407625   1.774927   1.793442   0.000000
    15  H    6.297259   4.373884   4.224295   4.588817   0.000000
    16  H    5.022410   6.471891   5.829149   6.186216   2.487004
    17  H    2.637060   7.105463   6.046855   6.240951   4.299288
    18  H    4.139760   3.707708   2.647685   2.275293   4.307582
    19  H    1.095541   8.113647   6.994100   6.801685   6.262045
    20  H    1.092377   8.359795   7.039450   6.914756   7.306967
    21  H    1.095848   8.035803   6.631208   6.870747   6.313130
                   16         17         18         19         20
    16  H    0.000000
    17  H    2.472302   0.000000
    18  H    4.960077   4.292474   0.000000
    19  H    4.770355   2.400186   4.606390   0.000000
    20  H    6.113503   3.721669   4.675553   1.780923   0.000000
    21  H    4.836405   2.460544   4.617217   1.774772   1.780600
                   21
    21  H    0.000000
 Stoichiometry    C9H10O2
 Framework group  C1[X(C9H10O2)]
 Deg. of freedom    57
 Full point group                 C1      NOp   1
 Largest Abelian subgroup         C1      NOp   1
 Largest concise Abelian subgroup C1      NOp   1
                         Standard orientation:                         
 ---------------------------------------------------------------------
 Center     Atomic      Atomic             Coordinates (Angstroms)
 Number     Number       Type             X           Y           Z
 ---------------------------------------------------------------------
      1          6           0       -2.990266   -1.623503    0.206780
      2          8           0       -2.798211   -0.268074   -0.187658
      3          6           0       -1.536428    0.258174   -0.087781
      4          6           0       -1.457824    1.657265   -0.017403
      5          6           0       -0.217059    2.285469    0.048299
      6          6           0        0.957802    1.529880    0.055809
      7          6           0        0.886370    0.132155   -0.012524
      8          6           0       -0.364533   -0.498802   -0.088514
      9          6           0        2.105504   -0.740914   -0.011802
     10          8           0        1.998834   -1.959192   -0.069719
     11          6           0        3.475255   -0.088641    0.052528
     12          1           0       -4.069310   -1.793710    0.167818
     13          1           0       -2.632051   -1.791807    1.229798
     14          1           0       -2.504533   -2.329159   -0.476492
     15          1           0       -2.377101    2.235165   -0.020470
     16          1           0       -0.167077    3.369022    0.103420
     17          1           0        1.915280    2.036438    0.120396
     18          1           0       -0.381299   -1.580023   -0.148425
     19          1           0        3.622324    0.609017   -0.779250
     20          1           0        4.237534   -0.869338    0.000281
     21          1           0        3.598311    0.466027    0.989589
 ---------------------------------------------------------------------
 Rotational constants (GHZ):      1.8772898      0.7651680      0.5493438
 Leave Link  202 at Wed Sep 29 00:38:56 2021, MaxMem=  805306368 cpu:       0.0
 (Enter /sw/target/amd/app/gaussian/Gaussian09RevA.02_gcc-4.9.2/g09/l301.exe)
 Standard basis: 6-31G(d) (6D, 7F)
 Ernie: Thresh=  0.10000D-02 Tol=  0.10000D-05 Strict=F.
 There are   185 symmetry adapted basis functions of A   symmetry.
 Integral buffers will be    131072 words long.
 Raffenetti 2 integral format.
 Two-electron integral symmetry is turned on.
   185 basis functions,   348 primitive gaussians,   185 cartesian basis functions
    40 alpha electrons       40 beta electrons
       nuclear repulsion energy       575.1672144225 Hartrees.
 IExCor=  402 DFT=T Ex+Corr=B3LYP ExCW=0 ScaHFX=  0.200000
 ScaDFX=  0.800000  0.720000  1.000000  0.810000 ScalE2=  1.000000  1.000000
 IRadAn=      0 IRanWt=     -1 IRanGd=            0 ICorTp=0
 NAtoms=   21 NActive=   21 NUniq=   21 SFac= 7.50D-01 NAtFMM=   80 NAOKFM=F Big=F
 Leave Link  301 at Wed Sep 29 00:38:56 2021, MaxMem=  805306368 cpu:       0.1
 (Enter /sw/target/amd/app/gaussian/Gaussian09RevA.02_gcc-4.9.2/g09/l302.exe)
 NPDir=0 NMtPBC=     1 NCelOv=     1 NCel=       1 NClECP=     1 NCelD=      1
         NCelK=      1 NCelE2=     1 NClLst=     1 CellRange=     0.0.
 One-electron integrals computed using PRISM.
 NBasis=   185 RedAO= T  NBF=   185
 NBsUse=   185 1.00D-06 NBFU=   185
 Precomputing XC quadrature grid using
 IXCGrd= 2 IRadAn=           0 IRanWt=          -1 IRanGd=           0 AccXCQ= 1.00D-10.
 NRdTot=    1321 NPtTot=      167996 NUsed=      177529 NTot=      177561
 NSgBfM=   185   185   185   185   185 NAtAll=    21    21.
 Leave Link  302 at Wed Sep 29 00:38:58 2021, MaxMem=  805306368 cpu:       1.2
 (Enter /sw/target/amd/app/gaussian/Gaussian09RevA.02_gcc-4.9.2/g09/l303.exe)
 DipDrv:  MaxL=1.
 Leave Link  303 at Wed Sep 29 00:38:59 2021, MaxMem=  805306368 cpu:       0.1
 (Enter /sw/target/amd/app/gaussian/Gaussian09RevA.02_gcc-4.9.2/g09/l401.exe)
 Initial guess read from the read-write file.
 B after Tr=     0.000000    0.000000    0.000000
         Rot=    1.000000    0.000000    0.000000    0.000000 Ang=   0.00 deg.
 Guess basis will be translated and rotated to current coordinates.
 Initial guess orbital symmetries:
       Occupied  (A) (A) (A) (A) (A) (A) (A) (A) (A) (A) (A) (A)
                 (A) (A) (A) (A) (A) (A) (A) (A) (A) (A) (A) (A)
                 (A) (A) (A) (A) (A) (A) (A) (A) (A) (A) (A) (A)
                 (A) (A) (A) (A)
       Virtual   (A) (A) (A) (A) (A) (A) (A) (A) (A) (A) (A) (A)
                 (A) (A) (A) (A) (A) (A) (A) (A) (A) (A) (A) (A)
                 (A) (A) (A) (A) (A) (A) (A) (A) (A) (A) (A) (A)
                 (A) (A) (A) (A) (A) (A) (A) (A) (A) (A) (A) (A)
                 (A) (A) (A) (A) (A) (A) (A) (A) (A) (A) (A) (A)
                 (A) (A) (A) (A) (A) (A) (A) (A) (A) (A) (A) (A)
                 (A) (A) (A) (A) (A) (A) (A) (A) (A) (A) (A) (A)
                 (A) (A) (A) (A) (A) (A) (A) (A) (A) (A) (A) (A)
                 (A) (A) (A) (A) (A) (A) (A) (A) (A) (A) (A) (A)
                 (A) (A) (A) (A) (A) (A) (A) (A) (A) (A) (A) (A)
                 (A) (A) (A) (A) (A) (A) (A) (A) (A) (A) (A) (A)
                 (A) (A) (A) (A) (A) (A) (A) (A) (A) (A) (A) (A)
                 (A)
 The electronic state of the initial guess is 1-A.
 Generating alternative initial guess.
 Harris functional with IExCor=  402 diagonalized for initial guess.
 ExpMin= 1.61D-01 ExpMax= 5.48D+03 ExpMxC= 8.25D+02 IAcc=1 IRadAn=         1 AccDes= 0.00D+00
 HarFok:  IExCor=  402 AccDes= 0.00D+00 IRadAn=         1 IDoV= 1
 ScaDFX=  1.000000  1.000000  1.000000  1.000000
 FoFCou: FMM=F IPFlag=           0 FMFlag=      100000 FMFlg1=           0
         NFxFlg=           0 DoJE=T BraDBF=F KetDBF=T FulRan=T
         Omega=  0.000000  0.000000  1.000000  0.000000  0.000000 ICntrl=     500 IOpCl=  0
         NMat0=    1 NMatS0=    1 NMatT0=    0 NMatD0=    1 NMtDS0=    0 NMtDT0=    0
         I1Cent=           4 NGrid=           0.
 Petite list used in FoFCou.
 Harris En= -499.485329055749    
 Leave Link  401 at Wed Sep 29 00:39:07 2021, MaxMem=  805306368 cpu:       6.0
 (Enter /sw/target/amd/app/gaussian/Gaussian09RevA.02_gcc-4.9.2/g09/l502.exe)
 Closed shell SCF:
 Requested convergence on RMS density matrix=1.00D-08 within  64 cycles.
 Requested convergence on MAX density matrix=1.00D-06.
 Requested convergence on             energy=1.00D-06.
 No special actions if energy rises.
 Using DIIS extrapolation, IDIIS=  1040.
 Integral symmetry usage will be decided dynamically.
       177327 words used for storage of precomputed grid.
 Keep R1 ints in memory in canonical form, NReq=151520015.
 IEnd=      288051 IEndB=      288051 NGot=   805306368 MDV=   657042309
 LenX=   657042309 LenY=   657007643
 Symmetry not used in FoFDir.
 MinBra= 0 MaxBra= 2 Meth= 1.
 IRaf=       0 NMat=   1 IRICut=       1 DoRegI=T DoRafI=F ISym2E= 0 JSym2E=0.
 Integral accuracy reduced to 1.0D-05 until final iterations.

 Cycle   1  Pass 0  IDiag  1:
 E= -499.405442049172    
 DIIS: error= 4.11D-03 at cycle   1 NSaved=   1.
 NSaved= 1 IEnMin= 1 EnMin= -499.405442049172     IErMin= 1 ErrMin= 4.11D-03
 ErrMax= 4.11D-03 EMaxC= 1.00D-01 BMatC= 6.20D-03 BMatP= 6.20D-03
 IDIUse=3 WtCom= 9.59D-01 WtEn= 4.11D-02
 Coeff-Com:  0.100D+01
 Coeff-En:   0.100D+01
 Coeff:      0.100D+01
 Gap=     0.179 Goal=   None    Shift=    0.000
 GapD=    0.179 DampG=1.000 DampE=1.000 DampFc=1.0000 IDamp=-1.
 RMSDP=7.13D-04 MaxDP=1.69D-02              OVMax= 4.67D-02

 Cycle   2  Pass 0  IDiag  1:
 E= -499.417969885702     Delta-E=       -0.012527836530 Rises=F Damp=F
 DIIS: error= 8.08D-04 at cycle   2 NSaved=   2.
 NSaved= 2 IEnMin= 2 EnMin= -499.417969885702     IErMin= 2 ErrMin= 8.08D-04
 ErrMax= 8.08D-04 EMaxC= 1.00D-01 BMatC= 1.69D-04 BMatP= 6.20D-03
 IDIUse=3 WtCom= 9.92D-01 WtEn= 8.08D-03
 Coeff-Com: -0.533D-01 0.105D+01
 Coeff-En:   0.000D+00 0.100D+01
 Coeff:     -0.529D-01 0.105D+01
 Gap=     0.177 Goal=   None    Shift=    0.000
 RMSDP=1.80D-04 MaxDP=5.83D-03 DE=-1.25D-02 OVMax= 7.68D-03

 Cycle   3  Pass 0  IDiag  1:
 E= -499.417811857075     Delta-E=        0.000158028627 Rises=F Damp=F
 DIIS: error= 2.12D-03 at cycle   3 NSaved=   3.
 NSaved= 3 IEnMin= 2 EnMin= -499.417969885702     IErMin= 2 ErrMin= 8.08D-04
 ErrMax= 2.12D-03 EMaxC= 1.00D-01 BMatC= 4.62D-04 BMatP= 1.69D-04
 IDIUse=3 WtCom= 1.78D-01 WtEn= 8.22D-01
 Coeff-Com: -0.571D-01 0.692D+00 0.365D+00
 Coeff-En:   0.000D+00 0.650D+00 0.350D+00
 Coeff:     -0.102D-01 0.658D+00 0.353D+00
 Gap=     0.175 Goal=   None    Shift=    0.000
 RMSDP=1.24D-04 MaxDP=4.93D-03 DE= 1.58D-04 OVMax= 5.43D-03

 Cycle   4  Pass 0  IDiag  1:
 E= -499.418182337121     Delta-E=       -0.000370480047 Rises=F Damp=F
 DIIS: error= 4.20D-04 at cycle   4 NSaved=   4.
 NSaved= 4 IEnMin= 4 EnMin= -499.418182337121     IErMin= 4 ErrMin= 4.20D-04
 ErrMax= 4.20D-04 EMaxC= 1.00D-01 BMatC= 1.05D-05 BMatP= 1.69D-04
 IDIUse=3 WtCom= 9.96D-01 WtEn= 4.20D-03
 Coeff-Com: -0.208D-01 0.207D+00 0.180D+00 0.634D+00
 Coeff-En:   0.000D+00 0.000D+00 0.000D+00 0.100D+01
 Coeff:     -0.207D-01 0.207D+00 0.179D+00 0.635D+00
 Gap=     0.175 Goal=   None    Shift=    0.000
 RMSDP=2.49D-05 MaxDP=1.05D-03 DE=-3.70D-04 OVMax= 1.04D-03

 Cycle   5  Pass 0  IDiag  1:
 E= -499.418188553980     Delta-E=       -0.000006216859 Rises=F Damp=F
 DIIS: error= 1.41D-04 at cycle   5 NSaved=   5.
 NSaved= 5 IEnMin= 5 EnMin= -499.418188553980     IErMin= 5 ErrMin= 1.41D-04
 ErrMax= 1.41D-04 EMaxC= 1.00D-01 BMatC= 2.94D-06 BMatP= 1.05D-05
 IDIUse=3 WtCom= 9.99D-01 WtEn= 1.41D-03
 Coeff-Com: -0.536D-02 0.355D-01 0.673D-01 0.429D+00 0.474D+00
 Coeff-En:   0.000D+00 0.000D+00 0.000D+00 0.205D+00 0.795D+00
 Coeff:     -0.535D-02 0.355D-01 0.672D-01 0.428D+00 0.474D+00
 Gap=     0.176 Goal=   None    Shift=    0.000
 RMSDP=1.06D-05 MaxDP=2.82D-04 DE=-6.22D-06 OVMax= 7.03D-04

[...]
    13  H    0.600375  -0.049778   0.000029  -0.000000   0.000000   0.001882
    14  H   -0.049778   0.600390   0.000029  -0.000000   0.000000   0.001891
    15  H    0.000029   0.000029   0.602728  -0.006340  -0.000163  -0.000152
    16  H   -0.000000  -0.000000  -0.006340   0.599127  -0.005559   0.000015
    17  H    0.000000   0.000000  -0.000163  -0.005559   0.622406  -0.000173
    18  H    0.001882   0.001891  -0.000152   0.000015  -0.000173   0.588131
    19  H   -0.000000   0.000000  -0.000000   0.000000   0.000930  -0.000006
    20  H    0.000000   0.000000  -0.000000  -0.000000   0.000046  -0.000003
    21  H    0.000000  -0.000000  -0.000000   0.000000   0.000918  -0.000006
             19         20         21
     1  C   -0.000000   0.000000  -0.000000
     2  O    0.000000  -0.000000   0.000000
     3  C    0.000005   0.000002   0.000005
     4  C   -0.000008   0.000000  -0.000008
     5  C    0.000057  -0.000002   0.000056
     6  C    0.002845   0.000326   0.002832
     7  C   -0.005817   0.003367  -0.005814
     8  C    0.000021  -0.000061   0.000021
     9  C   -0.027474  -0.025279  -0.027552
    10  O    0.001444  -0.000691   0.001440
    11  C    0.364227   0.361334   0.364188
    12  H    0.000000   0.000000   0.000000
    13  H   -0.000000   0.000000   0.000000
    14  H    0.000000   0.000000  -0.000000
    15  H   -0.000000  -0.000000  -0.000000
    16  H    0.000000  -0.000000   0.000000
    17  H    0.000930   0.000046   0.000918
    18  H   -0.000006  -0.000003  -0.000006
    19  H    0.529041  -0.023798  -0.039086
    20  H   -0.023798   0.525445  -0.023859
    21  H   -0.039086  -0.023859   0.529267
 Mulliken atomic charges:
              1
     1  C   -0.211413
     2  O   -0.510342
     3  C    0.377580
     4  C   -0.186978
     5  C   -0.134499
     6  C   -0.212098
     7  C    0.109354
     8  C   -0.271110
     9  C    0.310247
    10  O   -0.307365
    11  C   -0.513957
    12  H    0.166130
    13  H    0.151605
    14  H    0.151604
    15  H    0.127525
    16  H    0.126523
    17  H    0.111134
    18  H    0.137666
    19  H    0.197620
    20  H    0.183174
    21  H    0.197599
 Sum of Mulliken atomic charges =  -0.00000
 Mulliken charges with hydrogens summed into heavy atoms:
              1
     1  C    0.257927
     2  O   -0.510342
     3  C    0.377580
     4  C   -0.059453
     5  C   -0.007976
     6  C   -0.100964
     7  C    0.109354
     8  C   -0.133444
     9  C    0.310247
    10  O   -0.307365
    11  C    0.064435
 Sum of Mulliken charges with hydrogens summed into heavy atoms =  -0.00000
 Electronic spatial extent (au):  <R**2>=           1996.3863
 Charge=             -0.0000 electrons
 Dipole moment (field-independent basis, Debye):
    X=              2.0250    Y=             -0.4133    Z=              0.0007  Tot=              2.0668
 Quadrupole moment (field-independent basis, Debye-Ang):
   XX=            -53.5293   YY=            -61.2659   ZZ=            -66.8058
   XY=              6.3522   XZ=              0.0003   YZ=             -0.0002
 Traceless Quadrupole moment (field-independent basis, Debye-Ang):
   XX=              7.0044   YY=             -0.7323   ZZ=             -6.2721
   XY=              6.3522   XZ=              0.0003   YZ=             -0.0002
 Octapole moment (field-independent basis, Debye-Ang**2):
  XXX=             31.8979  YYY=              0.2170  ZZZ=              0.0061  XYY=            -15.7708
  XXY=            -12.8286  XXZ=              0.0049  XZZ=              0.5951  YZZ=             -7.1022
  YYZ=             -0.0034  XYZ=              0.0039
 Hexadecapole moment (field-independent basis, Debye-Ang**3):
 XXXX=          -1582.0290 YYYY=           -746.0646 ZZZZ=            -78.7336 XXXY=             32.0459
 XXXZ=             -0.0181 YYYX=             13.4289 YYYZ=             -0.0003 ZZZX=              0.0173
 ZZZY=             -0.0013 XXYY=           -387.0100 XXZZ=           -304.8800 YYZZ=           -149.8473
 XXYZ=             -0.0038 YYXZ=             -0.0084 ZZXY=              1.4147
 N-N= 5.759353632813D+02 E-N=-2.314055371379D+03  KE= 4.948299855071D+02
 No NMR shielding tensors so no spin-rotation constants.
 Leave Link  601 at Wed Sep 29 03:32:14 2021, MaxMem=  805306368 cpu:       0.8
 (Enter /sw/target/amd/app/gaussian/Gaussian09RevA.02_gcc-4.9.2/g09/l604.exe)
 Evaluate density.
 Using the total density.
 Monte-Carlo method of calculating molar volume:
 based on  0.001 e/bohr**3 density envelope.
 Number of points per bohr**3 =   20 CutOff= 1.00D-04
 Using the CI density.
 There are       377 points.  Will hold       377 in memory.
 LenV=   805200705 MDV=   805306368.
 Box volume = 6718.138 fraction occupied=0.210
 Integrated density= 2.5306691528633635D+02 error= 1.7306691528633635D+02
 Molar volume = 1407.779 bohr**3/mol (125.629 cm**3/mol)
 Recommended a0 for SCRF calculation =  4.55 angstrom (  8.60 bohr)
 Leave Link  604 at Wed Sep 29 03:32:15 2021, MaxMem=  805306368 cpu:       0.3
 (Enter /sw/target/amd/app/gaussian/Gaussian09RevA.02_gcc-4.9.2/g09/l607.exe)
 ******************************Gaussian NBO Version 3.1******************************
             N A T U R A L   A T O M I C   O R B I T A L   A N D
          N A T U R A L   B O N D   O R B I T A L   A N A L Y S I S
 ******************************Gaussian NBO Version 3.1******************************
       /RESON  / : Allow strongly delocalized NBO set

 Analyzing the CI density

 Job title: COc1cccc(c1)C(=O)C_conf_0                                       

 Storage needed:    104204 in NPA ( 805303953 available)


 NATURAL POPULATIONS:  Natural atomic orbital occupancies 
                                                          
   NAO  Atom  No  lang   Type(AO)    Occupancy
 --------------------------------------------
     1    C    1  S      Cor( 1S)     1.99943
     2    C    1  S      Val( 2S)     1.09912
     3    C    1  S      Ryd( 3S)     0.00143
     4    C    1  S      Ryd( 4S)     0.00003
     5    C    1  px     Val( 2p)     1.23165
     6    C    1  px     Ryd( 3p)     0.00262
     7    C    1  py     Val( 2p)     0.74662
     8    C    1  py     Ryd( 3p)     0.00291
     9    C    1  pz     Val( 2p)     1.22516
    10    C    1  pz     Ryd( 3p)     0.00024
    11    C    1  dxy    Ryd( 3d)     0.00110
    12    C    1  dxz    Ryd( 3d)     0.00059
    13    C    1  dyz    Ryd( 3d)     0.00187
    14    C    1  dx2y2  Ryd( 3d)     0.00195
    15    C    1  dz2    Ryd( 3d)     0.00108

    16    O    2  S      Cor( 1S)     1.99974
    17    O    2  S      Val( 2S)     1.58943
    18    O    2  S      Ryd( 3S)     0.00078
    19    O    2  S      Ryd( 4S)     0.00006
    20    O    2  px     Val( 2p)     1.60035
    21    O    2  px     Ryd( 3p)     0.00201
    22    O    2  py     Val( 2p)     1.47834
    23    O    2  py     Ryd( 3p)     0.00112
    24    O    2  pz     Val( 2p)     1.84046
    25    O    2  pz     Ryd( 3p)     0.00227
    26    O    2  dxy    Ryd( 3d)     0.00132
    27    O    2  dxz    Ryd( 3d)     0.00141
    28    O    2  dyz    Ryd( 3d)     0.00060
    29    O    2  dx2y2  Ryd( 3d)     0.00130
    30    O    2  dz2    Ryd( 3d)     0.00077

    31    C    3  S      Cor( 1S)     1.99880
    32    C    3  S      Val( 2S)     0.82775
    33    C    3  S      Ryd( 3S)     0.00136
    34    C    3  S      Ryd( 4S)     0.00013
    35    C    3  px     Val( 2p)     0.81243
    36    C    3  px     Ryd( 3p)     0.00932
    37    C    3  py     Val( 2p)     1.03463
    38    C    3  py     Ryd( 3p)     0.00454
    39    C    3  pz     Val( 2p)     0.97747
    40    C    3  pz     Ryd( 3p)     0.00062
    41    C    3  dxy    Ryd( 3d)     0.00140
    42    C    3  dxz    Ryd( 3d)     0.00199
    43    C    3  dyz    Ryd( 3d)     0.00100
    44    C    3  dx2y2  Ryd( 3d)     0.00165
    45    C    3  dz2    Ryd( 3d)     0.00048

    46    C    4  S      Cor( 1S)     1.99904
    47    C    4  S      Val( 2S)     0.95739
    48    C    4  S      Ryd( 3S)     0.00076
    49    C    4  S      Ryd( 4S)     0.00005
    50    C    4  px     Val( 2p)     1.16543
    51    C    4  px     Ryd( 3p)     0.00491
    52    C    4  py     Val( 2p)     1.08574
    53    C    4  py     Ryd( 3p)     0.00446
    54    C    4  pz     Val( 2p)     1.08025
    55    C    4  pz     Ryd( 3p)     0.00211
    56    C    4  dxy    Ryd( 3d)     0.00063
    57    C    4  dxz    Ryd( 3d)     0.00042
    58    C    4  dyz    Ryd( 3d)     0.00039
    59    C    4  dx2y2  Ryd( 3d)     0.00075
    60    C    4  dz2    Ryd( 3d)     0.00045

    61    C    5  S      Cor( 1S)     1.99910
    62    C    5  S      Val( 2S)     0.95560
    63    C    5  S      Ryd( 3S)     0.00061
    64    C    5  S      Ryd( 4S)     0.00004
    65    C    5  px     Val( 2p)     1.06022
    66    C    5  px     Ryd( 3p)     0.00466
    67    C    5  py     Val( 2p)     1.19349
    68    C    5  py     Ryd( 3p)     0.00532
    69    C    5  pz     Val( 2p)     0.99701
    70    C    5  pz     Ryd( 3p)     0.00066
    71    C    5  dxy    Ryd( 3d)     0.00061
    72    C    5  dxz    Ryd( 3d)     0.00080
    73    C    5  dyz    Ryd( 3d)     0.00031
    74    C    5  dx2y2  Ryd( 3d)     0.00086
    75    C    5  dz2    Ryd( 3d)     0.00044

    76    C    6  S      Cor( 1S)     1.99903
    77    C    6  S      Val( 2S)     0.93899
    78    C    6  S      Ryd( 3S)     0.00052
    79    C    6  S      Ryd( 4S)     0.00003
    80    C    6  px     Val( 2p)     1.16956
    81    C    6  px     Ryd( 3p)     0.00377
    82    C    6  py     Val( 2p)     1.07646
    83    C    6  py     Ryd( 3p)     0.00410
    84    C    6  pz     Val( 2p)     1.07128
    85    C    6  pz     Ryd( 3p)     0.00184
    86    C    6  dxy    Ryd( 3d)     0.00067
    87    C    6  dxz    Ryd( 3d)     0.00037
    88    C    6  dyz    Ryd( 3d)     0.00050
    89    C    6  dx2y2  Ryd( 3d)     0.00076
    90    C    6  dz2    Ryd( 3d)     0.00044

    91    C    7  S      Cor( 1S)     1.99891
    92    C    7  S      Val( 2S)     0.88158
    93    C    7  S      Ryd( 3S)     0.00048
    94    C    7  S      Ryd( 4S)     0.00004
    95    C    7  px     Val( 2p)     1.03775
    96    C    7  px     Ryd( 3p)     0.00492
    97    C    7  py     Val( 2p)     1.08899
    98    C    7  py     Ryd( 3p)     0.00564
    99    C    7  pz     Val( 2p)     1.11517
   100    C    7  pz     Ryd( 3p)     0.00109
   101    C    7  dxy    Ryd( 3d)     0.00074
   102    C    7  dxz    Ryd( 3d)     0.00081
   103    C    7  dyz    Ryd( 3d)     0.00072
   104    C    7  dx2y2  Ryd( 3d)     0.00058
   105    C    7  dz2    Ryd( 3d)     0.00040

   106    C    8  S      Cor( 1S)     1.99897
   107    C    8  S      Val( 2S)     0.93972
   108    C    8  S      Ryd( 3S)     0.00063
   109    C    8  S      Ryd( 4S)     0.00006
   110    C    8  px     Val( 2p)     1.06280
   111    C    8  px     Ryd( 3p)     0.00325
   112    C    8  py     Val( 2p)     1.20287
   113    C    8  py     Ryd( 3p)     0.00351
   114    C    8  pz     Val( 2p)     1.11050
   115    C    8  pz     Ryd( 3p)     0.00242
   116    C    8  dxy    Ryd( 3d)     0.00059
   117    C    8  dxz    Ryd( 3d)     0.00055
   118    C    8  dyz    Ryd( 3d)     0.00032
   119    C    8  dx2y2  Ryd( 3d)     0.00072
   120    C    8  dz2    Ryd( 3d)     0.00047

   121    C    9  S      Cor( 1S)     1.99929
   122    C    9  S      Val( 2S)     0.84168
   123    C    9  S      Ryd( 3S)     0.00458
   124    C    9  S      Ryd( 4S)     0.00020
   125    C    9  px     Val( 2p)     1.00219
   126    C    9  px     Ryd( 3p)     0.00222
   127    C    9  py     Val( 2p)     0.78093
   128    C    9  py     Ryd( 3p)     0.01654
   129    C    9  pz     Val( 2p)     0.97027
   130    C    9  pz     Ryd( 3p)     0.00332
   131    C    9  dxy    Ryd( 3d)     0.00120
   132    C    9  dxz    Ryd( 3d)     0.00047
   133    C    9  dyz    Ryd( 3d)     0.00224
   134    C    9  dx2y2  Ryd( 3d)     0.00140
   135    C    9  dz2    Ryd( 3d)     0.00034

   136    O   10  S      Cor( 1S)     1.99981
   137    O   10  S      Val( 2S)     1.70365
   138    O   10  S      Ryd( 3S)     0.00016
   139    O   10  S      Ryd( 4S)     0.00002
   140    O   10  px     Val( 2p)     1.14595
   141    O   10  px     Ryd( 3p)     0.00172
   142    O   10  py     Val( 2p)     1.60820
   143    O   10  py     Ryd( 3p)     0.00012
   144    O   10  pz     Val( 2p)     1.78103
   145    O   10  pz     Ryd( 3p)     0.00333
   146    O   10  dxy    Ryd( 3d)     0.00261
   147    O   10  dxz    Ryd( 3d)     0.00014
   148    O   10  dyz    Ryd( 3d)     0.00451
   149    O   10  dx2y2  Ryd( 3d)     0.00413
   150    O   10  dz2    Ryd( 3d)     0.00131

   151    C   11  S      Cor( 1S)     1.99932
   152    C   11  S      Val( 2S)     1.12928
   153    C   11  S      Ryd( 3S)     0.00020
   154    C   11  S      Ryd( 4S)     0.00001
   155    C   11  px     Val( 2p)     1.07737
   156    C   11  px     Ryd( 3p)     0.00109
   157    C   11  py     Val( 2p)     1.23088
   158    C   11  py     Ryd( 3p)     0.00192
   159    C   11  pz     Val( 2p)     1.26423
   160    C   11  pz     Ryd( 3p)     0.00007
   161    C   11  dxy    Ryd( 3d)     0.00089
   162    C   11  dxz    Ryd( 3d)     0.00042
   163    C   11  dyz    Ryd( 3d)     0.00106
   164    C   11  dx2y2  Ryd( 3d)     0.00039
   165    C   11  dz2    Ryd( 3d)     0.00072

   166    H   12  S      Val( 1S)     0.77340
   167    H   12  S      Ryd( 2S)     0.00054

   168    H   13  S      Val( 1S)     0.79575
   169    H   13  S      Ryd( 2S)     0.00193

   170    H   14  S      Val( 1S)     0.79577
   171    H   14  S      Ryd( 2S)     0.00193

   172    H   15  S      Val( 1S)     0.75720
   173    H   15  S      Ryd( 2S)     0.00117

   174    H   16  S      Val( 1S)     0.76155
   175    H   16  S      Ryd( 2S)     0.00077

   176    H   17  S      Val( 1S)     0.77179
   177    H   17  S      Ryd( 2S)     0.00095

   178    H   18  S      Val( 1S)     0.76000
   179    H   18  S      Ryd( 2S)     0.00093

   180    H   19  S      Val( 1S)     0.73715
   181    H   19  S      Ryd( 2S)     0.00122

   182    H   20  S      Val( 1S)     0.74171
   183    H   20  S      Ryd( 2S)     0.00113

   184    H   21  S      Val( 1S)     0.73717
   185    H   21  S      Ryd( 2S)     0.00123

 WARNING:  1 low occupancy (<1.9990e) core orbital  found on  C    3
           1 low occupancy (<1.9990e) core orbital  found on  C    7
           1 low occupancy (<1.9990e) core orbital  found on  C    8


 Summary of Natural Population Analysis:                  
                                                          
                                       Natural Population 
                Natural  -----------------------------------------------
    Atom  No    Charge         Core      Valence    Rydberg      Total
 -----------------------------------------------------------------------
      C    1   -0.31581      1.99943     4.30255    0.01382     6.31581
      O    2   -0.51996      1.99974     6.50858    0.01164     8.51996
      C    3    0.32643      1.99880     3.65228    0.02249     5.67357
      C    4   -0.30277      1.99904     4.28881    0.01493     6.30277
      C    5   -0.21972      1.99910     4.20632    0.01430     6.21972
      C    6   -0.26830      1.99903     4.25628    0.01299     6.26830
      C    7   -0.13781      1.99891     4.12349    0.01541     6.13781
      C    8   -0.32736      1.99897     4.31587    0.01251     6.32736
      C    9    0.37314      1.99929     3.59507    0.03250     5.62686
      O   10   -0.25670      1.99981     6.23884    0.01805     8.25670
      C   11   -0.70784      1.99932     4.70176    0.00676     6.70784
      H   12    0.22606      0.00000     0.77340    0.00054     0.77394
      H   13    0.20232      0.00000     0.79575    0.00193     0.79768
      H   14    0.20230      0.00000     0.79577    0.00193     0.79770
      H   15    0.24162      0.00000     0.75720    0.00117     0.75838
      H   16    0.23768      0.00000     0.76155    0.00077     0.76232
      H   17    0.22726      0.00000     0.77179    0.00095     0.77274
      H   18    0.23907      0.00000     0.76000    0.00093     0.76093
      H   19    0.26163      0.00000     0.73715    0.00122     0.73837
      H   20    0.25716      0.00000     0.74171    0.00113     0.74284
      H   21    0.26160      0.00000     0.73717    0.00123     0.73840
 =======================================================================
   * Total *    0.00000     21.99144    57.82135    0.18722    80.00000

                                 Natural Population      
 --------------------------------------------------------
   Core                      21.99144 ( 99.9611% of  22)
   Valence                   57.82135 ( 99.6920% of  58)
   Natural Minimal Basis     79.81278 ( 99.7660% of  80)
   Natural Rydberg Basis      0.18722 (  0.2340% of  80)
 --------------------------------------------------------

    Atom  No          Natural Electron Configuration
 ----------------------------------------------------------------------------
      C    1      [core]2S( 1.10)2p( 3.20)3p( 0.01)3d( 0.01)
      O    2      [core]2S( 1.59)2p( 4.92)3p( 0.01)3d( 0.01)
      C    3      [core]2S( 0.83)2p( 2.82)3p( 0.01)3d( 0.01)
      C    4      [core]2S( 0.96)2p( 3.33)3p( 0.01)
      C    5      [core]2S( 0.96)2p( 3.25)3p( 0.01)
      C    6      [core]2S( 0.94)2p( 3.32)3p( 0.01)
      C    7      [core]2S( 0.88)2p( 3.24)3p( 0.01)
      C    8      [core]2S( 0.94)2p( 3.38)3p( 0.01)
      C    9      [core]2S( 0.84)2p( 2.75)3p( 0.02)3d( 0.01)
      O   10      [core]2S( 1.70)2p( 4.54)3p( 0.01)3d( 0.01)
      C   11      [core]2S( 1.13)2p( 3.57)
      H   12            1S( 0.77)
      H   13            1S( 0.80)
      H   14            1S( 0.80)
      H   15            1S( 0.76)
      H   16            1S( 0.76)
      H   17            1S( 0.77)
      H   18            1S( 0.76)
      H   19            1S( 0.74)
      H   20            1S( 0.74)
      H   21            1S( 0.74)


 NBO analysis skipped by request.
 Leave Link  607 at Wed Sep 29 03:32:29 2021, MaxMem=  805306368 cpu:      10.0
 (Enter /sw/target/amd/app/gaussian/Gaussian09RevA.02_gcc-4.9.2/g09/l9999.exe)
 1\1\GINC-HERMITE\SP\RTD-B3LYP-FC\6-31G(d)\C9H10O2\JSCHLEINITZ\29-Sep-2
 021\0\\#p TD(NStates=10, Root=1) b3lyp/6-31G* volume pop=NPA density=c
 urrent Geom=AllCheck Guess=Read\\COc1cccc(c1)C(=O)C_conf_0\\0,1\C,0,3.
 3601985901,-0.245734146,0.1822867277\O,0,2.8230804939,0.9851461189,-0.
 2812696628\C,0,3.4812097403,1.6357591967,-1.2823334704\C,0,2.904088567
 6,2.8478202024,-1.6995675553\C,0,3.4979224947,3.588097538,-2.713958295
 \C,0,4.6705252265,3.1389254975,-3.3290319065\C,0,5.2480865762,1.932975
 7781,-2.9170506098\C,0,4.650032561,1.1813520085,-1.8909925313\C,0,6.50
 40345811,1.3854583395,-3.5281654168\O,0,6.9773992126,0.3276693271,-3.1
 393957394\C,0,7.1820809831,2.1684973959,-4.6408319786\H,0,2.6865346643
 ,-0.5862162594,0.9705589243\H,0,4.3684081091,-0.1146747828,0.595794857
 5\H,0,3.3944399327,-0.9965949665,-0.6174981169\H,0,1.9936094304,3.1826
 617267,-1.2121156736\H,0,3.0445487508,4.5237051516,-3.0295890896\H,0,5
 .1213964682,3.7295405169,-4.1195075657\H,0,5.1312366352,0.2543826273,-
 1.6045225717\H,0,6.5097034703,2.3003435629,-5.4967692652\H,0,8.0710907
 733,1.6222600163,-4.9604927501\H,0,7.4742048141,3.1680882194,-4.297819
 8752\\Version=AM64L-G09RevA.02\State=1-A\HF=-499.4196531\RMSD=6.929e-0
 9\Dipole=0.6359887,-0.0049929,-0.5066341\Quadrupole=-1.9232348,-0.0299
 305,1.9531654,2.0609582,-3.6970513,-5.0210924\PG=C01 [X(C9H10O2)]\\@


 YOU SHOULDN'T LET PEOPLE DRIVE YOU CRAZY
 WHEN YOU KNOW IT'S WITHIN WALKING DISTANCE.
 Job cpu time:  0 days  1 hours 22 minutes 54.1 seconds.
 File lengths (MBytes):  RWF=    118 Int=      0 D2E=      0 Chk=     16 Scr=      1
 Normal termination of Gaussian 09 at Wed Sep 29 03:32:31 2021.
