 Entering Gaussian System, Link 0=g09
 Input=C9H10N2_31bb_conf_0.com
 Output=C9H10N2_31bb_conf_0.log
 Initial command:
 /sw/target/amd/app/gaussian/Gaussian09RevA.02_gcc-4.9.2/g09/l1.exe /home/jschleinitz/gaussian/Gau-2085571.inp -scrdir=/home/jschleinitz/gaussian/
 Entering Link 1 = /sw/target/amd/app/gaussian/Gaussian09RevA.02_gcc-4.9.2/g09/l1.exe PID=   2085573.
  
 Copyright (c) 1988,1990,1992,1993,1995,1998,2003,2009, Gaussian, Inc.
                  All Rights Reserved.
  
 This is part of the Gaussian(R) 09 program.  It is based on
 the Gaussian(R) 03 system (copyright 2003, Gaussian, Inc.),
 the Gaussian(R) 98 system (copyright 1998, Gaussian, Inc.),
 the Gaussian(R) 94 system (copyright 1995, Gaussian, Inc.),
 the Gaussian 92(TM) system (copyright 1992, Gaussian, Inc.),
 the Gaussian 90(TM) system (copyright 1990, Gaussian, Inc.),
 the Gaussian 88(TM) system (copyright 1988, Gaussian, Inc.),
 the Gaussian 86(TM) system (copyright 1986, Carnegie Mellon
 University), and the Gaussian 82(TM) system (copyright 1983,
 Carnegie Mellon University). Gaussian is a federally registered
 trademark of Gaussian, Inc.
  
 This software contains proprietary and confidential information,
 including trade secrets, belonging to Gaussian, Inc.
  
 This software is provided under written license and may be
 used, copied, transmitted, or stored only in accord with that
 written license.
  
 The following legend is applicable only to US Government
 contracts under FAR:
  
                    RESTRICTED RIGHTS LEGEND
  
 Use, reproduction and disclosure by the US Government is
 subject to restrictions as set forth in subparagraphs (a)
 and (c) of the Commercial Computer Software - Restricted
 Rights clause in FAR 52.227-19.
  
 Gaussian, Inc.
 340 Quinnipiac St., Bldg. 40, Wallingford CT 06492
  
  
 ---------------------------------------------------------------
 Warning -- This program may not be used in any manner that
 competes with the business of Gaussian, Inc. or will provide
 assistance to any competitor of Gaussian, Inc.  The licensee
 of this program is prohibited from giving any competitor of
 Gaussian, Inc. access to this program.  By using this program,
 the user acknowledges that Gaussian, Inc. is engaged in the
 business of creating and licensing software in the field of
 computational chemistry and represents and warrants to the
 licensee that it is not a competitor of Gaussian, Inc. and that
 it will not use this program in any manner prohibited above.
 ---------------------------------------------------------------
  

 Cite this work as:
 Gaussian 09, Revision A.02,
 M. J. Frisch, G. W. Trucks, H. B. Schlegel, G. E. Scuseria, 
 M. A. Robb, J. R. Cheeseman, G. Scalmani, V. Barone, B. Mennucci, 
 G. A. Petersson, H. Nakatsuji, M. Caricato, X. Li, H. P. Hratchian, 
 A. F. Izmaylov, J. Bloino, G. Zheng, J. L. Sonnenberg, M. Hada, 
 M. Ehara, K. Toyota, R. Fukuda, J. Hasegawa, M. Ishida, T. Nakajima, 
 Y. Honda, O. Kitao, H. Nakai, T. Vreven, J. A. Montgomery, Jr., 
 J. E. Peralta, F. Ogliaro, M. Bearpark, J. J. Heyd, E. Brothers, 
 K. N. Kudin, V. N. Staroverov, R. Kobayashi, J. Normand, 
 K. Raghavachari, A. Rendell, J. C. Burant, S. S. Iyengar, J. Tomasi, 
 M. Cossi, N. Rega, J. M. Millam, M. Klene, J. E. Knox, J. B. Cross, 
 V. Bakken, C. Adamo, J. Jaramillo, R. Gomperts, R. E. Stratmann, 
 O. Yazyev, A. J. Austin, R. Cammi, C. Pomelli, J. W. Ochterski, 
 R. L. Martin, K. Morokuma, V. G. Zakrzewski, G. A. Voth, 
 P. Salvador, J. J. Dannenberg, S. Dapprich, A. D. Daniels, 
 O. Farkas, J. B. Foresman, J. V. Ortiz, J. Cioslowski, 
 and D. J. Fox, Gaussian, Inc., Wallingford CT, 2009.
 
 ******************************************
 Gaussian 09:  AM64L-G09RevA.02 11-Jun-2009
                 3-Oct-2021 
 ******************************************
 %nproc=3
 Will use up to    3 processors via shared memory.
 %mem=6gb
 %chk=C9H10N2_31bb_conf_0.chk
 -----------------------------------
 #p opt b3lyp/6-31G* scf=(xqc,tight)
 -----------------------------------
 1/14=-1,18=20,19=15,26=3,38=1/1,3;
 2/9=110,12=2,17=6,18=5,40=1/2;
 3/5=1,6=6,7=1,11=2,16=1,25=1,30=1,71=1,74=-5/1,2,3;
 4//1;
 5/5=2,8=3,13=1,32=2,38=5/2,8;
 6/7=2,8=2,9=2,10=2,28=1/1;
 7//1,2,3,16;
 1/14=-1,18=20,19=15/3(2);
 2/9=110/2;
 99//99;
 2/9=110/2;
 3/5=1,6=6,7=1,11=2,16=1,25=1,30=1,71=1,74=-5/1,2,3;
 4/5=5,16=3/1;
 5/5=2,8=3,13=1,32=2,38=5/2,8;
 7//1,2,3,16;
 1/14=-1,18=20,19=15/3(-5);
 2/9=110/2;
 6/7=2,8=2,9=2,10=2,19=2,28=1/1;
 99/9=1/99;
 Leave Link    1 at Sun Oct  3 19:38:37 2021, MaxMem=  805306368 cpu:       0.1
 (Enter /sw/target/amd/app/gaussian/Gaussian09RevA.02_gcc-4.9.2/g09/l101.exe)
 ----------------------
 CCn1cnc2c1cccc2_conf_0
 ----------------------
 Symbolic Z-matrix:
 Charge =  0 Multiplicity = 1
 C                     1.22357   0.56308   0.367 
 C                     2.60677  -0.02136   0.14088 
 N                     2.98465  -0.95563   1.18032 
 C                     2.79164  -2.3083    1.12935 
 N                     3.24194  -2.90494   2.20889 
 C                     3.75095  -1.89616   2.99029 
 C                     3.60526  -0.6571    2.36865 
 C                     4.04125   0.53807   2.95341 
 C                     4.64488   0.44677   4.21334 
 C                     4.80201  -0.78309   4.85519 
 C                     4.35776  -1.9664    4.25301 
 H                     0.96883   1.25874  -0.43841 
 H                     1.17295   1.10651   1.31635 
 H                     0.46233  -0.22393   0.39223 
 H                     3.362     0.77091   0.10498 
 H                     2.64393  -0.55317  -0.81652 
 H                     2.32022  -2.80326   0.29019 
 H                     3.92064   1.4969    2.4617 
 H                     4.99805   1.35257   4.70219 
 H                     5.27385  -0.82628   5.83383 
 H                     4.47527  -2.9256    4.74444 
 
 NAtoms=     21 NQM=     21 NQMF=      0 NMic=      0 NMicF=      0 NTot=     21.
                    Isotopes and Nuclear Properties:
 (Nuclear quadrupole moments (NQMom) in fm**2, nuclear magnetic moments (NMagM)
  in nuclear magnetons)

  Atom         1           2           3           4           5           6           7           8           9          10
 IAtWgt=          12          12          14          12          14          12          12          12          12          12
 AtmWgt=  12.0000000  12.0000000  14.0030740  12.0000000  14.0030740  12.0000000  12.0000000  12.0000000  12.0000000  12.0000000
 NucSpn=           0           0           2           0           2           0           0           0           0           0
 AtZEff=   0.0000000   0.0000000   0.0000000   0.0000000   0.0000000   0.0000000   0.0000000   0.0000000   0.0000000   0.0000000
 NQMom=    0.0000000   0.0000000   2.0440000   0.0000000   2.0440000   0.0000000   0.0000000   0.0000000   0.0000000   0.0000000
 NMagM=    0.0000000   0.0000000   0.4037610   0.0000000   0.4037610   0.0000000   0.0000000   0.0000000   0.0000000   0.0000000

  Atom        11          12          13          14          15          16          17          18          19          20
 IAtWgt=          12           1           1           1           1           1           1           1           1           1
 AtmWgt=  12.0000000   1.0078250   1.0078250   1.0078250   1.0078250   1.0078250   1.0078250   1.0078250   1.0078250   1.0078250
 NucSpn=           0           1           1           1           1           1           1           1           1           1
 AtZEff=   0.0000000   0.0000000   0.0000000   0.0000000   0.0000000   0.0000000   0.0000000   0.0000000   0.0000000   0.0000000
 NQMom=    0.0000000   0.0000000   0.0000000   0.0000000   0.0000000   0.0000000   0.0000000   0.0000000   0.0000000   0.0000000
 NMagM=    0.0000000   2.7928460   2.7928460   2.7928460   2.7928460   2.7928460   2.7928460   2.7928460   2.7928460   2.7928460

  Atom        21
 IAtWgt=           1
 AtmWgt=   1.0078250
 NucSpn=           1
 AtZEff=   0.0000000
 NQMom=    0.0000000
 NMagM=    2.7928460
 Leave Link  101 at Sun Oct  3 19:38:38 2021, MaxMem=  805306368 cpu:       0.2
 (Enter /sw/target/amd/app/gaussian/Gaussian09RevA.02_gcc-4.9.2/g09/l103.exe)

 GradGradGradGradGradGradGradGradGradGradGradGradGradGradGradGradGradGrad
 Berny optimization.
 Initialization pass.
                           ----------------------------
                           !    Initial Parameters    !
                           ! (Angstroms and Degrees)  !
 --------------------------                            --------------------------
 ! Name  Definition              Value          Derivative Info.                !
 --------------------------------------------------------------------------------
 ! R1    R(1,2)                  1.5185         estimate D2E/DX2                !
 ! R2    R(1,12)                 1.0943         estimate D2E/DX2                !
 ! R3    R(1,13)                 1.0951         estimate D2E/DX2                !
 ! R4    R(1,14)                 1.0952         estimate D2E/DX2                !
 ! R5    R(2,3)                  1.4478         estimate D2E/DX2                !
 ! R6    R(2,15)                 1.0952         estimate D2E/DX2                !
 ! R7    R(2,16)                 1.0958         estimate D2E/DX2                !
 ! R8    R(3,4)                  1.3673         estimate D2E/DX2                !
 ! R9    R(3,7)                  1.3735         estimate D2E/DX2                !
 ! R10   R(4,5)                  1.3131         estimate D2E/DX2                !
 ! R11   R(4,17)                 1.0823         estimate D2E/DX2                !
 ! R12   R(5,6)                  1.3738         estimate D2E/DX2                !
 ! R13   R(6,7)                  1.3939         estimate D2E/DX2                !
 ! R14   R(6,11)                 1.4027         estimate D2E/DX2                !
 ! R15   R(7,8)                  1.4002         estimate D2E/DX2                !
 ! R16   R(8,9)                  1.4            estimate D2E/DX2                !
 ! R17   R(8,18)                 1.0843         estimate D2E/DX2                !
 ! R18   R(9,10)                 1.3961         estimate D2E/DX2                !
 ! R19   R(9,19)                 1.0882         estimate D2E/DX2                !
 ! R20   R(10,11)                1.4001         estimate D2E/DX2                !
 ! R21   R(10,20)                1.0873         estimate D2E/DX2                !
 ! R22   R(11,21)                1.0841         estimate D2E/DX2                !
 ! A1    A(2,1,12)             110.3103         estimate D2E/DX2                !
 ! A2    A(2,1,13)             111.235          estimate D2E/DX2                !
 ! A3    A(2,1,14)             111.0991         estimate D2E/DX2                !
 ! A4    A(12,1,13)            108.17           estimate D2E/DX2                !
 ! A5    A(12,1,14)            108.1779         estimate D2E/DX2                !
 ! A6    A(13,1,14)            107.7279         estimate D2E/DX2                !
 ! A7    A(1,2,3)              112.2839         estimate D2E/DX2                !
 ! A8    A(1,2,15)             110.7695         estimate D2E/DX2                !
 ! A9    A(1,2,16)             110.3509         estimate D2E/DX2                !
 ! A10   A(3,2,15)             108.0824         estimate D2E/DX2                !
 ! A11   A(3,2,16)             107.772          estimate D2E/DX2                !
 ! A12   A(15,2,16)            107.4014         estimate D2E/DX2                !
 ! A13   A(2,3,4)              125.0851         estimate D2E/DX2                !
 ! A14   A(2,3,7)              126.7874         estimate D2E/DX2                !
 ! A15   A(4,3,7)              108.1232         estimate D2E/DX2                !
 ! A16   A(3,4,5)              111.744          estimate D2E/DX2                !
 ! A17   A(3,4,17)             122.8744         estimate D2E/DX2                !
 ! A18   A(5,4,17)             125.3815         estimate D2E/DX2                !
 ! A19   A(4,5,6)              105.1319         estimate D2E/DX2                !
 ! A20   A(5,6,7)              111.1211         estimate D2E/DX2                !
 ! A21   A(5,6,11)             129.4597         estimate D2E/DX2                !
 ! A22   A(7,6,11)             119.4193         estimate D2E/DX2                !
 ! A23   A(3,7,6)              103.8794         estimate D2E/DX2                !
 ! A24   A(3,7,8)              133.4385         estimate D2E/DX2                !
 ! A25   A(6,7,8)              122.6818         estimate D2E/DX2                !
 ! A26   A(7,8,9)              117.0282         estimate D2E/DX2                !
 ! A27   A(7,8,18)             122.0591         estimate D2E/DX2                !
 ! A28   A(9,8,18)             120.9127         estimate D2E/DX2                !
 ! A29   A(8,9,10)             121.3116         estimate D2E/DX2                !
 ! A30   A(8,9,19)             119.335          estimate D2E/DX2                !
 ! A31   A(10,9,19)            119.3533         estimate D2E/DX2                !
 ! A32   A(9,10,11)            120.7352         estimate D2E/DX2                !
 ! A33   A(9,10,20)            119.8427         estimate D2E/DX2                !
 ! A34   A(11,10,20)           119.4221         estimate D2E/DX2                !
 ! A35   A(6,11,10)            118.8239         estimate D2E/DX2                !
 ! A36   A(6,11,21)            119.9498         estimate D2E/DX2                !
 ! A37   A(10,11,21)           121.2263         estimate D2E/DX2                !
 ! D1    D(12,1,2,3)          -179.6737         estimate D2E/DX2                !
 ! D2    D(12,1,2,15)           59.3844         estimate D2E/DX2                !
 ! D3    D(12,1,2,16)          -59.4198         estimate D2E/DX2                !
 ! D4    D(13,1,2,3)            60.2899         estimate D2E/DX2                !
 ! D5    D(13,1,2,15)          -60.6521         estimate D2E/DX2                !
 ! D6    D(13,1,2,16)         -179.4563         estimate D2E/DX2                !
 ! D7    D(14,1,2,3)           -59.7157         estimate D2E/DX2                !
 ! D8    D(14,1,2,15)          179.3423         estimate D2E/DX2                !
 ! D9    D(14,1,2,16)           60.5381         estimate D2E/DX2                !
 ! D10   D(1,2,3,4)             93.0102         estimate D2E/DX2                !
 ! D11   D(1,2,3,7)            -87.8363         estimate D2E/DX2                !
 ! D12   D(15,2,3,4)          -144.5138         estimate D2E/DX2                !
 ! D13   D(15,2,3,7)            34.6397         estimate D2E/DX2                !
 ! D14   D(16,2,3,4)           -28.7271         estimate D2E/DX2                !
 ! D15   D(16,2,3,7)           150.4264         estimate D2E/DX2                !
 ! D16   D(2,3,4,5)            179.5271         estimate D2E/DX2                !
 ! D17   D(2,3,4,17)            -0.5942         estimate D2E/DX2                !
 ! D18   D(7,3,4,5)              0.2404         estimate D2E/DX2                !
 ! D19   D(7,3,4,17)          -179.8809         estimate D2E/DX2                !
 ! D20   D(2,3,7,6)           -179.487          estimate D2E/DX2                !
 ! D21   D(2,3,7,8)              0.7079         estimate D2E/DX2                !
 ! D22   D(4,3,7,6)             -0.2158         estimate D2E/DX2                !
 ! D23   D(4,3,7,8)            179.9791         estimate D2E/DX2                !
 ! D24   D(3,4,5,6)             -0.1503         estimate D2E/DX2                !
 ! D25   D(17,4,5,6)           179.9747         estimate D2E/DX2                !
 ! D26   D(4,5,6,7)              0.0073         estimate D2E/DX2                !
 ! D27   D(4,5,6,11)          -179.9837         estimate D2E/DX2                !
 ! D28   D(5,6,7,3)              0.1318         estimate D2E/DX2                !
 ! D29   D(5,6,7,8)            179.9636         estimate D2E/DX2                !
 ! D30   D(11,6,7,3)          -179.8762         estimate D2E/DX2                !
 ! D31   D(11,6,7,8)            -0.0444         estimate D2E/DX2                !
 ! D32   D(5,6,11,10)          179.9797         estimate D2E/DX2                !
 ! D33   D(5,6,11,21)           -0.0225         estimate D2E/DX2                !
 ! D34   D(7,6,11,10)           -0.0106         estimate D2E/DX2                !
 ! D35   D(7,6,11,21)          179.9872         estimate D2E/DX2                !
 ! D36   D(3,7,8,9)            179.8533         estimate D2E/DX2                !
 ! D37   D(3,7,8,18)            -0.0753         estimate D2E/DX2                !
 ! D38   D(6,7,8,9)              0.0781         estimate D2E/DX2                !
 ! D39   D(6,7,8,18)          -179.8505         estimate D2E/DX2                !
 ! D40   D(7,8,9,10)            -0.0588         estimate D2E/DX2                !
 ! D41   D(7,8,9,19)           179.9756         estimate D2E/DX2                !
 ! D42   D(18,8,9,10)          179.8706         estimate D2E/DX2                !
 ! D43   D(18,8,9,19)           -0.095          estimate D2E/DX2                !
 ! D44   D(8,9,10,11)            0.0072         estimate D2E/DX2                !
 ! D45   D(8,9,10,20)         -179.9704         estimate D2E/DX2                !
 ! D46   D(19,9,10,11)         179.9728         estimate D2E/DX2                !
 ! D47   D(19,9,10,20)          -0.0048         estimate D2E/DX2                !
 ! D48   D(9,10,11,6)            0.0286         estimate D2E/DX2                !
 ! D49   D(9,10,11,21)        -179.9692         estimate D2E/DX2                !
 ! D50   D(20,10,11,6)        -179.9937         estimate D2E/DX2                !
 ! D51   D(20,10,11,21)          0.0086         estimate D2E/DX2                !
 --------------------------------------------------------------------------------
 Trust Radius=3.00D-01 FncErr=1.00D-07 GrdErr=1.00D-06
 Number of steps in this run= 120 maximum allowed number of steps= 126.
 GradGradGradGradGradGradGradGradGradGradGradGradGradGradGradGradGradGrad

 Leave Link  103 at Sun Oct  3 19:38:38 2021, MaxMem=  805306368 cpu:       0.0
 (Enter /sw/target/amd/app/gaussian/Gaussian09RevA.02_gcc-4.9.2/g09/l202.exe)
                          Input orientation:                          
 ---------------------------------------------------------------------
 Center     Atomic      Atomic             Coordinates (Angstroms)
 Number     Number       Type             X           Y           Z
 ---------------------------------------------------------------------
      1          6           0        1.223566    0.563079    0.366999
      2          6           0        2.606768   -0.021358    0.140879
      3          7           0        2.984647   -0.955633    1.180318
      4          6           0        2.791644   -2.308300    1.129348
      5          7           0        3.241939   -2.904935    2.208887
      6          6           0        3.750950   -1.896159    2.990290
      7          6           0        3.605264   -0.657104    2.368646
      8          6           0        4.041252    0.538072    2.953410
      9          6           0        4.644879    0.446772    4.213342
     10          6           0        4.802010   -0.783086    4.855194
     11          6           0        4.357758   -1.966403    4.253013
     12          1           0        0.968831    1.258736   -0.438409
     13          1           0        1.172946    1.106507    1.316352
     14          1           0        0.462327   -0.223929    0.392234
     15          1           0        3.361999    0.770911    0.104977
     16          1           0        2.643929   -0.553175   -0.816524
     17          1           0        2.320219   -2.803258    0.290193
     18          1           0        3.920640    1.496900    2.461696
     19          1           0        4.998054    1.352572    4.702189
     20          1           0        5.273848   -0.826279    5.833833
     21          1           0        4.475272   -2.925605    4.744439
 ---------------------------------------------------------------------
                    Distance matrix (angstroms):
                    1          2          3          4          5
     1  C    0.000000
     2  C    1.518533   0.000000
     3  N    2.463612   1.447790   0.000000
     4  C    3.359295   2.498271   1.367317   0.000000
     5  N    4.415145   3.604875   2.218994   1.313067   0.000000
     6  C    4.395131   3.597663   2.178946   2.133831   1.373794
     7  C    3.341844   2.522720   1.373466   2.219074   2.282602
     8  C    3.824853   3.206406   2.547828   3.604242   3.612134
     9  C    5.149103   4.577991   3.731266   4.531658   4.149701
    10  C    5.895872   5.255862   4.103327   4.499976   3.733497
    11  C    5.596655   4.874301   3.514049   3.510967   2.510845
    12  H    1.094308   2.158020   3.404001   4.301657   5.432436
    13  H    1.095056   2.170176   2.748307   3.783657   4.600981
    14  H    1.095219   2.168603   2.742001   3.211488   4.267818
    15  H    2.164427   1.095150   2.068746   3.294872   4.237063
    16  H    2.159671   1.095824   2.065294   2.624634   3.878338
    17  H    3.541296   2.800602   2.155807   1.082315   2.131032
    18  H    3.540337   3.068805   2.921118   4.186805   4.461020
    19  H    5.802063   5.330243   4.667461   5.570945   5.237066
    20  H    6.944161   6.338055   5.187714   5.521767   4.646471
    21  H    6.473522   5.754887   4.336555   4.035412   2.819673
                    6          7          8          9         10
     6  C    0.000000
     7  C    1.393888   0.000000
     8  C    2.451757   1.400171   0.000000
     9  C    2.790034   2.387937   1.400046   0.000000
    10  C    2.412784   2.762425   2.437415   1.396142   0.000000
    11  C    1.402718   2.414819   2.839285   2.430520   1.400080
    12  H    5.426742   4.301253   4.632879   5.984263   6.847228
    13  H    4.296996   3.183366   3.351158   4.569696   5.409627
    14  H    4.512348   3.737900   4.466428   5.704774   6.250081
    15  H    3.948364   2.687490   2.937545   4.316192   5.201259
    16  H    4.185802   3.328705   4.166022   5.504839   6.072772
    17  H    3.187530   3.252274   4.606427   5.599807   5.574910
    18  H    3.438176   2.178957   1.084288   2.166923   3.421108
    19  H    3.878159   3.379953   2.153394   1.088199   2.150088
    20  H    3.398470   3.849716   3.417248   2.154589   1.087305
    21  H    2.159036   3.398147   3.923418   3.418150   2.170118
                   11         12         13         14         15
    11  C    0.000000
    12  H    6.625390   0.000000
    13  H    5.311288   1.773140   0.000000
    14  H    5.754669   1.773361   1.768908   0.000000
    15  H    5.068592   2.502098   2.524284   3.079013   0.000000
    16  H    5.534856   2.496386   3.076930   2.515728   1.765784
    17  H    4.533854   4.342454   4.201845   3.180426   3.727506
    18  H    3.923564   4.144938   3.002340   4.382220   2.528491
    19  H    3.409888   6.532166   5.114283   6.452433   4.914200
    20  H    2.153624   7.888060   6.400055   7.288660   6.247078
    21  H    1.084148   7.527665   6.238194   6.507262   6.035579
                   16         17         18         19         20
    16  H    0.000000
    17  H    2.528336   0.000000
    18  H    4.071797   5.076232   0.000000
    19  H    6.295234   6.626269   2.490273   0.000000
    20  H    7.156697   6.585159   4.312730   2.470642   0.000000
    21  H    6.317163   4.949700   5.007702   4.310206   2.496331
                   21
    21  H    0.000000
 Stoichiometry    C9H10N2
 Framework group  C1[X(C9H10N2)]
 Deg. of freedom    57
 Full point group                 C1      NOp   1
 Largest Abelian subgroup         C1      NOp   1
 Largest concise Abelian subgroup C1      NOp   1
                         Standard orientation:                         
 ---------------------------------------------------------------------
 Center     Atomic      Atomic             Coordinates (Angstroms)
 Number     Number       Type             X           Y           Z
 ---------------------------------------------------------------------
      1          6           0        2.987889   -0.999035    0.748902
      2          6           0        2.356981   -0.480080   -0.531170
      3          7           0        1.158281    0.291617   -0.278782
      4          6           0        1.115623    1.649616   -0.125242
      5          7           0       -0.108203    2.077393    0.083089
      6          6           0       -0.891331    0.948900    0.060152
      7          6           0       -0.122657   -0.191350   -0.167650
      8          6           0       -0.676854   -1.475293   -0.237169
      9          6           0       -2.062685   -1.580090   -0.068002
     10          6           0       -2.853045   -0.452191    0.160885
     11          6           0       -2.278259    0.822705    0.227853
     12          1           0        3.892453   -1.571414    0.521620
     13          1           0        2.298604   -1.652093    1.294382
     14          1           0        3.263628   -0.174520    1.414971
     15          1           0        2.094079   -1.308095   -1.197975
     16          1           0        3.061779    0.163338   -1.069781
     17          1           0        1.998347    2.274135   -0.171932
     18          1           0       -0.068928   -2.355834   -0.412539
     19          1           0       -2.532934   -2.560297   -0.115335
     20          1           0       -3.927207   -0.561231    0.289401
     21          1           0       -2.884343    1.703848    0.405687
 ---------------------------------------------------------------------
 Rotational constants (GHZ):      2.1519388      0.9467160      0.6946435
 Leave Link  202 at Sun Oct  3 19:38:38 2021, MaxMem=  805306368 cpu:       0.0
 (Enter /sw/target/amd/app/gaussian/Gaussian09RevA.02_gcc-4.9.2/g09/l301.exe)
 Standard basis: 6-31G(d) (6D, 7F)
 Ernie: Thresh=  0.10000D-02 Tol=  0.10000D-05 Strict=F.
 There are   185 symmetry adapted basis functions of A   symmetry.
 Integral buffers will be    131072 words long.
 Raffenetti 2 integral format.
 Two-electron integral symmetry is turned on.
   185 basis functions,   348 primitive gaussians,   185 cartesian basis functions
    39 alpha electrons       39 beta electrons
       nuclear repulsion energy       581.0209941578 Hartrees.
 IExCor=  402 DFT=T Ex+Corr=B3LYP ExCW=0 ScaHFX=  0.200000
 ScaDFX=  0.800000  0.720000  1.000000  0.810000 ScalE2=  1.000000  1.000000
 IRadAn=      0 IRanWt=     -1 IRanGd=            0 ICorTp=0
 NAtoms=   21 NActive=   21 NUniq=   21 SFac= 7.50D-01 NAtFMM=   80 NAOKFM=F Big=F
 Leave Link  301 at Sun Oct  3 19:38:39 2021, MaxMem=  805306368 cpu:       0.1
 (Enter /sw/target/amd/app/gaussian/Gaussian09RevA.02_gcc-4.9.2/g09/l302.exe)
 NPDir=0 NMtPBC=     1 NCelOv=     1 NCel=       1 NClECP=     1 NCelD=      1
         NCelK=      1 NCelE2=     1 NClLst=     1 CellRange=     0.0.
 One-electron integrals computed using PRISM.
 NBasis=   185 RedAO= T  NBF=   185
 NBsUse=   185 1.00D-06 NBFU=   185
 Precomputing XC quadrature grid using
 IXCGrd= 2 IRadAn=           0 IRanWt=          -1 IRanGd=           0 AccXCQ= 1.00D-10.
 NRdTot=    1316 NPtTot=      167266 NUsed=      176764 NTot=      176796
 NSgBfM=   185   185   185   185   185 NAtAll=    21    21.
 Leave Link  302 at Sun Oct  3 19:38:43 2021, MaxMem=  805306368 cpu:       1.3
 (Enter /sw/target/amd/app/gaussian/Gaussian09RevA.02_gcc-4.9.2/g09/l303.exe)
 DipDrv:  MaxL=1.
 Leave Link  303 at Sun Oct  3 19:38:44 2021, MaxMem=  805306368 cpu:       0.1
 (Enter /sw/target/amd/app/gaussian/Gaussian09RevA.02_gcc-4.9.2/g09/l401.exe)
 Harris functional with IExCor=  402 diagonalized for initial guess.
 ExpMin= 1.61D-01 ExpMax= 4.17D+03 ExpMxC= 6.27D+02 IAcc=1 IRadAn=         1 AccDes= 0.00D+00
 HarFok:  IExCor=  402 AccDes= 0.00D+00 IRadAn=         1 IDoV= 1
 ScaDFX=  1.000000  1.000000  1.000000  1.000000
 FoFCou: FMM=F IPFlag=           0 FMFlag=      100000 FMFlg1=           0
         NFxFlg=           0 DoJE=T BraDBF=F KetDBF=T FulRan=T
         Omega=  0.000000  0.000000  1.000000  0.000000  0.000000 ICntrl=     500 IOpCl=  0
         NMat0=    1 NMatS0=    1 NMatT0=    0 NMatD0=    1 NMtDS0=    0 NMtDT0=    0
         I1Cent=           4 NGrid=           0.
 Petite list used in FoFCou.
 Harris En= -458.554991925156    
 Initial guess orbital symmetries:
       Occupied  (A) (A) (A) (A) (A) (A) (A) (A) (A) (A) (A) (A)
                 (A) (A) (A) (A) (A) (A) (A) (A) (A) (A) (A) (A)
                 (A) (A) (A) (A) (A) (A) (A) (A) (A) (A) (A) (A)
                 (A) (A) (A)
       Virtual   (A) (A) (A) (A) (A) (A) (A) (A) (A) (A) (A) (A)
                 (A) (A) (A) (A) (A) (A) (A) (A) (A) (A) (A) (A)
                 (A) (A) (A) (A) (A) (A) (A) (A) (A) (A) (A) (A)
                 (A) (A) (A) (A) (A) (A) (A) (A) (A) (A) (A) (A)
                 (A) (A) (A) (A) (A) (A) (A) (A) (A) (A) (A) (A)
                 (A) (A) (A) (A) (A) (A) (A) (A) (A) (A) (A) (A)
                 (A) (A) (A) (A) (A) (A) (A) (A) (A) (A) (A) (A)
                 (A) (A) (A) (A) (A) (A) (A) (A) (A) (A) (A) (A)
                 (A) (A) (A) (A) (A) (A) (A) (A) (A) (A) (A) (A)
                 (A) (A) (A) (A) (A) (A) (A) (A) (A) (A) (A) (A)
                 (A) (A) (A) (A) (A) (A) (A) (A) (A) (A) (A) (A)
                 (A) (A) (A) (A) (A) (A) (A) (A) (A) (A) (A) (A)
                 (A) (A)
 The electronic state of the initial guess is 1-A.
 Leave Link  401 at Sun Oct  3 19:39:00 2021, MaxMem=  805306368 cpu:       6.2
 (Enter /sw/target/amd/app/gaussian/Gaussian09RevA.02_gcc-4.9.2/g09/l502.exe)
 Closed shell SCF:
 Requested convergence on RMS density matrix=1.00D-08 within  64 cycles.
 Requested convergence on MAX density matrix=1.00D-06.
 Requested convergence on             energy=1.00D-06.
 No special actions if energy rises.
 Using DIIS extrapolation, IDIIS=  1040.
 Integral symmetry usage will be decided dynamically.
       176562 words used for storage of precomputed grid.
 Keep R1 ints in memory in canonical form, NReq=151519250.
 IEnd=      287286 IEndB=      287286 NGot=   805306368 MDV=   657043074
 LenX=   657043074 LenY=   657008408
 Symmetry not used in FoFDir.
 MinBra= 0 MaxBra= 2 Meth= 1.
 IRaf=       0 NMat=   1 IRICut=       1 DoRegI=T DoRafI=F ISym2E= 0 JSym2E=0.
 Integral accuracy reduced to 1.0D-05 until final iterations.

 Cycle   1  Pass 0  IDiag  1:
 E= -458.215857417510    
 DIIS: error= 3.42D-02 at cycle   1 NSaved=   1.
 NSaved= 1 IEnMin= 1 EnMin= -458.215857417510     IErMin= 1 ErrMin= 3.42D-02
 ErrMax= 3.42D-02 EMaxC= 1.00D-01 BMatC= 2.52D-01 BMatP= 2.52D-01
 IDIUse=3 WtCom= 6.58D-01 WtEn= 3.42D-01
 Coeff-Com:  0.100D+01
 Coeff-En:   0.100D+01
 Coeff:      0.100D+01
 Gap=     0.219 Goal=   None    Shift=    0.000
 GapD=    0.219 DampG=1.000 DampE=0.500 DampFc=0.5000 IDamp=-1.
 Damping current iteration by 5.00D-01
 RMSDP=7.04D-03 MaxDP=1.60D-01              OVMax= 2.35D-01

 Cycle   2  Pass 0  IDiag  1:
 E= -458.330270569671     Delta-E=       -0.114413152162 Rises=F Damp=T
 DIIS: error= 8.97D-03 at cycle   2 NSaved=   2.
 NSaved= 2 IEnMin= 2 EnMin= -458.330270569671     IErMin= 2 ErrMin= 8.97D-03
 ErrMax= 8.97D-03 EMaxC= 1.00D-01 BMatC= 2.32D-02 BMatP= 2.52D-01
 IDIUse=3 WtCom= 9.10D-01 WtEn= 8.97D-02
 Coeff-Com:  0.100D+00 0.900D+00
 Coeff-En:   0.157D+00 0.843D+00
 Coeff:      0.105D+00 0.895D+00
 Gap=     0.216 Goal=   None    Shift=    0.000
 RMSDP=2.06D-03 MaxDP=6.26D-02 DE=-1.14D-01 OVMax= 2.17D-01

 Cycle   3  Pass 0  IDiag  1:
 E= -458.460466521094     Delta-E=       -0.130195951422 Rises=F Damp=F
 DIIS: error= 1.30D-02 at cycle   3 NSaved=   3.
 NSaved= 3 IEnMin= 3 EnMin= -458.460466521094     IErMin= 2 ErrMin= 8.97D-03
 ErrMax= 1.30D-02 EMaxC= 1.00D-01 BMatC= 3.31D-02 BMatP= 2.32D-02
 IDIUse=2 WtCom= 0.00D+00 WtEn= 1.00D+00
 Coeff-En:   0.000D+00 0.000D+00 0.100D+01
 Coeff:      0.000D+00 0.000D+00 0.100D+01
 Gap=     0.215 Goal=   None    Shift=    0.000
 RMSDP=3.15D-03 MaxDP=9.86D-02 DE=-1.30D-01 OVMax= 2.03D-01

 Cycle   4  Pass 0  IDiag  1:
 E= -458.330349955492     Delta-E=        0.130116565602 Rises=F Damp=F
 DIIS: error= 3.47D-02 at cycle   4 NSaved=   4.
 NSaved= 4 IEnMin= 3 EnMin= -458.460466521094     IErMin= 2 ErrMin= 8.97D-03
 ErrMax= 3.47D-02 EMaxC= 1.00D-01 BMatC= 1.70D-01 BMatP= 2.32D-02
 IDIUse=2 WtCom= 0.00D+00 WtEn= 1.00D+00
 Coeff-En:   0.000D+00 0.000D+00 0.780D+00 0.220D+00
 Coeff:      0.000D+00 0.000D+00 0.780D+00 0.220D+00
 Gap=     0.199 Goal=   None    Shift=    0.000
 RMSDP=1.66D-03 MaxDP=5.08D-02 DE= 1.30D-01 OVMax= 1.21D-01

 Cycle   5  Pass 0  IDiag  1:
 E= -458.481425431459     Delta-E=       -0.151075475967 Rises=F Damp=F
 DIIS: error= 8.66D-03 at cycle   5 NSaved=   5.
 NSaved= 5 IEnMin= 5 EnMin= -458.481425431459     IErMin= 5 ErrMin= 8.66D-03
 ErrMax= 8.66D-03 EMaxC= 1.00D-01 BMatC= 1.18D-02 BMatP= 2.32D-02
 IDIUse=3 WtCom= 9.13D-01 WtEn= 8.66D-02
 Coeff-Com: -0.117D-02 0.161D-01 0.287D+00-0.857D-01 0.784D+00
 Coeff-En:   0.000D+00 0.000D+00 0.311D+00 0.000D+00 0.689D+00
 Coeff:     -0.107D-02 0.147D-01 0.289D+00-0.783D-01 0.776D+00
 Gap=     0.202 Goal=   None    Shift=    0.000
 RMSDP=6.00D-04 MaxDP=1.94D-02 DE=-1.51D-01 OVMax= 4.33D-02

 Cycle   6  Pass 0  IDiag  1:
 E= -458.492753832685     Delta-E=       -0.011328401226 Rises=F Damp=F
 DIIS: error= 6.51D-04 at cycle   6 NSaved=   6.
 NSaved= 6 IEnMin= 6 EnMin= -458.492753832685     IErMin= 6 ErrMin= 6.51D-04
 ErrMax= 6.51D-04 EMaxC= 1.00D-01 BMatC= 6.89D-05 BMatP= 1.18D-02
 IDIUse=3 WtCom= 9.93D-01 WtEn= 6.51D-03
 Coeff-Com: -0.265D-02 0.974D-02 0.136D+00-0.704D-01 0.490D+00 0.437D+00
 Coeff-En:   0.000D+00 0.000D+00 0.000D+00 0.000D+00 0.000D+00 0.100D+01
 Coeff:     -0.263D-02 0.968D-02 0.135D+00-0.700D-01 0.487D+00 0.441D+00
 Gap=     0.202 Goal=   None    Shift=    0.000
 RMSDP=5.96D-05 MaxDP=1.49D-03 DE=-1.13D-02 OVMax= 4.56D-03

 Cycle   7  Pass 0  IDiag  1:
 E= -458.492831978177     Delta-E=       -0.000078145492 Rises=F Damp=F
 DIIS: error= 8.36D-05 at cycle   7 NSaved=   7.
 NSaved= 7 IEnMin= 7 EnMin= -458.492831978177     IErMin= 7 ErrMin= 8.36D-05
 ErrMax= 8.36D-05 EMaxC= 1.00D-01 BMatC= 2.21D-06 BMatP= 6.89D-05
 IDIUse=1 WtCom= 1.00D+00 WtEn= 0.00D+00
 Coeff-Com: -0.822D-03 0.244D-02 0.441D-01-0.255D-01 0.168D+00 0.202D+00
 Coeff-Com:  0.610D+00
 Coeff:     -0.822D-03 0.244D-02 0.441D-01-0.255D-01 0.168D+00 0.202D+00
 Coeff:      0.610D+00
 Gap=     0.202 Goal=   None    Shift=    0.000
 RMSDP=1.04D-05 MaxDP=2.49D-04 DE=-7.81D-05 OVMax= 5.86D-04

 Cycle   8  Pass 0  IDiag  1:
 E= -458.492833791937     Delta-E=       -0.000001813760 Rises=F Damp=F
 DIIS: error= 4.58D-05 at cycle   8 NSaved=   8.
 NSaved= 8 IEnMin= 8 EnMin= -458.492833791937     IErMin= 8 ErrMin= 4.58D-05
 ErrMax= 4.58D-05 EMaxC= 1.00D-01 BMatC= 4.69D-07 BMatP= 2.21D-06
 IDIUse=1 WtCom= 1.00D+00 WtEn= 0.00D+00
 Coeff-Com:  0.380D-04-0.401D-03 0.860D-02-0.438D-02 0.299D-01 0.594D-01
 Coeff-Com:  0.364D+00 0.543D+00
 Coeff:      0.380D-04-0.401D-03 0.860D-02-0.438D-02 0.299D-01 0.594D-01
 Coeff:      0.364D+00 0.543D+00
 Gap=     0.202 Goal=   None    Shift=    0.000
 RMSDP=4.39D-06 MaxDP=1.57D-04 DE=-1.81D-06 OVMax= 2.82D-04

 Initial convergence to 1.0D-05 achieved.  Increase integral accuracy.
 Cycle   9  Pass 1  IDiag  1:
 E= -458.492866583236     Delta-E=       -0.000032791299 Rises=F Damp=F
 DIIS: error= 3.01D-05 at cycle   1 NSaved=   1.
 NSaved= 1 IEnMin= 1 EnMin= -458.492866583236     IErMin= 1 ErrMin= 3.01D-05
 ErrMax= 3.01D-05 EMaxC= 1.00D-01 BMatC= 1.24D-07 BMatP= 1.24D-07
 IDIUse=1 WtCom= 1.00D+00 WtEn= 0.00D+00
 Coeff-Com:  0.100D+01
 Coeff:      0.100D+01
 Gap=     0.202 Goal=   None    Shift=    0.000
 RMSDP=4.39D-06 MaxDP=1.57D-04 DE=-3.28D-05 OVMax= 9.02D-05

 Cycle  10  Pass 1  IDiag  1:
 E= -458.492866711359     Delta-E=       -0.000000128123 Rises=F Damp=F
 DIIS: error= 8.16D-06 at cycle   2 NSaved=   2.
 NSaved= 2 IEnMin= 2 EnMin= -458.492866711359     IErMin= 2 ErrMin= 8.16D-06
 ErrMax= 8.16D-06 EMaxC= 1.00D-01 BMatC= 3.15D-08 BMatP= 1.24D-07
 IDIUse=1 WtCom= 1.00D+00 WtEn= 0.00D+00
 Coeff-Com:  0.251D+00 0.749D+00
 Coeff:      0.251D+00 0.749D+00
 Gap=     0.202 Goal=   None    Shift=    0.000
 RMSDP=2.11D-06 MaxDP=6.07D-05 DE=-1.28D-07 OVMax= 1.16D-04

 Cycle  11  Pass 1  IDiag  1:
 E= -458.492866707921     Delta-E=        0.000000003438 Rises=F Damp=F
 DIIS: error= 9.07D-06 at cycle   3 NSaved=   3.
 NSaved= 3 IEnMin= 2 EnMin= -458.492866711359     IErMin= 2 ErrMin= 8.16D-06
 ErrMax= 9.07D-06 EMaxC= 1.00D-01 BMatC= 3.42D-08 BMatP= 3.15D-08
 IDIUse=1 WtCom= 1.00D+00 WtEn= 0.00D+00
 Coeff-Com: -0.581D-02 0.512D+00 0.494D+00
 Coeff:     -0.581D-02 0.512D+00 0.494D+00
 Gap=     0.202 Goal=   None    Shift=    0.000
 RMSDP=1.22D-06 MaxDP=3.27D-05 DE= 3.44D-09 OVMax= 6.89D-05

 Cycle  12  Pass 1  IDiag  1:
 E= -458.492866741629     Delta-E=       -0.000000033708 Rises=F Damp=F
 DIIS: error= 2.59D-06 at cycle   4 NSaved=   4.
 NSaved= 4 IEnMin= 4 EnMin= -458.492866741629     IErMin= 4 ErrMin= 2.59D-06
 ErrMax= 2.59D-06 EMaxC= 1.00D-01 BMatC= 1.51D-09 BMatP= 3.15D-08
 IDIUse=1 WtCom= 1.00D+00 WtEn= 0.00D+00
 Coeff-Com: -0.143D-01 0.277D+00 0.298D+00 0.439D+00
 Coeff:     -0.143D-01 0.277D+00 0.298D+00 0.439D+00
 Gap=     0.202 Goal=   None    Shift=    0.000
 RMSDP=2.55D-07 MaxDP=7.19D-06 DE=-3.37D-08 OVMax= 1.79D-05

 Cycle  13  Pass 1  IDiag  1:
 E= -458.492866743047     Delta-E=       -0.000000001418 Rises=F Damp=F
 DIIS: error= 7.59D-07 at cycle   5 NSaved=   5.
 NSaved= 5 IEnMin= 5 EnMin= -458.492866743047     IErMin= 5 ErrMin= 7.59D-07
 ErrMax= 7.59D-07 EMaxC= 1.00D-01 BMatC= 9.31D-11 BMatP= 1.51D-09
 IDIUse=1 WtCom= 1.00D+00 WtEn= 0.00D+00
 Coeff-Com: -0.712D-02 0.119D+00 0.134D+00 0.259D+00 0.495D+00
 Coeff:     -0.712D-02 0.119D+00 0.134D+00 0.259D+00 0.495D+00
 Gap=     0.202 Goal=   None    Shift=    0.000
 RMSDP=7.00D-08 MaxDP=1.94D-06 DE=-1.42D-09 OVMax= 4.44D-06

 Cycle  14  Pass 1  IDiag  1:
 E= -458.492866743142     Delta-E=       -0.000000000095 Rises=F Damp=F
 DIIS: error= 1.55D-07 at cycle   6 NSaved=   6.
 NSaved= 6 IEnMin= 6 EnMin= -458.492866743142     IErMin= 6 ErrMin= 1.55D-07
 ErrMax= 1.55D-07 EMaxC= 1.00D-01 BMatC= 9.52D-12 BMatP= 9.31D-11
 IDIUse=1 WtCom= 1.00D+00 WtEn= 0.00D+00
 Coeff-Com: -0.217D-02 0.301D-01 0.367D-01 0.896D-01 0.284D+00 0.562D+00
 Coeff:     -0.217D-02 0.301D-01 0.367D-01 0.896D-01 0.284D+00 0.562D+00
 Gap=     0.202 Goal=   None    Shift=    0.000
 RMSDP=1.95D-08 MaxDP=5.04D-07 DE=-9.55D-11 OVMax= 1.03D-06

 Cycle  15  Pass 1  IDiag  1:
 E= -458.492866743135     Delta-E=        0.000000000007 Rises=F Damp=F
 DIIS: error= 6.23D-08 at cycle   7 NSaved=   7.
 NSaved= 7 IEnMin= 6 EnMin= -458.492866743142     IErMin= 7 ErrMin= 6.23D-08
 ErrMax= 6.23D-08 EMaxC= 1.00D-01 BMatC= 8.01D-13 BMatP= 9.52D-12
 IDIUse=1 WtCom= 1.00D+00 WtEn= 0.00D+00
 Coeff-Com: -0.533D-03 0.543D-02 0.776D-02 0.227D-01 0.105D+00 0.287D+00
 Coeff-Com:  0.573D+00
 Coeff:     -0.533D-03 0.543D-02 0.776D-02 0.227D-01 0.105D+00 0.287D+00
 Coeff:      0.573D+00
 Gap=     0.202 Goal=   None    Shift=    0.000
 RMSDP=8.07D-09 MaxDP=2.25D-07 DE= 7.28D-12 OVMax= 5.10D-07

 SCF Done:  E(RB3LYP) =  -458.492866743     A.U. after   15 cycles
             Convg  =    0.8069D-08             -V/T =  2.0093
 KE= 4.542563472422D+02 PE=-2.224891913866D+03 EE= 7.311217057230D+02
 Leave Link  502 at Sun Oct  3 19:45:19 2021, MaxMem=  805306368 cpu:     130.5
 (Enter /sw/target/amd/app/gaussian/Gaussian09RevA.02_gcc-4.9.2/g09/l508.exe)
 QCSCF skips out because SCF is already converged.
 Leave Link  508 at Sun Oct  3 19:45:21 2021, MaxMem=  805306368 cpu:       0.0
 (Enter /sw/target/amd/app/gaussian/Gaussian09RevA.02_gcc-4.9.2/g09/l601.exe)
 Copying SCF densities to generalized density rwf, IOpCl= 0 IROHF=0.

 **********************************************************************

            Population analysis using the SCF density.

 **********************************************************************

 Orbital symmetries:
       Occupied  (A) (A) (A) (A) (A) (A) (A) (A) (A) (A) (A) (A)
                 (A) (A) (A) (A) (A) (A) (A) (A) (A) (A) (A) (A)
                 (A) (A) (A) (A) (A) (A) (A) (A) (A) (A) (A) (A)
                 (A) (A) (A)
       Virtual   (A) (A) (A) (A) (A) (A) (A) (A) (A) (A) (A) (A)
                 (A) (A) (A) (A) (A) (A) (A) (A) (A) (A) (A) (A)
                 (A) (A) (A) (A) (A) (A) (A) (A) (A) (A) (A) (A)
                 (A) (A) (A) (A) (A) (A) (A) (A) (A) (A) (A) (A)
                 (A) (A) (A) (A) (A) (A) (A) (A) (A) (A) (A) (A)
                 (A) (A) (A) (A) (A) (A) (A) (A) (A) (A) (A) (A)
                 (A) (A) (A) (A) (A) (A) (A) (A) (A) (A) (A) (A)
                 (A) (A) (A) (A) (A) (A) (A) (A) (A) (A) (A) (A)
                 (A) (A) (A) (A) (A) (A) (A) (A) (A) (A) (A) (A)
                 (A) (A) (A) (A) (A) (A) (A) (A) (A) (A) (A) (A)
                 (A) (A) (A) (A) (A) (A) (A) (A) (A) (A) (A) (A)
                 (A) (A) (A) (A) (A) (A) (A) (A) (A) (A) (A) (A)
                 (A) (A)
 The electronic state is 1-A.
 Alpha  occ. eigenvalues --  -14.38756 -14.30624 -10.24505 -10.24281 -10.21451
 Alpha  occ. eigenvalues --  -10.19654 -10.19462 -10.19170 -10.18500 -10.18078
 Alpha  occ. eigenvalues --  -10.17935  -1.02228  -0.89195  -0.83674  -0.77692
 Alpha  occ. eigenvalues --   -0.73524  -0.73013  -0.65988  -0.63004  -0.59519
 Alpha  occ. eigenvalues --   -0.57308  -0.52081  -0.50525  -0.47824  -0.46338
 Alpha  occ. eigenvalues --   -0.45904  -0.43488  -0.42594  -0.41227  -0.39983
 Alpha  occ. eigenvalues --   -0.39222  -0.37255  -0.35820  -0.34831  -0.33120
 Alpha  occ. eigenvalues --   -0.29024  -0.26152  -0.22554  -0.21531
 Alpha virt. eigenvalues --   -0.01341   0.02877   0.05789   0.07927   0.10949
 Alpha virt. eigenvalues --    0.11358   0.13004   0.14084   0.14949   0.15723
 Alpha virt. eigenvalues --    0.16679   0.17986   0.18628   0.19003   0.19809
 Alpha virt. eigenvalues --    0.22268   0.23766   0.26689   0.28953   0.32848
 Alpha virt. eigenvalues --    0.33532   0.34451   0.36308   0.43149   0.47072
 Alpha virt. eigenvalues --    0.47995   0.49636   0.51608   0.53068   0.54491
 Alpha virt. eigenvalues --    0.55010   0.56154   0.56621   0.58926   0.59863
 Alpha virt. eigenvalues --    0.61198   0.61436   0.62237   0.62778   0.63496
 Alpha virt. eigenvalues --    0.64514   0.66894   0.69206   0.69960   0.70372
 Alpha virt. eigenvalues --    0.76642   0.78307   0.79711   0.80426   0.82373
 Alpha virt. eigenvalues --    0.83500   0.84867   0.85861   0.86423   0.87377
 Alpha virt. eigenvalues --    0.88453   0.90186   0.90824   0.92320   0.93129
 Alpha virt. eigenvalues --    0.94299   0.96047   0.96493   0.99566   1.01303
 Alpha virt. eigenvalues --    1.02984   1.06695   1.13430   1.15077   1.15847
 Alpha virt. eigenvalues --    1.18908   1.24616   1.30299   1.31504   1.33387
 Alpha virt. eigenvalues --    1.34646   1.38651   1.40996   1.41429   1.44214
 Alpha virt. eigenvalues --    1.46118   1.47696   1.50665   1.51724   1.54806
 Alpha virt. eigenvalues --    1.62599   1.66965   1.69975   1.75790   1.79927
 Alpha virt. eigenvalues --    1.82296   1.84637   1.86369   1.87710   1.92416
 Alpha virt. eigenvalues --    1.94997   1.95069   1.97013   2.00580   2.01545
 Alpha virt. eigenvalues --    2.02246   2.07417   2.08535   2.10047   2.15599
 Alpha virt. eigenvalues --    2.17128   2.20225   2.21126   2.23475   2.25782
 Alpha virt. eigenvalues --    2.26585   2.27529   2.31358   2.32812   2.35867
 Alpha virt. eigenvalues --    2.39019   2.44168   2.47127   2.52082   2.56601
 Alpha virt. eigenvalues --    2.60591   2.62935   2.63905   2.64944   2.68182
 Alpha virt. eigenvalues --    2.71784   2.73772   2.77052   2.83318   2.86045
 Alpha virt. eigenvalues --    2.94097   3.01840   3.14308   3.26068   3.46853
 Alpha virt. eigenvalues --    4.05548   4.09311   4.11575   4.15931   4.17233
 Alpha virt. eigenvalues --    4.25838   4.31572   4.39432   4.44801   4.48267
 Alpha virt. eigenvalues --    4.78992
          Condensed to atoms (all electrons):
              1          2          3          4          5          6
     1  C    5.113195   0.368448  -0.066019  -0.000713  -0.000118  -0.000290
     2  C    0.368448   4.912550   0.276061  -0.039095   0.005392   0.008692
     3  N   -0.066019   0.276061   6.990570   0.365205  -0.093311  -0.038944
     4  C   -0.000713  -0.039095   0.365205   4.733555   0.530589  -0.110532
     5  N   -0.000118   0.005392  -0.093311   0.530589   6.849926   0.395114
     6  C   -0.000290   0.008692  -0.038944  -0.110532   0.395114   4.681073
     7  C   -0.000554  -0.035481   0.271310  -0.074631  -0.083572   0.448287
     8  C    0.000041  -0.001621  -0.091530   0.006292   0.012671  -0.043817
     9  C    0.000010  -0.000096   0.005044   0.000034  -0.000462  -0.040505
    10  C   -0.000000   0.000016   0.000103  -0.000094   0.004785  -0.006472
    11  C    0.000006  -0.000247   0.011128   0.004952  -0.071315   0.508706
    12  H    0.359765  -0.027233   0.004670  -0.000064   0.000001   0.000006
    13  H    0.380043  -0.032190  -0.003228  -0.000090   0.000005  -0.000132
    14  H    0.377181  -0.032184  -0.001687   0.002438  -0.000108  -0.000034
    15  H   -0.046396   0.374922  -0.035014   0.002862  -0.000274  -0.000201
    16  H   -0.043965   0.381454  -0.038718  -0.001848   0.000224  -0.000211
    17  H    0.000013   0.001346  -0.056978   0.376039  -0.036297   0.004757
    18  H   -0.000088   0.002145  -0.006651  -0.000217  -0.000162   0.003870
    19  H   -0.000000  -0.000001  -0.000109   0.000003   0.000002   0.000950
    20  H    0.000000  -0.000000   0.000003   0.000004  -0.000085   0.003019
    21  H   -0.000000   0.000002  -0.000118  -0.000016  -0.001329  -0.035612
              7          8          9         10         11         12
     1  C   -0.000554   0.000041   0.000010  -0.000000   0.000006   0.359765
     2  C   -0.035481  -0.001621  -0.000096   0.000016  -0.000247  -0.027233
     3  N    0.271310  -0.091530   0.005044   0.000103   0.011128   0.004670
     4  C   -0.074631   0.006292   0.000034  -0.000094   0.004952  -0.000064
     5  N   -0.083572   0.012671  -0.000462   0.004785  -0.071315   0.000001
     6  C    0.448287  -0.043817  -0.040505  -0.006472   0.508706   0.000006
     7  C    4.785085   0.454213   0.007407  -0.045447  -0.045540  -0.000045
     8  C    0.454213   5.076893   0.523230  -0.032265  -0.049357  -0.000046
     9  C    0.007407   0.523230   4.873587   0.526596  -0.024146  -0.000000
    10  C   -0.045447  -0.032265   0.526596   4.891845   0.524661   0.000000
    11  C   -0.045540  -0.049357  -0.024146   0.524661   5.008530  -0.000000
    12  H   -0.000045  -0.000046  -0.000000   0.000000  -0.000000   0.565512
    13  H    0.002381   0.001372  -0.000007   0.000001  -0.000003  -0.027189
    14  H   -0.000154  -0.000023   0.000001   0.000000  -0.000001  -0.026781
    15  H   -0.003748   0.003368   0.000009  -0.000003  -0.000004  -0.000389
    16  H    0.003230   0.000117   0.000001   0.000000   0.000006  -0.001059
    17  H    0.003786  -0.000093   0.000003   0.000005  -0.000235  -0.000011
    18  H   -0.037538   0.347064  -0.040808   0.004156   0.000489   0.000014
    19  H    0.002733  -0.040153   0.357738  -0.039999   0.004342   0.000000
    20  H    0.000655   0.004880  -0.042584   0.360459  -0.039198  -0.000000
    21  H    0.007587   0.000175   0.005003  -0.048100   0.345476   0.000000
             13         14         15         16         17         18
     1  C    0.380043   0.377181  -0.046396  -0.043965   0.000013  -0.000088
     2  C   -0.032190  -0.032184   0.374922   0.381454   0.001346   0.002145
     3  N   -0.003228  -0.001687  -0.035014  -0.038718  -0.056978  -0.006651
     4  C   -0.000090   0.002438   0.002862  -0.001848   0.376039  -0.000217
     5  N    0.000005  -0.000108  -0.000274   0.000224  -0.036297  -0.000162
     6  C   -0.000132  -0.000034  -0.000201  -0.000211   0.004757   0.003870
     7  C    0.002381  -0.000154  -0.003748   0.003230   0.003786  -0.037538
     8  C    0.001372  -0.000023   0.003368   0.000117  -0.000093   0.347064
     9  C   -0.000007   0.000001   0.000009   0.000001   0.000003  -0.040808
    10  C    0.000001   0.000000  -0.000003   0.000000   0.000005   0.004156
    11  C   -0.000003  -0.000001  -0.000004   0.000006  -0.000235   0.000489
    12  H   -0.027189  -0.026781  -0.000389  -0.001059  -0.000011   0.000014
    13  H    0.541083  -0.029384  -0.004928   0.004719   0.000008   0.000601
    14  H   -0.029384   0.549689   0.004904  -0.004490   0.000247  -0.000004
    15  H   -0.004928   0.004904   0.568524  -0.031224  -0.000088   0.002561
    16  H    0.004719  -0.004490  -0.031224   0.567232   0.003254  -0.000052
    17  H    0.000008   0.000247  -0.000088   0.003254   0.544221  -0.000002
    18  H    0.000601  -0.000004   0.002561  -0.000052  -0.000002   0.604235
    19  H   -0.000001   0.000000   0.000002  -0.000000  -0.000000  -0.004988
    20  H   -0.000000  -0.000000  -0.000000  -0.000000  -0.000000  -0.000177
    21  H   -0.000000   0.000000   0.000000  -0.000000  -0.000004   0.000019
             19         20         21
     1  C   -0.000000   0.000000  -0.000000
     2  C   -0.000001  -0.000000   0.000002
     3  N   -0.000109   0.000003  -0.000118
     4  C    0.000003   0.000004  -0.000016
     5  N    0.000002  -0.000085  -0.001329
     6  C    0.000950   0.003019  -0.035612
     7  C    0.002733   0.000655   0.007587
     8  C   -0.040153   0.004880   0.000175
     9  C    0.357738  -0.042584   0.005003
    10  C   -0.039999   0.360459  -0.048100
    11  C    0.004342  -0.039198   0.345476
    12  H    0.000000  -0.000000   0.000000
    13  H   -0.000001  -0.000000  -0.000000
    14  H    0.000000  -0.000000   0.000000
    15  H    0.000002  -0.000000   0.000000
    16  H   -0.000000  -0.000000  -0.000000
    17  H   -0.000000  -0.000000  -0.000004
    18  H   -0.004988  -0.000177   0.000019
    19  H    0.599701  -0.005559  -0.000161
    20  H   -0.005559   0.598957  -0.005584
    21  H   -0.000161  -0.005584   0.596334
 Mulliken atomic charges:
              1
     1  C   -0.440559
     2  C   -0.162879
     3  N   -0.491787
     4  C    0.205327
     5  N   -0.511677
     6  C    0.222277
     7  C    0.340036
     8  C   -0.171411
     9  C   -0.150056
    10  C   -0.140247
    11  C   -0.178250
    12  H    0.152850
    13  H    0.166937
    14  H    0.160389
    15  H    0.165117
    16  H    0.161329
    17  H    0.160032
    18  H    0.125534
    19  H    0.125500
    20  H    0.125208
    21  H    0.136329
 Sum of Mulliken atomic charges =  -0.00000
 Mulliken charges with hydrogens summed into heavy atoms:
              1
     1  C    0.039617
     2  C    0.163568
     3  N   -0.491787
     4  C    0.365359
     5  N   -0.511677
     6  C    0.222277
     7  C    0.340036
     8  C   -0.045877
     9  C   -0.024556
    10  C   -0.015039
    11  C   -0.041921
 Sum of Mulliken charges with hydrogens summed into heavy atoms =  -0.00000
 Electronic spatial extent (au):  <R**2>=           1676.7269
 Charge=             -0.0000 electrons
 Dipole moment (field-independent basis, Debye):
    X=              2.9006    Y=             -2.4147    Z=             -0.5117  Tot=              3.8086
 Quadrupole moment (field-independent basis, Debye-Ang):
   XX=            -53.5111   YY=            -66.6734   ZZ=            -66.6799
   XY=              1.8386   XZ=             -1.7535   YZ=              0.1284
 Traceless Quadrupole moment (field-independent basis, Debye-Ang):
   XX=              8.7770   YY=             -4.3853   ZZ=             -4.3918
   XY=              1.8386   XZ=             -1.7535   YZ=              0.1284
 Octapole moment (field-independent basis, Debye-Ang**2):
  XXX=              9.8863  YYY=            -21.7019  ZZZ=             -0.6566  XYY=              7.4354
  XXY=              4.0866  XXZ=              0.1119  XZZ=              8.0098  YZZ=              0.9866
  YYZ=             -2.9899  XYZ=             -0.7602
 Hexadecapole moment (field-independent basis, Debye-Ang**3):
 XXXX=          -1393.1000 YYYY=           -681.0488 ZZZZ=           -133.5329 XXXY=              5.7086
 XXXZ=            -20.1480 YYYX=             23.7318 YYYZ=             -0.3477 ZZZX=             -0.5823
 ZZZY=             -0.4171 XXYY=           -323.6202 XXZZ=           -282.8059 YYZZ=           -135.6635
 XXYZ=              2.8890 YYXZ=             -3.3700 ZZXY=             -3.1533
 N-N= 5.810209941578D+02 E-N=-2.224891921785D+03  KE= 4.542563472422D+02
 No NMR shielding tensors so no spin-rotation constants.
 Leave Link  601 at Sun Oct  3 19:45:24 2021, MaxMem=  805306368 cpu:       0.9
 (Enter /sw/target/amd/app/gaussian/Gaussian09RevA.02_gcc-4.9.2/g09/l701.exe)
 Compute integral first derivatives.
 ... and contract with generalized density number  0.
 Leave Link  701 at Sun Oct  3 19:45:26 2021, MaxMem=  805306368 cpu:       0.9
 (Enter /sw/target/amd/app/gaussian/Gaussian09RevA.02_gcc-4.9.2/g09/l702.exe)
 L702 exits ... SP integral derivatives will be done elsewhere.
 Leave Link  702 at Sun Oct  3 19:45:27 2021, MaxMem=  805306368 cpu:       0.1
 (Enter /sw/target/amd/app/gaussian/Gaussian09RevA.02_gcc-4.9.2/g09/l703.exe)
 Compute integral first derivatives, UseDBF=F ICtDFT=           0.
 Integral derivatives from FoFDir, PRISM(SPDF).
 Calling FoFJK, ICntrl=      2127 FMM=F ISym2X=0 I1Cent= 0 IOpClX= 0 NMat=1 NMatS=1 NMatT=0.
 FoFCou: FMM=F IPFlag=           0 FMFlag=      100000 FMFlg1=         800
         NFxFlg=           0 DoJE=F BraDBF=F KetDBF=F FulRan=T
         Omega=  0.000000  0.000000  1.000000  0.000000  0.000000 ICntrl=    2127 IOpCl=  0
         NMat0=    1 NMatS0=    1 NMatT0=    0 NMatD0=    1 NMtDS0=    0 NMtDT0=    0
         I1Cent=           0 NGrid=           0.
 Symmetry not used in FoFCou.
 Leave Link  703 at Sun Oct  3 19:47:31 2021, MaxMem=  805306368 cpu:      52.6
 (Enter /sw/target/amd/app/gaussian/Gaussian09RevA.02_gcc-4.9.2/g09/l716.exe)
 Dipole        = 1.14116478D+00-9.50001517D-01-2.01331495D-01
 ***** Axes restored to original set *****
 -------------------------------------------------------------------
 Center     Atomic                   Forces (Hartrees/Bohr)
 Number     Number              X              Y              Z
 -------------------------------------------------------------------
      1        6          -0.006384939    0.004244983    0.000439791
      2        6           0.000490867    0.001978438   -0.003170932
      3        7          -0.004081840    0.011486731   -0.022085346
      4        6           0.008223002   -0.003038288    0.018800162
      5        7          -0.005091882   -0.015788364   -0.006252211
      6        6           0.007488545   -0.009903214    0.019013124
      7        6           0.000183498    0.011341492    0.000081310
      8        6           0.001981304    0.000063128    0.003917467
      9        6          -0.003246427    0.009477529   -0.009748330
     10        6          -0.002453053   -0.016351711   -0.000644376
     11        6           0.003032073    0.003520319    0.004942730
     12        1          -0.000727180    0.000941189   -0.000667222
     13        1           0.000312835    0.000015003   -0.000013252
     14        1           0.000189049   -0.000216935   -0.000297309
     15        1           0.000377226   -0.000106038   -0.001134568
     16        1           0.000814314    0.000741840   -0.000091477
     17        1           0.000024527    0.001590473   -0.001112419
     18        1          -0.000240309    0.001287624   -0.000546351
     19        1          -0.000644367   -0.000331151   -0.001246549
     20        1          -0.000335678    0.000211662   -0.000617445
     21        1           0.000088437   -0.001164709    0.000433202
 -------------------------------------------------------------------
 Cartesian Forces:  Max     0.022085346 RMS     0.006482828
 Leave Link  716 at Sun Oct  3 19:47:32 2021, MaxMem=  805306368 cpu:       0.1
 (Enter /sw/target/amd/app/gaussian/Gaussian09RevA.02_gcc-4.9.2/g09/l103.exe)

 GradGradGradGradGradGradGradGradGradGradGradGradGradGradGradGradGradGrad
 Berny optimization.
 Internal  Forces:  Max     0.021974630 RMS     0.004212556
 Search for a local minimum.
 Step number   1 out of a maximum of  120
 All quantities printed in internal units (Hartrees-Bohrs-Radians)
 RMS Force = .42126D-02 SwitMx=.10000D-02 MixMth= 1
 Mixed Optimization -- RFO/linear search
 Second derivative matrix not updated -- first step.
     Eigenvalues ---    0.00521   0.01060   0.01632   0.02068   0.02075
     Eigenvalues ---    0.02080   0.02087   0.02094   0.02102   0.02108
     Eigenvalues ---    0.02112   0.02121   0.02278   0.02401   0.04341
     Eigenvalues ---    0.05475   0.05611   0.05686   0.09574   0.12868
     Eigenvalues ---    0.16000   0.16000   0.16000   0.16000   0.16000
     Eigenvalues ---    0.16000   0.16000   0.16000   0.21959   0.22000
     Eigenvalues ---    0.22591   0.23648   0.24526   0.24997   0.25000
     Eigenvalues ---    0.30508   0.34148   0.34216   0.34224   0.34235
     Eigenvalues ---    0.34319   0.35022   0.35126   0.35481   0.35498
     Eigenvalues ---    0.35716   0.38536   0.39191   0.41497   0.44197
     Eigenvalues ---    0.45390   0.45600   0.45756   0.46015   0.49547
     Eigenvalues ---    0.50684   0.609431000.000001000.000001000.00000
     Eigenvalues --- 1000.000001000.000001000.000001000.000001000.00000
     Eigenvalues --- 1000.000001000.000001000.000001000.000001000.00000
     Eigenvalues --- 1000.000001000.000001000.000001000.000001000.00000
     Eigenvalues --- 1000.000001000.000001000.000001000.000001000.00000
     Eigenvalues --- 1000.000001000.000001000.000001000.000001000.00000
     Eigenvalues --- 1000.000001000.000001000.000001000.000001000.00000
     Eigenvalues --- 1000.000001000.000001000.000001000.000001000.00000
     Eigenvalues --- 1000.000001000.000001000.000001000.000001000.00000
     Eigenvalues --- 1000.000001000.000001000.000001000.000001000.00000
     Eigenvalues --- 1000.000001000.000001000.000001000.000001000.00000
 RFO step:  Lambda=-5.89308853D-03 EMin= 5.20789370D-03
 Linear search not attempted -- first point.
 Iteration  1 RMS(Cart)=  0.02904546 RMS(Int)=  0.00025667
 Iteration  2 RMS(Cart)=  0.00040396 RMS(Int)=  0.00009133
 Iteration  3 RMS(Cart)=  0.00000009 RMS(Int)=  0.00009133
 Variable       Old X    -DE/DX   Delta X   Delta X   Delta X     New X
                                 (Linear)    (Quad)   (Total)
    R1        2.86961   0.00786   0.00000   0.02528   0.02528   2.89489
    R2        2.06794   0.00126   0.00000   0.00360   0.00360   2.07154
    R3        2.06936  -0.00002   0.00000  -0.00006  -0.00006   2.06930
    R4        2.06966   0.00002   0.00000   0.00006   0.00006   2.06972
    R5        2.73593   0.00972   0.00000   0.02485   0.02485   2.76078
    R6        2.06953   0.00022   0.00000   0.00063   0.00063   2.07016
    R7        2.07081  -0.00025   0.00000  -0.00072  -0.00072   2.07008
    R8        2.58385   0.01019   0.00000   0.01754   0.01774   2.60160
    R9        2.59548   0.00955   0.00000   0.01982   0.01986   2.61533
   R10        2.48134   0.00229   0.00000   0.00163   0.00173   2.48307
   R11        2.04528   0.00012   0.00000   0.00034   0.00034   2.04562
   R12        2.59610   0.00752   0.00000   0.01537   0.01522   2.61132
   R13        2.63407   0.02197   0.00000   0.05094   0.05072   2.68478
   R14        2.65075  -0.00122   0.00000  -0.00190  -0.00193   2.64882
   R15        2.64594  -0.00239   0.00000  -0.00435  -0.00436   2.64158
   R16        2.64570  -0.00623   0.00000  -0.01428  -0.01424   2.63146
   R17        2.04901   0.00141   0.00000   0.00392   0.00392   2.05293
   R18        2.63833   0.01286   0.00000   0.02594   0.02598   2.66431
   R19        2.05640  -0.00104   0.00000  -0.00293  -0.00293   2.05347
   R20        2.64577  -0.00774   0.00000  -0.01754  -0.01753   2.62823
   R21        2.05471  -0.00071   0.00000  -0.00199  -0.00199   2.05272
   R22        2.04874   0.00123   0.00000   0.00342   0.00342   2.05216
    A1        1.92528   0.00090   0.00000   0.00574   0.00574   1.93102
    A2        1.94142  -0.00047   0.00000  -0.00293  -0.00293   1.93848
    A3        1.93905  -0.00053   0.00000  -0.00340  -0.00340   1.93565
    A4        1.88792  -0.00018   0.00000  -0.00070  -0.00070   1.88722
    A5        1.88806  -0.00017   0.00000  -0.00076  -0.00076   1.88730
    A6        1.88021   0.00045   0.00000   0.00207   0.00206   1.88227
    A7        1.95972   0.00378   0.00000   0.02019   0.02013   1.97985
    A8        1.93329  -0.00115   0.00000  -0.00671  -0.00672   1.92658
    A9        1.92599  -0.00039   0.00000   0.00213   0.00203   1.92802
   A10        1.88639  -0.00106   0.00000  -0.00378  -0.00376   1.88263
   A11        1.88098  -0.00113   0.00000  -0.00042  -0.00054   1.88044
   A12        1.87451  -0.00021   0.00000  -0.01277  -0.01279   1.86171
   A13        2.18315   0.00831   0.00000   0.03330   0.03314   2.21628
   A14        2.21286   0.00434   0.00000   0.01779   0.01763   2.23049
   A15        1.88711  -0.01264   0.00000  -0.05086  -0.05070   1.83640
   A16        1.95030   0.01542   0.00000   0.05956   0.05980   2.01010
   A17        2.14456  -0.00966   0.00000  -0.04152  -0.04165   2.10292
   A18        2.18832  -0.00576   0.00000  -0.01803  -0.01816   2.17016
   A19        1.83490  -0.00480   0.00000  -0.02411  -0.02418   1.81072
   A20        1.93943  -0.00327   0.00000  -0.00978  -0.01002   1.92941
   A21        2.25950   0.00163   0.00000   0.00085   0.00105   2.26055
   A22        2.08426   0.00164   0.00000   0.00894   0.00897   2.09323
   A23        1.81304   0.00529   0.00000   0.02521   0.02511   1.83815
   A24        2.32894  -0.00333   0.00000  -0.01924  -0.01913   2.30981
   A25        2.14120  -0.00197   0.00000  -0.00597  -0.00598   2.13522
   A26        2.04253  -0.00194   0.00000  -0.00728  -0.00728   2.03524
   A27        2.13033   0.00102   0.00000   0.00396   0.00397   2.13430
   A28        2.11032   0.00092   0.00000   0.00332   0.00332   2.11364
   A29        2.11729   0.00267   0.00000   0.00837   0.00841   2.12570
   A30        2.08279  -0.00236   0.00000  -0.01037  -0.01039   2.07240
   A31        2.08311  -0.00031   0.00000   0.00200   0.00197   2.08508
   A32        2.10723   0.00340   0.00000   0.01155   0.01156   2.11879
   A33        2.09165  -0.00189   0.00000  -0.00691  -0.00692   2.08473
   A34        2.08431  -0.00151   0.00000  -0.00464  -0.00465   2.07966
   A35        2.07387  -0.00381   0.00000  -0.01562  -0.01569   2.05818
   A36        2.09352   0.00176   0.00000   0.00690   0.00694   2.10046
   A37        2.11580   0.00206   0.00000   0.00872   0.00875   2.12455
    D1       -3.13590  -0.00017   0.00000  -0.00726  -0.00730   3.13999
    D2        1.03645  -0.00059   0.00000  -0.01157  -0.01156   1.02489
    D3       -1.03707   0.00065   0.00000   0.00717   0.00719  -1.02988
    D4        1.05226  -0.00023   0.00000  -0.00827  -0.00830   1.04396
    D5       -1.05858  -0.00065   0.00000  -0.01258  -0.01257  -1.07114
    D6       -3.13210   0.00058   0.00000   0.00617   0.00619  -3.12591
    D7       -1.04224  -0.00013   0.00000  -0.00665  -0.00668  -1.04892
    D8        3.13011  -0.00055   0.00000  -0.01096  -0.01095   3.11917
    D9        1.05659   0.00068   0.00000   0.00779   0.00781   1.06440
   D10        1.62333   0.00040   0.00000   0.01309   0.01292   1.63625
   D11       -1.53303   0.00081   0.00000   0.03424   0.03444  -1.49859
   D12       -2.52224   0.00066   0.00000   0.01509   0.01490  -2.50734
   D13        0.60458   0.00107   0.00000   0.03624   0.03643   0.64100
   D14       -0.50138  -0.00072   0.00000  -0.00202  -0.00222  -0.50360
   D15        2.62544  -0.00031   0.00000   0.01913   0.01931   2.64474
   D16        3.13334   0.00034   0.00000   0.01371   0.01361  -3.13624
   D17       -0.01037   0.00047   0.00000   0.01842   0.01829   0.00791
   D18        0.00420  -0.00010   0.00000  -0.00448  -0.00437  -0.00018
   D19       -3.13951   0.00003   0.00000   0.00023   0.00031  -3.13921
   D20       -3.13264  -0.00037   0.00000  -0.01485  -0.01462   3.13592
   D21        0.01236  -0.00040   0.00000  -0.01623  -0.01600  -0.00365
   D22       -0.00377   0.00011   0.00000   0.00387   0.00369  -0.00008
   D23        3.14123   0.00008   0.00000   0.00248   0.00231  -3.13965
   D24       -0.00262   0.00006   0.00000   0.00298   0.00298   0.00035
   D25        3.14115  -0.00007   0.00000  -0.00183  -0.00188   3.13927
   D26        0.00013  -0.00002   0.00000  -0.00056  -0.00052  -0.00039
   D27       -3.14131   0.00006   0.00000   0.00199   0.00205  -3.13926
   D28        0.00230  -0.00003   0.00000  -0.00202  -0.00200   0.00030
   D29        3.14096  -0.00001   0.00000  -0.00086  -0.00084   3.14012
   D30       -3.13943  -0.00010   0.00000  -0.00428  -0.00429   3.13947
   D31       -0.00077  -0.00008   0.00000  -0.00313  -0.00312  -0.00389
   D32        3.14124  -0.00005   0.00000  -0.00141  -0.00145   3.13979
   D33       -0.00039  -0.00005   0.00000  -0.00136  -0.00139  -0.00178
   D34       -0.00018   0.00004   0.00000   0.00133   0.00132   0.00113
   D35        3.14137   0.00004   0.00000   0.00138   0.00139  -3.14043
   D36        3.13903   0.00015   0.00000   0.00563   0.00557  -3.13858
   D37       -0.00131   0.00011   0.00000   0.00403   0.00400   0.00268
   D38        0.00136   0.00010   0.00000   0.00399   0.00395   0.00532
   D39       -3.13898   0.00006   0.00000   0.00239   0.00238  -3.13660
   D40       -0.00103  -0.00009   0.00000  -0.00321  -0.00322  -0.00424
   D41        3.14117  -0.00003   0.00000  -0.00127  -0.00127   3.13990
   D42        3.13933  -0.00005   0.00000  -0.00163  -0.00166   3.13767
   D43       -0.00166   0.00001   0.00000   0.00031   0.00029  -0.00137
   D44        0.00013   0.00004   0.00000   0.00163   0.00164   0.00177
   D45       -3.14108   0.00005   0.00000   0.00183   0.00184  -3.13923
   D46        3.14112  -0.00001   0.00000  -0.00031  -0.00032   3.14080
   D47       -0.00008  -0.00000   0.00000  -0.00011  -0.00012  -0.00021
   D48        0.00050  -0.00002   0.00000  -0.00062  -0.00062  -0.00012
   D49       -3.14106  -0.00002   0.00000  -0.00067  -0.00069   3.14144
   D50       -3.14148  -0.00002   0.00000  -0.00083  -0.00082   3.14088
   D51        0.00015  -0.00003   0.00000  -0.00088  -0.00089  -0.00074
         Item               Value     Threshold  Converged?
 Maximum Force            0.021975     0.000450     NO 
 RMS     Force            0.004213     0.000300     NO 
 Maximum Displacement     0.086001     0.001800     NO 
 RMS     Displacement     0.029071     0.001200     NO 
 Predicted change in Energy=-3.020540D-03
 GradGradGradGradGradGradGradGradGradGradGradGradGradGradGradGradGradGrad

 Leave Link  103 at Sun Oct  3 19:47:39 2021, MaxMem=  805306368 cpu:       2.8
 (Enter /sw/target/amd/app/gaussian/Gaussian09RevA.02_gcc-4.9.2/g09/l202.exe)
                          Input orientation:                          
 ---------------------------------------------------------------------
 Center     Atomic      Atomic             Coordinates (Angstroms)
 Number     Number       Type             X           Y           Z
 ---------------------------------------------------------------------
      1          6           0        1.205785    0.599135    0.350685
      2          6           0        2.591033   -0.013565    0.121684
      3          7           0        2.990916   -0.952915    1.166703
      4          6           0        2.822828   -2.319307    1.160637
      5          7           0        3.265750   -2.941612    2.229801
      6          6           0        3.769718   -1.923830    3.016979
      7          6           0        3.609068   -0.668284    2.371800
      8          6           0        4.033011    0.530501    2.952502
      9          6           0        4.633785    0.438469    4.205371
     10          6           0        4.802247   -0.799196    4.859283
     11          6           0        4.376031   -1.989160    4.279067
     12          1           0        0.953163    1.295953   -0.456973
     13          1           0        1.169677    1.147680    1.297722
     14          1           0        0.435135   -0.178419    0.383576
     15          1           0        3.351847    0.772759    0.067498
     16          1           0        2.620899   -0.546137   -0.835116
     17          1           0        2.356961   -2.811611    0.316599
     18          1           0        3.905637    1.490588    2.460368
     19          1           0        4.977904    1.349219    4.687991
     20          1           0        5.274148   -0.826561    5.837294
     21          1           0        4.503203   -2.945382    4.777836
 ---------------------------------------------------------------------
                    Distance matrix (angstroms):
                    1          2          3          4          5
     1  C    0.000000
     2  C    1.531912   0.000000
     3  N    2.502287   1.460943   0.000000
     4  C    3.433388   2.539606   1.376705   0.000000
     5  N    4.506820   3.670540   2.271701   1.313985   0.000000
     6  C    4.477525   3.663489   2.229961   2.121087   1.381851
     7  C    3.386299   2.555010   1.383974   2.193392   2.303487
     8  C    3.842833   3.223173   2.544713   3.577252   3.628575
     9  C    5.160969   4.588428   3.724039   4.489465   4.147209
    10  C    5.934418   5.286920   4.115785   4.461930   3.723566
    11  C    5.672910   4.936905   3.560779   3.499435   2.517812
    12  H    1.096214   2.175384   3.441827   4.379773   5.524832
    13  H    1.095027   2.179864   2.783268   3.843396   4.688774
    14  H    1.095250   2.177994   2.783011   3.299742   4.365336
    15  H    2.171617   1.095481   2.077613   3.322000   4.298781
    16  H    2.172630   1.095441   2.075973   2.677300   3.943076
    17  H    3.599938   2.814577   2.139936   1.082495   2.122061
    18  H    3.540431   3.075729   2.912214   4.168583   4.484085
    19  H    5.796872   5.329681   4.652678   5.526723   5.233106
    20  H    6.977611   6.366182   5.200339   5.487111   4.639085
    21  H    6.560201   5.825093   4.392860   4.037297   2.832629
                    6          7          8          9         10
     6  C    0.000000
     7  C    1.420726   0.000000
     8  C    2.469256   1.397866   0.000000
     9  C    2.781967   2.374222   1.392508   0.000000
    10  C    2.392698   2.761953   2.448597   1.409891   0.000000
    11  C    1.401695   2.443484   2.868123   2.442386   1.390800
    12  H    5.510746   4.349024   4.657886   6.001642   6.889678
    13  H    4.376098   3.225212   3.364207   4.577930   5.447073
    14  H    4.593551   3.777148   4.477349   5.710983   6.284025
    15  H    4.018165   2.729940   2.974210   4.344779   5.247466
    16  H    4.249289   3.357932   4.183212   5.516128   6.103154
    17  H    3.174286   3.222650   4.574587   5.556032   5.537618
    18  H    3.462159   2.180946   1.086364   2.163837   3.435376
    19  H    3.868442   3.362852   2.138935   1.086649   2.162379
    20  H    3.379569   3.848011   3.421120   2.161837   1.086253
    21  H    2.163836   3.431278   3.954073   3.434416   2.168451
                   11         12         13         14         15
    11  C    0.000000
    12  H    6.703586   0.000000
    13  H    5.385990   1.774209   0.000000
    14  H    5.829604   1.774444   1.770241   0.000000
    15  H    5.139500   2.510475   2.532959   3.084129   0.000000
    16  H    5.596219   2.513490   3.086108   2.529425   1.757408
    17  H    4.522634   4.409211   4.248321   3.260613   3.728211
    18  H    3.954438   4.155221   2.992459   4.375275   2.558865
    19  H    3.416760   6.532383   5.102660   6.441926   4.932071
    20  H    2.141570   7.924252   6.430554   7.319779   6.288371
    21  H    1.085958   7.615441   6.322717   6.596573   6.110440
                   16         17         18         19         20
    16  H    0.000000
    17  H    2.555089   0.000000
    18  H    4.081546   5.050056   0.000000
    19  H    6.297028   6.579584   2.476297   0.000000
    20  H    7.186057   6.551983   4.318059   2.478442   0.000000
    21  H    6.387854   4.952463   5.040395   4.321691   2.491227
                   21
    21  H    0.000000
 Stoichiometry    C9H10N2
 Framework group  C1[X(C9H10N2)]
 Deg. of freedom    57
 Full point group                 C1      NOp   1
 Largest Abelian subgroup         C1      NOp   1
 Largest concise Abelian subgroup C1      NOp   1
                         Standard orientation:                         
 ---------------------------------------------------------------------
 Center     Atomic      Atomic             Coordinates (Angstroms)
 Number     Number       Type             X           Y           Z
 ---------------------------------------------------------------------
      1          6           0        3.043755   -0.974825    0.750688
      2          6           0        2.398803   -0.433516   -0.529067
      3          7           0        1.165968    0.312332   -0.287860
      4          6           0        1.040262    1.673240   -0.122192
      5          7           0       -0.184456    2.099702    0.089355
      6          6           0       -0.942957    0.944872    0.065770
      7          6           0       -0.118835   -0.188276   -0.169304
      8          6           0       -0.633953   -1.485866   -0.239599
      9          6           0       -2.009917   -1.620589   -0.073315
     10          6           0       -2.842573   -0.506912    0.159493
     11          6           0       -2.325230    0.782063    0.231792
     12          1           0        3.961859   -1.526423    0.517214
     13          1           0        2.363944   -1.652315    1.277897
     14          1           0        3.300951   -0.158541    1.434138
     15          1           0        2.165955   -1.254646   -1.215803
     16          1           0        3.092623    0.230080   -1.056557
     17          1           0        1.910436    2.315227   -0.171643
     18          1           0       -0.002372   -2.352220   -0.414879
     19          1           0       -2.447444   -2.614017   -0.123106
     20          1           0       -3.911066   -0.656171    0.285947
     21          1           0       -2.961598    1.643645    0.410722
 ---------------------------------------------------------------------
 Rotational constants (GHZ):      2.1221459      0.9360628      0.6861184
 Leave Link  202 at Sun Oct  3 19:47:39 2021, MaxMem=  805306368 cpu:       0.0
 (Enter /sw/target/amd/app/gaussian/Gaussian09RevA.02_gcc-4.9.2/g09/l301.exe)
 Standard basis: 6-31G(d) (6D, 7F)
 Ernie: Thresh=  0.10000D-02 Tol=  0.10000D-05 Strict=F.
 There are   185 symmetry adapted basis functions of A   symmetry.
 Integral buffers will be    131072 words long.
 Raffenetti 2 integral format.
 Two-electron integral symmetry is turned on.
   185 basis functions,   348 primitive gaussians,   185 cartesian basis functions
    39 alpha electrons       39 beta electrons
       nuclear repulsion energy       577.9981278144 Hartrees.
 IExCor=  402 DFT=T Ex+Corr=B3LYP ExCW=0 ScaHFX=  0.200000
 ScaDFX=  0.800000  0.720000  1.000000  0.810000 ScalE2=  1.000000  1.000000
 IRadAn=      0 IRanWt=     -1 IRanGd=            0 ICorTp=0
 NAtoms=   21 NActive=   21 NUniq=   21 SFac= 7.50D-01 NAtFMM=   80 NAOKFM=F Big=F
 Leave Link  301 at Sun Oct  3 19:47:40 2021, MaxMem=  805306368 cpu:       0.1
 (Enter /sw/target/amd/app/gaussian/Gaussian09RevA.02_gcc-4.9.2/g09/l302.exe)
 NPDir=0 NMtPBC=     1 NCelOv=     1 NCel=       1 NClECP=     1 NCelD=      1
         NCelK=      1 NCelE2=     1 NClLst=     1 CellRange=     0.0.
 One-electron integrals computed using PRISM.
 NBasis=   185 RedAO= T  NBF=   185
 NBsUse=   185 1.00D-06 NBFU=   185
 Precomputing XC quadrature grid using
 IXCGrd= 2 IRadAn=           0 IRanWt=          -1 IRanGd=           0 AccXCQ= 1.00D-10.
 NRdTot=    1317 NPtTot=      167412 NUsed=      176917 NTot=      176949
 NSgBfM=   185   185   185   185   185 NAtAll=    21    21.
 Leave Link  302 at Sun Oct  3 19:47:43 2021, MaxMem=  805306368 cpu:       1.3
 (Enter /sw/target/amd/app/gaussian/Gaussian09RevA.02_gcc-4.9.2/g09/l303.exe)
 DipDrv:  MaxL=1.
 Leave Link  303 at Sun Oct  3 19:47:44 2021, MaxMem=  805306368 cpu:       0.2
 (Enter /sw/target/amd/app/gaussian/Gaussian09RevA.02_gcc-4.9.2/g09/l401.exe)
 Initial guess read from the read-write file.
 B after Tr=     0.000000    0.000000    0.000000
         Rot=    1.000000    0.000000    0.000000    0.000000 Ang=   0.00 deg.
 Guess basis will be translated and rotated to current coordinates.
 Initial guess orbital symmetries:
       Occupied  (A) (A) (A) (A) (A) (A) (A) (A) (A) (A) (A) (A)
                 (A) (A) (A) (A) (A) (A) (A) (A) (A) (A) (A) (A)
                 (A) (A) (A) (A) (A) (A) (A) (A) (A) (A) (A) (A)
                 (A) (A) (A)
       Virtual   (A) (A) (A) (A) (A) (A) (A) (A) (A) (A) (A) (A)
                 (A) (A) (A) (A) (A) (A) (A) (A) (A) (A) (A) (A)
                 (A) (A) (A) (A) (A) (A) (A) (A) (A) (A) (A) (A)
                 (A) (A) (A) (A) (A) (A) (A) (A) (A) (A) (A) (A)
                 (A) (A) (A) (A) (A) (A) (A) (A) (A) (A) (A) (A)
                 (A) (A) (A) (A) (A) (A) (A) (A) (A) (A) (A) (A)
                 (A) (A) (A) (A) (A) (A) (A) (A) (A) (A) (A) (A)
                 (A) (A) (A) (A) (A) (A) (A) (A) (A) (A) (A) (A)
                 (A) (A) (A) (A) (A) (A) (A) (A) (A) (A) (A) (A)
                 (A) (A) (A) (A) (A) (A) (A) (A) (A) (A) (A) (A)
                 (A) (A) (A) (A) (A) (A) (A) (A) (A) (A) (A) (A)
                 (A) (A) (A) (A) (A) (A) (A) (A) (A) (A) (A) (A)
                 (A) (A)
 The electronic state of the initial guess is 1-A.
 Generating alternative initial guess.
 Harris functional with IExCor=  402 diagonalized for initial guess.
 ExpMin= 1.61D-01 ExpMax= 4.17D+03 ExpMxC= 6.27D+02 IAcc=1 IRadAn=         1 AccDes= 0.00D+00
 HarFok:  IExCor=  402 AccDes= 0.00D+00 IRadAn=         1 IDoV= 1
 ScaDFX=  1.000000  1.000000  1.000000  1.000000
 FoFCou: FMM=F IPFlag=           0 FMFlag=      100000 FMFlg1=           0
         NFxFlg=           0 DoJE=T BraDBF=F KetDBF=T FulRan=T
         Omega=  0.000000  0.000000  1.000000  0.000000  0.000000 ICntrl=     500 IOpCl=  0
         NMat0=    1 NMatS0=    1 NMatT0=    0 NMatD0=    1 NMtDS0=    0 NMtDT0=    0
         I1Cent=           4 NGrid=           0.
 Petite list used in FoFCou.
 Harris En= -458.554040983956    
 Leave Link  401 at Sun Oct  3 19:48:01 2021, MaxMem=  805306368 cpu:       6.3
 (Enter /sw/target/amd/app/gaussian/Gaussian09RevA.02_gcc-4.9.2/g09/l502.exe)
 Closed shell SCF:
 Requested convergence on RMS density matrix=1.00D-08 within  64 cycles.
 Requested convergence on MAX density matrix=1.00D-06.
 Requested convergence on             energy=1.00D-06.
 No special actions if energy rises.
 Using DIIS extrapolation, IDIIS=  1040.
 Integral symmetry usage will be decided dynamically.
       176715 words used for storage of precomputed grid.
 Keep R1 ints in memory in canonical form, NReq=151519403.
 IEnd=      287439 IEndB=      287439 NGot=   805306368 MDV=   657042921
 LenX=   657042921 LenY=   657008255
 Symmetry not used in FoFDir.
 MinBra= 0 MaxBra= 2 Meth= 1.
 IRaf=       0 NMat=   1 IRICut=       1 DoRegI=T DoRafI=F ISym2E= 0 JSym2E=0.
 Integral accuracy reduced to 1.0D-05 until final iterations.

 Cycle   1  Pass 0  IDiag  1:
 E= -458.491262749591    
 DIIS: error= 2.07D-03 at cycle   1 NSaved=   1.
 NSaved= 1 IEnMin= 1 EnMin= -458.491262749591     IErMin= 1 ErrMin= 2.07D-03
 ErrMax= 2.07D-03 EMaxC= 1.00D-01 BMatC= 2.49D-03 BMatP= 2.49D-03
 IDIUse=3 WtCom= 9.79D-01 WtEn= 2.07D-02
 Coeff-Com:  0.100D+01
[...]
    15  H   -0.005739   0.004600   0.573889  -0.030471  -0.000070   0.001894
    16  H    0.003976  -0.004999  -0.030471   0.564262   0.004240  -0.000039
    17  H    0.000000   0.000099  -0.000070   0.004240   0.555659  -0.000002
    18  H    0.001164  -0.000007   0.001894  -0.000039  -0.000002   0.606147
    19  H   -0.000002   0.000000   0.000002  -0.000000  -0.000000  -0.005383
    20  H   -0.000000  -0.000000  -0.000000  -0.000000  -0.000000  -0.000169
    21  H   -0.000000   0.000000   0.000000  -0.000000  -0.000003   0.000018
             19         20         21
     1  C   -0.000000   0.000000  -0.000000
     2  C   -0.000001  -0.000000   0.000001
     3  N   -0.000116   0.000005  -0.000097
     4  C    0.000003   0.000004   0.000028
     5  N    0.000002  -0.000085  -0.001543
     6  C    0.000892   0.002980  -0.033744
     7  C    0.003015   0.000721   0.006927
     8  C   -0.039022   0.004607   0.000110
     9  C    0.360202  -0.039349   0.004741
    10  C   -0.040125   0.360126  -0.048255
    11  C    0.004366  -0.040925   0.349725
    12  H   -0.000000  -0.000000   0.000000
    13  H   -0.000002  -0.000000  -0.000000
    14  H    0.000000  -0.000000   0.000000
    15  H    0.000002  -0.000000   0.000000
    16  H   -0.000000  -0.000000  -0.000000
    17  H   -0.000000  -0.000000  -0.000003
    18  H   -0.005383  -0.000169   0.000018
    19  H    0.600489  -0.005587  -0.000151
    20  H   -0.005587   0.586677  -0.005608
    21  H   -0.000151  -0.005608   0.588667
 Mulliken atomic charges:
              1
     1  C   -0.444108
     2  C   -0.159301
     3  N   -0.470588
     4  C    0.178433
     5  N   -0.485129
     6  C    0.224499
     7  C    0.320550
     8  C   -0.177500
     9  C   -0.171401
    10  C   -0.124691
    11  C   -0.188608
    12  H    0.156944
    13  H    0.170639
    14  H    0.164917
    15  H    0.170193
    16  H    0.165195
    17  H    0.149929
    18  H    0.122824
    19  H    0.121417
    20  H    0.136602
    21  H    0.139184
 Sum of Mulliken atomic charges =  -0.00000
 Mulliken charges with hydrogens summed into heavy atoms:
              1
     1  C    0.048391
     2  C    0.176087
     3  N   -0.470588
     4  C    0.328362
     5  N   -0.485129
     6  C    0.224499
     7  C    0.320550
     8  C   -0.054676
     9  C   -0.049985
    10  C    0.011911
    11  C   -0.049424
 Sum of Mulliken charges with hydrogens summed into heavy atoms =  -0.00000
 Electronic spatial extent (au):  <R**2>=           1679.8215
 Charge=             -0.0000 electrons
 Dipole moment (field-independent basis, Debye):
    X=              2.8851    Y=             -2.3192    Z=             -0.4430  Tot=              3.7281
 Quadrupole moment (field-independent basis, Debye-Ang):
   XX=            -52.5701   YY=            -68.2708   ZZ=            -66.8109
   XY=              1.1214   XZ=             -1.7579   YZ=             -0.0330
 Traceless Quadrupole moment (field-independent basis, Debye-Ang):
   XX=              9.9805   YY=             -5.7202   ZZ=             -4.2603
   XY=              1.1214   XZ=             -1.7579   YZ=             -0.0330
 Octapole moment (field-independent basis, Debye-Ang**2):
  XXX=              9.6467  YYY=            -20.8315  ZZZ=             -0.2911  XYY=              9.0297
  XXY=              2.1656  XXZ=              0.7685  XZZ=              7.9992  YZZ=              0.9880
  YYZ=             -3.0993  XYZ=             -0.5381
 Hexadecapole moment (field-independent basis, Debye-Ang**3):
 XXXX=          -1353.6908 YYYY=           -708.4297 ZZZZ=           -135.3243 XXXY=              0.2947
 XXXZ=            -20.5402 YYYX=             20.2773 YYYZ=             -0.7980 ZZZX=             -0.2777
 ZZZY=             -0.3432 XXYY=           -330.5382 XXZZ=           -278.6286 YYZZ=           -141.4757
 XXYZ=              1.8924 YYXZ=             -2.9364 ZZXY=             -4.3299
 N-N= 5.788971566398D+02 E-N=-2.220409023516D+03  KE= 4.543153975255D+02
 No NMR shielding tensors so no spin-rotation constants.
 Leave Link  601 at Mon Oct  4 01:20:35 2021, MaxMem=  805306368 cpu:       0.9
 (Enter /sw/target/amd/app/gaussian/Gaussian09RevA.02_gcc-4.9.2/g09/l604.exe)
 Evaluate density.
 Using the total density.
 Monte-Carlo method of calculating molar volume:
 based on  0.001 e/bohr**3 density envelope.
 Number of points per bohr**3 =   20 CutOff= 1.00D-04
 Using the CI density.
 There are       384 points.  Will hold       384 in memory.
 LenV=   805199382 MDV=   805306368.
 Box volume = 7125.712 fraction occupied=0.174
 Integrated density= 6.0045881508249586D+01 error=-1.7954118491750414D+01
 Molar volume = 1243.288 bohr**3/mol (110.950 cm**3/mol)
 Recommended a0 for SCRF calculation =  4.39 angstrom (  8.29 bohr)
 Leave Link  604 at Mon Oct  4 01:20:37 2021, MaxMem=  805306368 cpu:       0.2
 (Enter /sw/target/amd/app/gaussian/Gaussian09RevA.02_gcc-4.9.2/g09/l607.exe)
 ******************************Gaussian NBO Version 3.1******************************
             N A T U R A L   A T O M I C   O R B I T A L   A N D
          N A T U R A L   B O N D   O R B I T A L   A N A L Y S I S
 ******************************Gaussian NBO Version 3.1******************************
       /RESON  / : Allow strongly delocalized NBO set

 Analyzing the CI density

 Job title: CCn1cnc2c1cccc2_conf_0                                          

 Storage needed:    104204 in NPA ( 805303953 available)


 NATURAL POPULATIONS:  Natural atomic orbital occupancies 
                                                          
   NAO  Atom  No  lang   Type(AO)    Occupancy
 --------------------------------------------
     1    C    1  S      Cor( 1S)     1.99945
     2    C    1  S      Val( 2S)     1.11348
     3    C    1  S      Ryd( 3S)     0.00041
     4    C    1  S      Ryd( 4S)     0.00001
     5    C    1  px     Val( 2p)     1.22721
     6    C    1  px     Ryd( 3p)     0.00117
     7    C    1  py     Val( 2p)     1.21492
     8    C    1  py     Ryd( 3p)     0.00144
     9    C    1  pz     Val( 2p)     1.12489
    10    C    1  pz     Ryd( 3p)     0.00107
    11    C    1  dxy    Ryd( 3d)     0.00097
    12    C    1  dxz    Ryd( 3d)     0.00046
    13    C    1  dyz    Ryd( 3d)     0.00098
    14    C    1  dx2y2  Ryd( 3d)     0.00029
    15    C    1  dz2    Ryd( 3d)     0.00050

    16    C    2  S      Cor( 1S)     1.99935
    17    C    2  S      Val( 2S)     1.01703
    18    C    2  S      Ryd( 3S)     0.00143
    19    C    2  S      Ryd( 4S)     0.00003
    20    C    2  px     Val( 2p)     0.95227
    21    C    2  px     Ryd( 3p)     0.00286
    22    C    2  py     Val( 2p)     1.13619
    23    C    2  py     Ryd( 3p)     0.00473
    24    C    2  pz     Val( 2p)     1.13657
    25    C    2  pz     Ryd( 3p)     0.00123
    26    C    2  dxy    Ryd( 3d)     0.00140
    27    C    2  dxz    Ryd( 3d)     0.00093
    28    C    2  dyz    Ryd( 3d)     0.00127
    29    C    2  dx2y2  Ryd( 3d)     0.00054
    30    C    2  dz2    Ryd( 3d)     0.00076

    31    N    3  S      Cor( 1S)     1.99929
    32    N    3  S      Val( 2S)     1.19469
    33    N    3  S      Ryd( 3S)     0.00118
    34    N    3  S      Ryd( 4S)     0.00002
    35    N    3  px     Val( 2p)     1.30943
    36    N    3  px     Ryd( 3p)     0.00230
    37    N    3  py     Val( 2p)     1.32654
    38    N    3  py     Ryd( 3p)     0.00224
    39    N    3  pz     Val( 2p)     1.52341
    40    N    3  pz     Ryd( 3p)     0.00402
    41    N    3  dxy    Ryd( 3d)     0.00074
    42    N    3  dxz    Ryd( 3d)     0.00078
    43    N    3  dyz    Ryd( 3d)     0.00088
    44    N    3  dx2y2  Ryd( 3d)     0.00081
    45    N    3  dz2    Ryd( 3d)     0.00055

    46    C    4  S      Cor( 1S)     1.99937
    47    C    4  S      Val( 2S)     0.89081
    48    C    4  S      Ryd( 3S)     0.00255
    49    C    4  S      Ryd( 4S)     0.00015
    50    C    4  px     Val( 2p)     1.02700
    51    C    4  px     Ryd( 3p)     0.00754
    52    C    4  py     Val( 2p)     0.85654
    53    C    4  py     Ryd( 3p)     0.00833
    54    C    4  pz     Val( 2p)     1.03400
    55    C    4  pz     Ryd( 3p)     0.00594
    56    C    4  dxy    Ryd( 3d)     0.00163
    57    C    4  dxz    Ryd( 3d)     0.00090
    58    C    4  dyz    Ryd( 3d)     0.00116
    59    C    4  dx2y2  Ryd( 3d)     0.00158
    60    C    4  dz2    Ryd( 3d)     0.00054

    61    N    5  S      Cor( 1S)     1.99948
    62    N    5  S      Val( 2S)     1.40734
    63    N    5  S      Ryd( 3S)     0.00046
    64    N    5  S      Ryd( 4S)     0.00002
    65    N    5  px     Val( 2p)     1.24096
    66    N    5  px     Ryd( 3p)     0.00366
    67    N    5  py     Val( 2p)     1.57587
    68    N    5  py     Ryd( 3p)     0.00411
    69    N    5  pz     Val( 2p)     1.21711
    70    N    5  pz     Ryd( 3p)     0.00119
    71    N    5  dxy    Ryd( 3d)     0.00323
    72    N    5  dxz    Ryd( 3d)     0.00132
    73    N    5  dyz    Ryd( 3d)     0.00304
    74    N    5  dx2y2  Ryd( 3d)     0.00288
    75    N    5  dz2    Ryd( 3d)     0.00243

    76    C    6  S      Cor( 1S)     1.99900
    77    C    6  S      Val( 2S)     0.85023
    78    C    6  S      Ryd( 3S)     0.00229
    79    C    6  S      Ryd( 4S)     0.00010
    80    C    6  px     Val( 2p)     1.05873
    81    C    6  px     Ryd( 3p)     0.00534
    82    C    6  py     Val( 2p)     0.93044
    83    C    6  py     Ryd( 3p)     0.00921
    84    C    6  pz     Val( 2p)     1.01436
    85    C    6  pz     Ryd( 3p)     0.00238
    86    C    6  dxy    Ryd( 3d)     0.00099
    87    C    6  dxz    Ryd( 3d)     0.00098
    88    C    6  dyz    Ryd( 3d)     0.00090
    89    C    6  dx2y2  Ryd( 3d)     0.00121
    90    C    6  dz2    Ryd( 3d)     0.00036

    91    C    7  S      Cor( 1S)     1.99898
    92    C    7  S      Val( 2S)     0.83841
    93    C    7  S      Ryd( 3S)     0.00208
    94    C    7  S      Ryd( 4S)     0.00008
    95    C    7  px     Val( 2p)     0.87923
    96    C    7  px     Ryd( 3p)     0.00492
    97    C    7  py     Val( 2p)     1.10278
    98    C    7  py     Ryd( 3p)     0.00507
    99    C    7  pz     Val( 2p)     1.01943
   100    C    7  pz     Ryd( 3p)     0.00293
   101    C    7  dxy    Ryd( 3d)     0.00098
   102    C    7  dxz    Ryd( 3d)     0.00102
   103    C    7  dyz    Ryd( 3d)     0.00123
   104    C    7  dx2y2  Ryd( 3d)     0.00106
   105    C    7  dz2    Ryd( 3d)     0.00044

   106    C    8  S      Cor( 1S)     1.99903
   107    C    8  S      Val( 2S)     0.94992
   108    C    8  S      Ryd( 3S)     0.00079
   109    C    8  S      Ryd( 4S)     0.00004
   110    C    8  px     Val( 2p)     1.11860
   111    C    8  px     Ryd( 3p)     0.00403
   112    C    8  py     Val( 2p)     1.12353
   113    C    8  py     Ryd( 3p)     0.00427
   114    C    8  pz     Val( 2p)     1.08810
   115    C    8  pz     Ryd( 3p)     0.00531
   116    C    8  dxy    Ryd( 3d)     0.00083
   117    C    8  dxz    Ryd( 3d)     0.00063
   118    C    8  dyz    Ryd( 3d)     0.00052
   119    C    8  dx2y2  Ryd( 3d)     0.00058
   120    C    8  dz2    Ryd( 3d)     0.00042

   121    C    9  S      Cor( 1S)     1.99917
   122    C    9  S      Val( 2S)     0.96060
   123    C    9  S      Ryd( 3S)     0.00060
   124    C    9  S      Ryd( 4S)     0.00003
   125    C    9  px     Val( 2p)     1.06900
   126    C    9  px     Ryd( 3p)     0.00505
   127    C    9  py     Val( 2p)     1.16667
   128    C    9  py     Ryd( 3p)     0.00500
   129    C    9  pz     Val( 2p)     1.07316
   130    C    9  pz     Ryd( 3p)     0.00428
   131    C    9  dxy    Ryd( 3d)     0.00073
   132    C    9  dxz    Ryd( 3d)     0.00064
   133    C    9  dyz    Ryd( 3d)     0.00035
   134    C    9  dx2y2  Ryd( 3d)     0.00072
   135    C    9  dz2    Ryd( 3d)     0.00047

   136    C   10  S      Cor( 1S)     1.99915
   137    C   10  S      Val( 2S)     0.97400
   138    C   10  S      Ryd( 3S)     0.00049
   139    C   10  S      Ryd( 4S)     0.00004
   140    C   10  px     Val( 2p)     1.18153
   141    C   10  px     Ryd( 3p)     0.00467
   142    C   10  py     Val( 2p)     1.05438
   143    C   10  py     Ryd( 3p)     0.00449
   144    C   10  pz     Val( 2p)     0.94001
   145    C   10  pz     Ryd( 3p)     0.00291
   146    C   10  dxy    Ryd( 3d)     0.00067
   147    C   10  dxz    Ryd( 3d)     0.00033
   148    C   10  dyz    Ryd( 3d)     0.00089
   149    C   10  dx2y2  Ryd( 3d)     0.00090
   150    C   10  dz2    Ryd( 3d)     0.00047

   151    C   11  S      Cor( 1S)     1.99904
   152    C   11  S      Val( 2S)     0.96199
   153    C   11  S      Ryd( 3S)     0.00092
   154    C   11  S      Ryd( 4S)     0.00005
   155    C   11  px     Val( 2p)     1.09620
   156    C   11  px     Ryd( 3p)     0.00488
   157    C   11  py     Val( 2p)     1.14525
   158    C   11  py     Ryd( 3p)     0.00451
   159    C   11  pz     Val( 2p)     1.04280
   160    C   11  pz     Ryd( 3p)     0.00461
   161    C   11  dxy    Ryd( 3d)     0.00072
   162    C   11  dxz    Ryd( 3d)     0.00050
   163    C   11  dyz    Ryd( 3d)     0.00053
   164    C   11  dx2y2  Ryd( 3d)     0.00073
   165    C   11  dz2    Ryd( 3d)     0.00041

   166    H   12  S      Val( 1S)     0.75912
   167    H   12  S      Ryd( 2S)     0.00087

   168    H   13  S      Val( 1S)     0.75854
   169    H   13  S      Ryd( 2S)     0.00157

   170    H   14  S      Val( 1S)     0.76060
   171    H   14  S      Ryd( 2S)     0.00122

   172    H   15  S      Val( 1S)     0.75401
   173    H   15  S      Ryd( 2S)     0.00250

   174    H   16  S      Val( 1S)     0.75496
   175    H   16  S      Ryd( 2S)     0.00167

   176    H   17  S      Val( 1S)     0.78126
   177    H   17  S      Ryd( 2S)     0.00070

   178    H   18  S      Val( 1S)     0.76870
   179    H   18  S      Ryd( 2S)     0.00105

   180    H   19  S      Val( 1S)     0.76785
   181    H   19  S      Ryd( 2S)     0.00076

   182    H   20  S      Val( 1S)     0.76723
   183    H   20  S      Ryd( 2S)     0.00081

   184    H   21  S      Val( 1S)     0.75728
   185    H   21  S      Ryd( 2S)     0.00121

 WARNING:  1 low occupancy (<1.9990e) core orbital  found on  C    6
           1 low occupancy (<1.9990e) core orbital  found on  C    7


 Summary of Natural Population Analysis:                  
                                                          
                                       Natural Population 
                Natural  -----------------------------------------------
    Atom  No    Charge         Core      Valence    Rydberg      Total
 -----------------------------------------------------------------------
      C    1   -0.68724      1.99945     4.68049    0.00730     6.68724
      C    2   -0.25657      1.99935     4.24206    0.01516     6.25657
      N    3   -0.36687      1.99929     5.35407    0.01352     7.36687
      C    4    0.16197      1.99937     3.80835    0.03032     5.83803
      N    5   -0.46309      1.99948     5.44128    0.02233     7.46309
      C    6    0.12349      1.99900     3.85375    0.02376     5.87651
      C    7    0.14137      1.99898     3.83985    0.01980     5.85863
      C    8   -0.29660      1.99903     4.28016    0.01741     6.29660
      C    9   -0.28646      1.99917     4.26943    0.01786     6.28646
      C   10   -0.16493      1.99915     4.14992    0.01586     6.16493
      C   11   -0.26314      1.99904     4.24624    0.01786     6.26314
      H   12    0.24001      0.00000     0.75912    0.00087     0.75999
      H   13    0.23988      0.00000     0.75854    0.00157     0.76012
      H   14    0.23817      0.00000     0.76060    0.00122     0.76183
      H   15    0.24349      0.00000     0.75401    0.00250     0.75651
      H   16    0.24336      0.00000     0.75496    0.00167     0.75664
      H   17    0.21804      0.00000     0.78126    0.00070     0.78196
      H   18    0.23025      0.00000     0.76870    0.00105     0.76975
      H   19    0.23139      0.00000     0.76785    0.00076     0.76861
      H   20    0.23196      0.00000     0.76723    0.00081     0.76804
      H   21    0.24151      0.00000     0.75728    0.00121     0.75849
 =======================================================================
   * Total *   -0.00000     21.99130    55.79514    0.21355    78.00000

                                 Natural Population      
 --------------------------------------------------------
   Core                      21.99130 ( 99.9605% of  22)
   Valence                   55.79514 ( 99.6342% of  56)
   Natural Minimal Basis     77.78645 ( 99.7262% of  78)
   Natural Rydberg Basis      0.21355 (  0.2738% of  78)
 --------------------------------------------------------

    Atom  No          Natural Electron Configuration
 ----------------------------------------------------------------------------
      C    1      [core]2S( 1.11)2p( 3.57)
      C    2      [core]2S( 1.02)2p( 3.23)3p( 0.01)
      N    3      [core]2S( 1.19)2p( 4.16)3p( 0.01)
      C    4      [core]2S( 0.89)2p( 2.92)3p( 0.02)3d( 0.01)
      N    5      [core]2S( 1.41)2p( 4.03)3p( 0.01)3d( 0.01)
      C    6      [core]2S( 0.85)2p( 3.00)3p( 0.02)
      C    7      [core]2S( 0.84)2p( 3.00)3p( 0.01)
      C    8      [core]2S( 0.95)2p( 3.33)3p( 0.01)
      C    9      [core]2S( 0.96)2p( 3.31)3p( 0.01)
      C   10      [core]2S( 0.97)2p( 3.18)3p( 0.01)
      C   11      [core]2S( 0.96)2p( 3.28)3p( 0.01)
      H   12            1S( 0.76)
      H   13            1S( 0.76)
      H   14            1S( 0.76)
      H   15            1S( 0.75)
      H   16            1S( 0.75)
      H   17            1S( 0.78)
      H   18            1S( 0.77)
      H   19            1S( 0.77)
      H   20            1S( 0.77)
      H   21            1S( 0.76)


 NBO analysis skipped by request.
 Leave Link  607 at Mon Oct  4 01:21:06 2021, MaxMem=  805306368 cpu:      10.8
 (Enter /sw/target/amd/app/gaussian/Gaussian09RevA.02_gcc-4.9.2/g09/l9999.exe)
 1\1\GINC-HERMITE\SP\RTD-B3LYP-FC\6-31G(d)\C9H10N2\JSCHLEINITZ\04-Oct-2
 021\0\\#p TD(NStates=10, Root=1) b3lyp/6-31G* volume pop=NPA density=c
 urrent Geom=AllCheck Guess=Read\\CCn1cnc2c1cccc2_conf_0\\0,1\C,0,1.254
 4870444,0.6360916713,0.4342757798\C,0,2.5831030685,-0.0490654485,0.101
 308884\N,0,3.021662715,-0.9840392335,1.1288906478\C,0,2.8707550152,-2.
 3538891135,1.1179204867\N,0,3.3021759969,-2.9568761133,2.1956862397\C,
 0,3.7742646824,-1.926681096,2.9989653233\C,0,3.6046528674,-0.678205341
 9,2.350439543\C,0,4.0016903408,0.5284962744,2.9333632626\C,0,4.5801620
 878,0.4544727665,4.1979884414\C,0,4.7551747396,-0.7792027399,4.8575063
 127\C,0,4.3586844194,-1.9764350094,4.2708163482\H,0,0.9801347679,1.334
 821085,-0.3638965114\H,0,1.324277729,1.1965217021,1.3718372006\H,0,0.4
 520492654,-0.1014508178,0.5386156372\H,0,3.3754075751,0.6945969381,-0.
 0426309448\H,0,2.5006153125,-0.6109949176,-0.8348867655\H,0,2.43233620
 32,-2.851608318,0.2603973648\H,0,3.8707626732,1.4830386081,2.431258490
 9\H,0,4.9032967866,1.3692708469,4.6872551326\H,0,5.2102331664,-0.79037
 89706,5.8440749216\H,0,4.4928166282,-2.9301584148,4.7721202609\\Versio
 n=AM64L-G09RevA.02\State=1-A\HF=-458.4956428\RMSD=3.689e-09\Dipole=-0.
 406055,1.0861672,-0.8981733\Quadrupole=-1.4120157,-4.2045414,5.6165571
 ,-0.3649433,4.1444272,-1.0369807\PG=C01 [X(C9H10N2)]\\@


 ACTORS ARE SO FORTUNATE.  THEY CAN CHOOSE WHETHER
 THEY WILL APPEAR IN A TRAGEDY OR IN COMEDY,
 WHETHER THEY WILL SUFFER OF MAKE MERRY,
 LAUGH OR SHED TEARS.  BUT IN REAL LIFE IT IS DIFFERENT.
 MOST MEN AND WOMEN ARE FORCED TO PERFORM
 PARTS FOR WHICH THEY HAVE NO QUALIFICATIONS.
 THE WORLD IS A STAGE, BUT THE PLAY IS BADLY CAST.

                                   -- OSCAR WILDE
 Job cpu time:  0 days  1 hours 30 minutes 16.5 seconds.
 File lengths (MBytes):  RWF=    116 Int=      0 D2E=      0 Chk=     16 Scr=      1
 Normal termination of Gaussian 09 at Mon Oct  4 01:21:12 2021.
