 Entering Gaussian System, Link 0=g09
 Input=C9H11BrMg_a892_conf_0.com
 Output=C9H11BrMg_a892_conf_0.log
 Initial command:
 /sw/target/amd/app/gaussian/Gaussian09RevA.02_gcc-4.9.2/g09/l1.exe /home/jschleinitz/gaussian/Gau-3973559.inp -scrdir=/home/jschleinitz/gaussian/
 Entering Link 1 = /sw/target/amd/app/gaussian/Gaussian09RevA.02_gcc-4.9.2/g09/l1.exe PID=   3973561.
  
 Copyright (c) 1988,1990,1992,1993,1995,1998,2003,2009, Gaussian, Inc.
                  All Rights Reserved.
  
 This is part of the Gaussian(R) 09 program.  It is based on
 the Gaussian(R) 03 system (copyright 2003, Gaussian, Inc.),
 the Gaussian(R) 98 system (copyright 1998, Gaussian, Inc.),
 the Gaussian(R) 94 system (copyright 1995, Gaussian, Inc.),
 the Gaussian 92(TM) system (copyright 1992, Gaussian, Inc.),
 the Gaussian 90(TM) system (copyright 1990, Gaussian, Inc.),
 the Gaussian 88(TM) system (copyright 1988, Gaussian, Inc.),
 the Gaussian 86(TM) system (copyright 1986, Carnegie Mellon
 University), and the Gaussian 82(TM) system (copyright 1983,
 Carnegie Mellon University). Gaussian is a federally registered
 trademark of Gaussian, Inc.
  
 This software contains proprietary and confidential information,
 including trade secrets, belonging to Gaussian, Inc.
  
 This software is provided under written license and may be
 used, copied, transmitted, or stored only in accord with that
 written license.
  
 The following legend is applicable only to US Government
 contracts under FAR:
  
                    RESTRICTED RIGHTS LEGEND
  
 Use, reproduction and disclosure by the US Government is
 subject to restrictions as set forth in subparagraphs (a)
 and (c) of the Commercial Computer Software - Restricted
 Rights clause in FAR 52.227-19.
  
 Gaussian, Inc.
 340 Quinnipiac St., Bldg. 40, Wallingford CT 06492
  
  
 ---------------------------------------------------------------
 Warning -- This program may not be used in any manner that
 competes with the business of Gaussian, Inc. or will provide
 assistance to any competitor of Gaussian, Inc.  The licensee
 of this program is prohibited from giving any competitor of
 Gaussian, Inc. access to this program.  By using this program,
 the user acknowledges that Gaussian, Inc. is engaged in the
 business of creating and licensing software in the field of
 computational chemistry and represents and warrants to the
 licensee that it is not a competitor of Gaussian, Inc. and that
 it will not use this program in any manner prohibited above.
 ---------------------------------------------------------------
  

 Cite this work as:
 Gaussian 09, Revision A.02,
 M. J. Frisch, G. W. Trucks, H. B. Schlegel, G. E. Scuseria, 
 M. A. Robb, J. R. Cheeseman, G. Scalmani, V. Barone, B. Mennucci, 
 G. A. Petersson, H. Nakatsuji, M. Caricato, X. Li, H. P. Hratchian, 
 A. F. Izmaylov, J. Bloino, G. Zheng, J. L. Sonnenberg, M. Hada, 
 M. Ehara, K. Toyota, R. Fukuda, J. Hasegawa, M. Ishida, T. Nakajima, 
 Y. Honda, O. Kitao, H. Nakai, T. Vreven, J. A. Montgomery, Jr., 
 J. E. Peralta, F. Ogliaro, M. Bearpark, J. J. Heyd, E. Brothers, 
 K. N. Kudin, V. N. Staroverov, R. Kobayashi, J. Normand, 
 K. Raghavachari, A. Rendell, J. C. Burant, S. S. Iyengar, J. Tomasi, 
 M. Cossi, N. Rega, J. M. Millam, M. Klene, J. E. Knox, J. B. Cross, 
 V. Bakken, C. Adamo, J. Jaramillo, R. Gomperts, R. E. Stratmann, 
 O. Yazyev, A. J. Austin, R. Cammi, C. Pomelli, J. W. Ochterski, 
 R. L. Martin, K. Morokuma, V. G. Zakrzewski, G. A. Voth, 
 P. Salvador, J. J. Dannenberg, S. Dapprich, A. D. Daniels, 
 O. Farkas, J. B. Foresman, J. V. Ortiz, J. Cioslowski, 
 and D. J. Fox, Gaussian, Inc., Wallingford CT, 2009.
 
 ******************************************
 Gaussian 09:  AM64L-G09RevA.02 11-Jun-2009
                 3-Oct-2021 
 ******************************************
 %nproc=3
 Will use up to    3 processors via shared memory.
 %mem=6gb
 %chk=C9H11BrMg_a892_conf_0.chk
 -----------------------------------
 #p opt b3lyp/6-31G* scf=(xqc,tight)
 -----------------------------------
 1/14=-1,18=20,19=15,26=3,38=1/1,3;
 2/9=110,12=2,17=6,18=5,40=1/2;
 3/5=1,6=6,7=1,11=2,16=1,25=1,30=1,71=1,74=-5/1,2,3;
 4//1;
 5/5=2,8=3,13=1,32=2,38=5/2,8;
 6/7=2,8=2,9=2,10=2,28=1/1;
 7//1,2,3,16;
 1/14=-1,18=20,19=15/3(2);
 2/9=110/2;
 99//99;
 2/9=110/2;
 3/5=1,6=6,7=1,11=2,16=1,25=1,30=1,71=1,74=-5/1,2,3;
 4/5=5,16=3/1;
 5/5=2,8=3,13=1,32=2,38=5/2,8;
 7//1,2,3,16;
 1/14=-1,18=20,19=15/3(-5);
 2/9=110/2;
 6/7=2,8=2,9=2,10=2,19=2,28=1/1;
 99/9=1/99;
 Leave Link    1 at Sun Oct  3 08:57:23 2021, MaxMem=  805306368 cpu:       0.1
 (Enter /sw/target/amd/app/gaussian/Gaussian09RevA.02_gcc-4.9.2/g09/l101.exe)
 ----------------------------
 Br[Mg]c1ccc(cc1)C(C)C_conf_0
 ----------------------------
 Symbolic Z-matrix:
 Charge =  0 Multiplicity = 1
 Br                    0.94407   0.05202  -0.06454 
 Mg                    3.55407   0.05202  -0.06454 
 C                     5.72407   0.05202  -0.06454 
 C                     6.40835   1.21093  -0.43296 
 C                     7.80591   1.22614  -0.45058 
 C                     8.53581   0.07567  -0.09859 
 C                     7.8325   -1.0884    0.27373 
 C                     6.43403  -1.09618   0.28915 
 C                     10.05327   0.10548  -0.12855 
 C                     10.63429  -0.15409   1.26652 
 C                     10.59911  -0.90564  -1.14457 
 H                     5.85211   2.09713  -0.70789 
 H                     8.31642   2.13565  -0.74172 
 H                     8.36301  -1.99032   0.54959 
 H                     5.89836  -1.99243   0.57213 
 H                     10.39771   1.11449  -0.44841 
 H                     10.35522  -1.16277   1.63791 
 H                     10.25786   0.60839   1.98156 
 H                     11.74273  -0.08523   1.23645 
 H                     10.31857  -1.94446  -0.86996 
 H                     11.70729  -0.84128  -1.18921 
 H                     10.1971  -0.6814   -2.1558 
 
 NAtoms=     22 NQM=     22 NQMF=      0 NMic=      0 NMicF=      0 NTot=     22.
                    Isotopes and Nuclear Properties:
 (Nuclear quadrupole moments (NQMom) in fm**2, nuclear magnetic moments (NMagM)
  in nuclear magnetons)

  Atom         1           2           3           4           5           6           7           8           9          10
 IAtWgt=          79          24          12          12          12          12          12          12          12          12
 AtmWgt=  78.9183361  23.9850450  12.0000000  12.0000000  12.0000000  12.0000000  12.0000000  12.0000000  12.0000000  12.0000000
 NucSpn=           3           0           0           0           0           0           0           0           0           0
 AtZEff=   0.0000000   0.0000000   0.0000000   0.0000000   0.0000000   0.0000000   0.0000000   0.0000000   0.0000000   0.0000000
 NQMom=   31.3000000   0.0000000   0.0000000   0.0000000   0.0000000   0.0000000   0.0000000   0.0000000   0.0000000   0.0000000
 NMagM=    2.1063990   0.0000000   0.0000000   0.0000000   0.0000000   0.0000000   0.0000000   0.0000000   0.0000000   0.0000000

  Atom        11          12          13          14          15          16          17          18          19          20
 IAtWgt=          12           1           1           1           1           1           1           1           1           1
 AtmWgt=  12.0000000   1.0078250   1.0078250   1.0078250   1.0078250   1.0078250   1.0078250   1.0078250   1.0078250   1.0078250
 NucSpn=           0           1           1           1           1           1           1           1           1           1
 AtZEff=   0.0000000   0.0000000   0.0000000   0.0000000   0.0000000   0.0000000   0.0000000   0.0000000   0.0000000   0.0000000
 NQMom=    0.0000000   0.0000000   0.0000000   0.0000000   0.0000000   0.0000000   0.0000000   0.0000000   0.0000000   0.0000000
 NMagM=    0.0000000   2.7928460   2.7928460   2.7928460   2.7928460   2.7928460   2.7928460   2.7928460   2.7928460   2.7928460

  Atom        21          22
 IAtWgt=           1           1
 AtmWgt=   1.0078250   1.0078250
 NucSpn=           1           1
 AtZEff=   0.0000000   0.0000000
 NQMom=    0.0000000   0.0000000
 NMagM=    2.7928460   2.7928460
 Leave Link  101 at Sun Oct  3 08:57:24 2021, MaxMem=  805306368 cpu:       0.2
 (Enter /sw/target/amd/app/gaussian/Gaussian09RevA.02_gcc-4.9.2/g09/l103.exe)

 GradGradGradGradGradGradGradGradGradGradGradGradGradGradGradGradGradGrad
 Berny optimization.
 Initialization pass.
                           ----------------------------
                           !    Initial Parameters    !
                           ! (Angstroms and Degrees)  !
 --------------------------                            --------------------------
 ! Name  Definition              Value          Derivative Info.                !
 --------------------------------------------------------------------------------
 ! R1    R(1,2)                  2.61           estimate D2E/DX2                !
 ! R2    R(2,3)                  2.17           estimate D2E/DX2                !
 ! R3    R(3,4)                  1.3954         estimate D2E/DX2                !
 ! R4    R(3,8)                  1.3955         estimate D2E/DX2                !
 ! R5    R(4,5)                  1.3978         estimate D2E/DX2                !
 ! R6    R(4,12)                 1.0818         estimate D2E/DX2                !
 ! R7    R(5,6)                  1.4072         estimate D2E/DX2                !
 ! R8    R(5,13)                 1.0829         estimate D2E/DX2                !
 ! R9    R(6,7)                  1.4101         estimate D2E/DX2                !
 ! R10   R(6,9)                  1.518          estimate D2E/DX2                !
 ! R11   R(7,8)                  1.3986         estimate D2E/DX2                !
 ! R12   R(7,14)                 1.0821         estimate D2E/DX2                !
 ! R13   R(8,15)                 1.0818         estimate D2E/DX2                !
 ! R14   R(9,10)                 1.5334         estimate D2E/DX2                !
 ! R15   R(9,11)                 1.5338         estimate D2E/DX2                !
 ! R16   R(9,16)                 1.1131         estimate D2E/DX2                !
 ! R17   R(10,17)                1.1105         estimate D2E/DX2                !
 ! R18   R(10,18)                1.111          estimate D2E/DX2                !
 ! R19   R(10,19)                1.111          estimate D2E/DX2                !
 ! R20   R(11,20)                1.1105         estimate D2E/DX2                !
 ! R21   R(11,21)                1.111          estimate D2E/DX2                !
 ! R22   R(11,22)                1.1111         estimate D2E/DX2                !
 ! A1    A(2,3,4)              119.3666         estimate D2E/DX2                !
 ! A2    A(2,3,8)              120.5799         estimate D2E/DX2                !
 ! A3    A(4,3,8)              120.0514         estimate D2E/DX2                !
 ! A4    A(3,4,5)              120.1784         estimate D2E/DX2                !
 ! A5    A(3,4,12)             119.6906         estimate D2E/DX2                !
 ! A6    A(5,4,12)             120.1307         estimate D2E/DX2                !
 ! A7    A(4,5,6)              120.4353         estimate D2E/DX2                !
 ! A8    A(4,5,13)             118.9409         estimate D2E/DX2                !
 ! A9    A(6,5,13)             120.6236         estimate D2E/DX2                !
 ! A10   A(5,6,7)              118.8329         estimate D2E/DX2                !
 ! A11   A(5,6,9)              119.8344         estimate D2E/DX2                !
 ! A12   A(7,6,9)              121.3325         estimate D2E/DX2                !
 ! A13   A(6,7,8)              120.4139         estimate D2E/DX2                !
 ! A14   A(6,7,14)             120.7199         estimate D2E/DX2                !
 ! A15   A(8,7,14)             118.8661         estimate D2E/DX2                !
 ! A16   A(3,8,7)              120.0879         estimate D2E/DX2                !
 ! A17   A(3,8,15)             119.7379         estimate D2E/DX2                !
 ! A18   A(7,8,15)             120.174          estimate D2E/DX2                !
 ! A19   A(6,9,10)             110.9464         estimate D2E/DX2                !
 ! A20   A(6,9,11)             110.8461         estimate D2E/DX2                !
 ! A21   A(6,9,16)             109.4379         estimate D2E/DX2                !
 ! A22   A(10,9,11)            110.8689         estimate D2E/DX2                !
 ! A23   A(10,9,16)            107.3157         estimate D2E/DX2                !
 ! A24   A(11,9,16)            107.2832         estimate D2E/DX2                !
 ! A25   A(9,10,17)            111.2725         estimate D2E/DX2                !
 ! A26   A(9,10,18)            109.9367         estimate D2E/DX2                !
 ! A27   A(9,10,19)            110.0557         estimate D2E/DX2                !
 ! A28   A(17,10,18)           108.8427         estimate D2E/DX2                !
 ! A29   A(17,10,19)           108.426          estimate D2E/DX2                !
 ! A30   A(18,10,19)           108.2358         estimate D2E/DX2                !
 ! A31   A(9,11,20)            111.2817         estimate D2E/DX2                !
 ! A32   A(9,11,21)            110.0852         estimate D2E/DX2                !
 ! A33   A(9,11,22)            109.9432         estimate D2E/DX2                !
 ! A34   A(20,11,21)           108.428          estimate D2E/DX2                !
 ! A35   A(20,11,22)           108.8111         estimate D2E/DX2                !
 ! A36   A(21,11,22)           108.2188         estimate D2E/DX2                !
 ! A37   L(1,2,3,4,-1)         180.0            estimate D2E/DX2                !
 ! A38   L(1,2,3,4,-2)         180.0            estimate D2E/DX2                !
 ! D1    D(2,3,4,5)           -179.4221         estimate D2E/DX2                !
 ! D2    D(2,3,4,12)             0.3947         estimate D2E/DX2                !
 ! D3    D(8,3,4,5)              0.0662         estimate D2E/DX2                !
 ! D4    D(8,3,4,12)           179.883          estimate D2E/DX2                !
 ! D5    D(2,3,8,7)            179.4106         estimate D2E/DX2                !
 ! D6    D(2,3,8,15)            -0.4018         estimate D2E/DX2                !
 ! D7    D(4,3,8,7)             -0.0715         estimate D2E/DX2                !
 ! D8    D(4,3,8,15)          -179.8839         estimate D2E/DX2                !
 ! D9    D(3,4,5,6)              0.0343         estimate D2E/DX2                !
 ! D10   D(3,4,5,13)           179.8703         estimate D2E/DX2                !
 ! D11   D(12,4,5,6)          -179.7818         estimate D2E/DX2                !
 ! D12   D(12,4,5,13)            0.0543         estimate D2E/DX2                !
 ! D13   D(4,5,6,7)             -0.127          estimate D2E/DX2                !
 ! D14   D(4,5,6,9)            179.7225         estimate D2E/DX2                !
 ! D15   D(13,5,6,7)          -179.9603         estimate D2E/DX2                !
 ! D16   D(13,5,6,9)            -0.1108         estimate D2E/DX2                !
 ! D17   D(5,6,7,8)              0.1216         estimate D2E/DX2                !
 ! D18   D(5,6,7,14)           179.9669         estimate D2E/DX2                !
 ! D19   D(9,6,7,8)           -179.7255         estimate D2E/DX2                !
 ! D20   D(9,6,7,14)             0.1198         estimate D2E/DX2                !
 ! D21   D(5,6,9,10)           118.3475         estimate D2E/DX2                !
 ! D22   D(5,6,9,11)          -118.0164         estimate D2E/DX2                !
 ! D23   D(5,6,9,16)             0.1152         estimate D2E/DX2                !
 ! D24   D(7,6,9,10)           -61.8069         estimate D2E/DX2                !
 ! D25   D(7,6,9,11)            61.8293         estimate D2E/DX2                !
 ! D26   D(7,6,9,16)           179.9609         estimate D2E/DX2                !
 ! D27   D(6,7,8,3)             -0.0235         estimate D2E/DX2                !
 ! D28   D(6,7,8,15)           179.7881         estimate D2E/DX2                !
 ! D29   D(14,7,8,3)          -179.8716         estimate D2E/DX2                !
 ! D30   D(14,7,8,15)           -0.06           estimate D2E/DX2                !
 ! D31   D(6,9,10,17)           62.2406         estimate D2E/DX2                !
 ! D32   D(6,9,10,18)          -58.4165         estimate D2E/DX2                !
 ! D33   D(6,9,10,19)         -177.5461         estimate D2E/DX2                !
 ! D34   D(11,9,10,17)         -61.3825         estimate D2E/DX2                !
 ! D35   D(11,9,10,18)         177.9604         estimate D2E/DX2                !
 ! D36   D(11,9,10,19)          58.8308         estimate D2E/DX2                !
 ! D37   D(16,9,10,17)        -178.2484         estimate D2E/DX2                !
 ! D38   D(16,9,10,18)          61.0945         estimate D2E/DX2                !
 ! D39   D(16,9,10,19)         -58.0351         estimate D2E/DX2                !
 ! D40   D(6,9,11,20)          -62.2896         estimate D2E/DX2                !
 ! D41   D(6,9,11,21)          177.4691         estimate D2E/DX2                !
 ! D42   D(6,9,11,22)           58.3382         estimate D2E/DX2                !
 ! D43   D(10,9,11,20)          61.3911         estimate D2E/DX2                !
 ! D44   D(10,9,11,21)         -58.8503         estimate D2E/DX2                !
 ! D45   D(10,9,11,22)        -177.9812         estimate D2E/DX2                !
 ! D46   D(16,9,11,20)         178.277          estimate D2E/DX2                !
 ! D47   D(16,9,11,21)          58.0356         estimate D2E/DX2                !
 ! D48   D(16,9,11,22)         -61.0953         estimate D2E/DX2                !
 --------------------------------------------------------------------------------
 Trust Radius=3.00D-01 FncErr=1.00D-07 GrdErr=1.00D-06
 Number of steps in this run= 118 maximum allowed number of steps= 132.
 GradGradGradGradGradGradGradGradGradGradGradGradGradGradGradGradGradGrad

 Leave Link  103 at Sun Oct  3 08:57:25 2021, MaxMem=  805306368 cpu:       0.0
 (Enter /sw/target/amd/app/gaussian/Gaussian09RevA.02_gcc-4.9.2/g09/l202.exe)
                          Input orientation:                          
 ---------------------------------------------------------------------
 Center     Atomic      Atomic             Coordinates (Angstroms)
 Number     Number       Type             X           Y           Z
 ---------------------------------------------------------------------
      1         35           0        0.944068    0.052020   -0.064541
      2         12           0        3.554068    0.052020   -0.064541
      3          6           0        5.724068    0.052020   -0.064541
      4          6           0        6.408349    1.210927   -0.432959
      5          6           0        7.805911    1.226136   -0.450582
      6          6           0        8.535809    0.075673   -0.098586
      7          6           0        7.832496   -1.088397    0.273730
      8          6           0        6.434032   -1.096179    0.289154
      9          6           0       10.053270    0.105482   -0.128547
     10          6           0       10.634293   -0.154091    1.266521
     11          6           0       10.599105   -0.905637   -1.144566
     12          1           0        5.852112    2.097132   -0.707892
     13          1           0        8.316420    2.135650   -0.741720
     14          1           0        8.363013   -1.990323    0.549588
     15          1           0        5.898359   -1.992427    0.572130
     16          1           0       10.397708    1.114492   -0.448407
     17          1           0       10.355218   -1.162766    1.637909
     18          1           0       10.257856    0.608389    1.981563
     19          1           0       11.742732   -0.085229    1.236448
     20          1           0       10.318567   -1.944456   -0.869955
     21          1           0       11.707292   -0.841285   -1.189212
     22          1           0       10.197102   -0.681400   -2.155803
 ---------------------------------------------------------------------
                    Distance matrix (angstroms):
                    1          2          3          4          5
     1  Br   0.000000
     2  Mg   2.610000   0.000000
     3  C    4.780000   2.170000   0.000000
     4  C    5.597960   3.102533   1.395362   0.000000
     5  C    6.972264   4.427837   2.421083   1.397756   0.000000
     6  C    7.591854   4.981913   2.812046   2.434481   1.407203
     7  C    6.990380   4.440711   2.420835   2.795442   2.425366
     8  C    5.619890   3.120521   1.395532   2.417612   2.796858
     9  C    9.109583   6.499736   4.330004   3.821011   2.531836
    10  C    9.783387   7.207204   5.091612   4.755009   3.585138
    11  C    9.762340   7.191391   5.084244   4.748544   3.581620
    12  H    5.355864   3.142832   2.147738   1.081826   2.154570
    13  H    7.691011   5.242145   3.394168   2.142705   1.082865
    14  H    7.719395   5.260634   3.392985   3.877385   3.414135
    15  H    5.397232   3.175029   2.148370   3.395846   3.878640
    16  H    9.520898   6.936253   4.808233   3.990555   2.594202
    17  H    9.640735   7.115454   5.081495   5.049821   4.070334
    18  H    9.552105   7.031134   5.005129   4.583849   3.508415
    19  H   10.877616   8.292504   6.159198   5.737820   4.479320
    20  H    9.618515   7.098806   5.073857   5.043532   4.067183
    21  H   10.858630   8.278764   6.153197   5.732564   4.476670
    22  H    9.514721   7.002940   4.991924   4.572061   3.502037
                    6          7          8          9         10
     6  C    0.000000
     7  C    1.410080   0.000000
     8  C    2.437426   1.398571   0.000000
     9  C    1.518049   2.553235   3.836319   0.000000
    10  C    2.513950   3.115867   4.414179   1.533356   0.000000
    11  C    2.512814   3.114336   4.409047   1.533816   2.525747
    12  H    3.414642   3.877254   3.395581   4.685300   5.642301
    13  H    2.169161   3.414645   3.879537   2.741206   3.827333
    14  H    2.172171   1.082135   2.142029   2.776551   3.007400
    15  H    3.418046   2.155736   1.081795   4.706958   5.127449
    16  H    2.160599   3.457531   4.598021   1.113126   2.146219
    17  H    2.803461   2.868910   4.147201   2.195449   1.110513
    18  H    2.752499   3.417330   4.515687   2.178838   1.111020
    19  H    3.477435   4.150074   5.486500   2.180336   1.110983
    20  H    2.802527   2.867299   4.141585   2.195977   2.805285
    21  H    3.476863   4.149133   5.482500   2.181093   2.766620
    22  H    2.750490   3.414621   4.506723   2.179366   3.490199
                   11         12         13         14         15
    11  C    0.000000
    12  H    5.633937   0.000000
    13  H    3.823920   2.464841   0.000000
    14  H    3.007791   4.959150   4.323575   0.000000
    15  H    5.121052   4.285451   4.961275   2.464758   0.000000
    16  H    2.146187   4.657828   2.336783   3.843938   5.562247
    17  H    2.804953   6.033878   4.549603   2.416231   4.657018
    18  H    3.490187   5.372159   3.676679   3.520552   5.268392
    19  H    2.765895   6.575907   4.537076   3.940007   6.183479
    20  H    1.110522   6.025772   4.546681   2.416899   4.649748
    21  H    1.110951   6.568797   4.534358   3.940548   6.178281
    22  H    1.111076   5.356829   3.670472   3.520838   5.257338
                   16         17         18         19         20
    16  H    0.000000
    17  H    3.088758   0.000000
    18  H    2.486052   1.806812   0.000000
    19  H    2.467216   1.802069   1.800322   0.000000
    20  H    3.088872   2.627121   3.827775   3.149905   0.000000
    21  H    2.467562   3.150249   3.775743   2.541004   1.802073
    22  H    2.486095   3.827397   4.334171   3.775149   1.806508
                   21         22
    21  H    0.000000
    22  H    1.800148   0.000000
 Stoichiometry    C9H11BrMg
 Framework group  C1[X(C9H11BrMg)]
 Deg. of freedom    60
 Full point group                 C1      NOp   1
 Largest Abelian subgroup         C1      NOp   1
 Largest concise Abelian subgroup C1      NOp   1
                         Standard orientation:                         
 ---------------------------------------------------------------------
 Center     Atomic      Atomic             Coordinates (Angstroms)
 Number     Number       Type             X           Y           Z
 ---------------------------------------------------------------------
      1         35           0        4.620985   -0.073143    0.005545
      2         12           0        2.012533    0.015914   -0.006417
      3          6           0       -0.156181    0.089958   -0.016362
      4          6           0       -0.798612    1.328611   -0.008853
      5          6           0       -2.194729    1.396015   -0.002898
      6          6           0       -2.965258    0.218516   -0.003683
      7          6           0       -2.304003   -1.026866   -0.013308
      8          6           0       -0.906720   -1.086559   -0.019345
      9          6           0       -4.480637    0.307589    0.009212
     10          6           0       -5.078048   -0.331448   -1.250118
     11          6           0       -5.054717   -0.340118    1.275506
     12          1           0       -0.211052    2.236963   -0.004656
     13          1           0       -2.672399    2.367799    0.005030
     14          1           0       -2.866398   -1.951381   -0.013641
     15          1           0       -0.403404   -2.044129   -0.023267
     16          1           0       -4.788793    1.377188    0.016036
     17          1           0       -4.835498   -1.413677   -1.306581
     18          1           0       -4.680001    0.173247   -2.156323
     19          1           0       -6.183321   -0.219003   -1.246747
     20          1           0       -4.811179   -1.422675    1.320412
     21          1           0       -6.159808   -0.227695    1.294134
     22          1           0       -4.639599    0.158211    2.177634
 ---------------------------------------------------------------------
 Rotational constants (GHZ):      3.2470459      0.1623047      0.1599084
 Leave Link  202 at Sun Oct  3 08:57:25 2021, MaxMem=  805306368 cpu:       0.0
 (Enter /sw/target/amd/app/gaussian/Gaussian09RevA.02_gcc-4.9.2/g09/l301.exe)
 Standard basis: 6-31G(d) (6D, 7F)
 Ernie: Thresh=  0.10000D-02 Tol=  0.10000D-05 Strict=F.
 There are   206 symmetry adapted basis functions of A   symmetry.
 Integral buffers will be    131072 words long.
 Raffenetti 2 integral format.
 Two-electron integral symmetry is turned on.
   206 basis functions,   431 primitive gaussians,   206 cartesian basis functions
    56 alpha electrons       56 beta electrons
       nuclear repulsion energy       760.3970458861 Hartrees.
 IExCor=  402 DFT=T Ex+Corr=B3LYP ExCW=0 ScaHFX=  0.200000
 ScaDFX=  0.800000  0.720000  1.000000  0.810000 ScalE2=  1.000000  1.000000
 IRadAn=      0 IRanWt=     -1 IRanGd=            0 ICorTp=0
 NAtoms=   22 NActive=   22 NUniq=   22 SFac= 7.50D-01 NAtFMM=   80 NAOKFM=F Big=F
 Leave Link  301 at Sun Oct  3 08:57:25 2021, MaxMem=  805306368 cpu:       0.1
 (Enter /sw/target/amd/app/gaussian/Gaussian09RevA.02_gcc-4.9.2/g09/l302.exe)
 NPDir=0 NMtPBC=     1 NCelOv=     1 NCel=       1 NClECP=     1 NCelD=      1
         NCelK=      1 NCelE2=     1 NClLst=     1 CellRange=     0.0.
 One-electron integrals computed using PRISM.
 NBasis=   206 RedAO= T  NBF=   206
 NBsUse=   206 1.00D-06 NBFU=   206
 Precomputing XC quadrature grid using
 IXCGrd= 2 IRadAn=           0 IRanWt=          -1 IRanGd=           0 AccXCQ= 1.00D-10.
 NRdTot=    1411 NPtTot=      183012 NUsed=      193188 NTot=      193220
 NSgBfM=   200   200   200   200   200 NAtAll=    22    22.
 Leave Link  302 at Sun Oct  3 08:57:30 2021, MaxMem=  805306368 cpu:       1.4
 (Enter /sw/target/amd/app/gaussian/Gaussian09RevA.02_gcc-4.9.2/g09/l303.exe)
 DipDrv:  MaxL=1.
 Leave Link  303 at Sun Oct  3 08:57:30 2021, MaxMem=  805306368 cpu:       0.1
 (Enter /sw/target/amd/app/gaussian/Gaussian09RevA.02_gcc-4.9.2/g09/l401.exe)
 Harris functional with IExCor=  402 diagonalized for initial guess.
 ExpMin= 4.21D-02 ExpMax= 5.74D+05 ExpMxC= 5.74D+03 IAcc=2 IRadAn=         0 AccDes= 0.00D+00
 HarFok:  IExCor=  402 AccDes= 0.00D+00 IRadAn=         0 IDoV= 1
 ScaDFX=  1.000000  1.000000  1.000000  1.000000
 FoFCou: FMM=F IPFlag=           0 FMFlag=      100000 FMFlg1=           0
         NFxFlg=           0 DoJE=T BraDBF=F KetDBF=T FulRan=T
         Omega=  0.000000  0.000000  1.000000  0.000000  0.000000 ICntrl=     500 IOpCl=  0
         NMat0=    1 NMatS0=    1 NMatT0=    0 NMatD0=    1 NMtDS0=    0 NMtDT0=    0
         I1Cent=           4 NGrid=           0.
 Petite list used in FoFCou.
 Harris En= -3121.70773590570    
 Initial guess orbital symmetries:
       Occupied  (A) (A) (A) (A) (A) (A) (A) (A) (A) (A) (A) (A)
                 (A) (A) (A) (A) (A) (A) (A) (A) (A) (A) (A) (A)
                 (A) (A) (A) (A) (A) (A) (A) (A) (A) (A) (A) (A)
                 (A) (A) (A) (A) (A) (A) (A) (A) (A) (A) (A) (A)
                 (A) (A) (A) (A) (A) (A) (A) (A)
       Virtual   (A) (A) (A) (A) (A) (A) (A) (A) (A) (A) (A) (A)
                 (A) (A) (A) (A) (A) (A) (A) (A) (A) (A) (A) (A)
                 (A) (A) (A) (A) (A) (A) (A) (A) (A) (A) (A) (A)
                 (A) (A) (A) (A) (A) (A) (A) (A) (A) (A) (A) (A)
                 (A) (A) (A) (A) (A) (A) (A) (A) (A) (A) (A) (A)
                 (A) (A) (A) (A) (A) (A) (A) (A) (A) (A) (A) (A)
                 (A) (A) (A) (A) (A) (A) (A) (A) (A) (A) (A) (A)
                 (A) (A) (A) (A) (A) (A) (A) (A) (A) (A) (A) (A)
                 (A) (A) (A) (A) (A) (A) (A) (A) (A) (A) (A) (A)
                 (A) (A) (A) (A) (A) (A) (A) (A) (A) (A) (A) (A)
                 (A) (A) (A) (A) (A) (A) (A) (A) (A) (A) (A) (A)
                 (A) (A) (A) (A) (A) (A) (A) (A) (A) (A) (A) (A)
                 (A) (A) (A) (A) (A) (A)
 The electronic state of the initial guess is 1-A.
 Leave Link  401 at Sun Oct  3 08:58:04 2021, MaxMem=  805306368 cpu:      13.6
 (Enter /sw/target/amd/app/gaussian/Gaussian09RevA.02_gcc-4.9.2/g09/l502.exe)
 Closed shell SCF:
 Requested convergence on RMS density matrix=1.00D-08 within  64 cycles.
 Requested convergence on MAX density matrix=1.00D-06.
 Requested convergence on             energy=1.00D-06.
 No special actions if energy rises.
 Using DIIS extrapolation, IDIIS=  1040.
 Integral symmetry usage will be decided dynamically.
       192977 words used for storage of precomputed grid.
 Keep R1 ints in memory in canonical form, NReq=232066583.
 IEnd=      328620 IEndB=      328620 NGot=   805306368 MDV=   577721406
 LenX=   577721406 LenY=   577678529
 Symmetry not used in FoFDir.
 MinBra= 0 MaxBra= 2 Meth= 1.
 IRaf=       0 NMat=   1 IRICut=       1 DoRegI=T DoRafI=F ISym2E= 0 JSym2E=0.

 Cycle   1  Pass 1  IDiag  1:
 E= -3121.05042063187    
 DIIS: error= 1.29D-01 at cycle   1 NSaved=   1.
 NSaved= 1 IEnMin= 1 EnMin= -3121.05042063187     IErMin= 1 ErrMin= 1.29D-01
 ErrMax= 1.29D-01 EMaxC= 1.00D-01 BMatC= 7.34D-01 BMatP= 7.34D-01
 IDIUse=3 WtCom= 0.00D+00 WtEn= 1.00D+00
 Coeff-Com:  0.100D+01
 Coeff-En:   0.100D+01
 Coeff:      0.100D+01
 Gap=     0.441 Goal=   None    Shift=    0.000
 GapD=    0.441 DampG=2.000 DampE=0.250 DampFc=0.5000 IDamp=-1.
 Damping current iteration by 5.00D-01
 RMSDP=8.48D-03 MaxDP=5.45D-01              OVMax= 5.73D-01

 Cycle   2  Pass 1  IDiag  1:
 E= -3121.12533325121     Delta-E=       -0.074912619333 Rises=F Damp=T
 DIIS: error= 6.17D-02 at cycle   2 NSaved=   2.
 NSaved= 2 IEnMin= 2 EnMin= -3121.12533325121     IErMin= 2 ErrMin= 6.17D-02
 ErrMax= 6.17D-02 EMaxC= 1.00D-01 BMatC= 1.31D-01 BMatP= 7.34D-01
 IDIUse=3 WtCom= 3.83D-01 WtEn= 6.17D-01
 Coeff-Com: -0.319D-01 0.103D+01
 Coeff-En:   0.397D+00 0.603D+00
 Coeff:      0.233D+00 0.767D+00
 Gap=     0.220 Goal=   None    Shift=    0.000
 RMSDP=2.91D-03 MaxDP=1.75D-01 DE=-7.49D-02 OVMax= 4.37D-01

 Cycle   3  Pass 1  IDiag  1:
 E= -3121.40864148068     Delta-E=       -0.283308229477 Rises=F Damp=F
 DIIS: error= 1.47D-02 at cycle   3 NSaved=   3.
 NSaved= 3 IEnMin= 3 EnMin= -3121.40864148068     IErMin= 3 ErrMin= 1.47D-02
 ErrMax= 1.47D-02 EMaxC= 1.00D-01 BMatC= 3.11D-02 BMatP= 1.31D-01
 IDIUse=3 WtCom= 8.53D-01 WtEn= 1.47D-01
 Coeff-Com: -0.517D-01 0.314D+00 0.738D+00
 Coeff-En:   0.000D+00 0.000D+00 0.100D+01
 Coeff:     -0.441D-01 0.268D+00 0.776D+00
 Gap=     0.208 Goal=   None    Shift=    0.000
 RMSDP=1.85D-03 MaxDP=6.53D-02 DE=-2.83D-01 OVMax= 1.39D-01

 Cycle   4  Pass 1  IDiag  1:
 E= -3121.40648765547     Delta-E=        0.002153825215 Rises=F Damp=F
 DIIS: error= 1.71D-02 at cycle   4 NSaved=   4.
 NSaved= 4 IEnMin= 3 EnMin= -3121.40864148068     IErMin= 3 ErrMin= 1.47D-02
 ErrMax= 1.71D-02 EMaxC= 1.00D-01 BMatC= 3.40D-02 BMatP= 3.11D-02
 IDIUse=3 WtCom= 8.29D-01 WtEn= 1.71D-01
 Coeff-Com: -0.316D-01 0.105D+00 0.505D+00 0.421D+00
 Coeff-En:   0.000D+00 0.000D+00 0.512D+00 0.488D+00
 Coeff:     -0.262D-01 0.874D-01 0.506D+00 0.433D+00
 Gap=     0.193 Goal=   None    Shift=    0.000
 RMSDP=1.11D-03 MaxDP=3.28D-02 DE= 2.15D-03 OVMax= 8.36D-02

 Cycle   5  Pass 1  IDiag  1:
 E= -3121.44417433879     Delta-E=       -0.037686683323 Rises=F Damp=F
 DIIS: error= 2.99D-03 at cycle   5 NSaved=   5.
 NSaved= 5 IEnMin= 5 EnMin= -3121.44417433879     IErMin= 5 ErrMin= 2.99D-03
 ErrMax= 2.99D-03 EMaxC= 1.00D-01 BMatC= 1.07D-03 BMatP= 3.11D-02
 IDIUse=3 WtCom= 9.70D-01 WtEn= 2.99D-02
 Coeff-Com: -0.139D-01 0.421D-01 0.239D+00 0.238D+00 0.495D+00
 Coeff-En:   0.000D+00 0.000D+00 0.000D+00 0.000D+00 0.100D+01
 Coeff:     -0.135D-01 0.408D-01 0.232D+00 0.230D+00 0.510D+00
 Gap=     0.178 Goal=   None    Shift=    0.000
 RMSDP=2.53D-04 MaxDP=8.60D-03 DE=-3.77D-02 OVMax= 1.73D-02

 Cycle   6  Pass 1  IDiag  1:
 E= -3121.44528328689     Delta-E=       -0.001108948094 Rises=F Damp=F
 DIIS: error= 7.37D-04 at cycle   6 NSaved=   6.
 NSaved= 6 IEnMin= 6 EnMin= -3121.44528328689     IErMin= 6 ErrMin= 7.37D-04
 ErrMax= 7.37D-04 EMaxC= 1.00D-01 BMatC= 1.19D-04 BMatP= 1.07D-03
 IDIUse=3 WtCom= 9.93D-01 WtEn= 7.37D-03
 Coeff-Com: -0.200D-02 0.375D-02 0.334D-01 0.483D-01 0.280D+00 0.637D+00
 Coeff-En:   0.000D+00 0.000D+00 0.000D+00 0.000D+00 0.700D-01 0.930D+00
 Coeff:     -0.198D-02 0.373D-02 0.331D-01 0.480D-01 0.278D+00 0.639D+00
 Gap=     0.176 Goal=   None    Shift=    0.000
 RMSDP=6.08D-05 MaxDP=2.50D-03 DE=-1.11D-03 OVMax= 3.54D-03

 Cycle   7  Pass 1  IDiag  1:
 E= -3121.44540324701     Delta-E=       -0.000119960124 Rises=F Damp=F
 DIIS: error= 1.72D-04 at cycle   7 NSaved=   7.
 NSaved= 7 IEnMin= 7 EnMin= -3121.44540324701     IErMin= 7 ErrMin= 1.72D-04
 ErrMax= 1.72D-04 EMaxC= 1.00D-01 BMatC= 4.79D-06 BMatP= 1.19D-04
 IDIUse=3 WtCom= 9.98D-01 WtEn= 1.72D-03
 Coeff-Com: -0.407D-05-0.690D-03 0.445D-02 0.102D-01 0.105D+00 0.289D+00
 Coeff-Com:  0.593D+00
 Coeff-En:   0.000D+00 0.000D+00 0.000D+00 0.000D+00 0.000D+00 0.000D+00
 Coeff-En:   0.100D+01
 Coeff:     -0.406D-05-0.689D-03 0.444D-02 0.101D-01 0.105D+00 0.288D+00
 Coeff:      0.593D+00
 Gap=     0.177 Goal=   None    Shift=    0.000
 RMSDP=1.29D-05 MaxDP=4.34D-04 DE=-1.20D-04 OVMax= 6.78D-04

 Cycle   8  Pass 1  IDiag  1:
 E= -3121.44540736087     Delta-E=       -0.000004113861 Rises=F Damp=F
 DIIS: error= 5.79D-05 at cycle   8 NSaved=   8.
 NSaved= 8 IEnMin= 8 EnMin= -3121.44540736087     IErMin= 8 ErrMin= 5.79D-05
 ErrMax= 5.79D-05 EMaxC= 1.00D-01 BMatC= 6.40D-07 BMatP= 4.79D-06
 IDIUse=1 WtCom= 1.00D+00 WtEn= 0.00D+00
 Coeff-Com:  0.300D-03-0.804D-03-0.759D-03-0.456D-03 0.204D-01 0.661D-01
 Coeff-Com:  0.291D+00 0.624D+00
 Coeff:      0.300D-03-0.804D-03-0.759D-03-0.456D-03 0.204D-01 0.661D-01
 Coeff:      0.291D+00 0.624D+00
 Gap=     0.177 Goal=   None    Shift=    0.000
 RMSDP=5.17D-06 MaxDP=1.91D-04 DE=-4.11D-06 OVMax= 3.13D-04

 Cycle   9  Pass 1  IDiag  1:
 E= -3121.44540802015     Delta-E=       -0.000000659277 Rises=F Damp=F
 DIIS: error= 1.70D-05 at cycle   9 NSaved=   9.
 NSaved= 9 IEnMin= 9 EnMin= -3121.44540802015     IErMin= 9 ErrMin= 1.70D-05
 ErrMax= 1.70D-05 EMaxC= 1.00D-01 BMatC= 4.94D-08 BMatP= 6.40D-07
 IDIUse=1 WtCom= 1.00D+00 WtEn= 0.00D+00
 Coeff-Com:  0.170D-03-0.368D-03-0.377D-03-0.731D-03 0.381D-02 0.135D-01
 Coeff-Com:  0.912D-01 0.285D+00 0.607D+00
 Coeff:      0.170D-03-0.368D-03-0.377D-03-0.731D-03 0.381D-02 0.135D-01
 Coeff:      0.912D-01 0.285D+00 0.607D+00
 Gap=     0.177 Goal=   None    Shift=    0.000
 RMSDP=1.82D-06 MaxDP=4.44D-05 DE=-6.59D-07 OVMax= 1.42D-04

 Cycle  10  Pass 1  IDiag  1:
 E= -3121.44540805997     Delta-E=       -0.000000039821 Rises=F Damp=F
 DIIS: error= 1.11D-05 at cycle  10 NSaved=  10.
 NSaved=10 IEnMin=10 EnMin= -3121.44540805997     IErMin=10 ErrMin= 1.11D-05
 ErrMax= 1.11D-05 EMaxC= 1.00D-01 BMatC= 1.54D-08 BMatP= 4.94D-08
 IDIUse=1 WtCom= 1.00D+00 WtEn= 0.00D+00
 Coeff-Com:  0.819D-04-0.156D-03-0.754D-04-0.374D-03 0.394D-03 0.146D-02
 Coeff-Com:  0.237D-01 0.109D+00 0.401D+00 0.465D+00
 Coeff:      0.819D-04-0.156D-03-0.754D-04-0.374D-03 0.394D-03 0.146D-02
 Coeff:      0.237D-01 0.109D+00 0.401D+00 0.465D+00
 Gap=     0.177 Goal=   None    Shift=    0.000
 RMSDP=7.00D-07 MaxDP=2.27D-05 DE=-3.98D-08 OVMax= 5.84D-05

 Cycle  11  Pass 1  IDiag  1:
 E= -3121.44540807764     Delta-E=       -0.000000017676 Rises=F Damp=F
 DIIS: error= 1.12D-06 at cycle  11 NSaved=  11.
 NSaved=11 IEnMin=11 EnMin= -3121.44540807764     IErMin=11 ErrMin= 1.12D-06
 ErrMax= 1.12D-06 EMaxC= 1.00D-01 BMatC= 4.27D-10 BMatP= 1.54D-08
 IDIUse=1 WtCom= 1.00D+00 WtEn= 0.00D+00
 Coeff-Com:  0.217D-04-0.404D-04 0.434D-04-0.681D-04-0.113D-04-0.265D-03
 Coeff-Com:  0.176D-02 0.194D-01 0.111D+00 0.185D+00 0.683D+00
 Coeff:      0.217D-04-0.404D-04 0.434D-04-0.681D-04-0.113D-04-0.265D-03
 Coeff:      0.176D-02 0.194D-01 0.111D+00 0.185D+00 0.683D+00
 Gap=     0.177 Goal=   None    Shift=    0.000
 RMSDP=1.20D-07 MaxDP=3.57D-06 DE=-1.77D-08 OVMax= 6.54D-06

 Cycle  12  Pass 1  IDiag  1:
 E= -3121.44540807809     Delta-E=       -0.000000000448 Rises=F Damp=F
 DIIS: error= 4.31D-07 at cycle  12 NSaved=  12.
 NSaved=12 IEnMin=12 EnMin= -3121.44540807809     IErMin=12 ErrMin= 4.31D-07
 ErrMax= 4.31D-07 EMaxC= 1.00D-01 BMatC= 4.27D-11 BMatP= 4.27D-10
 IDIUse=1 WtCom= 1.00D+00 WtEn= 0.00D+00
 Coeff-Com:  0.459D-05-0.874D-05 0.245D-04-0.643D-05-0.383D-04-0.214D-03
 Coeff-Com: -0.114D-02-0.707D-03 0.146D-01 0.437D-01 0.308D+00 0.635D+00
 Coeff:      0.459D-05-0.874D-05 0.245D-04-0.643D-05-0.383D-04-0.214D-03
 Coeff:     -0.114D-02-0.707D-03 0.146D-01 0.437D-01 0.308D+00 0.635D+00
 Gap=     0.177 Goal=   None    Shift=    0.000
 RMSDP=3.79D-08 MaxDP=1.45D-06 DE=-4.48D-10 OVMax= 1.94D-06

 Cycle  13  Pass 1  IDiag  1:
 E= -3121.44540807805     Delta-E=        0.000000000044 Rises=F Damp=F
 DIIS: error= 1.14D-07 at cycle  13 NSaved=  13.
 NSaved=13 IEnMin=12 EnMin= -3121.44540807809     IErMin=13 ErrMin= 1.14D-07
 ErrMax= 1.14D-07 EMaxC= 1.00D-01 BMatC= 2.23D-12 BMatP= 4.27D-11
 IDIUse=1 WtCom= 1.00D+00 WtEn= 0.00D+00
 Coeff-Com:  0.651D-06-0.133D-05 0.629D-05 0.941D-06-0.159D-04-0.611D-04
 Coeff-Com: -0.542D-03-0.176D-02-0.280D-02 0.383D-02 0.721D-01 0.262D+00
 Coeff-Com:  0.667D+00
 Coeff:      0.651D-06-0.133D-05 0.629D-05 0.941D-06-0.159D-04-0.611D-04
 Coeff:     -0.542D-03-0.176D-02-0.280D-02 0.383D-02 0.721D-01 0.262D+00
 Coeff:      0.667D+00
 Gap=     0.177 Goal=   None    Shift=    0.000
 RMSDP=1.10D-08 MaxDP=4.76D-07 DE= 4.41D-11 OVMax= 5.03D-07

 Cycle  14  Pass 1  IDiag  1:
 E= -3121.44540807808     Delta-E=       -0.000000000035 Rises=F Damp=F
 DIIS: error= 1.84D-08 at cycle  14 NSaved=  14.
 NSaved=14 IEnMin=12 EnMin= -3121.44540807809     IErMin=14 ErrMin= 1.84D-08
 ErrMax= 1.84D-08 EMaxC= 1.00D-01 BMatC= 8.02D-14 BMatP= 2.23D-12
 IDIUse=1 WtCom= 1.00D+00 WtEn= 0.00D+00
 Coeff-Com:  0.125D-06-0.285D-06 0.160D-05 0.793D-06-0.167D-05-0.591D-05
 Coeff-Com: -0.105D-03-0.509D-03-0.135D-02-0.212D-03 0.128D-01 0.675D-01
 Coeff-Com:  0.242D+00 0.680D+00
 Coeff:      0.125D-06-0.285D-06 0.160D-05 0.793D-06-0.167D-05-0.591D-05
 Coeff:     -0.105D-03-0.509D-03-0.135D-02-0.212D-03 0.128D-01 0.675D-01
 Coeff:      0.242D+00 0.680D+00
 Gap=     0.177 Goal=   None    Shift=    0.000
 RMSDP=1.81D-09 MaxDP=9.04D-08 DE=-3.50D-11 OVMax= 1.51D-07

 SCF Done:  E(RB3LYP) =  -3121.44540808     A.U. after   14 cycles
             Convg  =    0.1810D-08             -V/T =  2.0066
 KE= 3.101052678035D+03 PE=-8.942795561121D+03 EE= 1.959900429122D+03
 Leave Link  502 at Sun Oct  3 09:07:18 2021, MaxMem=  805306368 cpu:     161.1
 (Enter /sw/target/amd/app/gaussian/Gaussian09RevA.02_gcc-4.9.2/g09/l508.exe)
 QCSCF skips out because SCF is already converged.
 Leave Link  508 at Sun Oct  3 09:07:19 2021, MaxMem=  805306368 cpu:       0.0
 (Enter /sw/target/amd/app/gaussian/Gaussian09RevA.02_gcc-4.9.2/g09/l601.exe)
 Copying SCF densities to generalized density rwf, IOpCl= 0 IROHF=0.

 **********************************************************************

            Population analysis using the SCF density.

 **********************************************************************

 Orbital symmetries:
       Occupied  (A) (A) (A) (A) (A) (A) (A) (A) (A) (A) (A) (A)
                 (A) (A) (A) (A) (A) (A) (A) (A) (A) (A) (A) (A)
                 (A) (A) (A) (A) (A) (A) (A) (A) (A) (A) (A) (A)
                 (A) (A) (A) (A) (A) (A) (A) (A) (A) (A) (A) (A)
                 (A) (A) (A) (A) (A) (A) (A) (A)
       Virtual   (A) (A) (A) (A) (A) (A) (A) (A) (A) (A) (A) (A)
                 (A) (A) (A) (A) (A) (A) (A) (A) (A) (A) (A) (A)
                 (A) (A) (A) (A) (A) (A) (A) (A) (A) (A) (A) (A)
                 (A) (A) (A) (A) (A) (A) (A) (A) (A) (A) (A) (A)
                 (A) (A) (A) (A) (A) (A) (A) (A) (A) (A) (A) (A)
                 (A) (A) (A) (A) (A) (A) (A) (A) (A) (A) (A) (A)
                 (A) (A) (A) (A) (A) (A) (A) (A) (A) (A) (A) (A)
                 (A) (A) (A) (A) (A) (A) (A) (A) (A) (A) (A) (A)
                 (A) (A) (A) (A) (A) (A) (A) (A) (A) (A) (A) (A)
                 (A) (A) (A) (A) (A) (A) (A) (A) (A) (A) (A) (A)
                 (A) (A) (A) (A) (A) (A) (A) (A) (A) (A) (A) (A)
                 (A) (A) (A) (A) (A) (A) (A) (A) (A) (A) (A) (A)
                 (A) (A) (A) (A) (A) (A)
 The electronic state is 1-A.
 Alpha  occ. eigenvalues -- -482.86487 -61.82677 -56.34470 -56.34315 -56.34311
 Alpha  occ. eigenvalues --  -46.86895 -10.19747 -10.19709 -10.19201 -10.19121
 Alpha  occ. eigenvalues --  -10.18961 -10.18849 -10.18178 -10.18176 -10.17858
 Alpha  occ. eigenvalues --   -8.53564  -6.48386  -6.47897  -6.47888  -3.15083
 Alpha  occ. eigenvalues --   -2.60034  -2.59900  -2.59893  -2.59503  -2.59503
 Alpha  occ. eigenvalues --   -1.89758  -1.89698  -1.88988  -0.85402  -0.79877
 Alpha  occ. eigenvalues --   -0.74422  -0.71939  -0.70316  -0.68152  -0.61268
 Alpha  occ. eigenvalues --   -0.59979  -0.55963  -0.49597  -0.46031  -0.45220
 Alpha  occ. eigenvalues --   -0.42663  -0.42396  -0.41782  -0.41337  -0.38730
 Alpha  occ. eigenvalues --   -0.35759  -0.35201  -0.33703  -0.33681  -0.32683
 Alpha  occ. eigenvalues --   -0.30730  -0.26103  -0.26079  -0.25732  -0.25084
 Alpha  occ. eigenvalues --   -0.24088
 Alpha virt. eigenvalues --   -0.06411  -0.03164  -0.02479  -0.00403   0.01406
 Alpha virt. eigenvalues --    0.06584   0.08874   0.10649   0.10725   0.12408
 Alpha virt. eigenvalues --    0.13507   0.13840   0.14440   0.14731   0.16149
 Alpha virt. eigenvalues --    0.16933   0.17994   0.18554   0.18887   0.19716
 Alpha virt. eigenvalues --    0.20951   0.22018   0.22570   0.26173   0.26715
 Alpha virt. eigenvalues --    0.26754   0.27097   0.27480   0.29372   0.33331
 Alpha virt. eigenvalues --    0.33990   0.35851   0.37541   0.39350   0.45639
 Alpha virt. eigenvalues --    0.49648   0.50836   0.51373   0.51435   0.51795
 Alpha virt. eigenvalues --    0.52338   0.53313   0.53329   0.54176   0.55302
 Alpha virt. eigenvalues --    0.55702   0.57732   0.58320   0.60284   0.61200
 Alpha virt. eigenvalues --    0.61939   0.62876   0.63278   0.63800   0.65484
 Alpha virt. eigenvalues --    0.65870   0.70624   0.71628   0.74017   0.75609
 Alpha virt. eigenvalues --    0.77262   0.79007   0.80582   0.81068   0.81861
 Alpha virt. eigenvalues --    0.83982   0.84531   0.84571   0.86491   0.87625
 Alpha virt. eigenvalues --    0.88472   0.89852   0.90828   0.90858   0.93652
 Alpha virt. eigenvalues --    0.94820   0.96472   0.97077   0.97697   1.00781
 Alpha virt. eigenvalues --    1.03984   1.07802   1.11820   1.16419   1.18300
 Alpha virt. eigenvalues --    1.22650   1.23248   1.24628   1.36872   1.41910
 Alpha virt. eigenvalues --    1.42827   1.44559   1.45045   1.45737   1.50506
 Alpha virt. eigenvalues --    1.51323   1.55707   1.63943   1.66613   1.68641
 Alpha virt. eigenvalues --    1.73856   1.77940   1.79184   1.79886   1.84815
 Alpha virt. eigenvalues --    1.88388   1.90073   1.95227   1.97596   2.01209
 Alpha virt. eigenvalues --    2.02324   2.02490   2.06406   2.09311   2.13238
 Alpha virt. eigenvalues --    2.14582   2.15504   2.19346   2.19409   2.22891
 Alpha virt. eigenvalues --    2.25904   2.29310   2.30770   2.30855   2.35541
 Alpha virt. eigenvalues --    2.41571   2.50528   2.50748   2.61715   2.63485
 Alpha virt. eigenvalues --    2.64239   2.69053   2.72144   2.75654   2.77412
 Alpha virt. eigenvalues --    2.82520   2.90278   3.07634   3.36944   4.11559
 Alpha virt. eigenvalues --    4.12170   4.17852   4.20132   4.27470   4.32835
 Alpha virt. eigenvalues --    4.40051   4.55395   4.70316   8.74671  74.76502
          Condensed to atoms (all electrons):
              1          2          3          4          5          6
     1  Br  35.028762   0.340712  -0.001672   0.000010  -0.000000  -0.000000
     2  Mg   0.340712  10.862306   0.366200  -0.031727   0.006758   0.001011
     3  C   -0.001672   0.366200   4.803798   0.530416  -0.035040  -0.030965
     4  C    0.000010  -0.031727   0.530416   4.969294   0.499235  -0.024685
     5  C   -0.000000   0.006758  -0.035040   0.499235   4.993312   0.550934
     6  C   -0.000000   0.001011  -0.030965  -0.024685   0.550934   4.668767
     7  C   -0.000000   0.006880  -0.034815  -0.048852  -0.039202   0.529400
     8  C    0.000004  -0.031119   0.530398  -0.035996  -0.047727  -0.019986
     9  C   -0.000000   0.000062   0.000362   0.006810  -0.044371   0.367947
    10  C   -0.000000   0.000029   0.000014  -0.000264  -0.000181  -0.045514
    11  C   -0.000000   0.000029   0.000016  -0.000267  -0.000254  -0.045703
    12  H   -0.000003  -0.015163  -0.053960   0.356478  -0.044135   0.003420
    13  H    0.000000  -0.000923   0.004754  -0.045209   0.347869  -0.042161
    14  H    0.000000  -0.000908   0.004669   0.000587   0.005608  -0.047492
    15  H   -0.000003  -0.014567  -0.051969   0.005888   0.000747   0.002991
    16  H    0.000000  -0.000002   0.000003   0.000389  -0.006312  -0.043818
    17  H    0.000000   0.000007  -0.000005   0.000014   0.000056  -0.008302
    18  H    0.000000   0.000001  -0.000007  -0.000036   0.001146  -0.000899
    19  H    0.000000  -0.000002  -0.000000   0.000003  -0.000057   0.004988
    20  H    0.000000   0.000007  -0.000005   0.000014   0.000057  -0.008301
    21  H    0.000000  -0.000002  -0.000000   0.000003  -0.000056   0.004997
    22  H    0.000000   0.000002  -0.000008  -0.000037   0.001174  -0.000885
              7          8          9         10         11         12
     1  Br  -0.000000   0.000004  -0.000000  -0.000000  -0.000000  -0.000003
     2  Mg   0.006880  -0.031119   0.000062   0.000029   0.000029  -0.015163
     3  C   -0.034815   0.530398   0.000362   0.000014   0.000016  -0.053960
     4  C   -0.048852  -0.035996   0.006810  -0.000264  -0.000267   0.356478
     5  C   -0.039202  -0.047727  -0.044371  -0.000181  -0.000254  -0.044135
     6  C    0.529400  -0.019986   0.367947  -0.045514  -0.045703   0.003420
     7  C    5.006994   0.508135  -0.062371  -0.005484  -0.005538   0.000703
     8  C    0.508135   4.956118   0.005465   0.000186   0.000189   0.005916
     9  C   -0.062371   0.005465   5.002214   0.361209   0.361324  -0.000189
    10  C   -0.005484   0.000186   0.361209   5.126093  -0.057754   0.000003
    11  C   -0.005538   0.000189   0.361324  -0.057754   5.126444   0.000003
    12  H    0.000703   0.005916  -0.000189   0.000003   0.000003   0.633182
    13  H    0.006117   0.000523  -0.011232   0.000250   0.000250  -0.004032
    14  H    0.348875  -0.041553  -0.007795   0.000766   0.000751   0.000026
    15  H   -0.045667   0.357973  -0.000173  -0.000000  -0.000000  -0.000152
    16  H    0.005339  -0.000155   0.371786  -0.044710  -0.044727  -0.000009
    17  H    0.003737  -0.000040  -0.032766   0.370982  -0.005258   0.000000
    18  H    0.000253  -0.000050  -0.032238   0.367795   0.005501   0.000001
    19  H    0.000097   0.000001  -0.030041   0.361475  -0.003375  -0.000000
    20  H    0.003757  -0.000041  -0.032733  -0.005251   0.370957   0.000000
    21  H    0.000102   0.000001  -0.030027  -0.003362   0.361435  -0.000000
    22  H    0.000252  -0.000052  -0.032233   0.005499   0.367756   0.000001
             13         14         15         16         17         18
     1  Br   0.000000   0.000000  -0.000003   0.000000   0.000000   0.000000
     2  Mg  -0.000923  -0.000908  -0.014567  -0.000002   0.000007   0.000001
     3  C    0.004754   0.004669  -0.051969   0.000003  -0.000005  -0.000007
     4  C   -0.045209   0.000587   0.005888   0.000389   0.000014  -0.000036
     5  C    0.347869   0.005608   0.000747  -0.006312   0.000056   0.001146
     6  C   -0.042161  -0.047492   0.002991  -0.043818  -0.008302  -0.000899
     7  C    0.006117   0.348875  -0.045667   0.005339   0.003737   0.000253
     8  C    0.000523  -0.041553   0.357973  -0.000155  -0.000040  -0.000050
     9  C   -0.011232  -0.007795  -0.000173   0.371786  -0.032766  -0.032238
    10  C    0.000250   0.000766  -0.000000  -0.044710   0.370982   0.367795
    11  C    0.000250   0.000751  -0.000000  -0.044727  -0.005258   0.005501
    12  H   -0.004032   0.000026  -0.000152  -0.000009   0.000000   0.000001
    13  H    0.612527  -0.000141   0.000025   0.007780   0.000004   0.000053
    14  H   -0.000141   0.610023  -0.003894   0.000031   0.002705   0.000086
    15  H    0.000025  -0.003894   0.629491   0.000003   0.000006   0.000001
    16  H    0.007780   0.000031   0.000003   0.629519   0.005422  -0.003156
    17  H    0.000004   0.002705   0.000006   0.005422   0.575459  -0.028462
    18  H    0.000053   0.000086   0.000001  -0.003156  -0.028462   0.571955
    19  H   -0.000019  -0.000120  -0.000000  -0.003872  -0.029229  -0.028366
    20  H    0.000004   0.002695   0.000006   0.005417   0.004419  -0.000027
    21  H   -0.000019  -0.000119  -0.000000  -0.003860  -0.000242  -0.000070
    22  H    0.000055   0.000087   0.000001  -0.003152  -0.000026  -0.000196
             19         20         21         22
     1  Br   0.000000   0.000000   0.000000   0.000000
     2  Mg  -0.000002   0.000007  -0.000002   0.000002
     3  C   -0.000000  -0.000005  -0.000000  -0.000008
     4  C    0.000003   0.000014   0.000003  -0.000037
     5  C   -0.000057   0.000057  -0.000056   0.001174
     6  C    0.004988  -0.008301   0.004997  -0.000885
     7  C    0.000097   0.003757   0.000102   0.000252
     8  C    0.000001  -0.000041   0.000001  -0.000052
     9  C   -0.030041  -0.032733  -0.030027  -0.032233
    10  C    0.361475  -0.005251  -0.003362   0.005499
    11  C   -0.003375   0.370957   0.361435   0.367756
    12  H   -0.000000   0.000000  -0.000000   0.000001
    13  H   -0.000019   0.000004  -0.000019   0.000055
    14  H   -0.000120   0.002695  -0.000119   0.000087
    15  H   -0.000000   0.000006  -0.000000   0.000001
    16  H   -0.003872   0.005417  -0.003860  -0.003152
    17  H   -0.029229   0.004419  -0.000242  -0.000026
    18  H   -0.028366  -0.000027  -0.000070  -0.000196
    19  H    0.586217  -0.000242   0.003565  -0.000070
    20  H   -0.000242   0.575473  -0.029219  -0.028495
    21  H    0.003565  -0.029219   0.586222  -0.028383
    22  H   -0.000070  -0.028495  -0.028383   0.572041
 Mulliken atomic charges:
              1
     1  Br  -0.367809
     2  Mg   0.510409
     3  C   -0.032185
     4  C   -0.182066
     5  C   -0.189561
     6  C    0.184255
     7  C   -0.178712
     8  C   -0.188190
     9  C   -0.161011
    10  C   -0.431780
    11  C   -0.431778
    12  H    0.117911
    13  H    0.123524
    14  H    0.125115
    15  H    0.119295
    16  H    0.128085
    17  H    0.141520
    18  H    0.146716
    19  H    0.139048
    20  H    0.141510
    21  H    0.139034
    22  H    0.146670
 Sum of Mulliken atomic charges =  -0.00000
 Mulliken charges with hydrogens summed into heavy atoms:
              1
     1  Br  -0.367809
     2  Mg   0.510409
     3  C   -0.032185
     4  C   -0.064155
     5  C   -0.066037
     6  C    0.184255
     7  C   -0.053597
     8  C   -0.068895
     9  C   -0.032926
    10  C   -0.004496
    11  C   -0.004564
 Sum of Mulliken charges with hydrogens summed into heavy atoms =  -0.00000
 Electronic spatial extent (au):  <R**2>=           6088.8709
 Charge=              0.0000 electrons
 Dipole moment (field-independent basis, Debye):
    X=             -3.7497    Y=              0.1670    Z=              0.0049  Tot=              3.7534
 Quadrupole moment (field-independent basis, Debye-Ang):
   XX=           -103.6392   YY=            -78.0137   ZZ=            -85.0580
   XY=              0.2049   XZ=             -0.1081   YZ=              0.0358
 Traceless Quadrupole moment (field-independent basis, Debye-Ang):
   XX=            -14.7356   YY=             10.8899   ZZ=              3.8456
   XY=              0.2049   XZ=             -0.1081   YZ=              0.0358
 Octapole moment (field-independent basis, Debye-Ang**2):
  XXX=            -19.7013  YYY=             -1.3356  ZZZ=              0.2576  XYY=             44.2110
  XXY=              5.8776  XXZ=              0.0003  XZZ=             55.7837  YZZ=             -0.0552
  YYZ=              0.0384  XYZ=             -0.0553
 Hexadecapole moment (field-independent basis, Debye-Ang**3):
 XXXX=          -6990.5924 YYYY=           -374.1874 ZZZZ=           -274.2177 XXXY=            -27.6930
 XXXZ=             -1.0579 YYYX=            -10.0082 YYYZ=              0.1898 ZZZX=              0.6590
 ZZZY=              0.0028 XXYY=          -1137.1207 XXZZ=          -1157.7799 YYZZ=           -117.0857
 XXYZ=              0.1781 YYXZ=              0.2199 ZZXY=             -7.9457
 N-N= 7.603970458861D+02 E-N=-8.942795564396D+03  KE= 3.101052678035D+03
 No NMR shielding tensors so no spin-rotation constants.
 Leave Link  601 at Sun Oct  3 09:07:22 2021, MaxMem=  805306368 cpu:       0.9
 (Enter /sw/target/amd/app/gaussian/Gaussian09RevA.02_gcc-4.9.2/g09/l701.exe)
 Compute integral first derivatives.
 ... and contract with generalized density number  0.
 Leave Link  701 at Sun Oct  3 09:07:25 2021, MaxMem=  805306368 cpu:       1.0
 (Enter /sw/target/amd/app/gaussian/Gaussian09RevA.02_gcc-4.9.2/g09/l702.exe)
 L702 exits ... SP integral derivatives will be done elsewhere.
 Leave Link  702 at Sun Oct  3 09:07:25 2021, MaxMem=  805306368 cpu:       0.1
 (Enter /sw/target/amd/app/gaussian/Gaussian09RevA.02_gcc-4.9.2/g09/l703.exe)
 Compute integral first derivatives, UseDBF=F ICtDFT=           0.
 Integral derivatives from FoFDir, PRISM(SPDF).
 Calling FoFJK, ICntrl=      2127 FMM=F ISym2X=0 I1Cent= 0 IOpClX= 0 NMat=1 NMatS=1 NMatT=0.
 FoFCou: FMM=F IPFlag=           0 FMFlag=      100000 FMFlg1=         800
         NFxFlg=           0 DoJE=F BraDBF=F KetDBF=F FulRan=T
         Omega=  0.000000  0.000000  1.000000  0.000000  0.000000 ICntrl=    2127 IOpCl=  0
         NMat0=    1 NMatS0=    1 NMatT0=    0 NMatD0=    1 NMtDS0=    0 NMtDT0=    0
         I1Cent=           0 NGrid=           0.
 Symmetry not used in FoFCou.
 Leave Link  703 at Sun Oct  3 09:10:29 2021, MaxMem=  805306368 cpu:      71.3
 (Enter /sw/target/amd/app/gaussian/Gaussian09RevA.02_gcc-4.9.2/g09/l716.exe)
 Dipole        =-1.47522978D+00 6.56953260D-02 1.91896509D-03
 ***** Axes restored to original set *****
 -------------------------------------------------------------------
 Center     Atomic                   Forces (Hartrees/Bohr)
 Number     Number              X              Y              Z
 -------------------------------------------------------------------
      1       35           0.034964528    0.000036916   -0.000024705
      2       12          -0.018914653   -0.000246555    0.000212674
      3        6          -0.037344080    0.000614192   -0.000136808
      4        6           0.008071030   -0.004045920    0.001103766
      5        6          -0.004372662   -0.007184692    0.002211484
      6        6          -0.003046623    0.005587018   -0.001669931
      7        6          -0.003725731    0.006807654   -0.002146506
      8        6           0.010821448    0.004234871   -0.001526355
      9        6           0.003121598    0.001371493   -0.000633218
     10        6           0.005315494    0.002701884    0.008674636
     11        6           0.005010706   -0.002712089   -0.008814284
     12        1           0.000794871    0.005618325   -0.001670387
     13        1           0.004386135    0.001732723   -0.000553863
     14        1           0.003540366   -0.002181024    0.000682624
     15        1           0.001043692   -0.005410054    0.001780885
     16        1          -0.006097694   -0.007159230    0.002352527
     17        1           0.002906677    0.008927247   -0.001771772
     18        1           0.003995148   -0.008455343   -0.003890979
     19        1          -0.008756220   -0.001570536    0.001931373
     20        1           0.002887828    0.008355675   -0.003639385
     21        1          -0.008769658   -0.002282027   -0.000406840
     22        1           0.004167800   -0.004740527    0.007935063
 -------------------------------------------------------------------
 Cartesian Forces:  Max     0.037344080 RMS     0.008135430
 Leave Link  716 at Sun Oct  3 09:10:29 2021, MaxMem=  805306368 cpu:       0.1
 (Enter /sw/target/amd/app/gaussian/Gaussian09RevA.02_gcc-4.9.2/g09/l103.exe)

 GradGradGradGradGradGradGradGradGradGradGradGradGradGradGradGradGradGrad
 Berny optimization.
 Internal  Forces:  Max     0.034964264 RMS     0.005225216
 Search for a local minimum.
 Step number   1 out of a maximum of  118
 All quantities printed in internal units (Hartrees-Bohrs-Radians)
 RMS Force = .52252D-02 SwitMx=.10000D-02 MixMth= 1
 Mixed Optimization -- RFO/linear search
 Second derivative matrix not updated -- first step.
     Eigenvalues ---    0.00240   0.00240   0.00319   0.00325   0.00527
     Eigenvalues ---    0.01393   0.01991   0.02031   0.02055   0.02093
     Eigenvalues ---    0.02126   0.02133   0.02140   0.02149   0.03902
     Eigenvalues ---    0.04888   0.05513   0.05519   0.05599   0.05675
     Eigenvalues ---    0.05683   0.05774   0.10112   0.16000   0.16000
     Eigenvalues ---    0.16000   0.16000   0.16000   0.16000   0.16000
     Eigenvalues ---    0.16000   0.16000   0.16000   0.16733   0.18082
     Eigenvalues ---    0.22000   0.22974   0.24000   0.24999   0.25000
     Eigenvalues ---    0.29074   0.29116   0.30555   0.32271   0.32486
     Eigenvalues ---    0.32492   0.32496   0.32500   0.32545   0.32546
     Eigenvalues ---    0.35650   0.35738   0.35775   0.35778   0.41260
     Eigenvalues ---    0.41459   0.44636   0.45551   0.45926   0.46304
     Eigenvalues --- 1000.000001000.000001000.000001000.000001000.00000
     Eigenvalues --- 1000.000001000.000001000.000001000.000001000.00000
     Eigenvalues --- 1000.000001000.000001000.000001000.000001000.00000
     Eigenvalues --- 1000.000001000.000001000.000001000.000001000.00000
     Eigenvalues --- 1000.000001000.000001000.000001000.000001000.00000
     Eigenvalues --- 1000.000001000.000001000.000001000.000001000.00000
     Eigenvalues --- 1000.000001000.000001000.000001000.000001000.00000
     Eigenvalues --- 1000.000001000.000001000.000001000.000001000.00000
     Eigenvalues --- 1000.000001000.000001000.000001000.000001000.00000
     Eigenvalues --- 1000.000001000.000001000.00000
 RFO step:  Lambda=-2.24362349D-02 EMin= 2.39615807D-03
 Linear search not attempted -- first point.
 Maximum step size (   0.300) exceeded in Quadratic search.
    -- Step size scaled by   0.624
 Iteration  1 RMS(Cart)=  0.02565262 RMS(Int)=  0.00696350
 Iteration  2 RMS(Cart)=  0.00680992 RMS(Int)=  0.00002977
 Iteration  3 RMS(Cart)=  0.00000100 RMS(Int)=  0.00002976
 Iteration  4 RMS(Cart)=  0.00000000 RMS(Int)=  0.00002976
 Variable       Old X    -DE/DX   Delta X   Delta X   Delta X     New X
                                 (Linear)    (Quad)   (Total)
    R1        4.93219  -0.03496   0.00000  -0.27232  -0.27232   4.65986
    R2        4.10071  -0.01605   0.00000  -0.08111  -0.08111   4.01960
    R3        2.63685   0.00813   0.00000   0.01124   0.01126   2.64812
    R4        2.63717   0.00908   0.00000   0.01238   0.01241   2.64958
    R5        2.64138   0.00132   0.00000   0.00180   0.00180   2.64318
    R6        2.04435   0.00462   0.00000   0.00758   0.00758   2.05194
    R7        2.65923  -0.00587   0.00000  -0.00859  -0.00862   2.65061
    R8        2.04632   0.00367   0.00000   0.00605   0.00605   2.05237
    R9        2.66467  -0.00688   0.00000  -0.01012  -0.01015   2.65452
   R10        2.86870   0.00364   0.00000   0.00693   0.00693   2.87563
   R11        2.64292  -0.00075   0.00000  -0.00106  -0.00106   2.64185
   R12        2.04494   0.00373   0.00000   0.00613   0.00613   2.05107
   R13        2.04430   0.00443   0.00000   0.00728   0.00728   2.05158
   R14        2.89762   0.00553   0.00000   0.01102   0.01102   2.90864
   R15        2.89849   0.00534   0.00000   0.01065   0.01065   2.90914
   R16        2.10350  -0.00905   0.00000  -0.01637  -0.01637   2.08713
   R17        2.09856  -0.00943   0.00000  -0.01693  -0.01693   2.08163
   R18        2.09952  -0.00966   0.00000  -0.01736  -0.01736   2.08216
   R19        2.09945  -0.00889   0.00000  -0.01597  -0.01597   2.08348
   R20        2.09858  -0.00945   0.00000  -0.01696  -0.01696   2.08162
   R21        2.09939  -0.00886   0.00000  -0.01593  -0.01593   2.08346
   R22        2.09963  -0.00969   0.00000  -0.01741  -0.01741   2.08221
    A1        2.08334   0.00644   0.00000   0.01370   0.01367   2.09701
    A2        2.10452   0.00549   0.00000   0.01151   0.01149   2.11600
    A3        2.09529  -0.01193   0.00000  -0.02520  -0.02515   2.07014
    A4        2.09751   0.00271   0.00000   0.00811   0.00813   2.10564
    A5        2.08899   0.00242   0.00000   0.00886   0.00885   2.09784
    A6        2.09668  -0.00513   0.00000  -0.01696  -0.01698   2.07970
    A7        2.10199   0.00388   0.00000   0.00802   0.00799   2.10998
    A8        2.07591   0.00114   0.00000   0.00653   0.00654   2.08245
    A9        2.10528  -0.00502   0.00000  -0.01454  -0.01453   2.09075
   A10        2.07403  -0.00218   0.00000  -0.00838  -0.00843   2.06559
   A11        2.09151   0.00241   0.00000   0.00722   0.00725   2.09876
   A12        2.11765  -0.00024   0.00000   0.00116   0.00118   2.11883
   A13        2.10162   0.00327   0.00000   0.00593   0.00590   2.10752
   A14        2.10696  -0.00365   0.00000  -0.00985  -0.00983   2.09712
   A15        2.07460   0.00038   0.00000   0.00392   0.00394   2.07854
   A16        2.09593   0.00424   0.00000   0.01153   0.01155   2.10748
   A17        2.08982   0.00169   0.00000   0.00729   0.00727   2.09709
   A18        2.09743  -0.00593   0.00000  -0.01881  -0.01882   2.07861
   A19        1.93638   0.00156   0.00000   0.00946   0.00937   1.94575
   A20        1.93463   0.00170   0.00000   0.00997   0.00988   1.94451
   A21        1.91005  -0.00289   0.00000  -0.02141  -0.02137   1.88869
   A22        1.93503  -0.00114   0.00000   0.00327   0.00314   1.93816
   A23        1.87301   0.00033   0.00000  -0.00133  -0.00130   1.87171
   A24        1.87244   0.00030   0.00000  -0.00124  -0.00120   1.87124
   A25        1.94207   0.00080   0.00000   0.00134   0.00134   1.94341
   A26        1.91876   0.00360   0.00000   0.01306   0.01301   1.93176
   A27        1.92084   0.00193   0.00000   0.00724   0.00720   1.92804
   A28        1.89966  -0.00268   0.00000  -0.01043  -0.01043   1.88923
   A29        1.89239  -0.00185   0.00000  -0.00781  -0.00780   1.88459
   A30        1.88907  -0.00199   0.00000  -0.00402  -0.00411   1.88496
   A31        1.94223   0.00076   0.00000   0.00120   0.00120   1.94343
   A32        1.92135   0.00185   0.00000   0.00695   0.00690   1.92825
   A33        1.91887   0.00356   0.00000   0.01296   0.01291   1.93178
   A34        1.89243  -0.00181   0.00000  -0.00773  -0.00772   1.88470
   A35        1.89911  -0.00262   0.00000  -0.01015  -0.01016   1.88895
   A36        1.88877  -0.00194   0.00000  -0.00384  -0.00392   1.88485
   A37        3.14159  -0.00016   0.00000  -0.00409  -0.00409   3.13751
   A38        3.14159   0.00002   0.00000   0.00062   0.00062   3.14221
    D1       -3.13151  -0.00012   0.00000  -0.00181  -0.00182  -3.13333
    D2        0.00689  -0.00003   0.00000  -0.00039  -0.00038   0.00651
    D3        0.00116  -0.00003   0.00000  -0.00045  -0.00045   0.00070
    D4        3.13955   0.00006   0.00000   0.00097   0.00099   3.14054
    D5        3.13131   0.00013   0.00000   0.00187   0.00188   3.13318
    D6       -0.00701   0.00003   0.00000   0.00039   0.00039  -0.00663
    D7       -0.00125   0.00004   0.00000   0.00048   0.00048  -0.00076
    D8       -3.13957  -0.00006   0.00000  -0.00099  -0.00101  -3.14057
    D9        0.00060  -0.00001   0.00000  -0.00015  -0.00014   0.00045
   D10        3.13933   0.00007   0.00000   0.00107   0.00108   3.14041
   D11       -3.13778  -0.00012   0.00000  -0.00162  -0.00162  -3.13940
   D12        0.00095  -0.00004   0.00000  -0.00041  -0.00039   0.00055
   D13       -0.00222   0.00005   0.00000   0.00069   0.00069  -0.00153
   D14        3.13675   0.00010   0.00000   0.00157   0.00156   3.13831
   D15       -3.14090  -0.00005   0.00000  -0.00058  -0.00057  -3.14147
   D16       -0.00193   0.00001   0.00000   0.00029   0.00030  -0.00163
   D17        0.00212  -0.00005   0.00000  -0.00066  -0.00066   0.00146
   D18        3.14102   0.00004   0.00000   0.00059   0.00058  -3.14159
   D19       -3.13680  -0.00011   0.00000  -0.00156  -0.00155  -3.13835
   D20        0.00209  -0.00001   0.00000  -0.00031  -0.00031   0.00178
   D21        2.06555  -0.00046   0.00000  -0.00935  -0.00940   2.05616
   D22       -2.05977   0.00040   0.00000   0.00870   0.00874  -2.05103
   D23        0.00201   0.00000   0.00000  -0.00009  -0.00009   0.00192
   D24       -1.07873  -0.00040   0.00000  -0.00847  -0.00851  -1.08724
   D25        1.07912   0.00045   0.00000   0.00958   0.00963   1.08875
   D26        3.14091   0.00005   0.00000   0.00079   0.00079  -3.14148
   D27       -0.00041   0.00001   0.00000   0.00008   0.00008  -0.00033
   D28        3.13789   0.00012   0.00000   0.00161   0.00160   3.13950
   D29       -3.13935  -0.00008   0.00000  -0.00112  -0.00112  -3.14047
   D30       -0.00105   0.00004   0.00000   0.00041   0.00040  -0.00065
   D31        1.08630   0.00168   0.00000   0.01513   0.01514   1.10145
   D32       -1.01956   0.00213   0.00000   0.01864   0.01868  -1.00088
   D33       -3.09876   0.00116   0.00000   0.01101   0.01100  -3.08776
   D34       -1.07133  -0.00081   0.00000  -0.00677  -0.00677  -1.07810
   D35        3.10600  -0.00036   0.00000  -0.00326  -0.00324   3.10275
   D36        1.02679  -0.00133   0.00000  -0.01088  -0.01092   1.01587
   D37       -3.11102  -0.00074   0.00000  -0.00627  -0.00627  -3.11729
   D38        1.06630  -0.00029   0.00000  -0.00276  -0.00274   1.06356
   D39       -1.01290  -0.00126   0.00000  -0.01039  -0.01041  -1.02332
   D40       -1.08716  -0.00165   0.00000  -0.01504  -0.01505  -1.10221
   D41        3.09742  -0.00110   0.00000  -0.01074  -0.01073   3.08669
   D42        1.01819  -0.00207   0.00000  -0.01836  -0.01839   0.99980
   D43        1.07148   0.00076   0.00000   0.00655   0.00656   1.07803
   D44       -1.02713   0.00130   0.00000   0.01085   0.01088  -1.01625
   D45       -3.10636   0.00034   0.00000   0.00323   0.00322  -3.10314
   D46        3.11152   0.00071   0.00000   0.00599   0.00599   3.11751
   D47        1.01291   0.00125   0.00000   0.01030   0.01032   1.02323
   D48       -1.06631   0.00028   0.00000   0.00268   0.00266  -1.06366
         Item               Value     Threshold  Converged?
 Maximum Force            0.034964     0.000450     NO 
 RMS     Force            0.005225     0.000300     NO 
 Maximum Displacement     0.284124     0.001800     NO 
 RMS     Displacement     0.031475     0.001200     NO 
 Predicted change in Energy=-1.064600D-02
 GradGradGradGradGradGradGradGradGradGradGradGradGradGradGradGradGradGrad

 Leave Link  103 at Sun Oct  3 09:10:38 2021, MaxMem=  805306368 cpu:       3.1
 (Enter /sw/target/amd/app/gaussian/Gaussian09RevA.02_gcc-4.9.2/g09/l202.exe)
                          Input orientation:                          
 ---------------------------------------------------------------------
 Center     Atomic      Atomic             Coordinates (Angstroms)
 Number     Number       Type             X           Y           Z
 ---------------------------------------------------------------------
      1         35           0        1.094420    0.061334   -0.060619
      2         12           0        3.560298    0.052795   -0.062025
      3          6           0        5.687373    0.053553   -0.066366
      4          6           0        6.390048    1.208800   -0.434277
      5          6           0        7.788638    1.217815   -0.450266
      6          6           0        8.520254    0.073541   -0.099865
      7          6           0        7.813509   -1.082770    0.269820
      8          6           0        6.415622   -1.091647    0.285835
      9          6           0       10.041536    0.098371   -0.126466
     10          6           0       10.633903   -0.150191    1.272253
     11          6           0       10.602181   -0.904954   -1.150636
     12          1           0        5.851966    2.109892   -0.712748
     13          1           0        8.311282    2.124702   -0.739985
     14          1           0        8.350170   -1.984723    0.546450
     15          1           0        5.896738   -2.000676    0.574031
     16          1           0       10.364848    1.105370   -0.444676
     17          1           0       10.371777   -1.152536    1.646433
     18          1           0       10.259172    0.595477    1.991689
     19          1           0       11.733455   -0.074153    1.244359
     20          1           0       10.338728   -1.940546   -0.883155
     21          1           0       11.701453   -0.834630   -1.197624
     22          1           0       10.204477   -0.697070   -2.156973
 ---------------------------------------------------------------------
                    Distance matrix (angstroms):
                    1          2          3          4          5
     1  Br   0.000000
     2  Mg   2.465893   0.000000
     3  C    4.592963   2.127079   0.000000
     4  C    5.431388   3.079351   1.401323   0.000000
     5  C    6.804544   4.403051   2.432735   1.398710   0.000000
     6  C    7.425948   4.960144   2.833150   2.436888   1.402643
     7  C    6.823806   4.414684   2.434072   2.788061   2.410775
     8  C    5.455693   3.095743   1.402097   2.410658   2.785791
     9  C    8.947435   6.481718   4.354809   3.828990   2.536445
    10  C    9.634470   7.201207   5.128506   4.771729   3.596393
    11  C    9.618698   7.189608   5.123447   4.766884   3.593423
    12  H    5.220739   3.147513   2.161812   1.085839   2.148347
    13  H    7.536719   5.227263   3.410033   2.150227   1.086066
    14  H    7.563120   5.240667   3.408900   3.873305   3.400737
    15  H    5.264686   3.174942   2.161897   3.400114   3.871324
    16  H    9.336934   6.896103   4.809180   3.976159   2.578669
    17  H    9.510881   7.125159   5.131469   5.075375   4.085012
    18  H    9.406910   7.027600   5.042879   4.607776   3.529021
    19  H   10.719626   8.277877   6.187845   5.745936   4.483584
    20  H    9.494278   7.113000   5.126273   5.070694   4.082352
    21  H   10.705358   8.267740   6.183671   5.741893   4.481206
    22  H    9.378860   7.006870   5.033717   4.598901   3.523623
                    6          7          8          9         10
     6  C    0.000000
     7  C    1.404710   0.000000
     8  C    2.436371   1.398007   0.000000
     9  C    1.521717   2.552693   3.838410   0.000000
    10  C    2.529876   3.135154   4.433199   1.539187   0.000000
    11  C    2.529029   3.134645   4.430076   1.539450   2.537925
    12  H    3.412054   3.873782   3.400696   4.684276   5.649347
    13  H    2.158862   3.399318   3.871787   2.734264   3.823454
    14  H    2.164048   1.085379   2.146621   2.766372   3.017902
    15  H    3.411649   2.146883   1.085647   4.698515   5.133472
    16  H    2.141516   3.436247   4.577873   1.104462   2.143984
    17  H    2.825059   2.905970   4.184029   2.194766   1.101552
    18  H    2.769630   3.429666   4.530916   2.186564   1.101831
    19  H    3.486174   4.163293   5.498492   2.184380   1.102532
    20  H    2.824347   2.905488   4.180661   2.195013   2.817496
    21  H    3.485667   4.163061   5.496064   2.184764   2.776403
    22  H    2.768057   3.428530   4.525310   2.186832   3.499010
                   11         12         13         14         15
    11  C    0.000000
    12  H    5.643189   0.000000
    13  H    3.820427   2.459511   0.000000
    14  H    3.019529   4.959080   4.306252   0.000000
    15  H    5.129939   4.307502   4.957359   2.453639   0.000000
    16  H    2.143854   4.631093   2.311574   3.819677   5.536180
    17  H    2.817441   6.052922   4.547628   2.447324   4.679248
    18  H    3.499022   5.388033   3.687120   3.520005   5.270730
    19  H    2.775971   6.572080   4.525909   3.947654   6.182888
    20  H    1.101547   6.046992   4.545027   2.449507   4.675284
    21  H    1.102522   6.566720   4.523310   3.949128   6.180060
    22  H    1.101861   5.376725   3.681635   3.522074   5.264446
                   16         17         18         19         20
    16  H    0.000000
    17  H    3.077486   0.000000
    18  H    2.491392   1.785338   0.000000
    19  H    2.473297   1.782902   1.783372   0.000000
    20  H    3.077426   2.649691   3.834380   3.155155   0.000000
    21  H    2.473266   3.155592   3.781150   2.557856   1.782965
    22  H    2.491279   3.834231   4.345695   3.780854   1.785180
                   21         22
    21  H    0.000000
    22  H    1.783315   0.000000
 Stoichiometry    C9H11BrMg
 Framework group  C1[X(C9H11BrMg)]
 Deg. of freedom    60
 Full point group                 C1      NOp   1
 Largest Abelian subgroup         C1      NOp   1
 Largest concise Abelian subgroup C1      NOp   1
                         Standard orientation:                         
 ---------------------------------------------------------------------
 Center     Atomic      Atomic             Coordinates (Angstroms)
 Number     Number       Type             X           Y           Z
 ---------------------------------------------------------------------
      1         35           0        4.511032   -0.072622    0.004574
      2         12           0        2.046493    0.008489   -0.005256
      3          6           0       -0.079117    0.087135   -0.013152
      4          6           0       -0.737695    1.324047   -0.007690
      5          6           0       -2.134944    1.387776   -0.002858
      6          6           0       -2.909215    0.218199   -0.002813
      7          6           0       -2.246618   -1.020401   -0.009632
      8          6           0       -0.850066   -1.083981   -0.014534
      9          6           0       -4.428448    0.304585    0.006792
     10          6           0       -5.036886   -0.325455   -1.258889
     11          6           0       -5.019404   -0.329634    1.278972
     12          1           0       -0.165985    2.247188   -0.005513
     13          1           0       -2.622987    2.357995    0.002454
     14          1           0       -2.816929   -1.943869   -0.009788
     15          1           0       -0.365851   -2.055658   -0.017777
     16          1           0       -4.713527    1.371614    0.010782
     17          1           0       -4.813086   -1.402408   -1.318058
     18          1           0       -4.639377    0.159759   -2.164751
     19          1           0       -6.132817   -0.205003   -1.260869
     20          1           0       -4.794903   -1.406777    1.331568
     21          1           0       -6.115158   -0.208992    1.296923
     22          1           0       -4.609071    0.152416    2.180832
 ---------------------------------------------------------------------
 Rotational constants (GHZ):      3.2553199      0.1679942      0.1655058
 Leave Link  202 at Sun Oct  3 09:10:39 2021, MaxMem=  805306368 cpu:       0.0
 (Enter /sw/target/amd/app/gaussian/Gaussian09RevA.02_gcc-4.9.2/g09/l301.exe)
 Standard basis: 6-31G(d) (6D, 7F)
 Ernie: Thresh=  0.10000D-02 Tol=  0.10000D-05 Strict=F.
 There are   206 symmetry adapted basis functions of A   symmetry.
 Integral buffers will be    131072 words long.
 Raffenetti 2 integral format.
 Two-electron integral symmetry is turned on.
   206 basis functions,   431 primitive gaussians,   206 cartesian basis functions
    56 alpha electrons       56 beta electrons
       nuclear repulsion energy       769.7568298424 Hartrees.
 IExCor=  402 DFT=T Ex+Corr=B3LYP ExCW=0 ScaHFX=  0.200000
 ScaDFX=  0.800000  0.720000  1.000000  0.810000 ScalE2=  1.000000  1.000000
 IRadAn=      0 IRanWt=     -1 IRanGd=            0 ICorTp=0
 NAtoms=   22 NActive=   22 NUniq=   22 SFac= 7.50D-01 NAtFMM=   80 NAOKFM=F Big=F
 Leave Link  301 at Sun Oct  3 09:10:39 2021, MaxMem=  805306368 cpu:       0.1
 (Enter /sw/target/amd/app/gaussian/Gaussian09RevA.02_gcc-4.9.2/g09/l302.exe)
 NPDir=0 NMtPBC=     1 NCelOv=     1 NCel=       1 NClECP=     1 NCelD=      1
         NCelK=      1 NCelE2=     1 NClLst=     1 CellRange=     0.0.
 One-electron integrals computed using PRISM.
 NBasis=   206 RedAO= T  NBF=   206
 NBsUse=   206 1.00D-06 NBFU=   206
 Precomputing XC quadrature grid using
 IXCGrd= 2 IRadAn=           0 IRanWt=          -1 IRanGd=           0 AccXCQ= 1.00D-10.
 NRdTot=    1411 NPtTot=      183012 NUsed=      193188 NTot=      193220
 NSgBfM=   200   200   200   200   200 NAtAll=    22    22.
 Leave Link  302 at Sun Oct  3 09:10:44 2021, MaxMem=  805306368 cpu:       1.4
 (Enter /sw/target/amd/app/gaussian/Gaussian09RevA.02_gcc-4.9.2/g09/l303.exe)
 DipDrv:  MaxL=1.
 Leave Link  303 at Sun Oct  3 09:10:45 2021, MaxMem=  805306368 cpu:       0.2
 (Enter /sw/target/amd/app/gaussian/Gaussian09RevA.02_gcc-4.9.2/g09/l401.exe)
 Initial guess read from the read-write file.
 B after Tr=     0.000000    0.000000    0.000000
         Rot=    1.000000    0.000000    0.000000    0.000000 Ang=   0.00 deg.
 Guess basis will be translated and rotated to current coordinates.
 Initial guess orbital symmetries:
       Occupied  (A) (A) (A) (A) (A) (A) (A) (A) (A) (A) (A) (A)
                 (A) (A) (A) (A) (A) (A) (A) (A) (A) (A) (A) (A)
                 (A) (A) (A) (A) (A) (A) (A) (A) (A) (A) (A) (A)
                 (A) (A) (A) (A) (A) (A) (A) (A) (A) (A) (A) (A)
                 (A) (A) (A) (A) (A) (A) (A) (A)
       Virtual   (A) (A) (A) (A) (A) (A) (A) (A) (A) (A) (A) (A)
[...]
    12  H   -0.000000   0.000000  -0.000000   0.000001
    13  H   -0.000016   0.000005  -0.000016   0.000061
    14  H   -0.000090   0.002538  -0.000090   0.000065
    15  H   -0.000000   0.000005  -0.000000   0.000001
    16  H   -0.003784   0.005138  -0.003785  -0.002968
    17  H   -0.027675   0.003942  -0.000234  -0.000025
    18  H   -0.026895  -0.000025   0.000001  -0.000165
    19  H    0.536290  -0.000234   0.003815   0.000001
    20  H   -0.000234   0.553080  -0.027675  -0.029086
    21  H    0.003815  -0.027675   0.536296  -0.026895
    22  H    0.000001  -0.029086  -0.026895   0.544372
 Mulliken atomic charges:
              1
     1  Br  -0.261626
     2  Mg  -0.090521
     3  C    0.030262
     4  C   -0.154636
     5  C   -0.161456
     6  C    0.211261
     7  C   -0.143173
     8  C   -0.167150
     9  C   -0.178100
    10  C   -0.450003
    11  C   -0.450008
    12  H    0.169545
    13  H    0.159857
    14  H    0.161555
    15  H    0.166446
    16  H    0.157133
    17  H    0.160701
    18  H    0.168335
    19  H    0.171278
    20  H    0.160696
    21  H    0.171274
    22  H    0.168330
 Sum of Mulliken atomic charges =   0.00000
 Mulliken charges with hydrogens summed into heavy atoms:
              1
     1  Br  -0.261626
     2  Mg  -0.090521
     3  C    0.030262
     4  C    0.014909
     5  C   -0.001599
     6  C    0.211261
     7  C    0.018382
     8  C   -0.000705
     9  C   -0.020967
    10  C    0.050312
    11  C    0.050293
 Sum of Mulliken charges with hydrogens summed into heavy atoms =   0.00000
 Electronic spatial extent (au):  <R**2>=           5736.0978
 Charge=              0.0000 electrons
 Dipole moment (field-independent basis, Debye):
    X=             15.4078    Y=              0.4063    Z=             -0.0004  Tot=             15.4131
 Quadrupole moment (field-independent basis, Debye-Ang):
   XX=            -99.0875   YY=            -80.3828   ZZ=            -87.1360
   XY=             -0.3015   XZ=              0.0045   YZ=              0.0011
 Traceless Quadrupole moment (field-independent basis, Debye-Ang):
   XX=            -10.2187   YY=              8.4859   ZZ=              1.7328
   XY=             -0.3015   XZ=              0.0045   YZ=              0.0011
 Octapole moment (field-independent basis, Debye-Ang**2):
  XXX=            181.0364  YYY=             -0.2197  ZZZ=              0.0247  XYY=            -18.7010
  XXY=              2.1007  XXZ=              0.0153  XZZ=            -27.3241  YZZ=             -0.5769
  YYZ=              0.0029  XYZ=              0.0015
 Hexadecapole moment (field-independent basis, Debye-Ang**3):
 XXXX=          -6245.9067 YYYY=           -386.1270 ZZZZ=           -296.5412 XXXY=              6.1819
 XXXZ=              0.0470 YYYX=             12.2186 YYYZ=              0.0061 ZZZX=             -0.0550
 ZZZY=             -0.0017 XXYY=          -1090.2022 XXZZ=          -1080.0413 YYZZ=           -124.9661
 XXYZ=              0.0031 YYXZ=             -0.0228 ZZXY=              5.1430
 N-N= 7.796328448051D+02 E-N=-8.980857164910D+03  KE= 3.101554949062D+03
 No NMR shielding tensors so no spin-rotation constants.
 Leave Link  601 at Sun Oct  3 15:26:34 2021, MaxMem=  805306368 cpu:       0.9
 (Enter /sw/target/amd/app/gaussian/Gaussian09RevA.02_gcc-4.9.2/g09/l604.exe)
 Evaluate density.
 Using the total density.
 Monte-Carlo method of calculating molar volume:
 based on  0.001 e/bohr**3 density envelope.
 Number of points per bohr**3 =   20 CutOff= 1.00D-04
 Using the CI density.
 There are       539 points.  Will hold       539 in memory.
 LenV=   805150536 MDV=   805306368.
 Box volume =19606.011 fraction occupied=0.080
 Integrated density= 4.6281070051595847D+01 error=-6.5718929948404153D+01
 Molar volume = 1564.116 bohr**3/mol (139.580 cm**3/mol)
 Recommended a0 for SCRF calculation =  4.69 angstrom (  8.87 bohr)
 Leave Link  604 at Sun Oct  3 15:26:35 2021, MaxMem=  805306368 cpu:       0.3
 (Enter /sw/target/amd/app/gaussian/Gaussian09RevA.02_gcc-4.9.2/g09/l607.exe)
 ******************************Gaussian NBO Version 3.1******************************
             N A T U R A L   A T O M I C   O R B I T A L   A N D
          N A T U R A L   B O N D   O R B I T A L   A N A L Y S I S
 ******************************Gaussian NBO Version 3.1******************************
       /RESON  / : Allow strongly delocalized NBO set

 Analyzing the CI density

 Job title: Br[Mg]c1ccc(cc1)C(C)C_conf_0                                    

 Storage needed:    128988 in NPA ( 805303728 available)


 NATURAL POPULATIONS:  Natural atomic orbital occupancies 
                                                          
   NAO  Atom  No  lang   Type(AO)    Occupancy
 --------------------------------------------
     1   Br    1  S      Cor( 1S)     2.00000
     2   Br    1  S      Cor( 2S)     1.99996
     3   Br    1  S      Cor( 3S)     1.99989
     4   Br    1  S      Val( 4S)     1.94259
     5   Br    1  S      Ryd( 5S)     0.00265
     6   Br    1  S      Ryd( 6S)     0.00002
     7   Br    1  S      Ryd( 8S)     0.00000
     8   Br    1  S      Ryd( 7S)     0.00000
     9   Br    1  px     Cor( 3p)     1.99997
    10   Br    1  px     Cor( 2p)     1.99997
    11   Br    1  px     Val( 4p)     1.85094
    12   Br    1  px     Ryd( 5p)     0.00057
    13   Br    1  py     Cor( 2p)     2.00000
    14   Br    1  py     Cor( 3p)     2.00000
    15   Br    1  py     Val( 4p)     1.92925
    16   Br    1  py     Ryd( 5p)     0.00000
    17   Br    1  pz     Cor( 2p)     2.00000
    18   Br    1  pz     Cor( 3p)     1.99999
    19   Br    1  pz     Val( 4p)     1.92360
    20   Br    1  pz     Ryd( 5p)     0.00000
    21   Br    1  dxy    Cor( 3d)     1.99999
    22   Br    1  dxy    Ryd( 4d)     0.00110
    23   Br    1  dxz    Cor( 3d)     1.99999
    24   Br    1  dxz    Ryd( 4d)     0.00110
    25   Br    1  dyz    Cor( 3d)     2.00000
    26   Br    1  dyz    Ryd( 4d)     0.00001
    27   Br    1  dx2y2  Cor( 3d)     1.99998
    28   Br    1  dx2y2  Ryd( 4d)     0.00374
    29   Br    1  dz2    Cor( 3d)     1.99999
    30   Br    1  dz2    Ryd( 4d)     0.00126

    31   Mg    2  S      Cor( 1S)     2.00000
    32   Mg    2  S      Cor( 2S)     1.99944
    33   Mg    2  S      Val( 3S)     1.11766
    34   Mg    2  S      Ryd( 4S)     0.02003
    35   Mg    2  S      Ryd( 5S)     0.00034
    36   Mg    2  px     Cor( 2p)     1.99944
    37   Mg    2  px     Val( 3p)     0.11328
    38   Mg    2  px     Ryd( 4p)     0.00243
    39   Mg    2  py     Cor( 2p)     1.99978
    40   Mg    2  py     Val( 3p)     0.06859
    41   Mg    2  py     Ryd( 4p)     0.00016
    42   Mg    2  pz     Cor( 2p)     1.99974
    43   Mg    2  pz     Val( 3p)     0.05348
    44   Mg    2  pz     Ryd( 4p)     0.00020
    45   Mg    2  dxy    Ryd( 3d)     0.00175
    46   Mg    2  dxz    Ryd( 3d)     0.00124
    47   Mg    2  dyz    Ryd( 3d)     0.00001
    48   Mg    2  dx2y2  Ryd( 3d)     0.00256
    49   Mg    2  dz2    Ryd( 3d)     0.00060

    50    C    3  S      Cor( 1S)     1.99930
    51    C    3  S      Val( 2S)     1.20126
    52    C    3  S      Ryd( 3S)     0.00709
    53    C    3  S      Ryd( 4S)     0.00002
    54    C    3  px     Val( 2p)     1.55228
    55    C    3  px     Ryd( 3p)     0.01481
    56    C    3  py     Val( 2p)     0.98021
    57    C    3  py     Ryd( 3p)     0.00814
    58    C    3  pz     Val( 2p)     0.56842
    59    C    3  pz     Ryd( 3p)     0.00088
    60    C    3  dxy    Ryd( 3d)     0.00112
    61    C    3  dxz    Ryd( 3d)     0.00066
    62    C    3  dyz    Ryd( 3d)     0.00042
    63    C    3  dx2y2  Ryd( 3d)     0.00028
    64    C    3  dz2    Ryd( 3d)     0.00043

    65    C    4  S      Cor( 1S)     1.99917
    66    C    4  S      Val( 2S)     0.98993
    67    C    4  S      Ryd( 3S)     0.00120
    68    C    4  S      Ryd( 4S)     0.00004
    69    C    4  px     Val( 2p)     1.09127
    70    C    4  px     Ryd( 3p)     0.00434
    71    C    4  py     Val( 2p)     1.19506
    72    C    4  py     Ryd( 3p)     0.00678
    73    C    4  pz     Val( 2p)     0.89826
    74    C    4  pz     Ryd( 3p)     0.00032
    75    C    4  dxy    Ryd( 3d)     0.00099
    76    C    4  dxz    Ryd( 3d)     0.00040
    77    C    4  dyz    Ryd( 3d)     0.00032
    78    C    4  dx2y2  Ryd( 3d)     0.00095
    79    C    4  dz2    Ryd( 3d)     0.00041

    80    C    5  S      Cor( 1S)     1.99904
    81    C    5  S      Val( 2S)     0.97294
    82    C    5  S      Ryd( 3S)     0.00068
    83    C    5  S      Ryd( 4S)     0.00003
    84    C    5  px     Val( 2p)     1.10941
    85    C    5  px     Ryd( 3p)     0.00428
    86    C    5  py     Val( 2p)     1.16542
    87    C    5  py     Ryd( 3p)     0.00512
    88    C    5  pz     Val( 2p)     0.96420
    89    C    5  pz     Ryd( 3p)     0.00054
    90    C    5  dxy    Ryd( 3d)     0.00096
    91    C    5  dxz    Ryd( 3d)     0.00038
    92    C    5  dyz    Ryd( 3d)     0.00037
    93    C    5  dx2y2  Ryd( 3d)     0.00066
    94    C    5  dz2    Ryd( 3d)     0.00040

    95    C    6  S      Cor( 1S)     1.99901
    96    C    6  S      Val( 2S)     0.90830
    97    C    6  S      Ryd( 3S)     0.00152
    98    C    6  S      Ryd( 4S)     0.00005
    99    C    6  px     Val( 2p)     1.07201
   100    C    6  px     Ryd( 3p)     0.00554
   101    C    6  py     Val( 2p)     1.08321
   102    C    6  py     Ryd( 3p)     0.00454
   103    C    6  pz     Val( 2p)     0.77325
   104    C    6  pz     Ryd( 3p)     0.00235
   105    C    6  dxy    Ryd( 3d)     0.00096
   106    C    6  dxz    Ryd( 3d)     0.00067
   107    C    6  dyz    Ryd( 3d)     0.00069
   108    C    6  dx2y2  Ryd( 3d)     0.00074
   109    C    6  dz2    Ryd( 3d)     0.00035

   110    C    7  S      Cor( 1S)     1.99903
   111    C    7  S      Val( 2S)     0.97214
   112    C    7  S      Ryd( 3S)     0.00069
   113    C    7  S      Ryd( 4S)     0.00004
   114    C    7  px     Val( 2p)     1.12210
   115    C    7  px     Ryd( 3p)     0.00424
   116    C    7  py     Val( 2p)     1.15711
   117    C    7  py     Ryd( 3p)     0.00464
   118    C    7  pz     Val( 2p)     0.93924
   119    C    7  pz     Ryd( 3p)     0.00046
   120    C    7  dxy    Ryd( 3d)     0.00100
   121    C    7  dxz    Ryd( 3d)     0.00042
   122    C    7  dyz    Ryd( 3d)     0.00036
   123    C    7  dx2y2  Ryd( 3d)     0.00062
   124    C    7  dz2    Ryd( 3d)     0.00041

   125    C    8  S      Cor( 1S)     1.99918
   126    C    8  S      Val( 2S)     0.98712
   127    C    8  S      Ryd( 3S)     0.00125
   128    C    8  S      Ryd( 4S)     0.00004
   129    C    8  px     Val( 2p)     1.08310
   130    C    8  px     Ryd( 3p)     0.00450
   131    C    8  py     Val( 2p)     1.20504
   132    C    8  py     Ryd( 3p)     0.00696
   133    C    8  pz     Val( 2p)     0.92953
   134    C    8  pz     Ryd( 3p)     0.00035
   135    C    8  dxy    Ryd( 3d)     0.00088
   136    C    8  dxz    Ryd( 3d)     0.00038
   137    C    8  dyz    Ryd( 3d)     0.00031
   138    C    8  dx2y2  Ryd( 3d)     0.00104
   139    C    8  dz2    Ryd( 3d)     0.00041

   140    C    9  S      Cor( 1S)     1.99919
   141    C    9  S      Val( 2S)     0.97767
   142    C    9  S      Ryd( 3S)     0.00079
   143    C    9  S      Ryd( 4S)     0.00002
   144    C    9  px     Val( 2p)     1.02948
   145    C    9  px     Ryd( 3p)     0.00154
   146    C    9  py     Val( 2p)     1.21418
   147    C    9  py     Ryd( 3p)     0.00564
   148    C    9  pz     Val( 2p)     1.05405
   149    C    9  pz     Ryd( 3p)     0.00132
   150    C    9  dxy    Ryd( 3d)     0.00038
   151    C    9  dxz    Ryd( 3d)     0.00054
   152    C    9  dyz    Ryd( 3d)     0.00055
   153    C    9  dx2y2  Ryd( 3d)     0.00122
   154    C    9  dz2    Ryd( 3d)     0.00100

   155    C   10  S      Cor( 1S)     1.99940
   156    C   10  S      Val( 2S)     1.10311
   157    C   10  S      Ryd( 3S)     0.00042
   158    C   10  S      Ryd( 4S)     0.00002
   159    C   10  px     Val( 2p)     1.22239
   160    C   10  px     Ryd( 3p)     0.00180
   161    C   10  py     Val( 2p)     1.21669
   162    C   10  py     Ryd( 3p)     0.00143
   163    C   10  pz     Val( 2p)     1.11833
   164    C   10  pz     Ryd( 3p)     0.00178
   165    C   10  dxy    Ryd( 3d)     0.00026
   166    C   10  dxz    Ryd( 3d)     0.00047
   167    C   10  dyz    Ryd( 3d)     0.00053
   168    C   10  dx2y2  Ryd( 3d)     0.00116
   169    C   10  dz2    Ryd( 3d)     0.00089

   170    C   11  S      Cor( 1S)     1.99940
   171    C   11  S      Val( 2S)     1.10311
   172    C   11  S      Ryd( 3S)     0.00042
   173    C   11  S      Ryd( 4S)     0.00002
   174    C   11  px     Val( 2p)     1.22229
   175    C   11  px     Ryd( 3p)     0.00180
   176    C   11  py     Val( 2p)     1.21670
   177    C   11  py     Ryd( 3p)     0.00143
   178    C   11  pz     Val( 2p)     1.11844
   179    C   11  pz     Ryd( 3p)     0.00178
   180    C   11  dxy    Ryd( 3d)     0.00026
   181    C   11  dxz    Ryd( 3d)     0.00047
   182    C   11  dyz    Ryd( 3d)     0.00053
   183    C   11  dx2y2  Ryd( 3d)     0.00116
   184    C   11  dz2    Ryd( 3d)     0.00089

   185    H   12  S      Val( 1S)     0.75624
   186    H   12  S      Ryd( 2S)     0.00254

   187    H   13  S      Val( 1S)     0.75290
   188    H   13  S      Ryd( 2S)     0.00124

   189    H   14  S      Val( 1S)     0.75459
   190    H   14  S      Ryd( 2S)     0.00126

   191    H   15  S      Val( 1S)     0.75562
   192    H   15  S      Ryd( 2S)     0.00245

   193    H   16  S      Val( 1S)     0.74152
   194    H   16  S      Ryd( 2S)     0.00189

   195    H   17  S      Val( 1S)     0.76530
   196    H   17  S      Ryd( 2S)     0.00092

   197    H   18  S      Val( 1S)     0.75399
   198    H   18  S      Ryd( 2S)     0.00074

   199    H   19  S      Val( 1S)     0.74970
   200    H   19  S      Ryd( 2S)     0.00065

   201    H   20  S      Val( 1S)     0.76530
   202    H   20  S      Ryd( 2S)     0.00092

   203    H   21  S      Val( 1S)     0.74970
   204    H   21  S      Ryd( 2S)     0.00065

   205    H   22  S      Val( 1S)     0.75399
   206    H   22  S      Ryd( 2S)     0.00074


 Summary of Natural Population Analysis:                  
                                                          
                                       Natural Population 
                Natural  -----------------------------------------------
    Atom  No    Charge         Core      Valence    Rydberg      Total
 -----------------------------------------------------------------------
     Br    1   -0.65658     27.99973     7.64638    0.01046    35.65658
     Mg    2    0.61929      9.99840     1.35300    0.02930    11.38071
      C    3   -0.33530      1.99930     4.30217    0.03383     6.33530
      C    4   -0.18945      1.99917     4.17453    0.01575     6.18945
      C    5   -0.22443      1.99904     4.21197    0.01343     6.22443
      C    6    0.14680      1.99901     3.83676    0.01743     5.85320
      C    7   -0.20249      1.99903     4.19058    0.01288     6.20249
      C    8   -0.22006      1.99918     4.20478    0.01611     6.22006
      C    9   -0.28758      1.99919     4.27538    0.01300     6.28758
      C   10   -0.66869      1.99940     4.66053    0.00876     6.66869
      C   11   -0.66870      1.99940     4.66054    0.00876     6.66870
      H   12    0.24122      0.00000     0.75624    0.00254     0.75878
      H   13    0.24586      0.00000     0.75290    0.00124     0.75414
      H   14    0.24415      0.00000     0.75459    0.00126     0.75585
      H   15    0.24193      0.00000     0.75562    0.00245     0.75807
      H   16    0.25659      0.00000     0.74152    0.00189     0.74341
      H   17    0.23378      0.00000     0.76530    0.00092     0.76622
      H   18    0.24527      0.00000     0.75399    0.00074     0.75473
      H   19    0.24965      0.00000     0.74970    0.00065     0.75035
      H   20    0.23378      0.00000     0.76530    0.00092     0.76622
      H   21    0.24965      0.00000     0.74970    0.00065     0.75035
      H   22    0.24527      0.00000     0.75399    0.00074     0.75473
 =======================================================================
   * Total *   -0.00004     55.99087    55.81546    0.19371   112.00004

                                 Natural Population      
 --------------------------------------------------------
   Core                      55.99087 ( 99.9837% of  56)
   Valence                   55.81546 ( 99.6705% of  56)
   Natural Minimal Basis    111.80633 ( 99.8271% of 112)
   Natural Rydberg Basis      0.19371 (  0.1730% of 112)
 --------------------------------------------------------

    Atom  No          Natural Electron Configuration
 ----------------------------------------------------------------------------
     Br    1      [core]4S( 1.94)4p( 5.70)4d( 0.01)
     Mg    2      [core]3S( 1.12)3p( 0.24)4S( 0.02)3d( 0.01)
      C    3      [core]2S( 1.20)2p( 3.10)3S( 0.01)3p( 0.02)
      C    4      [core]2S( 0.99)2p( 3.18)3p( 0.01)
      C    5      [core]2S( 0.97)2p( 3.24)3p( 0.01)
      C    6      [core]2S( 0.91)2p( 2.93)3p( 0.01)
      C    7      [core]2S( 0.97)2p( 3.22)3p( 0.01)
      C    8      [core]2S( 0.99)2p( 3.22)3p( 0.01)
      C    9      [core]2S( 0.98)2p( 3.30)3p( 0.01)
      C   10      [core]2S( 1.10)2p( 3.56)3p( 0.01)
      C   11      [core]2S( 1.10)2p( 3.56)3p( 0.01)
      H   12            1S( 0.76)
      H   13            1S( 0.75)
      H   14            1S( 0.75)
      H   15            1S( 0.76)
      H   16            1S( 0.74)
      H   17            1S( 0.77)
      H   18            1S( 0.75)
      H   19            1S( 0.75)
      H   20            1S( 0.77)
      H   21            1S( 0.75)
      H   22            1S( 0.75)


 NBO analysis skipped by request.
 Leave Link  607 at Sun Oct  3 15:27:18 2021, MaxMem=  805306368 cpu:      11.3
 (Enter /sw/target/amd/app/gaussian/Gaussian09RevA.02_gcc-4.9.2/g09/l9999.exe)
 1\1\GINC-HERMITE\SP\RTD-B3LYP-FC\6-31G(d)\C9H11Br1Mg1\JSCHLEINITZ\03-O
 ct-2021\0\\#p TD(NStates=10, Root=1) b3lyp/6-31G* volume pop=NPA densi
 ty=current Geom=AllCheck Guess=Read\\Br[Mg]c1ccc(cc1)C(C)C_conf_0\\0,1
 \Br,0,1.2368964458,0.0423723044,-0.0273919217\Mg,0,3.5711933618,0.0542
 647324,-0.053749367\C,0,5.6419620675,0.0633209969,-0.0763145012\C,0,6.
 3800249138,1.2077288601,-0.4393961756\C,0,7.7769494393,1.2149177686,-0
 .4540959477\C,0,8.5115871452,0.0756856533,-0.1057567919\C,0,7.79440045
 88,-1.0730942087,0.2584169712\C,0,6.3993615677,-1.075571679,0.27163573
 54\C,0,10.0339983585,0.0928595796,-0.1246498642\C,0,10.6275076097,-0.1
 505629325,1.2760434912\C,0,10.6059991381,-0.9061376986,-1.1484935779\H
 ,0,5.8681362595,2.1280051836,-0.72156943\H,0,8.3061400887,2.1221338606
 ,-0.7414365537\H,0,8.3295545197,-1.9790419156,0.5357794175\H,0,5.90009
 26985,-1.9996797567,0.5638402627\H,0,10.3409989713,1.0992965266,-0.441
 01721\H,0,10.3718751106,-1.1496190035,1.6487238899\H,0,10.2509188141,0
 .5814936609,1.9987430539\H,0,11.7211839482,-0.0747053083,1.2507374061\
 H,0,10.3494875605,-1.938761112,-0.8834588346\H,0,11.6995405867,-0.8347
 93313,-1.1884981227\H,0,10.2140385573,-0.712362075,-2.1529030941\\Vers
 ion=AM64L-G09RevA.02\State=1-A\HF=-3121.4609983\RMSD=6.436e-09\Dipole=
 6.0635851,-0.0592887,-0.0379323\Quadrupole=-7.5958617,5.8629707,1.7328
 91,0.2598419,0.0049923,-1.4274921\PG=C01 [X(C9H11Br1Mg1)]\\@


 THIS CURIOUS WORLD WHICH WE INHABIT IS MORE WONDERFUL THAN IT IS CONVENIENT;
 MORE BEAUTIFUL THAN IT IS USEFUL;
 IT IS MORE TO BE ADMIRED THAN IT IS TO BE USED.

                                                                 -- THOREAU
 Job cpu time:  0 days  1 hours 18 minutes 44.5 seconds.
 File lengths (MBytes):  RWF=    106 Int=      0 D2E=      0 Chk=     19 Scr=      1
 Normal termination of Gaussian 09 at Sun Oct  3 15:27:47 2021.
