 Entering Gaussian System, Link 0=g09
 Input=C9H12O_83e4_conf_0.com
 Output=C9H12O_83e4_conf_0.log
 Initial command:
 /sw/target/amd/app/gaussian/Gaussian09RevA.02_gcc-4.9.2/g09/l1.exe /home/jschleinitz/gaussian/Gau-3301336.inp -scrdir=/home/jschleinitz/gaussian/
 Entering Link 1 = /sw/target/amd/app/gaussian/Gaussian09RevA.02_gcc-4.9.2/g09/l1.exe PID=   3301390.
  
 Copyright (c) 1988,1990,1992,1993,1995,1998,2003,2009, Gaussian, Inc.
                  All Rights Reserved.
  
 This is part of the Gaussian(R) 09 program.  It is based on
 the Gaussian(R) 03 system (copyright 2003, Gaussian, Inc.),
 the Gaussian(R) 98 system (copyright 1998, Gaussian, Inc.),
 the Gaussian(R) 94 system (copyright 1995, Gaussian, Inc.),
 the Gaussian 92(TM) system (copyright 1992, Gaussian, Inc.),
 the Gaussian 90(TM) system (copyright 1990, Gaussian, Inc.),
 the Gaussian 88(TM) system (copyright 1988, Gaussian, Inc.),
 the Gaussian 86(TM) system (copyright 1986, Carnegie Mellon
 University), and the Gaussian 82(TM) system (copyright 1983,
 Carnegie Mellon University). Gaussian is a federally registered
 trademark of Gaussian, Inc.
  
 This software contains proprietary and confidential information,
 including trade secrets, belonging to Gaussian, Inc.
  
 This software is provided under written license and may be
 used, copied, transmitted, or stored only in accord with that
 written license.
  
 The following legend is applicable only to US Government
 contracts under FAR:
  
                    RESTRICTED RIGHTS LEGEND
  
 Use, reproduction and disclosure by the US Government is
 subject to restrictions as set forth in subparagraphs (a)
 and (c) of the Commercial Computer Software - Restricted
 Rights clause in FAR 52.227-19.
  
 Gaussian, Inc.
 340 Quinnipiac St., Bldg. 40, Wallingford CT 06492
  
  
 ---------------------------------------------------------------
 Warning -- This program may not be used in any manner that
 competes with the business of Gaussian, Inc. or will provide
 assistance to any competitor of Gaussian, Inc.  The licensee
 of this program is prohibited from giving any competitor of
 Gaussian, Inc. access to this program.  By using this program,
 the user acknowledges that Gaussian, Inc. is engaged in the
 business of creating and licensing software in the field of
 computational chemistry and represents and warrants to the
 licensee that it is not a competitor of Gaussian, Inc. and that
 it will not use this program in any manner prohibited above.
 ---------------------------------------------------------------
  

 Cite this work as:
 Gaussian 09, Revision A.02,
 M. J. Frisch, G. W. Trucks, H. B. Schlegel, G. E. Scuseria, 
 M. A. Robb, J. R. Cheeseman, G. Scalmani, V. Barone, B. Mennucci, 
 G. A. Petersson, H. Nakatsuji, M. Caricato, X. Li, H. P. Hratchian, 
 A. F. Izmaylov, J. Bloino, G. Zheng, J. L. Sonnenberg, M. Hada, 
 M. Ehara, K. Toyota, R. Fukuda, J. Hasegawa, M. Ishida, T. Nakajima, 
 Y. Honda, O. Kitao, H. Nakai, T. Vreven, J. A. Montgomery, Jr., 
 J. E. Peralta, F. Ogliaro, M. Bearpark, J. J. Heyd, E. Brothers, 
 K. N. Kudin, V. N. Staroverov, R. Kobayashi, J. Normand, 
 K. Raghavachari, A. Rendell, J. C. Burant, S. S. Iyengar, J. Tomasi, 
 M. Cossi, N. Rega, J. M. Millam, M. Klene, J. E. Knox, J. B. Cross, 
 V. Bakken, C. Adamo, J. Jaramillo, R. Gomperts, R. E. Stratmann, 
 O. Yazyev, A. J. Austin, R. Cammi, C. Pomelli, J. W. Ochterski, 
 R. L. Martin, K. Morokuma, V. G. Zakrzewski, G. A. Voth, 
 P. Salvador, J. J. Dannenberg, S. Dapprich, A. D. Daniels, 
 O. Farkas, J. B. Foresman, J. V. Ortiz, J. Cioslowski, 
 and D. J. Fox, Gaussian, Inc., Wallingford CT, 2009.
 
 ******************************************
 Gaussian 09:  AM64L-G09RevA.02 11-Jun-2009
                28-Sep-2021 
 ******************************************
 %nproc=3
 Will use up to    3 processors via shared memory.
 %mem=6gb
 %chk=C9H12O_83e4_conf_0.chk
 -----------------------------------
 #p opt b3lyp/6-31G* scf=(xqc,tight)
 -----------------------------------
 1/14=-1,18=20,19=15,26=3,38=1/1,3;
 2/9=110,12=2,17=6,18=5,40=1/2;
 3/5=1,6=6,7=1,11=2,16=1,25=1,30=1,71=1,74=-5/1,2,3;
 4//1;
 5/5=2,8=3,13=1,32=2,38=5/2,8;
 6/7=2,8=2,9=2,10=2,28=1/1;
 7//1,2,3,16;
 1/14=-1,18=20,19=15/3(2);
 2/9=110/2;
 99//99;
 2/9=110/2;
 3/5=1,6=6,7=1,11=2,16=1,25=1,30=1,71=1,74=-5/1,2,3;
 4/5=5,16=3/1;
 5/5=2,8=3,13=1,32=2,38=5/2,8;
 7//1,2,3,16;
 1/14=-1,18=20,19=15/3(-5);
 2/9=110/2;
 6/7=2,8=2,9=2,10=2,19=2,28=1/1;
 99/9=1/99;
 Leave Link    1 at Tue Sep 28 15:18:40 2021, MaxMem=  805306368 cpu:       0.1
 (Enter /sw/target/amd/app/gaussian/Gaussian09RevA.02_gcc-4.9.2/g09/l101.exe)
 -----------------------
 COc1cc(C)cc(c1)C_conf_0
 -----------------------
 Symbolic Z-matrix:
 Charge =  0 Multiplicity = 1
 C                     2.3253    0.71591  -1.29476 
 O                     2.17835   0.20521   0.02395 
 C                     2.96455   0.76736   0.99274 
 C                     2.65475   0.37327   2.29704 
 C                     3.37505   0.86865   3.39026 
 C                     3.02757   0.46044   4.79072 
 C                     4.41977   1.77245   3.16255 
 C                     4.74542   2.1749    1.86166 
 C                     4.01546   1.66105   0.77863 
 C                     5.87912   3.12645   1.61365 
 H                     1.5758    0.22972  -1.92668 
 H                     3.31193   0.47415  -1.70299 
 H                     2.13708   1.79446  -1.32578 
 H                     1.83671  -0.32671   2.45361 
 H                     2.25728  -0.31769   4.80311 
 H                     2.64812   1.32192   5.34947 
 H                     3.91105   0.06169   5.29965 
 H                     4.98247   2.16357   4.00808 
 H                     4.29208   1.97293  -0.22313 
 H                     6.26275   3.54642   2.54927 
 H                     5.54376   3.9613    0.98967 
 H                     6.70105   2.60783   1.11015 
 
 NAtoms=     22 NQM=     22 NQMF=      0 NMic=      0 NMicF=      0 NTot=     22.
                    Isotopes and Nuclear Properties:
 (Nuclear quadrupole moments (NQMom) in fm**2, nuclear magnetic moments (NMagM)
  in nuclear magnetons)

  Atom         1           2           3           4           5           6           7           8           9          10
 IAtWgt=          12          16          12          12          12          12          12          12          12          12
 AtmWgt=  12.0000000  15.9949146  12.0000000  12.0000000  12.0000000  12.0000000  12.0000000  12.0000000  12.0000000  12.0000000
 NucSpn=           0           0           0           0           0           0           0           0           0           0
 AtZEff=   0.0000000   0.0000000   0.0000000   0.0000000   0.0000000   0.0000000   0.0000000   0.0000000   0.0000000   0.0000000
 NQMom=    0.0000000   0.0000000   0.0000000   0.0000000   0.0000000   0.0000000   0.0000000   0.0000000   0.0000000   0.0000000
 NMagM=    0.0000000   0.0000000   0.0000000   0.0000000   0.0000000   0.0000000   0.0000000   0.0000000   0.0000000   0.0000000

  Atom        11          12          13          14          15          16          17          18          19          20
 IAtWgt=           1           1           1           1           1           1           1           1           1           1
 AtmWgt=   1.0078250   1.0078250   1.0078250   1.0078250   1.0078250   1.0078250   1.0078250   1.0078250   1.0078250   1.0078250
 NucSpn=           1           1           1           1           1           1           1           1           1           1
 AtZEff=   0.0000000   0.0000000   0.0000000   0.0000000   0.0000000   0.0000000   0.0000000   0.0000000   0.0000000   0.0000000
 NQMom=    0.0000000   0.0000000   0.0000000   0.0000000   0.0000000   0.0000000   0.0000000   0.0000000   0.0000000   0.0000000
 NMagM=    2.7928460   2.7928460   2.7928460   2.7928460   2.7928460   2.7928460   2.7928460   2.7928460   2.7928460   2.7928460

  Atom        21          22
 IAtWgt=           1           1
 AtmWgt=   1.0078250   1.0078250
 NucSpn=           1           1
 AtZEff=   0.0000000   0.0000000
 NQMom=    0.0000000   0.0000000
 NMagM=    2.7928460   2.7928460
 Leave Link  101 at Tue Sep 28 15:18:40 2021, MaxMem=  805306368 cpu:       0.3
 (Enter /sw/target/amd/app/gaussian/Gaussian09RevA.02_gcc-4.9.2/g09/l103.exe)

 GradGradGradGradGradGradGradGradGradGradGradGradGradGradGradGradGradGrad
 Berny optimization.
 Initialization pass.
                           ----------------------------
                           !    Initial Parameters    !
                           ! (Angstroms and Degrees)  !
 --------------------------                            --------------------------
 ! Name  Definition              Value          Derivative Info.                !
 --------------------------------------------------------------------------------
 ! R1    R(1,2)                  1.4218         estimate D2E/DX2                !
 ! R2    R(1,11)                 1.0943         estimate D2E/DX2                !
 ! R3    R(1,12)                 1.0948         estimate D2E/DX2                !
 ! R4    R(1,13)                 1.0953         estimate D2E/DX2                !
 ! R5    R(2,3)                  1.3685         estimate D2E/DX2                !
 ! R6    R(3,4)                  1.3973         estimate D2E/DX2                !
 ! R7    R(3,9)                  1.396          estimate D2E/DX2                !
 ! R8    R(4,5)                  1.3998         estimate D2E/DX2                !
 ! R9    R(4,14)                 1.088          estimate D2E/DX2                !
 ! R10   R(5,6)                  1.4996         estimate D2E/DX2                !
 ! R11   R(5,7)                  1.4001         estimate D2E/DX2                !
 ! R12   R(6,15)                 1.095          estimate D2E/DX2                !
 ! R13   R(6,16)                 1.0947         estimate D2E/DX2                !
 ! R14   R(6,17)                 1.0948         estimate D2E/DX2                !
 ! R15   R(7,8)                  1.4001         estimate D2E/DX2                !
 ! R16   R(7,18)                 1.0884         estimate D2E/DX2                !
 ! R17   R(8,9)                  1.4035         estimate D2E/DX2                !
 ! R18   R(8,10)                 1.5007         estimate D2E/DX2                !
 ! R19   R(9,19)                 1.085          estimate D2E/DX2                !
 ! R20   R(10,20)                1.095          estimate D2E/DX2                !
 ! R21   R(10,21)                1.0949         estimate D2E/DX2                !
 ! R22   R(10,22)                1.0945         estimate D2E/DX2                !
 ! A1    A(2,1,11)             107.7717         estimate D2E/DX2                !
 ! A2    A(2,1,12)             111.0805         estimate D2E/DX2                !
 ! A3    A(2,1,13)             111.2369         estimate D2E/DX2                !
 ! A4    A(11,1,12)            107.6872         estimate D2E/DX2                !
 ! A5    A(11,1,13)            107.6658         estimate D2E/DX2                !
 ! A6    A(12,1,13)            111.2083         estimate D2E/DX2                !
 ! A7    A(1,2,3)              116.7239         estimate D2E/DX2                !
 ! A8    A(2,3,4)              114.6823         estimate D2E/DX2                !
 ! A9    A(2,3,9)              125.9359         estimate D2E/DX2                !
 ! A10   A(4,3,9)              119.3802         estimate D2E/DX2                !
 ! A11   A(3,4,5)              121.0049         estimate D2E/DX2                !
 ! A12   A(3,4,14)             118.8481         estimate D2E/DX2                !
 ! A13   A(5,4,14)             120.1466         estimate D2E/DX2                !
 ! A14   A(4,5,6)              120.9177         estimate D2E/DX2                !
 ! A15   A(4,5,7)              119.0398         estimate D2E/DX2                !
 ! A16   A(6,5,7)              120.0358         estimate D2E/DX2                !
 ! A17   A(5,6,15)             111.5326         estimate D2E/DX2                !
 ! A18   A(5,6,16)             110.0461         estimate D2E/DX2                !
 ! A19   A(5,6,17)             110.2613         estimate D2E/DX2                !
 ! A20   A(15,6,16)            108.0364         estimate D2E/DX2                !
 ! A21   A(15,6,17)            107.6747         estimate D2E/DX2                !
 ! A22   A(16,6,17)            109.2132         estimate D2E/DX2                !
 ! A23   A(5,7,8)              120.6791         estimate D2E/DX2                !
 ! A24   A(5,7,18)             119.4342         estimate D2E/DX2                !
 ! A25   A(8,7,18)             119.8867         estimate D2E/DX2                !
 ! A26   A(7,8,9)              119.3911         estimate D2E/DX2                !
 ! A27   A(7,8,10)             120.7636         estimate D2E/DX2                !
 ! A28   A(9,8,10)             119.8354         estimate D2E/DX2                !
 ! A29   A(3,9,8)              120.5004         estimate D2E/DX2                !
 ! A30   A(3,9,19)             121.1656         estimate D2E/DX2                !
 ! A31   A(8,9,19)             118.3335         estimate D2E/DX2                !
 ! A32   A(8,10,20)            111.5094         estimate D2E/DX2                !
 ! A33   A(8,10,21)            110.2587         estimate D2E/DX2                !
 ! A34   A(8,10,22)            110.0517         estimate D2E/DX2                !
 ! A35   A(20,10,21)           107.5675         estimate D2E/DX2                !
 ! A36   A(20,10,22)           108.1619         estimate D2E/DX2                !
 ! A37   A(21,10,22)           109.2156         estimate D2E/DX2                !
 ! D1    D(11,1,2,3)          -175.1968         estimate D2E/DX2                !
 ! D2    D(12,1,2,3)            67.0619         estimate D2E/DX2                !
 ! D3    D(13,1,2,3)           -57.3929         estimate D2E/DX2                !
 ! D4    D(1,2,3,4)            171.2881         estimate D2E/DX2                !
 ! D5    D(1,2,3,9)             -9.1843         estimate D2E/DX2                !
 ! D6    D(2,3,4,5)           -179.9488         estimate D2E/DX2                !
 ! D7    D(2,3,4,14)            -0.1909         estimate D2E/DX2                !
 ! D8    D(9,3,4,5)              0.4902         estimate D2E/DX2                !
 ! D9    D(9,3,4,14)          -179.7519         estimate D2E/DX2                !
 ! D10   D(2,3,9,8)            179.6653         estimate D2E/DX2                !
 ! D11   D(2,3,9,19)            -0.5902         estimate D2E/DX2                !
 ! D12   D(4,3,9,8)             -0.8273         estimate D2E/DX2                !
 ! D13   D(4,3,9,19)           178.9171         estimate D2E/DX2                !
 ! D14   D(3,4,5,6)            179.0681         estimate D2E/DX2                !
 ! D15   D(3,4,5,7)              0.0103         estimate D2E/DX2                !
 ! D16   D(14,4,5,6)            -0.6867         estimate D2E/DX2                !
 ! D17   D(14,4,5,7)          -179.7445         estimate D2E/DX2                !
 ! D18   D(4,5,6,15)             6.2863         estimate D2E/DX2                !
 ! D19   D(4,5,6,16)          -113.6003         estimate D2E/DX2                !
 ! D20   D(4,5,6,17)           125.862          estimate D2E/DX2                !
 ! D21   D(7,5,6,15)          -174.6652         estimate D2E/DX2                !
 ! D22   D(7,5,6,16)            65.4481         estimate D2E/DX2                !
 ! D23   D(7,5,6,17)           -55.0896         estimate D2E/DX2                !
 ! D24   D(4,5,7,8)             -0.1793         estimate D2E/DX2                !
 ! D25   D(4,5,7,18)           179.8499         estimate D2E/DX2                !
 ! D26   D(6,5,7,8)           -179.2456         estimate D2E/DX2                !
 ! D27   D(6,5,7,18)             0.7836         estimate D2E/DX2                !
 ! D28   D(5,7,8,9)             -0.1529         estimate D2E/DX2                !
 ! D29   D(5,7,8,10)          -179.0072         estimate D2E/DX2                !
 ! D30   D(18,7,8,9)           179.8177         estimate D2E/DX2                !
 ! D31   D(18,7,8,10)            0.9634         estimate D2E/DX2                !
 ! D32   D(7,8,9,3)              0.6618         estimate D2E/DX2                !
 ! D33   D(7,8,9,19)          -179.0898         estimate D2E/DX2                !
 ! D34   D(10,8,9,3)           179.5269         estimate D2E/DX2                !
 ! D35   D(10,8,9,19)           -0.2247         estimate D2E/DX2                !
 ! D36   D(7,8,10,20)           -8.9401         estimate D2E/DX2                !
 ! D37   D(7,8,10,21)         -128.3645         estimate D2E/DX2                !
 ! D38   D(7,8,10,22)          111.0929         estimate D2E/DX2                !
 ! D39   D(9,8,10,20)          172.2107         estimate D2E/DX2                !
 ! D40   D(9,8,10,21)           52.7863         estimate D2E/DX2                !
 ! D41   D(9,8,10,22)          -67.7564         estimate D2E/DX2                !
 --------------------------------------------------------------------------------
 Trust Radius=3.00D-01 FncErr=1.00D-07 GrdErr=1.00D-06
 Number of steps in this run= 110 maximum allowed number of steps= 132.
 GradGradGradGradGradGradGradGradGradGradGradGradGradGradGradGradGradGrad

 Leave Link  103 at Tue Sep 28 15:18:40 2021, MaxMem=  805306368 cpu:       0.0
 (Enter /sw/target/amd/app/gaussian/Gaussian09RevA.02_gcc-4.9.2/g09/l202.exe)
                          Input orientation:                          
 ---------------------------------------------------------------------
 Center     Atomic      Atomic             Coordinates (Angstroms)
 Number     Number       Type             X           Y           Z
 ---------------------------------------------------------------------
      1          6           0        2.325297    0.715915   -1.294763
      2          8           0        2.178351    0.205209    0.023951
      3          6           0        2.964548    0.767362    0.992739
      4          6           0        2.654755    0.373266    2.297042
      5          6           0        3.375050    0.868653    3.390260
      6          6           0        3.027571    0.460437    4.790720
      7          6           0        4.419774    1.772453    3.162548
      8          6           0        4.745420    2.174900    1.861660
      9          6           0        4.015460    1.661050    0.778632
     10          6           0        5.879120    3.126447    1.613651
     11          1           0        1.575796    0.229716   -1.926676
     12          1           0        3.311935    0.474155   -1.702992
     13          1           0        2.137082    1.794457   -1.325785
     14          1           0        1.836710   -0.326708    2.453613
     15          1           0        2.257277   -0.317689    4.803112
     16          1           0        2.648120    1.321922    5.349466
     17          1           0        3.911048    0.061694    5.299647
     18          1           0        4.982465    2.163571    4.008079
     19          1           0        4.292077    1.972932   -0.223126
     20          1           0        6.262752    3.546417    2.549270
     21          1           0        5.543764    3.961297    0.989670
     22          1           0        6.701046    2.607834    1.110148
 ---------------------------------------------------------------------
                    Distance matrix (angstroms):
                    1          2          3          4          5
     1  C    0.000000
     2  O    1.421767   0.000000
     3  C    2.375701   1.368456   0.000000
     4  C    3.623122   2.328551   1.397315   0.000000
     5  C    4.803619   3.633770   2.434518   1.399771   0.000000
     6  C    6.131196   4.848546   3.810883   2.522899   1.499556
     7  C    5.036936   4.163054   2.799279   2.412906   1.400056
     8  C    4.236584   3.721115   2.430574   2.793979   2.433272
     9  C    2.837058   2.462516   1.396043   2.411530   2.803323
    10  C    5.186444   4.975588   3.800730   4.294597   3.811082
    11  H    1.094282   2.041719   3.277297   4.361715   5.649368
    12  H    1.094784   2.083189   2.733791   4.054915   5.108897
    13  H    1.095281   2.085473   2.667429   3.925894   4.962939
    14  H    3.921238   2.510560   2.145498   1.087969   2.161640
    15  H    6.185228   4.808329   4.024489   2.629790   2.157075
    16  H    6.679614   5.461579   4.403264   3.196448   2.138309
    17  H    6.813873   5.554800   4.465791   3.269707   2.141083
    18  H    6.105439   5.250858   3.887630   3.398687   2.154599
    19  H    2.568408   2.766537   2.166578   3.404556   3.888050
    20  H    6.188044   5.850063   4.585203   4.811460   4.026973
    21  H    5.109762   5.134862   4.105312   4.788482   4.475556
    22  H    5.339489   5.235189   4.166839   4.772262   4.391574
                    6          7          8          9         10
     6  C    0.000000
     7  C    2.512083   0.000000
     8  C    3.803916   1.400113   0.000000
     9  C    4.302819   2.420524   1.403507   0.000000
    10  C    5.033161   2.522315   1.500742   2.513538   0.000000
    11  H    6.876357   6.030625   5.308648   3.913996   6.280411
    12  H    6.499949   5.156196   4.201685   2.839388   4.962380
    13  H    6.323307   5.035504   4.136178   2.823946   4.941390
    14  H    2.738579   3.403129   3.881887   3.391711   5.382462
    15  H    1.094983   3.425863   4.588681   4.816955   5.928953
    16  H    1.094686   2.850324   4.158248   4.783007   5.258515
    17  H    1.094776   2.784366   4.120870   4.796710   5.181948
    18  H    2.708284   1.088355   2.159498   3.408366   2.732107
    19  H    5.387510   3.394007   2.143045   1.085037   2.687574
    20  H    5.001376   2.630518   2.157815   3.426382   1.094957
    21  H    5.747628   3.282649   2.142180   2.769726   1.094892
    22  H    5.626042   3.180316   2.139317   2.866823   1.094549
                   11         12         13         14         15
    11  H    0.000000
    12  H    1.767473   0.000000
    13  H    1.767632   1.807142   0.000000
    14  H    4.423191   4.482749   4.344354   0.000000
    15  H    6.786318   6.638427   6.483748   2.386861   0.000000
    16  H    7.435391   7.134180   6.711440   3.429626   1.771887
    17  H    7.596142   7.040314   7.074304   3.543113   1.767891
    18  H    7.111013   6.185558   6.056613   4.302747   3.770329
    19  H    3.649529   2.323147   2.427285   4.299082   5.886461
    20  H    7.280258   6.018958   5.925080   5.882185   6.004577
    21  H    6.178554   4.938790   4.654246   5.854261   6.607046
    22  H    6.414509   4.894121   5.236900   5.837654   6.476400
                   16         17         18         19         20
    16  H    0.000000
    17  H    1.784837   0.000000
    18  H    2.820790   2.689604   0.000000
    19  H    5.846382   5.856538   4.291395   0.000000
    20  H    5.084785   5.023781   2.383175   3.747746   0.000000
    21  H    5.861644   6.037264   3.557761   2.644086   1.766755
    22  H    6.004298   5.640818   3.398367   2.825571   1.773165
                   21         22
    21  H    0.000000
    22  H    1.784847   0.000000
 Stoichiometry    C9H12O
 Framework group  C1[X(C9H12O)]
 Deg. of freedom    60
 Full point group                 C1      NOp   1
 Largest Abelian subgroup         C1      NOp   1
 Largest concise Abelian subgroup C1      NOp   1
                         Standard orientation:                         
 ---------------------------------------------------------------------
 Center     Atomic      Atomic             Coordinates (Angstroms)
 Number     Number       Type             X           Y           Z
 ---------------------------------------------------------------------
      1          6           0       -3.288652   -0.180395    0.094290
      2          8           0       -2.172435   -1.043356   -0.081143
      3          6           0       -0.934052   -0.461934   -0.049064
      4          6           0        0.133535   -1.363323   -0.033491
      5          6           0        1.458035   -0.911762    0.000423
      6          6           0        2.601741   -1.880882    0.038003
      7          6           0        1.706065    0.466023    0.019017
      8          6           0        0.647914    1.382691    0.000246
      9          6           0       -0.672749    0.909413   -0.040862
     10          6           0        0.912044    2.860006   -0.002215
     11          1           0       -4.188774   -0.801653    0.129985
     12          1           0       -3.392030    0.506645   -0.751785
     13          1           0       -3.223420    0.364987    1.041889
     14          1           0       -0.079944   -2.430089   -0.044171
     15          1           0        2.257147   -2.913868   -0.076807
     16          1           0        3.127882   -1.803464    0.994831
     17          1           0        3.302711   -1.671851   -0.776540
     18          1           0        2.733395    0.824182    0.047881
     19          1           0       -1.479081    1.634865   -0.070050
     20          1           0        1.970985    3.078800    0.170138
     21          1           0        0.339902    3.348754    0.793127
     22          1           0        0.627413    3.290524   -0.967449
 ---------------------------------------------------------------------
 Rotational constants (GHZ):      1.7410525      1.0903318      0.6798385
 Leave Link  202 at Tue Sep 28 15:18:41 2021, MaxMem=  805306368 cpu:       0.0
 (Enter /sw/target/amd/app/gaussian/Gaussian09RevA.02_gcc-4.9.2/g09/l301.exe)
 Standard basis: 6-31G(d) (6D, 7F)
 Ernie: Thresh=  0.10000D-02 Tol=  0.10000D-05 Strict=F.
 There are   174 symmetry adapted basis functions of A   symmetry.
 Integral buffers will be    131072 words long.
 Raffenetti 2 integral format.
 Two-electron integral symmetry is turned on.
   174 basis functions,   328 primitive gaussians,   174 cartesian basis functions
    37 alpha electrons       37 beta electrons
       nuclear repulsion energy       507.6572331034 Hartrees.
 IExCor=  402 DFT=T Ex+Corr=B3LYP ExCW=0 ScaHFX=  0.200000
 ScaDFX=  0.800000  0.720000  1.000000  0.810000 ScalE2=  1.000000  1.000000
 IRadAn=      0 IRanWt=     -1 IRanGd=            0 ICorTp=0
 NAtoms=   22 NActive=   22 NUniq=   22 SFac= 7.50D-01 NAtFMM=   80 NAOKFM=F Big=F
 Leave Link  301 at Tue Sep 28 15:18:41 2021, MaxMem=  805306368 cpu:       0.2
 (Enter /sw/target/amd/app/gaussian/Gaussian09RevA.02_gcc-4.9.2/g09/l302.exe)
 NPDir=0 NMtPBC=     1 NCelOv=     1 NCel=       1 NClECP=     1 NCelD=      1
         NCelK=      1 NCelE2=     1 NClLst=     1 CellRange=     0.0.
 One-electron integrals computed using PRISM.
 NBasis=   174 RedAO= T  NBF=   174
 NBsUse=   174 1.00D-06 NBFU=   174
 Precomputing XC quadrature grid using
 IXCGrd= 2 IRadAn=           0 IRanWt=          -1 IRanGd=           0 AccXCQ= 1.00D-10.
 NRdTot=    1381 NPtTot=      174826 NUsed=      184792 NTot=      184824
 NSgBfM=   173   173   173   173   173 NAtAll=    22    22.
 Leave Link  302 at Tue Sep 28 15:18:45 2021, MaxMem=  805306368 cpu:       1.4
 (Enter /sw/target/amd/app/gaussian/Gaussian09RevA.02_gcc-4.9.2/g09/l303.exe)
 DipDrv:  MaxL=1.
 Leave Link  303 at Tue Sep 28 15:18:45 2021, MaxMem=  805306368 cpu:       0.1
 (Enter /sw/target/amd/app/gaussian/Gaussian09RevA.02_gcc-4.9.2/g09/l401.exe)
 Harris functional with IExCor=  402 diagonalized for initial guess.
 ExpMin= 1.61D-01 ExpMax= 5.48D+03 ExpMxC= 8.25D+02 IAcc=1 IRadAn=         1 AccDes= 0.00D+00
 HarFok:  IExCor=  402 AccDes= 0.00D+00 IRadAn=         1 IDoV= 1
 ScaDFX=  1.000000  1.000000  1.000000  1.000000
 FoFCou: FMM=F IPFlag=           0 FMFlag=      100000 FMFlg1=           0
         NFxFlg=           0 DoJE=T BraDBF=F KetDBF=T FulRan=T
         Omega=  0.000000  0.000000  1.000000  0.000000  0.000000 ICntrl=     500 IOpCl=  0
         NMat0=    1 NMatS0=    1 NMatT0=    0 NMatD0=    1 NMtDS0=    0 NMtDT0=    0
         I1Cent=           4 NGrid=           0.
 Petite list used in FoFCou.
 Harris En= -425.485777372883    
 Initial guess orbital symmetries:
       Occupied  (A) (A) (A) (A) (A) (A) (A) (A) (A) (A) (A) (A)
                 (A) (A) (A) (A) (A) (A) (A) (A) (A) (A) (A) (A)
                 (A) (A) (A) (A) (A) (A) (A) (A) (A) (A) (A) (A)
                 (A)
       Virtual   (A) (A) (A) (A) (A) (A) (A) (A) (A) (A) (A) (A)
                 (A) (A) (A) (A) (A) (A) (A) (A) (A) (A) (A) (A)
                 (A) (A) (A) (A) (A) (A) (A) (A) (A) (A) (A) (A)
                 (A) (A) (A) (A) (A) (A) (A) (A) (A) (A) (A) (A)
                 (A) (A) (A) (A) (A) (A) (A) (A) (A) (A) (A) (A)
                 (A) (A) (A) (A) (A) (A) (A) (A) (A) (A) (A) (A)
                 (A) (A) (A) (A) (A) (A) (A) (A) (A) (A) (A) (A)
                 (A) (A) (A) (A) (A) (A) (A) (A) (A) (A) (A) (A)
                 (A) (A) (A) (A) (A) (A) (A) (A) (A) (A) (A) (A)
                 (A) (A) (A) (A) (A) (A) (A) (A) (A) (A) (A) (A)
                 (A) (A) (A) (A) (A) (A) (A) (A) (A) (A) (A) (A)
                 (A) (A) (A) (A) (A)
 The electronic state of the initial guess is 1-A.
 Leave Link  401 at Tue Sep 28 15:18:56 2021, MaxMem=  805306368 cpu:       6.6
 (Enter /sw/target/amd/app/gaussian/Gaussian09RevA.02_gcc-4.9.2/g09/l502.exe)
 Closed shell SCF:
 Requested convergence on RMS density matrix=1.00D-08 within  64 cycles.
 Requested convergence on MAX density matrix=1.00D-06.
 Requested convergence on             energy=1.00D-06.
 No special actions if energy rises.
 Using DIIS extrapolation, IDIIS=  1040.
 Integral symmetry usage will be decided dynamically.
       184581 words used for storage of precomputed grid.
 Keep R1 ints in memory in canonical form, NReq=118870856.
 IEnd=      283317 IEndB=      283317 NGot=   805306368 MDV=   689149773
 LenX=   689149773 LenY=   689119056
 Symmetry not used in FoFDir.
 MinBra= 0 MaxBra= 2 Meth= 1.
 IRaf=       0 NMat=   1 IRICut=       1 DoRegI=T DoRafI=F ISym2E= 0 JSym2E=0.
 Integral accuracy reduced to 1.0D-05 until final iterations.

 Cycle   1  Pass 0  IDiag  1:
 E= -425.120394160675    
 DIIS: error= 3.92D-02 at cycle   1 NSaved=   1.
 NSaved= 1 IEnMin= 1 EnMin= -425.120394160675     IErMin= 1 ErrMin= 3.92D-02
 ErrMax= 3.92D-02 EMaxC= 1.00D-01 BMatC= 2.61D-01 BMatP= 2.61D-01
 IDIUse=3 WtCom= 6.08D-01 WtEn= 3.92D-01
 Coeff-Com:  0.100D+01
 Coeff-En:   0.100D+01
 Coeff:      0.100D+01
 Gap=     0.242 Goal=   None    Shift=    0.000
 GapD=    0.242 DampG=1.000 DampE=0.500 DampFc=0.5000 IDamp=-1.
 Damping current iteration by 5.00D-01
 RMSDP=6.79D-03 MaxDP=1.45D-01              OVMax= 1.79D-01

 Cycle   2  Pass 0  IDiag  1:
 E= -425.255860004803     Delta-E=       -0.135465844128 Rises=F Damp=T
 DIIS: error= 6.97D-03 at cycle   2 NSaved=   2.
 NSaved= 2 IEnMin= 2 EnMin= -425.255860004803     IErMin= 2 ErrMin= 6.97D-03
 ErrMax= 6.97D-03 EMaxC= 1.00D-01 BMatC= 1.12D-02 BMatP= 2.61D-01
 IDIUse=3 WtCom= 9.30D-01 WtEn= 6.97D-02
 Coeff-Com:  0.189D-01 0.981D+00
 Coeff-En:   0.290D-01 0.971D+00
 Coeff:      0.196D-01 0.980D+00
 Gap=     0.235 Goal=   None    Shift=    0.000
 RMSDP=1.84D-03 MaxDP=3.67D-02 DE=-1.35D-01 OVMax= 1.46D-01

 Cycle   3  Pass 0  IDiag  1:
 E= -425.397184365136     Delta-E=       -0.141324360333 Rises=F Damp=F
 DIIS: error= 7.81D-03 at cycle   3 NSaved=   3.
 NSaved= 3 IEnMin= 3 EnMin= -425.397184365136     IErMin= 2 ErrMin= 6.97D-03
 ErrMax= 7.81D-03 EMaxC= 1.00D-01 BMatC= 7.72D-03 BMatP= 1.12D-02
 IDIUse=3 WtCom= 9.22D-01 WtEn= 7.81D-02
 Coeff-Com: -0.181D-01 0.446D+00 0.572D+00
 Coeff-En:   0.000D+00 0.000D+00 0.100D+01
 Coeff:     -0.167D-01 0.411D+00 0.606D+00
 Gap=     0.225 Goal=   None    Shift=    0.000
 RMSDP=1.00D-03 MaxDP=3.04D-02 DE=-1.41D-01 OVMax= 6.86D-02

 Cycle   4  Pass 0  IDiag  1:
 E= -425.401123853201     Delta-E=       -0.003939488065 Rises=F Damp=F
 DIIS: error= 6.35D-03 at cycle   4 NSaved=   4.
 NSaved= 4 IEnMin= 4 EnMin= -425.401123853201     IErMin= 4 ErrMin= 6.35D-03
 ErrMax= 6.35D-03 EMaxC= 1.00D-01 BMatC= 4.20D-03 BMatP= 7.72D-03
 IDIUse=3 WtCom= 9.37D-01 WtEn= 6.35D-02
 Coeff-Com: -0.122D-01 0.770D-01 0.424D+00 0.512D+00
 Coeff-En:   0.000D+00 0.000D+00 0.382D+00 0.618D+00
 Coeff:     -0.114D-01 0.721D-01 0.421D+00 0.518D+00
 Gap=     0.220 Goal=   None    Shift=    0.000
 RMSDP=4.50D-04 MaxDP=1.11D-02 DE=-3.94D-03 OVMax= 2.96D-02

 Cycle   5  Pass 0  IDiag  1:
 E= -425.405744634378     Delta-E=       -0.004620781177 Rises=F Damp=F
 DIIS: error= 5.05D-04 at cycle   5 NSaved=   5.
 NSaved= 5 IEnMin= 5 EnMin= -425.405744634378     IErMin= 5 ErrMin= 5.05D-04
 ErrMax= 5.05D-04 EMaxC= 1.00D-01 BMatC= 6.55D-05 BMatP= 4.20D-03
 IDIUse=3 WtCom= 9.95D-01 WtEn= 5.05D-03
 Coeff-Com: -0.337D-02 0.150D-01 0.164D+00 0.233D+00 0.592D+00
 Coeff-En:   0.000D+00 0.000D+00 0.000D+00 0.000D+00 0.100D+01
 Coeff:     -0.335D-02 0.149D-01 0.163D+00 0.232D+00 0.594D+00
 Gap=     0.219 Goal=   None    Shift=    0.000
 RMSDP=5.87D-05 MaxDP=1.87D-03 DE=-4.62D-03 OVMax= 3.03D-03

 Cycle   6  Pass 0  IDiag  1:
 E= -425.405798126316     Delta-E=       -0.000053491938 Rises=F Damp=F
 DIIS: error= 1.95D-04 at cycle   6 NSaved=   6.
 NSaved= 6 IEnMin= 6 EnMin= -425.405798126316     IErMin= 6 ErrMin= 1.95D-04
 ErrMax= 1.95D-04 EMaxC= 1.00D-01 BMatC= 9.64D-06 BMatP= 6.55D-05
 IDIUse=3 WtCom= 9.98D-01 WtEn= 1.95D-03
 Coeff-Com: -0.350D-03-0.565D-03 0.424D-01 0.698D-01 0.325D+00 0.564D+00
 Coeff-En:   0.000D+00 0.000D+00 0.000D+00 0.000D+00 0.898D-01 0.910D+00
 Coeff:     -0.349D-03-0.564D-03 0.423D-01 0.696D-01 0.324D+00 0.565D+00
 Gap=     0.219 Goal=   None    Shift=    0.000
 RMSDP=1.98D-05 MaxDP=5.82D-04 DE=-5.35D-05 OVMax= 9.50D-04

 Cycle   7  Pass 0  IDiag  1:
 E= -425.405807108549     Delta-E=       -0.000008982233 Rises=F Damp=F
 DIIS: error= 3.27D-05 at cycle   7 NSaved=   7.
 NSaved= 7 IEnMin= 7 EnMin= -425.405807108549     IErMin= 7 ErrMin= 3.27D-05
 ErrMax= 3.27D-05 EMaxC= 1.00D-01 BMatC= 1.79D-07 BMatP= 9.64D-06
 IDIUse=1 WtCom= 1.00D+00 WtEn= 0.00D+00
 Coeff-Com: -0.697D-05-0.703D-03 0.129D-01 0.218D-01 0.115D+00 0.231D+00
 Coeff-Com:  0.620D+00
 Coeff:     -0.697D-05-0.703D-03 0.129D-01 0.218D-01 0.115D+00 0.231D+00
 Coeff:      0.620D+00
 Gap=     0.219 Goal=   None    Shift=    0.000
 RMSDP=4.60D-06 MaxDP=1.26D-04 DE=-8.98D-06 OVMax= 3.06D-04

 Initial convergence to 1.0D-05 achieved.  Increase integral accuracy.
 Cycle   8  Pass 1  IDiag  1:
 E= -425.405848967557     Delta-E=       -0.000041859008 Rises=F Damp=F
 DIIS: error= 2.58D-05 at cycle   1 NSaved=   1.
 NSaved= 1 IEnMin= 1 EnMin= -425.405848967557     IErMin= 1 ErrMin= 2.58D-05
 ErrMax= 2.58D-05 EMaxC= 1.00D-01 BMatC= 1.18D-07 BMatP= 1.18D-07
 IDIUse=1 WtCom= 1.00D+00 WtEn= 0.00D+00
 Coeff-Com:  0.100D+01
 Coeff:      0.100D+01
 Gap=     0.219 Goal=   None    Shift=    0.000
 RMSDP=4.60D-06 MaxDP=1.26D-04 DE=-4.19D-05 OVMax= 3.97D-04

 Cycle   9  Pass 1  IDiag  1:
 E= -425.405848752520     Delta-E=        0.000000215037 Rises=F Damp=F
 DIIS: error= 5.17D-05 at cycle   2 NSaved=   2.
 NSaved= 2 IEnMin= 1 EnMin= -425.405848967557     IErMin= 1 ErrMin= 2.58D-05
 ErrMax= 5.17D-05 EMaxC= 1.00D-01 BMatC= 3.17D-07 BMatP= 1.18D-07
 IDIUse=1 WtCom= 1.00D+00 WtEn= 0.00D+00
 Coeff-Com:  0.633D+00 0.367D+00
 Coeff:      0.633D+00 0.367D+00
 Gap=     0.219 Goal=   None    Shift=    0.000
 RMSDP=4.07D-06 MaxDP=1.07D-04 DE= 2.15D-07 OVMax= 2.75D-04

 Cycle  10  Pass 1  IDiag  1:
 E= -425.405849109847     Delta-E=       -0.000000357327 Rises=F Damp=F
 DIIS: error= 5.51D-06 at cycle   3 NSaved=   3.
 NSaved= 3 IEnMin= 3 EnMin= -425.405849109847     IErMin= 3 ErrMin= 5.51D-06
 ErrMax= 5.51D-06 EMaxC= 1.00D-01 BMatC= 4.28D-09 BMatP= 1.18D-07
 IDIUse=1 WtCom= 1.00D+00 WtEn= 0.00D+00
 Coeff-Com:  0.374D-01 0.104D+00 0.858D+00
 Coeff:      0.374D-01 0.104D+00 0.858D+00
 Gap=     0.219 Goal=   None    Shift=    0.000
 RMSDP=5.90D-07 MaxDP=1.68D-05 DE=-3.57D-07 OVMax= 3.50D-05

 Cycle  11  Pass 1  IDiag  1:
 E= -425.405849113171     Delta-E=       -0.000000003324 Rises=F Damp=F
 DIIS: error= 1.98D-06 at cycle   4 NSaved=   4.
 NSaved= 4 IEnMin= 4 EnMin= -425.405849113171     IErMin= 4 ErrMin= 1.98D-06
 ErrMax= 1.98D-06 EMaxC= 1.00D-01 BMatC= 1.54D-09 BMatP= 4.28D-09
 IDIUse=1 WtCom= 1.00D+00 WtEn= 0.00D+00
 Coeff-Com: -0.188D-01 0.377D-01 0.502D+00 0.479D+00
 Coeff:     -0.188D-01 0.377D-01 0.502D+00 0.479D+00
 Gap=     0.219 Goal=   None    Shift=    0.000
 RMSDP=1.88D-07 MaxDP=5.64D-06 DE=-3.32D-09 OVMax= 1.16D-05

 Cycle  12  Pass 1  IDiag  1:
 E= -425.405849114528     Delta-E=       -0.000000001357 Rises=F Damp=F
 DIIS: error= 2.75D-07 at cycle   5 NSaved=   5.
 NSaved= 5 IEnMin= 5 EnMin= -425.405849114528     IErMin= 5 ErrMin= 2.75D-07
 ErrMax= 2.75D-07 EMaxC= 1.00D-01 BMatC= 1.77D-11 BMatP= 1.54D-09
 IDIUse=1 WtCom= 1.00D+00 WtEn= 0.00D+00
 Coeff-Com: -0.918D-02 0.145D-01 0.206D+00 0.214D+00 0.575D+00
 Coeff:     -0.918D-02 0.145D-01 0.206D+00 0.214D+00 0.575D+00
 Gap=     0.219 Goal=   None    Shift=    0.000
 RMSDP=3.66D-08 MaxDP=9.72D-07 DE=-1.36D-09 OVMax= 2.02D-06

 Cycle  13  Pass 1  IDiag  1:
 E= -425.405849114523     Delta-E=        0.000000000006 Rises=F Damp=F
 DIIS: error= 1.64D-07 at cycle   6 NSaved=   6.
 NSaved= 6 IEnMin= 5 EnMin= -425.405849114528     IErMin= 6 ErrMin= 1.64D-07
 ErrMax= 1.64D-07 EMaxC= 1.00D-01 BMatC= 4.10D-12 BMatP= 1.77D-11
 IDIUse=1 WtCom= 1.00D+00 WtEn= 0.00D+00
 Coeff-Com: -0.265D-02 0.322D-02 0.498D-01 0.577D-01 0.341D+00 0.551D+00
 Coeff:     -0.265D-02 0.322D-02 0.498D-01 0.577D-01 0.341D+00 0.551D+00
 Gap=     0.219 Goal=   None    Shift=    0.000
 RMSDP=1.77D-08 MaxDP=4.21D-07 DE= 5.68D-12 OVMax= 1.20D-06

 Cycle  14  Pass 1  IDiag  1:
 E= -425.405849114535     Delta-E=       -0.000000000013 Rises=F Damp=F
 DIIS: error= 4.50D-08 at cycle   7 NSaved=   7.
 NSaved= 7 IEnMin= 7 EnMin= -425.405849114535     IErMin= 7 ErrMin= 4.50D-08
 ErrMax= 4.50D-08 EMaxC= 1.00D-01 BMatC= 4.25D-13 BMatP= 4.10D-12
 IDIUse=1 WtCom= 1.00D+00 WtEn= 0.00D+00
 Coeff-Com: -0.457D-03 0.165D-03 0.472D-02 0.824D-02 0.118D+00 0.306D+00
 Coeff-Com:  0.563D+00
 Coeff:     -0.457D-03 0.165D-03 0.472D-02 0.824D-02 0.118D+00 0.306D+00
 Coeff:      0.563D+00
 Gap=     0.219 Goal=   None    Shift=    0.000
 RMSDP=4.84D-09 MaxDP=1.49D-07 DE=-1.26D-11 OVMax= 3.69D-07

 SCF Done:  E(RB3LYP) =  -425.405849115     A.U. after   14 cycles
             Convg  =    0.4843D-08             -V/T =  2.0096
 KE= 4.213772872511D+02 PE=-2.002735283621D+03 EE= 6.482949141516D+02
 Leave Link  502 at Tue Sep 28 15:23:46 2021, MaxMem=  805306368 cpu:     127.0
 (Enter /sw/target/amd/app/gaussian/Gaussian09RevA.02_gcc-4.9.2/g09/l508.exe)
 QCSCF skips out because SCF is already converged.
 Leave Link  508 at Tue Sep 28 15:24:05 2021, MaxMem=  805306368 cpu:       0.0
 (Enter /sw/target/amd/app/gaussian/Gaussian09RevA.02_gcc-4.9.2/g09/l601.exe)
 Copying SCF densities to generalized density rwf, IOpCl= 0 IROHF=0.

 **********************************************************************

            Population analysis using the SCF density.

 **********************************************************************

 Orbital symmetries:
       Occupied  (A) (A) (A) (A) (A) (A) (A) (A) (A) (A) (A) (A)
                 (A) (A) (A) (A) (A) (A) (A) (A) (A) (A) (A) (A)
                 (A) (A) (A) (A) (A) (A) (A) (A) (A) (A) (A) (A)
                 (A)
       Virtual   (A) (A) (A) (A) (A) (A) (A) (A) (A) (A) (A) (A)
                 (A) (A) (A) (A) (A) (A) (A) (A) (A) (A) (A) (A)
                 (A) (A) (A) (A) (A) (A) (A) (A) (A) (A) (A) (A)
                 (A) (A) (A) (A) (A) (A) (A) (A) (A) (A) (A) (A)
                 (A) (A) (A) (A) (A) (A) (A) (A) (A) (A) (A) (A)
                 (A) (A) (A) (A) (A) (A) (A) (A) (A) (A) (A) (A)
                 (A) (A) (A) (A) (A) (A) (A) (A) (A) (A) (A) (A)
                 (A) (A) (A) (A) (A) (A) (A) (A) (A) (A) (A) (A)
                 (A) (A) (A) (A) (A) (A) (A) (A) (A) (A) (A) (A)
                 (A) (A) (A) (A) (A) (A) (A) (A) (A) (A) (A) (A)
                 (A) (A) (A) (A) (A) (A) (A) (A) (A) (A) (A) (A)
                 (A) (A) (A) (A) (A)
 The electronic state is 1-A.
 Alpha  occ. eigenvalues --  -19.17139 -10.23745 -10.23590 -10.19004 -10.18755
 Alpha  occ. eigenvalues --  -10.17838 -10.17603 -10.17476 -10.17011 -10.16892
 Alpha  occ. eigenvalues --   -1.05582  -0.84636  -0.77515  -0.75659  -0.70203
 Alpha  occ. eigenvalues --   -0.68032  -0.66876  -0.57741  -0.56590  -0.50969
 Alpha  occ. eigenvalues --   -0.48339  -0.47368  -0.46501  -0.42437  -0.42154
 Alpha  occ. eigenvalues --   -0.41257  -0.41082  -0.39479  -0.38994  -0.37054
 Alpha  occ. eigenvalues --   -0.35954  -0.34623  -0.33941  -0.31822  -0.29894
 Alpha  occ. eigenvalues --   -0.22795  -0.20963
 Alpha virt. eigenvalues --    0.00970   0.02097   0.09769   0.11295   0.12404
 Alpha virt. eigenvalues --    0.12524   0.14322   0.14477   0.15229   0.15886
 Alpha virt. eigenvalues --    0.16959   0.17559   0.18863   0.19039   0.19522
 Alpha virt. eigenvalues --    0.21799   0.25379   0.25904   0.28538   0.32600
 Alpha virt. eigenvalues --    0.33929   0.38310   0.40725   0.41267   0.50566
 Alpha virt. eigenvalues --    0.52218   0.52939   0.54138   0.54913   0.55669
 Alpha virt. eigenvalues --    0.56767   0.57203   0.57925   0.59244   0.60894
 Alpha virt. eigenvalues --    0.62540   0.64772   0.65375   0.66318   0.69665
 Alpha virt. eigenvalues --    0.71575   0.73409   0.74807   0.76162   0.77115
 Alpha virt. eigenvalues --    0.78815   0.79233   0.84317   0.85399   0.85824
 Alpha virt. eigenvalues --    0.86664   0.87492   0.88882   0.89278   0.91057
 Alpha virt. eigenvalues --    0.92211   0.93843   0.94299   0.95708   0.96163
 Alpha virt. eigenvalues --    0.98719   1.01843   1.05697   1.07155   1.09009
 Alpha virt. eigenvalues --    1.12816   1.18344   1.20645   1.22092   1.26067
 Alpha virt. eigenvalues --    1.27832   1.31349   1.36423   1.37596   1.39887
 Alpha virt. eigenvalues --    1.40470   1.43009   1.47120   1.50358   1.51955
 Alpha virt. eigenvalues --    1.53394   1.56386   1.68435   1.79487   1.81463
 Alpha virt. eigenvalues --    1.83758   1.87906   1.88570   1.89647   1.90213
 Alpha virt. eigenvalues --    1.91212   1.92046   1.93320   1.96694   1.97830
 Alpha virt. eigenvalues --    2.02770   2.07891   2.08682   2.11426   2.14273
 Alpha virt. eigenvalues --    2.16510   2.17691   2.19615   2.22801   2.26567
 Alpha virt. eigenvalues --    2.28796   2.30568   2.31544   2.35047   2.37162
 Alpha virt. eigenvalues --    2.37658   2.38681   2.42053   2.44465   2.55413
 Alpha virt. eigenvalues --    2.57630   2.66465   2.69533   2.71164   2.74140
 Alpha virt. eigenvalues --    2.81168   2.83175   2.92383   2.96274   3.01937
 Alpha virt. eigenvalues --    3.20443   3.44003   4.06005   4.11454   4.13149
 Alpha virt. eigenvalues --    4.21025   4.23544   4.25601   4.33804   4.43644
 Alpha virt. eigenvalues --    4.49769   4.79367
          Condensed to atoms (all electrons):
              1          2          3          4          5          6
     1  C    4.893852   0.249629  -0.043918   0.004086  -0.000115   0.000003
     2  O    0.249629   8.206712   0.268465  -0.049589   0.002639  -0.000075
     3  C   -0.043918   0.268465   4.547310   0.515290  -0.007184   0.006908
     4  C    0.004086  -0.049589   0.515290   5.081201   0.555089  -0.049725
     5  C   -0.000115   0.002639  -0.007184   0.555089   4.632514   0.343457
     6  C    0.000003  -0.000075   0.006908  -0.049725   0.343457   5.218783
     7  C   -0.000000   0.000506  -0.048919  -0.044112   0.514623  -0.067895
     8  C    0.000418   0.002962   0.012335  -0.036485  -0.008741   0.005516
     9  C   -0.007166  -0.059383   0.453964  -0.083060  -0.041509   0.000968
    10  C   -0.000016  -0.000048   0.004578   0.001035   0.006211  -0.000265
    11  H    0.383477  -0.031477   0.003218  -0.000100   0.000001  -0.000000
    12  H    0.365348  -0.036376  -0.005063  -0.000062   0.000008  -0.000000
    13  H    0.362439  -0.035909  -0.004106   0.000239  -0.000007   0.000000
    14  H   -0.000211   0.000416  -0.040870   0.339251  -0.041683  -0.011359
    15  H    0.000000  -0.000001   0.000125  -0.003131  -0.028664   0.363626
    16  H   -0.000000   0.000001  -0.000188  -0.000293  -0.027486   0.363155
    17  H   -0.000000   0.000001  -0.000198   0.001023  -0.028385   0.363425
    18  H   -0.000000   0.000003   0.000366   0.005708  -0.053967  -0.007637
    19  H    0.006036  -0.007205  -0.048725   0.004645   0.000611   0.000012
    20  H    0.000000   0.000000  -0.000084  -0.000004   0.000134  -0.000004
    21  H   -0.000002  -0.000000  -0.000020   0.000020  -0.000157   0.000003
    22  H    0.000000  -0.000000  -0.000069   0.000022  -0.000182   0.000004
              7          8          9         10         11         12
     1  C   -0.000000   0.000418  -0.007166  -0.000016   0.383477   0.365348
     2  O    0.000506   0.002962  -0.059383  -0.000048  -0.031477  -0.036376
     3  C   -0.048919   0.012335   0.453964   0.004578   0.003218  -0.005063
     4  C   -0.044112  -0.036485  -0.083060   0.001035  -0.000100  -0.000062
     5  C    0.514623  -0.008741  -0.041509   0.006211   0.000001   0.000008
     6  C   -0.067895   0.005516   0.000968  -0.000265  -0.000000  -0.000000
     7  C    5.066432   0.552199  -0.044171  -0.049139   0.000000  -0.000003
     8  C    0.552199   4.627274   0.499942   0.344758   0.000003  -0.000136
     9  C   -0.044171   0.499942   5.225448  -0.065142   0.000200   0.003892
    10  C   -0.049139   0.344758  -0.065142   5.213672  -0.000000   0.000005
    11  H    0.000000   0.000003   0.000200  -0.000000   0.548319  -0.035769
    12  H   -0.000003  -0.000136   0.003892   0.000005  -0.035769   0.602015
    13  H   -0.000011  -0.000139   0.006087  -0.000007  -0.032994  -0.046649
    14  H    0.006558   0.000048   0.007613   0.000010  -0.000028   0.000029
    15  H    0.003766  -0.000117  -0.000022   0.000003  -0.000000   0.000000
    16  H   -0.002848  -0.000112   0.000030   0.000002   0.000000  -0.000000
    17  H   -0.002941   0.000011   0.000027  -0.000001   0.000000   0.000000
    18  H    0.351653  -0.042451   0.006715  -0.010286  -0.000000   0.000000
    19  H    0.005577  -0.046343   0.350526  -0.008386  -0.000105   0.002026
    20  H   -0.003428  -0.029556   0.003646   0.366172   0.000000  -0.000000
    21  H    0.001315  -0.028337  -0.003215   0.362139   0.000000  -0.000006
    22  H   -0.000527  -0.027406  -0.002922   0.362188   0.000000   0.000003
             13         14         15         16         17         18
     1  C    0.362439  -0.000211   0.000000  -0.000000  -0.000000  -0.000000
     2  O   -0.035909   0.000416  -0.000001   0.000001   0.000001   0.000003
     3  C   -0.004106  -0.040870   0.000125  -0.000188  -0.000198   0.000366
     4  C    0.000239   0.339251  -0.003131  -0.000293   0.001023   0.005708
     5  C   -0.000007  -0.041683  -0.028664  -0.027486  -0.028385  -0.053967
     6  C    0.000000  -0.011359   0.363626   0.363155   0.363425  -0.007637
     7  C   -0.000011   0.006558   0.003766  -0.002848  -0.002941   0.351653
     8  C   -0.000139   0.000048  -0.000117  -0.000112   0.000011  -0.042451
     9  C    0.006087   0.007613  -0.000022   0.000030   0.000027   0.006715
    10  C   -0.000007   0.000010   0.000003   0.000002  -0.000001  -0.010286
    11  H   -0.032994  -0.000028  -0.000000   0.000000   0.000000  -0.000000
    12  H   -0.046649   0.000029   0.000000  -0.000000   0.000000   0.000000
    13  H    0.597746   0.000034  -0.000000   0.000000   0.000000   0.000000
    14  H    0.000034   0.608625   0.006619   0.000192   0.000145  -0.000159
    15  H   -0.000000   0.006619   0.559587  -0.027843  -0.028139   0.000019
    16  H    0.000000   0.000192  -0.027843   0.561317  -0.030224   0.001814
    17  H    0.000000   0.000145  -0.028139  -0.030224   0.563085   0.002724
    18  H    0.000000  -0.000159   0.000019   0.001814   0.002724   0.630097
    19  H    0.001455  -0.000177  -0.000000  -0.000000  -0.000000  -0.000179
    20  H   -0.000000  -0.000000   0.000000  -0.000002   0.000001   0.006906
    21  H    0.000012  -0.000000  -0.000000  -0.000000   0.000000   0.000086
    22  H   -0.000002  -0.000000  -0.000000   0.000000  -0.000001   0.000180
             19         20         21         22
     1  C    0.006036   0.000000  -0.000002   0.000000
     2  O   -0.007205   0.000000  -0.000000  -0.000000
     3  C   -0.048725  -0.000084  -0.000020  -0.000069
     4  C    0.004645  -0.000004   0.000020   0.000022
     5  C    0.000611   0.000134  -0.000157  -0.000182
     6  C    0.000012  -0.000004   0.000003   0.000004
     7  C    0.005577  -0.003428   0.001315  -0.000527
     8  C   -0.046343  -0.029556  -0.028337  -0.027406
     9  C    0.350526   0.003646  -0.003215  -0.002922
    10  C   -0.008386   0.366172   0.362139   0.362188
    11  H   -0.000105   0.000000   0.000000   0.000000
    12  H    0.002026  -0.000000  -0.000006   0.000003
    13  H    0.001455  -0.000000   0.000012  -0.000002
    14  H   -0.000177  -0.000000  -0.000000  -0.000000
    15  H   -0.000000   0.000000  -0.000000  -0.000000
    16  H   -0.000000  -0.000002  -0.000000   0.000000
    17  H   -0.000000   0.000001   0.000000  -0.000001
    18  H   -0.000179   0.006906   0.000086   0.000180
    19  H    0.617007   0.000012   0.003136   0.001723
    20  H    0.000012   0.558063  -0.028346  -0.027841
    21  H    0.003136  -0.028346   0.566780  -0.030622
    22  H    0.001723  -0.027841  -0.030622   0.562881
 Mulliken atomic charges:
              1
     1  C   -0.213859
     2  O   -0.511272
     3  C    0.386785
     4  C   -0.241049
     5  C    0.182792
     6  C   -0.528902
     7  C   -0.238634
     8  C    0.174356
     9  C   -0.252467
    10  C   -0.527483
    11  H    0.165254
    12  H    0.150739
    13  H    0.151811
    14  H    0.124947
    15  H    0.154172
    16  H    0.162484
    17  H    0.159446
    18  H    0.108409
    19  H    0.118355
    20  H    0.154330
    21  H    0.157215
    22  H    0.162570
 Sum of Mulliken atomic charges =  -0.00000
 Mulliken charges with hydrogens summed into heavy atoms:
              1
     1  C    0.253946
     2  O   -0.511272
     3  C    0.386785
     4  C   -0.116102
     5  C    0.182792
     6  C   -0.052800
     7  C   -0.130226
     8  C    0.174356
     9  C   -0.134112
    10  C   -0.053368
 Sum of Mulliken charges with hydrogens summed into heavy atoms =  -0.00000
 Electronic spatial extent (au):  <R**2>=           1713.5209
 Charge=             -0.0000 electrons
 Dipole moment (field-independent basis, Debye):
    X=             -0.5518    Y=              1.1004    Z=              0.2040  Tot=              1.2478
 Quadrupole moment (field-independent basis, Debye-Ang):
   XX=            -51.5217   YY=            -58.0176   ZZ=            -62.2642
   XY=             -2.7739   XZ=             -0.4749   YZ=             -0.2529
 Traceless Quadrupole moment (field-independent basis, Debye-Ang):
   XX=              5.7461   YY=             -0.7497   ZZ=             -4.9964
   XY=             -2.7739   XZ=             -0.4749   YZ=             -0.2529
 Octapole moment (field-independent basis, Debye-Ang**2):
  XXX=            -31.4153  YYY=             -3.2125  ZZZ=              0.0707  XYY=              1.6939
  XXY=              2.6116  XXZ=              1.9552  XZZ=             -4.5801  YZZ=             -0.3357
  YYZ=             -0.1956  XYZ=              0.5561
 Hexadecapole moment (field-independent basis, Debye-Ang**3):
 XXXX=          -1192.2762 YYYY=           -872.9123 ZZZZ=            -83.6836 XXXY=             14.5463
 XXXZ=             -4.4249 YYYX=              3.1710 YYYZ=              0.8402 ZZZX=              0.3622
 ZZZY=             -1.1124 XXYY=           -371.4821 XXZZ=           -233.8238 YYZZ=           -162.2362
 XXYZ=             -1.2907 YYXZ=             -0.2041 ZZXY=             -0.3954
 N-N= 5.076572331034D+02 E-N=-2.002735285054D+03  KE= 4.213772872511D+02
 No NMR shielding tensors so no spin-rotation constants.
 Leave Link  601 at Tue Sep 28 15:25:08 2021, MaxMem=  805306368 cpu:       0.7
 (Enter /sw/target/amd/app/gaussian/Gaussian09RevA.02_gcc-4.9.2/g09/l701.exe)
 Compute integral first derivatives.
 ... and contract with generalized density number  0.
 Leave Link  701 at Tue Sep 28 15:25:40 2021, MaxMem=  805306368 cpu:       0.6
 (Enter /sw/target/amd/app/gaussian/Gaussian09RevA.02_gcc-4.9.2/g09/l702.exe)
 L702 exits ... SP integral derivatives will be done elsewhere.
 Leave Link  702 at Tue Sep 28 15:25:43 2021, MaxMem=  805306368 cpu:       0.1
 (Enter /sw/target/amd/app/gaussian/Gaussian09RevA.02_gcc-4.9.2/g09/l703.exe)
 Compute integral first derivatives, UseDBF=F ICtDFT=           0.
 Integral derivatives from FoFDir, PRISM(SPDF).
 Calling FoFJK, ICntrl=      2127 FMM=F ISym2X=0 I1Cent= 0 IOpClX= 0 NMat=1 NMatS=1 NMatT=0.
 FoFCou: FMM=F IPFlag=           0 FMFlag=      100000 FMFlg1=         800
         NFxFlg=           0 DoJE=F BraDBF=F KetDBF=F FulRan=T
         Omega=  0.000000  0.000000  1.000000  0.000000  0.000000 ICntrl=    2127 IOpCl=  0
         NMat0=    1 NMatS0=    1 NMatT0=    0 NMatD0=    1 NMtDS0=    0 NMtDT0=    0
         I1Cent=           0 NGrid=           0.
 Symmetry not used in FoFCou.
 Leave Link  703 at Tue Sep 28 15:26:07 2021, MaxMem=  805306368 cpu:      49.6
 (Enter /sw/target/amd/app/gaussian/Gaussian09RevA.02_gcc-4.9.2/g09/l716.exe)
 Dipole        =-2.17089248D-01 4.32925981D-01 8.02550775D-02
 ***** Axes restored to original set *****
 -------------------------------------------------------------------
 Center     Atomic                   Forces (Hartrees/Bohr)
 Number     Number              X              Y              Z
 -------------------------------------------------------------------
      1        6          -0.003762735   -0.004307358   -0.001448633
      2        8           0.000842999    0.004185606   -0.006040784
      3        6          -0.000243500   -0.001810838    0.003668446
      4        6           0.001235445   -0.000314640    0.010835114
      5        6          -0.003870365   -0.002330487   -0.010583457
      6        6          -0.002195517   -0.003664249    0.000364068
      7        6           0.001101310    0.001839236   -0.006625332
      8        6          -0.004852013   -0.005878310    0.008792781
      9        6           0.000174304    0.001654014   -0.004077657
     10        6          -0.000156489    0.002274228    0.001540143
     11        1          -0.000705049   -0.002245967    0.004003110
     12        1           0.002519161    0.003077688   -0.000758896
     13        1           0.003459450    0.002040914    0.000032369
     14        1           0.000589702    0.000823280   -0.001279812
     15        1          -0.000201258    0.000532831    0.000462445
     16        1           0.000811399   -0.000369925    0.003988730
     17        1          -0.000131247    0.001350003    0.003638099
     18        1           0.000259219    0.000444765   -0.000638586
     19        1          -0.001024339   -0.000019646   -0.000732416
     20        1           0.000494110   -0.000721345   -0.000320482
     21        1           0.003090549    0.000802166   -0.002537978
     22        1           0.002564865    0.002638036   -0.002281272
 -------------------------------------------------------------------
 Cartesian Forces:  Max     0.010835114 RMS     0.003290473
 Leave Link  716 at Tue Sep 28 15:26:09 2021, MaxMem=  805306368 cpu:       0.2
 (Enter /sw/target/amd/app/gaussian/Gaussian09RevA.02_gcc-4.9.2/g09/l103.exe)

 GradGradGradGradGradGradGradGradGradGradGradGradGradGradGradGradGradGrad
 Berny optimization.
 Internal  Forces:  Max     0.008878022 RMS     0.002377566
 Search for a local minimum.
 Step number   1 out of a maximum of  110
 All quantities printed in internal units (Hartrees-Bohrs-Radians)
 RMS Force = .23776D-02 SwitMx=.10000D-02 MixMth= 1
 Mixed Optimization -- RFO/linear search
 Second derivative matrix not updated -- first step.
     Eigenvalues ---    0.00756   0.00772   0.01404   0.01526   0.01572
     Eigenvalues ---    0.02067   0.02088   0.02091   0.02095   0.02108
     Eigenvalues ---    0.02109   0.02120   0.02132   0.07261   0.07268
     Eigenvalues ---    0.07355   0.07364   0.09984   0.10544   0.16000
     Eigenvalues ---    0.16000   0.16000   0.16000   0.16000   0.16000
     Eigenvalues ---    0.16000   0.16000   0.16000   0.16000   0.16000
     Eigenvalues ---    0.16000   0.23462   0.23469   0.23499   0.24995
     Eigenvalues ---    0.24997   0.24999   0.25000   0.32300   0.32424
     Eigenvalues ---    0.34209   0.34243   0.34246   0.34253   0.34266
     Eigenvalues ---    0.34267   0.34277   0.34292   0.34322   0.35003
     Eigenvalues ---    0.35048   0.35393   0.41625   0.41947   0.42195
     Eigenvalues ---    0.45286   0.45624   0.45882   0.46103   0.51274
     Eigenvalues --- 1000.000001000.000001000.000001000.000001000.00000
     Eigenvalues --- 1000.000001000.000001000.000001000.000001000.00000
     Eigenvalues --- 1000.000001000.000001000.000001000.000001000.00000
     Eigenvalues --- 1000.000001000.000001000.000001000.000001000.00000
     Eigenvalues --- 1000.000001000.000001000.000001000.000001000.00000
     Eigenvalues --- 1000.000001000.000001000.000001000.000001000.00000
     Eigenvalues --- 1000.000001000.000001000.000001000.000001000.00000
     Eigenvalues --- 1000.000001000.000001000.000001000.000001000.00000
 RFO step:  Lambda=-2.59105708D-03 EMin= 7.56126555D-03
 Linear search not attempted -- first point.
 Iteration  1 RMS(Cart)=  0.03379860 RMS(Int)=  0.00064483
 Iteration  2 RMS(Cart)=  0.00090421 RMS(Int)=  0.00003659
 Iteration  3 RMS(Cart)=  0.00000091 RMS(Int)=  0.00003658
 Variable       Old X    -DE/DX   Delta X   Delta X   Delta X     New X
                                 (Linear)    (Quad)   (Total)
    R1        2.68675  -0.00206   0.00000  -0.00485  -0.00485   2.68190
    R2        2.06789  -0.00083   0.00000  -0.00240  -0.00240   2.06549
    R3        2.06884   0.00187   0.00000   0.00543   0.00543   2.07427
    R4        2.06978   0.00141   0.00000   0.00410   0.00410   2.07388
    R5        2.58601   0.00050   0.00000   0.00098   0.00098   2.58698
    R6        2.64054   0.00461   0.00000   0.01029   0.01029   2.65083
    R7        2.63814  -0.00012   0.00000   0.00010   0.00009   2.63823
    R8        2.64518  -0.00610   0.00000  -0.01329  -0.01328   2.63190
    R9        2.05596  -0.00116   0.00000  -0.00328  -0.00328   2.05269
   R10        2.83375   0.00888   0.00000   0.02716   0.02716   2.86091
   R11        2.64572   0.00438   0.00000   0.00920   0.00921   2.65493
   R12        2.06922  -0.00023   0.00000  -0.00068  -0.00068   2.06854
   R13        2.06866   0.00146   0.00000   0.00424   0.00424   2.07290
   R14        2.06883   0.00109   0.00000   0.00317   0.00317   2.07200
   R15        2.64583  -0.00342   0.00000  -0.00779  -0.00779   2.63805
   R16        2.05669  -0.00020   0.00000  -0.00057  -0.00057   2.05612
   R17        2.65224   0.00011   0.00000   0.00027   0.00026   2.65250
   R18        2.83599   0.00829   0.00000   0.02546   0.02546   2.86145
   R19        2.05042   0.00041   0.00000   0.00115   0.00115   2.05157
   R20        2.06917  -0.00038   0.00000  -0.00110  -0.00110   2.06807
   R21        2.06905   0.00111   0.00000   0.00322   0.00322   2.07227
   R22        2.06840   0.00173   0.00000   0.00499   0.00499   2.07339
    A1        1.88097  -0.00613   0.00000  -0.03489  -0.03480   1.84617
    A2        1.93872   0.00236   0.00000   0.01295   0.01302   1.95174
    A3        1.94145   0.00088   0.00000   0.00402   0.00406   1.94551
    A4        1.87950   0.00288   0.00000   0.02035   0.02046   1.89996
    A5        1.87912   0.00371   0.00000   0.02581   0.02587   1.90499
    A6        1.94095  -0.00367   0.00000  -0.02751  -0.02747   1.91348
    A7        2.03722   0.00476   0.00000   0.01883   0.01883   2.05604
    A8        2.00158   0.00365   0.00000   0.01377   0.01378   2.01537
    A9        2.19800  -0.00608   0.00000  -0.02476  -0.02475   2.17325
   A10        2.08358   0.00244   0.00000   0.01097   0.01095   2.09453
   A11        2.11193  -0.00136   0.00000  -0.00541  -0.00542   2.10652
   A12        2.07429  -0.00049   0.00000  -0.00449  -0.00449   2.06980
   A13        2.09695   0.00185   0.00000   0.00992   0.00992   2.10687
   A14        2.11041  -0.00004   0.00000   0.00018   0.00017   2.11058
   A15        2.07764  -0.00135   0.00000  -0.00597  -0.00596   2.07167
   A16        2.09502   0.00139   0.00000   0.00586   0.00585   2.10087
   A17        1.94661  -0.00025   0.00000   0.00147   0.00139   1.94800
   A18        1.92067   0.00370   0.00000   0.02057   0.02051   1.94117
   A19        1.92442   0.00314   0.00000   0.01852   0.01844   1.94286
   A20        1.88559  -0.00154   0.00000  -0.00790  -0.00795   1.87764
   A21        1.87928  -0.00076   0.00000  -0.00038  -0.00047   1.87881
   A22        1.90613  -0.00461   0.00000  -0.03423  -0.03429   1.87184
   A23        2.10625   0.00296   0.00000   0.01191   0.01191   2.11816
   A24        2.08452  -0.00067   0.00000  -0.00098  -0.00098   2.08354
   A25        2.09242  -0.00229   0.00000  -0.01093  -0.01093   2.08149
   A26        2.08377  -0.00074   0.00000  -0.00342  -0.00345   2.08032
   A27        2.10772   0.00156   0.00000   0.00649   0.00649   2.11421
   A28        2.09152  -0.00082   0.00000  -0.00292  -0.00292   2.08860
   A29        2.10313  -0.00195   0.00000  -0.00791  -0.00795   2.09518
   A30        2.11474  -0.00009   0.00000  -0.00257  -0.00255   2.11219
   A31        2.06531   0.00204   0.00000   0.01047   0.01049   2.07580
   A32        1.94621  -0.00093   0.00000  -0.00340  -0.00343   1.94277
   A33        1.92438   0.00357   0.00000   0.02206   0.02196   1.94634
   A34        1.92076   0.00410   0.00000   0.02279   0.02272   1.94349
   A35        1.87741  -0.00057   0.00000   0.00110   0.00104   1.87844
   A36        1.88778  -0.00170   0.00000  -0.01053  -0.01053   1.87725
   A37        1.90617  -0.00479   0.00000  -0.03403  -0.03415   1.87202
    D1       -3.05776   0.00001   0.00000   0.00344   0.00339  -3.05437
    D2        1.17045  -0.00110   0.00000  -0.00746  -0.00740   1.16305
    D3       -1.00170   0.00128   0.00000   0.01582   0.01580  -0.98589
    D4        2.98954   0.00129   0.00000   0.05478   0.05476   3.04430
    D5       -0.16030   0.00126   0.00000   0.05304   0.05306  -0.10724
    D6       -3.14070  -0.00026   0.00000  -0.00964  -0.00965   3.13283
    D7       -0.00333  -0.00019   0.00000  -0.00695  -0.00699  -0.01032
    D8        0.00855  -0.00019   0.00000  -0.00783  -0.00785   0.00071
    D9       -3.13726  -0.00011   0.00000  -0.00515  -0.00518   3.14074
   D10        3.13575   0.00037   0.00000   0.01653   0.01650  -3.13093
   D11       -0.01030   0.00035   0.00000   0.01515   0.01515   0.00485
   D12       -0.01444   0.00034   0.00000   0.01472   0.01473   0.00029
   D13        3.12269   0.00031   0.00000   0.01334   0.01338   3.13607
   D14        3.12533   0.00012   0.00000   0.00503   0.00499   3.13032
   D15        0.00018   0.00001   0.00000  -0.00013  -0.00015   0.00003
   D16       -0.01199   0.00005   0.00000   0.00234   0.00231  -0.00968
   D17       -3.13713  -0.00006   0.00000  -0.00281  -0.00284  -3.13997
   D18        0.10972  -0.00024   0.00000  -0.00486  -0.00489   0.10483
   D19       -1.98270  -0.00060   0.00000  -0.00957  -0.00958  -1.99228
   D20        2.19671   0.00073   0.00000   0.00789   0.00789   2.20460
   D21       -3.04848  -0.00015   0.00000   0.00023   0.00024  -3.04825
   D22        1.14229  -0.00052   0.00000  -0.00448  -0.00446   1.13782
   D23       -0.96149   0.00081   0.00000   0.01299   0.01301  -0.94848
   D24       -0.00313   0.00003   0.00000   0.00136   0.00135  -0.00178
   D25        3.13897  -0.00000   0.00000   0.00009   0.00010   3.13907
   D26       -3.12843  -0.00006   0.00000  -0.00369  -0.00372  -3.13214
   D27        0.01368  -0.00010   0.00000  -0.00497  -0.00496   0.00871
   D28       -0.00267   0.00010   0.00000   0.00539   0.00544   0.00277
   D29       -3.12427  -0.00005   0.00000  -0.00330  -0.00326  -3.12752
   D30        3.13841   0.00014   0.00000   0.00667   0.00668  -3.13809
   D31        0.01681  -0.00001   0.00000  -0.00201  -0.00201   0.01480
   D32        0.01155  -0.00031   0.00000  -0.01360  -0.01354  -0.00199
   D33       -3.12571  -0.00028   0.00000  -0.01223  -0.01219  -3.13790
   D34        3.13333  -0.00013   0.00000  -0.00489  -0.00487   3.12847
   D35       -0.00392  -0.00010   0.00000  -0.00352  -0.00351  -0.00744
   D36       -0.15603   0.00044   0.00000   0.01008   0.01011  -0.14593
   D37       -2.24038  -0.00060   0.00000  -0.00368  -0.00365  -2.24403
   D38        1.93894   0.00043   0.00000   0.00983   0.00979   1.94872
   D39        3.00564   0.00028   0.00000   0.00136   0.00138   3.00702
   D40        0.92129  -0.00076   0.00000  -0.01240  -0.01238   0.90892
   D41       -1.18257   0.00027   0.00000   0.00111   0.00106  -1.18151
         Item               Value     Threshold  Converged?
 Maximum Force            0.008878     0.000450     NO 
 RMS     Force            0.002378     0.000300     NO 
 Maximum Displacement     0.149317     0.001800     NO 
 RMS     Displacement     0.033797     0.001200     NO 
 Predicted change in Energy=-1.321312D-03
 GradGradGradGradGradGradGradGradGradGradGradGradGradGradGradGradGradGrad

 Leave Link  103 at Tue Sep 28 15:26:22 2021, MaxMem=  805306368 cpu:       2.2
 (Enter /sw/target/amd/app/gaussian/Gaussian09RevA.02_gcc-4.9.2/g09/l202.exe)
                          Input orientation:                          
 ---------------------------------------------------------------------
 Center     Atomic      Atomic             Coordinates (Angstroms)
 Number     Number       Type             X           Y           Z
 ---------------------------------------------------------------------
      1          6           0        2.349245    0.705938   -1.308702
      2          8           0        2.162628    0.239985    0.018773
      3          6           0        2.940768    0.787568    1.003017
      4          6           0        2.633682    0.382294    2.310374
      5          6           0        3.363692    0.864333    3.394097
      6          6           0        3.027552    0.441735    4.808454
      7          6           0        4.414468    1.765105    3.152631
      8          6           0        4.734968    2.177333    1.857970
      9          6           0        3.988188    1.682580    0.777344
     10          6           0        5.880107    3.134392    1.601967
     11          1           0        1.579133    0.213146   -1.907667
     12          1           0        3.335863    0.430369   -1.703031
     13          1           0        2.216097    1.793250   -1.375196
     14          1           0        1.813616   -0.314222    2.459579
     15          1           0        2.252089   -0.330657    4.824930
     16          1           0        2.662705    1.290205    5.400265
     17          1           0        3.907774    0.040101    5.324312
     18          1           0        4.990514    2.150483    3.991387
     19          1           0        4.243276    2.003248   -0.228005
     20          1           0        6.278294    3.537690    2.538161
     21          1           0        5.564621    3.982557    0.982601
     22          1           0        6.706140    2.637858    1.077606
 ---------------------------------------------------------------------
                    Distance matrix (angstroms):
                    1          2          3          4          5
     1  C    0.000000
     2  O    1.419200   0.000000
     3  C    2.387595   1.368972   0.000000
     4  C    3.644635   2.343839   1.402758   0.000000
     5  C    4.813576   3.636644   2.429407   1.392742   0.000000
     6  C    6.160317   4.871329   3.822105   2.529639   1.513931
     7  C    5.028963   4.149438   2.783560   2.406815   1.404929
     8  C    4.229006   3.708490   2.425190   2.800399   2.442141
     9  C    2.826933   2.447280   1.396089   2.423966   2.811924
    10  C    5.180384   4.970287   3.808680   4.314529   3.833699
    11  H    1.093012   2.013046   3.264367   4.351155   5.631819
    12  H    1.097655   2.092208   2.757968   4.074652   5.115644
    13  H    1.097450   2.087735   2.681872   3.968450   4.992596
    14  H    3.940504   2.527151   2.146156   1.086235   2.159873
    15  H    6.221368   4.840742   4.041253   2.641384   2.170471
    16  H    6.741652   5.505770   4.434609   3.220648   2.167363
    17  H    6.846111   5.588760   4.490813   3.290019   2.168205
    18  H    6.095404   5.237232   3.871608   3.392190   2.158121
    19  H    2.537375   2.738447   2.165599   3.414916   3.897488
    20  H    6.185031   5.844731   4.589000   4.826138   4.046526
    21  H    5.130784   5.148724   4.134365   4.828589   4.514722
    22  H    5.330039   5.245419   4.196089   4.815828   4.436607
                    6          7          8          9         10
     6  C    0.000000
     7  C    2.533100   0.000000
     8  C    3.825301   1.395993   0.000000
     9  C    4.325780   2.414645   1.403643   0.000000
    10  C    5.066462   2.535272   1.514214   2.523315   0.000000
    11  H    6.874333   6.004524   5.291252   3.895133   6.272925
    12  H    6.518791   5.149986   4.205961   2.854089   4.970708
    13  H    6.381425   5.033372   4.116503   2.790337   4.907865
    14  H    2.749969   3.401228   3.886396   3.397925   5.400444
    15  H    1.094625   3.444515   4.610591   4.842532   5.962933
    16  H    1.096929   2.888956   4.198705   4.825170   5.308462
    17  H    1.096453   2.819322   4.155422   4.835196   5.226910
    18  H    2.727753   1.088052   2.148835   3.399068   2.732907
    19  H    5.411306   3.393334   2.150200   1.085645   2.703239
    20  H    5.030555   2.644518   2.166815   3.433147   1.094377
    21  H    5.797524   3.308923   2.171043   2.795919   1.096599
    22  H    5.681038   3.212349   2.169463   2.896546   1.097192
                   11         12         13         14         15
    11  H    0.000000
    12  H    1.781898   0.000000
    13  H    1.784930   1.794100   0.000000
    14  H    4.405217   4.494327   4.394192   0.000000
    15  H    6.787964   6.660932   6.553918   2.405705   0.000000
    16  H    7.465926   7.186744   6.808773   3.455832   1.768279
    17  H    7.599607   7.061370   7.128724   3.566194   1.768653
    18  H    7.084464   6.174387   6.051877   4.302777   3.788116
    19  H    3.622622   2.339455   2.338718   4.300817   5.911353
    20  H    7.273245   6.025036   5.904141   5.897182   6.033552
    21  H    6.200502   4.979761   4.643801   5.891842   6.658842
    22  H    6.409156   4.895275   5.185565   5.878896   6.533995
                   16         17         18         19         20
    16  H    0.000000
    17  H    1.765991   0.000000
    18  H    2.853719   2.720795   0.000000
    19  H    5.889317   5.898706   4.287576   0.000000
    20  H    5.129845   5.061139   2.386333   3.761314   0.000000
    21  H    5.931747   6.094141   3.569157   2.670053   1.768334
    22  H    6.070495   5.710841   3.416288   2.858855   1.768041
                   21         22
    21  H    0.000000
    22  H    1.766438   0.000000
 Stoichiometry    C9H12O
 Framework group  C1[X(C9H12O)]
 Deg. of freedom    60
 Full point group                 C1      NOp   1
 Largest Abelian subgroup         C1      NOp   1
 Largest concise Abelian subgroup C1      NOp   1
                         Standard orientation:                         
 ---------------------------------------------------------------------
 Center     Atomic      Atomic             Coordinates (Angstroms)
 Number     Number       Type             X           Y           Z
 ---------------------------------------------------------------------
      1          6           0       -3.290213   -0.228055    0.056956
      2          8           0       -2.154976   -1.072206   -0.056064
      3          6           0       -0.918095   -0.486248   -0.026697
      4          6           0        0.169261   -1.372438   -0.019138
      5          6           0        1.476835   -0.893240   -0.000414
      6          6           0        2.654039   -1.844898    0.022457
      7          6           0        1.686144    0.495964    0.010801
      8          6           0        0.615761    1.392061    0.001413
      9          6           0       -0.695653    0.891966   -0.016279
     10          6           0        0.847427    2.888436   -0.004656
     11          1           0       -4.154046   -0.896192    0.102345
     12          1           0       -3.396923    0.431180   -0.814175
     13          1           0       -3.252870    0.374789    0.973243
     14          1           0       -0.030281   -2.440160   -0.026710
     15          1           0        2.333057   -2.885911   -0.084628
     16          1           0        3.210896   -1.765078    0.964153
     17          1           0        3.357313   -1.628596   -0.790457
     18          1           0        2.703114    0.882408    0.027839
     19          1           0       -1.524877    1.592606   -0.027040
     20          1           0        1.904387    3.127916    0.147482
     21          1           0        0.276565    3.387032    0.787838
     22          1           0        0.540448    3.336370   -0.958044
 ---------------------------------------------------------------------
 Rotational constants (GHZ):      1.7277823      1.0884097      0.6765063
 Leave Link  202 at Tue Sep 28 15:26:23 2021, MaxMem=  805306368 cpu:       0.0
 (Enter /sw/target/amd/app/gaussian/Gaussian09RevA.02_gcc-4.9.2/g09/l301.exe)
 Standard basis: 6-31G(d) (6D, 7F)
 Ernie: Thresh=  0.10000D-02 Tol=  0.10000D-05 Strict=F.
 There are   174 symmetry adapted basis functions of A   symmetry.
 Integral buffers will be    131072 words long.
 Raffenetti 2 integral format.
 Two-electron integral symmetry is turned on.
   174 basis functions,   328 primitive gaussians,   174 cartesian basis functions
    37 alpha electrons       37 beta electrons
       nuclear repulsion energy       506.7431993603 Hartrees.
 IExCor=  402 DFT=T Ex+Corr=B3LYP ExCW=0 ScaHFX=  0.200000
 ScaDFX=  0.800000  0.720000  1.000000  0.810000 ScalE2=  1.000000  1.000000
 IRadAn=      0 IRanWt=     -1 IRanGd=            0 ICorTp=0
 NAtoms=   22 NActive=   22 NUniq=   22 SFac= 7.50D-01 NAtFMM=   80 NAOKFM=F Big=F
 Leave Link  301 at Tue Sep 28 15:26:37 2021, MaxMem=  805306368 cpu:       0.4
 (Enter /sw/target/amd/app/gaussian/Gaussian09RevA.02_gcc-4.9.2/g09/l302.exe)
 NPDir=0 NMtPBC=     1 NCelOv=     1 NCel=       1 NClECP=     1 NCelD=      1
         NCelK=      1 NCelE2=     1 NClLst=     1 CellRange=     0.0.
 One-electron integrals computed using PRISM.
 NBasis=   174 RedAO= T  NBF=   174
 NBsUse=   174 1.00D-06 NBFU=   174
 Precomputing XC quadrature grid using
 IXCGrd= 2 IRadAn=           0 IRanWt=          -1 IRanGd=           0 AccXCQ= 1.00D-10.
 NRdTot=    1382 NPtTot=      174826 NUsed=      184799 NTot=      184831
 NSgBfM=   173   173   173   173   173 NAtAll=    22    22.
 Leave Link  302 at Tue Sep 28 15:27:13 2021, MaxMem=  805306368 cpu:       1.2
 (Enter /sw/target/amd/app/gaussian/Gaussian09RevA.02_gcc-4.9.2/g09/l303.exe)
 DipDrv:  MaxL=1.
 Leave Link  303 at Tue Sep 28 15:27:22 2021, MaxMem=  805306368 cpu:       0.1
 (Enter /sw/target/amd/app/gaussian/Gaussian09RevA.02_gcc-4.9.2/g09/l401.exe)
 Initial guess read from the read-write file.
 B after Tr=     0.000000    0.000000    0.000000
         Rot=    1.000000    0.000000    0.000000    0.000000 Ang=   0.00 deg.
 Guess basis will be translated and rotated to current coordinates.
 Initial guess orbital symmetries:
       Occupied  (A) (A) (A) (A) (A) (A) (A) (A) (A) (A) (A) (A)
                 (A) (A) (A) (A) (A) (A) (A) (A) (A) (A) (A) (A)
                 (A) (A) (A) (A) (A) (A) (A) (A) (A) (A) (A) (A)
                 (A)
       Virtual   (A) (A) (A) (A) (A) (A) (A) (A) (A) (A) (A) (A)
                 (A) (A) (A) (A) (A) (A) (A) (A) (A) (A) (A) (A)
                 (A) (A) (A) (A) (A) (A) (A) (A) (A) (A) (A) (A)
                 (A) (A) (A) (A) (A) (A) (A) (A) (A) (A) (A) (A)
                 (A) (A) (A) (A) (A) (A) (A) (A) (A) (A) (A) (A)
                 (A) (A) (A) (A) (A) (A) (A) (A) (A) (A) (A) (A)
                 (A) (A) (A) (A) (A) (A) (A) (A) (A) (A) (A) (A)
                 (A) (A) (A) (A) (A) (A) (A) (A) (A) (A) (A) (A)
                 (A) (A) (A) (A) (A) (A) (A) (A) (A) (A) (A) (A)
                 (A) (A) (A) (A) (A) (A) (A) (A) (A) (A) (A) (A)
                 (A) (A) (A) (A) (A) (A) (A) (A) (A) (A) (A) (A)
                 (A) (A) (A) (A) (A)
 The electronic state of the initial guess is 1-A.
 Generating alternative initial guess.
 Harris functional with IExCor=  402 diagonalized for initial guess.
 ExpMin= 1.61D-01 ExpMax= 5.48D+03 ExpMxC= 8.25D+02 IAcc=1 IRadAn=         1 AccDes= 0.00D+00
 HarFok:  IExCor=  402 AccDes= 0.00D+00 IRadAn=         1 IDoV= 1
 ScaDFX=  1.000000  1.000000  1.000000  1.000000
 FoFCou: FMM=F IPFlag=           0 FMFlag=      100000 FMFlg1=           0
         NFxFlg=           0 DoJE=T BraDBF=F KetDBF=T FulRan=T
         Omega=  0.000000  0.000000  1.000000  0.000000  0.000000 ICntrl=     500 IOpCl=  0
         NMat0=    1 NMatS0=    1 NMatT0=    0 NMatD0=    1 NMtDS0=    0 NMtDT0=    0
         I1Cent=           4 NGrid=           0.
 Petite list used in FoFCou.
 Harris En= -425.484775677060    
 Leave Link  401 at Tue Sep 28 15:27:47 2021, MaxMem=  805306368 cpu:       8.6
 (Enter /sw/target/amd/app/gaussian/Gaussian09RevA.02_gcc-4.9.2/g09/l502.exe)
 Closed shell SCF:
 Requested convergence on RMS density matrix=1.00D-08 within  64 cycles.
 Requested convergence on MAX density matrix=1.00D-06.
 Requested convergence on             energy=1.00D-06.
 No special actions if energy rises.
 Using DIIS extrapolation, IDIIS=  1040.
 Integral symmetry usage will be decided dynamically.
       184588 words used for storage of precomputed grid.
 Keep R1 ints in memory in canonical form, NReq=118870863.
 IEnd=      283324 IEndB=      283324 NGot=   805306368 MDV=   689149766
 LenX=   689149766 LenY=   689119049
 Symmetry not used in FoFDir.
 MinBra= 0 MaxBra= 2 Meth= 1.
 IRaf=       0 NMat=   1 IRICut=       1 DoRegI=T DoRafI=F ISym2E= 0 JSym2E=0.
 Integral accuracy reduced to 1.0D-05 until final iterations.

 Cycle   1  Pass 0  IDiag  1:
 E= -425.404024546620    
 DIIS: error= 2.28D-03 at cycle   1 NSaved=   1.
 NSaved= 1 IEnMin= 1 EnMin= -425.404024546620     IErMin= 1 ErrMin= 2.28D-03
 ErrMax= 2.28D-03 EMaxC= 1.00D-01 BMatC= 1.71D-03 BMatP= 1.71D-03
 IDIUse=3 WtCom= 9.77D-01 WtEn= 2.28D-02
 Coeff-Com:  0.100D+01
 Coeff-En:   0.100D+01
 Coeff:      0.100D+01
 Gap=     0.220 Goal=   None    Shift=    0.000
 GapD=    0.220 DampG=1.000 DampE=1.000 DampFc=1.0000 IDamp=-1.
 RMSDP=3.82D-04 MaxDP=6.61D-03              OVMax= 1.67D-02

 Cycle   2  Pass 0  IDiag  1:
 E= -425.407092445295     Delta-E=       -0.003067898675 Rises=F Damp=F
 DIIS: error= 2.91D-04 at cycle   2 NSaved=   2.
 NSaved= 2 IEnMin= 2 EnMin= -425.407092445295     IErMin= 2 ErrMin= 2.91D-04
 ErrMax= 2.91D-04 EMaxC= 1.00D-01 BMatC= 4.26D-05 BMatP= 1.71D-03
 IDIUse=3 WtCom= 9.97D-01 WtEn= 2.91D-03
 Coeff-Com: -0.331D-01 0.103D+01
 Coeff-En:   0.000D+00 0.100D+01
 Coeff:     -0.330D-01 0.103D+01
 Gap=     0.219 Goal=   None    Shift=    0.000
 RMSDP=8.01D-05 MaxDP=2.11D-03 DE=-3.07D-03 OVMax= 4.53D-03

 Cycle   3  Pass 0  IDiag  1:
 E= -425.407090504110     Delta-E=        0.000001941184 Rises=F Damp=F
 DIIS: error= 3.62D-04 at cycle   3 NSaved=   3.
[...]
    13  H    0.576382   0.000025  -0.000000  -0.000000   0.000000   0.000000
    14  H    0.000025   0.612083   0.006552   0.000174   0.000165  -0.000155
    15  H   -0.000000   0.006552   0.563227  -0.028836  -0.027657   0.000017
    16  H   -0.000000   0.000174  -0.028836   0.598846  -0.043856   0.001974
    17  H    0.000000   0.000165  -0.027657  -0.043856   0.596496   0.002304
    18  H    0.000000  -0.000155   0.000017   0.001974   0.002304   0.618473
    19  H    0.001394  -0.000180  -0.000000  -0.000000  -0.000000  -0.000176
    20  H   -0.000000  -0.000000   0.000000  -0.000000  -0.000001   0.007102
    21  H    0.000011  -0.000000  -0.000000  -0.000002   0.000001   0.000138
    22  H   -0.000005  -0.000000  -0.000000   0.000001  -0.000002   0.000117
             19         20         21         22
     1  C    0.006437   0.000000  -0.000002  -0.000002
     2  O   -0.007657   0.000000   0.000001   0.000001
     3  C   -0.050248  -0.000093  -0.000077  -0.000070
     4  C    0.004437  -0.000008  -0.000043  -0.000043
     5  C    0.000561   0.000131  -0.000021  -0.000020
     6  C    0.000011  -0.000003   0.000003   0.000003
     7  C    0.005735  -0.002905   0.000715   0.001026
     8  C   -0.042067  -0.029401  -0.037914  -0.037586
     9  C    0.350065   0.003471   0.001708   0.001506
    10  C   -0.008733   0.365318   0.348157   0.348070
    11  H   -0.000017   0.000000   0.000000   0.000000
    12  H    0.001430  -0.000000  -0.000005   0.000012
    13  H    0.001394  -0.000000   0.000011  -0.000005
    14  H   -0.000180  -0.000000  -0.000000  -0.000000
    15  H   -0.000000   0.000000  -0.000000  -0.000000
    16  H   -0.000000  -0.000000  -0.000002   0.000001
    17  H   -0.000000  -0.000001   0.000001  -0.000002
    18  H   -0.000176   0.007102   0.000138   0.000117
    19  H    0.618403   0.000028   0.002066   0.002348
    20  H    0.000028   0.563338  -0.028545  -0.028027
    21  H    0.002066  -0.028545   0.615889  -0.051077
    22  H    0.002348  -0.028027  -0.051077   0.615358
 Mulliken atomic charges:
              1
     1  C   -0.223151
     2  O   -0.458333
     3  C    0.360948
     4  C   -0.245527
     5  C    0.159480
     6  C   -0.525842
     7  C   -0.214383
     8  C    0.160931
     9  C   -0.254479
    10  C   -0.526217
    11  H    0.175242
    12  H    0.167663
    13  H    0.167662
    14  H    0.120894
    15  H    0.150338
    16  H    0.151099
    17  H    0.150636
    18  H    0.119890
    19  H    0.116164
    20  H    0.149596
    21  H    0.148997
    22  H    0.148392
 Sum of Mulliken atomic charges =  -0.00000
 Mulliken charges with hydrogens summed into heavy atoms:
              1
     1  C    0.287416
     2  O   -0.458333
     3  C    0.360948
     4  C   -0.124633
     5  C    0.159480
     6  C   -0.073770
     7  C   -0.094493
     8  C    0.160931
     9  C   -0.138315
    10  C   -0.079232
 Sum of Mulliken charges with hydrogens summed into heavy atoms =  -0.00000
 Electronic spatial extent (au):  <R**2>=           1721.0737
 Charge=             -0.0000 electrons
 Dipole moment (field-independent basis, Debye):
    X=             -1.7825    Y=              0.8644    Z=              0.0040  Tot=              1.9811
 Quadrupole moment (field-independent basis, Debye-Ang):
   XX=            -49.4352   YY=            -60.0551   ZZ=            -62.6975
   XY=             -1.3876   XZ=             -0.0022   YZ=              0.0026
 Traceless Quadrupole moment (field-independent basis, Debye-Ang):
   XX=              7.9607   YY=             -2.6592   ZZ=             -5.3016
   XY=             -1.3876   XZ=             -0.0022   YZ=              0.0026
 Octapole moment (field-independent basis, Debye-Ang**2):
  XXX=            -43.5050  YYY=             -6.5352  ZZZ=              0.0878  XYY=             -1.5462
  XXY=              2.7431  XXZ=             -0.0693  XZZ=             -5.9651  YZZ=             -0.6733
  YYZ=             -0.0443  XYZ=             -0.0108
 Hexadecapole moment (field-independent basis, Debye-Ang**3):
 XXXX=          -1175.9548 YYYY=           -898.2733 ZZZZ=            -83.6703 XXXY=             26.6991
 XXXZ=             -0.3814 YYYX=              5.2041 YYYZ=              0.1368 ZZZX=              0.1611
 ZZZY=              0.0241 XXYY=           -373.2918 XXZZ=           -234.8684 YYZZ=           -167.5926
 XXYZ=             -0.1441 YYXZ=             -0.0247 ZZXY=              0.7474
 N-N= 5.069296458154D+02 E-N=-2.001097429521D+03  KE= 4.215225389749D+02
 No NMR shielding tensors so no spin-rotation constants.
 Leave Link  601 at Tue Sep 28 18:33:21 2021, MaxMem=  805306368 cpu:       0.8
 (Enter /sw/target/amd/app/gaussian/Gaussian09RevA.02_gcc-4.9.2/g09/l604.exe)
 Evaluate density.
 Using the total density.
 Monte-Carlo method of calculating molar volume:
 based on  0.001 e/bohr**3 density envelope.
 Number of points per bohr**3 =   20 CutOff= 1.00D-04
 Using the CI density.
 There are       381 points.  Will hold       381 in memory.
 LenV=   805208100 MDV=   805306368.
 Box volume = 6943.146 fraction occupied=0.192
 Integrated density= 5.5461771930238470D+01 error=-1.8538228069761530D+01
 Molar volume = 1330.314 bohr**3/mol (118.716 cm**3/mol)
 Recommended a0 for SCRF calculation =  4.47 angstrom (  8.45 bohr)
 Leave Link  604 at Tue Sep 28 18:33:22 2021, MaxMem=  805306368 cpu:       0.2
 (Enter /sw/target/amd/app/gaussian/Gaussian09RevA.02_gcc-4.9.2/g09/l607.exe)
 ******************************Gaussian NBO Version 3.1******************************
             N A T U R A L   A T O M I C   O R B I T A L   A N D
          N A T U R A L   B O N D   O R B I T A L   A N A L Y S I S
 ******************************Gaussian NBO Version 3.1******************************
       /RESON  / : Allow strongly delocalized NBO set

 Analyzing the CI density

 Job title: COc1cc(C)cc(c1)C_conf_0                                         

 Storage needed:     92476 in NPA ( 805303728 available)


 NATURAL POPULATIONS:  Natural atomic orbital occupancies 
                                                          
   NAO  Atom  No  lang   Type(AO)    Occupancy
 --------------------------------------------
     1    C    1  S      Cor( 1S)     1.99942
     2    C    1  S      Val( 2S)     1.10250
     3    C    1  S      Ryd( 3S)     0.00149
     4    C    1  S      Ryd( 4S)     0.00003
     5    C    1  px     Val( 2p)     0.89984
     6    C    1  px     Ryd( 3p)     0.00242
     7    C    1  py     Val( 2p)     1.07593
     8    C    1  py     Ryd( 3p)     0.00335
     9    C    1  pz     Val( 2p)     1.23186
    10    C    1  pz     Ryd( 3p)     0.00032
    11    C    1  dxy    Ryd( 3d)     0.00200
    12    C    1  dxz    Ryd( 3d)     0.00082
    13    C    1  dyz    Ryd( 3d)     0.00152
    14    C    1  dx2y2  Ryd( 3d)     0.00109
    15    C    1  dz2    Ryd( 3d)     0.00110

    16    O    2  S      Cor( 1S)     1.99975
    17    O    2  S      Val( 2S)     1.59736
    18    O    2  S      Ryd( 3S)     0.00078
    19    O    2  S      Ryd( 4S)     0.00007
    20    O    2  px     Val( 2p)     1.37606
    21    O    2  px     Ryd( 3p)     0.00080
    22    O    2  py     Val( 2p)     1.73000
    23    O    2  py     Ryd( 3p)     0.00236
    24    O    2  pz     Val( 2p)     1.72656
    25    O    2  pz     Ryd( 3p)     0.00228
    26    O    2  dxy    Ryd( 3d)     0.00133
    27    O    2  dxz    Ryd( 3d)     0.00040
    28    O    2  dyz    Ryd( 3d)     0.00165
    29    O    2  dx2y2  Ryd( 3d)     0.00132
    30    O    2  dz2    Ryd( 3d)     0.00076

    31    C    3  S      Cor( 1S)     1.99880
    32    C    3  S      Val( 2S)     0.83778
    33    C    3  S      Ryd( 3S)     0.00149
    34    C    3  S      Ryd( 4S)     0.00014
    35    C    3  px     Val( 2p)     0.79450
    36    C    3  px     Ryd( 3p)     0.00550
    37    C    3  py     Val( 2p)     1.03495
    38    C    3  py     Ryd( 3p)     0.00791
    39    C    3  pz     Val( 2p)     0.98064
    40    C    3  pz     Ryd( 3p)     0.00209
    41    C    3  dxy    Ryd( 3d)     0.00169
    42    C    3  dxz    Ryd( 3d)     0.00162
    43    C    3  dyz    Ryd( 3d)     0.00138
    44    C    3  dx2y2  Ryd( 3d)     0.00142
    45    C    3  dz2    Ryd( 3d)     0.00049

    46    C    4  S      Cor( 1S)     1.99899
    47    C    4  S      Val( 2S)     0.95235
    48    C    4  S      Ryd( 3S)     0.00078
    49    C    4  S      Ryd( 4S)     0.00005
    50    C    4  px     Val( 2p)     1.05795
    51    C    4  px     Ryd( 3p)     0.00462
    52    C    4  py     Val( 2p)     1.18142
    53    C    4  py     Ryd( 3p)     0.00402
    54    C    4  pz     Val( 2p)     1.08872
    55    C    4  pz     Ryd( 3p)     0.00605
    56    C    4  dxy    Ryd( 3d)     0.00077
    57    C    4  dxz    Ryd( 3d)     0.00068
    58    C    4  dyz    Ryd( 3d)     0.00038
    59    C    4  dx2y2  Ryd( 3d)     0.00064
    60    C    4  dz2    Ryd( 3d)     0.00045

    61    C    5  S      Cor( 1S)     1.99908
    62    C    5  S      Val( 2S)     0.87999
    63    C    5  S      Ryd( 3S)     0.00049
    64    C    5  S      Ryd( 4S)     0.00006
    65    C    5  px     Val( 2p)     1.06435
    66    C    5  px     Ryd( 3p)     0.00465
    67    C    5  py     Val( 2p)     1.06452
    68    C    5  py     Ryd( 3p)     0.00468
    69    C    5  pz     Val( 2p)     1.05005
    70    C    5  pz     Ryd( 3p)     0.00431
    71    C    5  dxy    Ryd( 3d)     0.00061
    72    C    5  dxz    Ryd( 3d)     0.00075
    73    C    5  dyz    Ryd( 3d)     0.00054
    74    C    5  dx2y2  Ryd( 3d)     0.00083
    75    C    5  dz2    Ryd( 3d)     0.00034

    76    C    6  S      Cor( 1S)     1.99941
    77    C    6  S      Val( 2S)     1.09650
    78    C    6  S      Ryd( 3S)     0.00021
    79    C    6  S      Ryd( 4S)     0.00001
    80    C    6  px     Val( 2p)     1.15796
    81    C    6  px     Ryd( 3p)     0.00147
    82    C    6  py     Val( 2p)     1.18474
    83    C    6  py     Ryd( 3p)     0.00208
    84    C    6  pz     Val( 2p)     1.23801
    85    C    6  pz     Ryd( 3p)     0.00031
    86    C    6  dxy    Ryd( 3d)     0.00061
    87    C    6  dxz    Ryd( 3d)     0.00132
    88    C    6  dyz    Ryd( 3d)     0.00024
    89    C    6  dx2y2  Ryd( 3d)     0.00067
    90    C    6  dz2    Ryd( 3d)     0.00063

    91    C    7  S      Cor( 1S)     1.99899
    92    C    7  S      Val( 2S)     0.95384
    93    C    7  S      Ryd( 3S)     0.00050
    94    C    7  S      Ryd( 4S)     0.00005
    95    C    7  px     Val( 2p)     1.16984
    96    C    7  px     Ryd( 3p)     0.00415
    97    C    7  py     Val( 2p)     1.07502
    98    C    7  py     Ryd( 3p)     0.00313
    99    C    7  pz     Val( 2p)     0.95118
   100    C    7  pz     Ryd( 3p)     0.00309
   101    C    7  dxy    Ryd( 3d)     0.00080
   102    C    7  dxz    Ryd( 3d)     0.00038
   103    C    7  dyz    Ryd( 3d)     0.00086
   104    C    7  dx2y2  Ryd( 3d)     0.00082
   105    C    7  dz2    Ryd( 3d)     0.00042

   106    C    8  S      Cor( 1S)     1.99908
   107    C    8  S      Val( 2S)     0.88047
   108    C    8  S      Ryd( 3S)     0.00057
   109    C    8  S      Ryd( 4S)     0.00006
   110    C    8  px     Val( 2p)     1.07110
   111    C    8  px     Ryd( 3p)     0.00472
   112    C    8  py     Val( 2p)     1.05573
   113    C    8  py     Ryd( 3p)     0.00482
   114    C    8  pz     Val( 2p)     1.03055
   115    C    8  pz     Ryd( 3p)     0.00395
   116    C    8  dxy    Ryd( 3d)     0.00081
   117    C    8  dxz    Ryd( 3d)     0.00070
   118    C    8  dyz    Ryd( 3d)     0.00061
   119    C    8  dx2y2  Ryd( 3d)     0.00064
   120    C    8  dz2    Ryd( 3d)     0.00034

   121    C    9  S      Cor( 1S)     1.99898
   122    C    9  S      Val( 2S)     0.95010
   123    C    9  S      Ryd( 3S)     0.00057
   124    C    9  S      Ryd( 4S)     0.00005
   125    C    9  px     Val( 2p)     1.14622
   126    C    9  px     Ryd( 3p)     0.00321
   127    C    9  py     Val( 2p)     1.11073
   128    C    9  py     Ryd( 3p)     0.00352
   129    C    9  pz     Val( 2p)     1.11436
   130    C    9  pz     Ryd( 3p)     0.00633
   131    C    9  dxy    Ryd( 3d)     0.00071
   132    C    9  dxz    Ryd( 3d)     0.00048
   133    C    9  dyz    Ryd( 3d)     0.00054
   134    C    9  dx2y2  Ryd( 3d)     0.00067
   135    C    9  dz2    Ryd( 3d)     0.00046

   136    C   10  S      Cor( 1S)     1.99940
   137    C   10  S      Val( 2S)     1.09669
   138    C   10  S      Ryd( 3S)     0.00021
   139    C   10  S      Ryd( 4S)     0.00001
   140    C   10  px     Val( 2p)     1.24525
   141    C   10  px     Ryd( 3p)     0.00263
   142    C   10  py     Val( 2p)     1.09655
   143    C   10  py     Ryd( 3p)     0.00093
   144    C   10  pz     Val( 2p)     1.24059
   145    C   10  pz     Ryd( 3p)     0.00029
   146    C   10  dxy    Ryd( 3d)     0.00045
   147    C   10  dxz    Ryd( 3d)     0.00053
   148    C   10  dyz    Ryd( 3d)     0.00100
   149    C   10  dx2y2  Ryd( 3d)     0.00083
   150    C   10  dz2    Ryd( 3d)     0.00063

   151    H   11  S      Val( 1S)     0.76907
   152    H   11  S      Ryd( 2S)     0.00054

   153    H   12  S      Val( 1S)     0.78380
   154    H   12  S      Ryd( 2S)     0.00203

   155    H   13  S      Val( 1S)     0.78380
   156    H   13  S      Ryd( 2S)     0.00203

   157    H   14  S      Val( 1S)     0.76524
   158    H   14  S      Ryd( 2S)     0.00139

   159    H   15  S      Val( 1S)     0.76496
   160    H   15  S      Ryd( 2S)     0.00083

   161    H   16  S      Val( 1S)     0.76550
   162    H   16  S      Ryd( 2S)     0.00206

   163    H   17  S      Val( 1S)     0.76551
   164    H   17  S      Ryd( 2S)     0.00196

   165    H   18  S      Val( 1S)     0.77545
   166    H   18  S      Ryd( 2S)     0.00116

   167    H   19  S      Val( 1S)     0.77462
   168    H   19  S      Ryd( 2S)     0.00108

   169    H   20  S      Val( 1S)     0.76536
   170    H   20  S      Ryd( 2S)     0.00081

   171    H   21  S      Val( 1S)     0.76677
   172    H   21  S      Ryd( 2S)     0.00303

   173    H   22  S      Val( 1S)     0.76698
   174    H   22  S      Ryd( 2S)     0.00300

 WARNING:  1 low occupancy (<1.9990e) core orbital  found on  C    3
           1 low occupancy (<1.9990e) core orbital  found on  C    4
           1 low occupancy (<1.9990e) core orbital  found on  C    7
           1 low occupancy (<1.9990e) core orbital  found on  C    9


 Summary of Natural Population Analysis:                  
                                                          
                                       Natural Population 
                Natural  -----------------------------------------------
    Atom  No    Charge         Core      Valence    Rydberg      Total
 -----------------------------------------------------------------------
      C    1   -0.32369      1.99942     4.31013    0.01414     6.32369
      O    2   -0.44149      1.99975     6.42998    0.01176     8.44149
      C    3    0.32961      1.99880     3.64787    0.02372     5.67039
      C    4   -0.29786      1.99899     4.28043    0.01845     6.29786
      C    5   -0.07525      1.99908     4.05891    0.01726     6.07525
      C    6   -0.68417      1.99941     4.67721    0.00756     6.68417
      C    7   -0.16308      1.99899     4.14989    0.01420     6.16308
      C    8   -0.05415      1.99908     4.03785    0.01722     6.05415
      C    9   -0.33694      1.99898     4.32141    0.01655     6.33694
      C   10   -0.68601      1.99940     4.67909    0.00752     6.68601
      H   11    0.23039      0.00000     0.76907    0.00054     0.76961
      H   12    0.21417      0.00000     0.78380    0.00203     0.78583
      H   13    0.21417      0.00000     0.78380    0.00203     0.78583
      H   14    0.23337      0.00000     0.76524    0.00139     0.76663
      H   15    0.23421      0.00000     0.76496    0.00083     0.76579
      H   16    0.23244      0.00000     0.76550    0.00206     0.76756
      H   17    0.23254      0.00000     0.76551    0.00196     0.76746
      H   18    0.22339      0.00000     0.77545    0.00116     0.77661
      H   19    0.22430      0.00000     0.77462    0.00108     0.77570
      H   20    0.23383      0.00000     0.76536    0.00081     0.76617
      H   21    0.23020      0.00000     0.76677    0.00303     0.76980
      H   22    0.23002      0.00000     0.76698    0.00300     0.76998
 =======================================================================
   * Total *    0.00000     19.99191    53.83980    0.16829    74.00000

                                 Natural Population      
 --------------------------------------------------------
   Core                      19.99191 ( 99.9596% of  20)
   Valence                   53.83980 ( 99.7033% of  54)
   Natural Minimal Basis     73.83171 ( 99.7726% of  74)
   Natural Rydberg Basis      0.16829 (  0.2274% of  74)
 --------------------------------------------------------

    Atom  No          Natural Electron Configuration
 ----------------------------------------------------------------------------
      C    1      [core]2S( 1.10)2p( 3.21)3p( 0.01)3d( 0.01)
      O    2      [core]2S( 1.60)2p( 4.83)3p( 0.01)3d( 0.01)
      C    3      [core]2S( 0.84)2p( 2.81)3p( 0.02)3d( 0.01)
      C    4      [core]2S( 0.95)2p( 3.33)3p( 0.01)
      C    5      [core]2S( 0.88)2p( 3.18)3p( 0.01)
      C    6      [core]2S( 1.10)2p( 3.58)
      C    7      [core]2S( 0.95)2p( 3.20)3p( 0.01)
      C    8      [core]2S( 0.88)2p( 3.16)3p( 0.01)
      C    9      [core]2S( 0.95)2p( 3.37)3p( 0.01)
      C   10      [core]2S( 1.10)2p( 3.58)
      H   11            1S( 0.77)
      H   12            1S( 0.78)
      H   13            1S( 0.78)
      H   14            1S( 0.77)
      H   15            1S( 0.76)
      H   16            1S( 0.77)
      H   17            1S( 0.77)
      H   18            1S( 0.78)
      H   19            1S( 0.77)
      H   20            1S( 0.77)
      H   21            1S( 0.77)
      H   22            1S( 0.77)


 NBO analysis skipped by request.
 Leave Link  607 at Tue Sep 28 18:33:39 2021, MaxMem=  805306368 cpu:      10.3
 (Enter /sw/target/amd/app/gaussian/Gaussian09RevA.02_gcc-4.9.2/g09/l9999.exe)
 1\1\GINC-HERMITE\SP\RTD-B3LYP-FC\6-31G(d)\C9H12O1\JSCHLEINITZ\28-Sep-2
 021\0\\#p TD(NStates=10, Root=1) b3lyp/6-31G* volume pop=NPA density=c
 urrent Geom=AllCheck Guess=Read\\COc1cc(C)cc(c1)C_conf_0\\0,1\C,0,2.37
 16753497,0.6682631104,-1.3144161045\O,0,2.1193112571,0.2945440425,0.02
 89164192\C,0,2.9177086135,0.8198007927,1.0076383352\C,0,2.6131507154,0
 .407670418,2.3149415753\C,0,3.3559029221,0.8744778599,3.3939560967\C,0
 ,3.0327966322,0.43796798,4.8047523049\C,0,4.4171263931,1.7654986161,3.
 1534265494\C,0,4.7309849968,2.18354581,1.862234278\C,0,3.9721114112,1.
 7041912235,0.7800023761\C,0,5.8713495629,3.1434850328,1.6089426243\H,0
 ,1.6292311634,0.1414545588,-1.9172200439\H,0,3.3781454043,0.3684844239
 ,-1.6365492109\H,0,2.2564272549,1.7505391935,-1.4627890828\H,0,1.78634
 83043,-0.2821107207,2.4577272482\H,0,2.2043134609,-0.2767659754,4.8237
 406266\H,0,2.7512867333,1.2934755222,5.4316491889\H,0,3.8980343426,-0.
 0380539399,5.2826350696\H,0,5.0040062817,2.1349510046,3.9920062265\H,0
 ,4.2192746679,2.0307607798,-0.2246218844\H,0,6.3823978815,3.410373703,
 2.5391651239\H,0,5.5170305458,4.0725902734,1.1444825984\H,0,6.61680460
 28,2.7101460669,0.930247031\\Version=AM64L-G09RevA.02\State=1-A\HF=-42
 5.4073452\RMSD=3.364e-09\Dipole=0.0262593,0.1200181,-0.769676\Quadrupo
 le=-2.4568738,-3.180193,5.6370668,0.9781825,1.8188088,0.2712446\PG=C01
  [X(C9H12O1)]\\@


 CHRISTMAS IS ON TOP OF A STEEP HILL.
 THE CLOSER YOU GET, THE STEEPER THE HILL IS.
          -- LINUS, OF PEANUTS
 Job cpu time:  0 days  1 hours 26 minutes 11.1 seconds.
 File lengths (MBytes):  RWF=    105 Int=      0 D2E=      0 Chk=     15 Scr=      1
 Normal termination of Gaussian 09 at Tue Sep 28 18:33:42 2021.
