 Entering Gaussian System, Link 0=g09
 Input=C9H10O2_444d_conf_0.com
 Output=C9H10O2_444d_conf_0.log
 Initial command:
 /sw/target/amd/app/gaussian/Gaussian09RevA.02_gcc-4.9.2/g09/l1.exe /home/jschleinitz/gaussian/Gau-58383.inp -scrdir=/home/jschleinitz/gaussian/
 Entering Link 1 = /sw/target/amd/app/gaussian/Gaussian09RevA.02_gcc-4.9.2/g09/l1.exe PID=     58385.
  
 Copyright (c) 1988,1990,1992,1993,1995,1998,2003,2009, Gaussian, Inc.
                  All Rights Reserved.
  
 This is part of the Gaussian(R) 09 program.  It is based on
 the Gaussian(R) 03 system (copyright 2003, Gaussian, Inc.),
 the Gaussian(R) 98 system (copyright 1998, Gaussian, Inc.),
 the Gaussian(R) 94 system (copyright 1995, Gaussian, Inc.),
 the Gaussian 92(TM) system (copyright 1992, Gaussian, Inc.),
 the Gaussian 90(TM) system (copyright 1990, Gaussian, Inc.),
 the Gaussian 88(TM) system (copyright 1988, Gaussian, Inc.),
 the Gaussian 86(TM) system (copyright 1986, Carnegie Mellon
 University), and the Gaussian 82(TM) system (copyright 1983,
 Carnegie Mellon University). Gaussian is a federally registered
 trademark of Gaussian, Inc.
  
 This software contains proprietary and confidential information,
 including trade secrets, belonging to Gaussian, Inc.
  
 This software is provided under written license and may be
 used, copied, transmitted, or stored only in accord with that
 written license.
  
 The following legend is applicable only to US Government
 contracts under FAR:
  
                    RESTRICTED RIGHTS LEGEND
  
 Use, reproduction and disclosure by the US Government is
 subject to restrictions as set forth in subparagraphs (a)
 and (c) of the Commercial Computer Software - Restricted
 Rights clause in FAR 52.227-19.
  
 Gaussian, Inc.
 340 Quinnipiac St., Bldg. 40, Wallingford CT 06492
  
  
 ---------------------------------------------------------------
 Warning -- This program may not be used in any manner that
 competes with the business of Gaussian, Inc. or will provide
 assistance to any competitor of Gaussian, Inc.  The licensee
 of this program is prohibited from giving any competitor of
 Gaussian, Inc. access to this program.  By using this program,
 the user acknowledges that Gaussian, Inc. is engaged in the
 business of creating and licensing software in the field of
 computational chemistry and represents and warrants to the
 licensee that it is not a competitor of Gaussian, Inc. and that
 it will not use this program in any manner prohibited above.
 ---------------------------------------------------------------
  

 Cite this work as:
 Gaussian 09, Revision A.02,
 M. J. Frisch, G. W. Trucks, H. B. Schlegel, G. E. Scuseria, 
 M. A. Robb, J. R. Cheeseman, G. Scalmani, V. Barone, B. Mennucci, 
 G. A. Petersson, H. Nakatsuji, M. Caricato, X. Li, H. P. Hratchian, 
 A. F. Izmaylov, J. Bloino, G. Zheng, J. L. Sonnenberg, M. Hada, 
 M. Ehara, K. Toyota, R. Fukuda, J. Hasegawa, M. Ishida, T. Nakajima, 
 Y. Honda, O. Kitao, H. Nakai, T. Vreven, J. A. Montgomery, Jr., 
 J. E. Peralta, F. Ogliaro, M. Bearpark, J. J. Heyd, E. Brothers, 
 K. N. Kudin, V. N. Staroverov, R. Kobayashi, J. Normand, 
 K. Raghavachari, A. Rendell, J. C. Burant, S. S. Iyengar, J. Tomasi, 
 M. Cossi, N. Rega, J. M. Millam, M. Klene, J. E. Knox, J. B. Cross, 
 V. Bakken, C. Adamo, J. Jaramillo, R. Gomperts, R. E. Stratmann, 
 O. Yazyev, A. J. Austin, R. Cammi, C. Pomelli, J. W. Ochterski, 
 R. L. Martin, K. Morokuma, V. G. Zakrzewski, G. A. Voth, 
 P. Salvador, J. J. Dannenberg, S. Dapprich, A. D. Daniels, 
 O. Farkas, J. B. Foresman, J. V. Ortiz, J. Cioslowski, 
 and D. J. Fox, Gaussian, Inc., Wallingford CT, 2009.
 
 ******************************************
 Gaussian 09:  AM64L-G09RevA.02 11-Jun-2009
                 4-Oct-2021 
 ******************************************
 %nproc=3
 Will use up to    3 processors via shared memory.
 %mem=6gb
 %chk=C9H10O2_444d_conf_0.chk
 -----------------------------------
 #p opt b3lyp/6-31G* scf=(xqc,tight)
 -----------------------------------
 1/14=-1,18=20,19=15,26=3,38=1/1,3;
 2/9=110,12=2,17=6,18=5,40=1/2;
 3/5=1,6=6,7=1,11=2,16=1,25=1,30=1,71=1,74=-5/1,2,3;
 4//1;
 5/5=2,8=3,13=1,32=2,38=5/2,8;
 6/7=2,8=2,9=2,10=2,28=1/1;
 7//1,2,3,16;
 1/14=-1,18=20,19=15/3(2);
 2/9=110/2;
 99//99;
 2/9=110/2;
 3/5=1,6=6,7=1,11=2,16=1,25=1,30=1,71=1,74=-5/1,2,3;
 4/5=5,16=3/1;
 5/5=2,8=3,13=1,32=2,38=5/2,8;
 7//1,2,3,16;
 1/14=-1,18=20,19=15/3(-5);
 2/9=110/2;
 6/7=2,8=2,9=2,10=2,19=2,28=1/1;
 99/9=1/99;
 Leave Link    1 at Mon Oct  4 04:40:58 2021, MaxMem=  805306368 cpu:       0.1
 (Enter /sw/target/amd/app/gaussian/Gaussian09RevA.02_gcc-4.9.2/g09/l101.exe)
 -------------------------
 COc1ccc(cc1)C(=O)C_conf_0
 -------------------------
 Symbolic Z-matrix:
 Charge =  0 Multiplicity = 1
 C                     1.07305   0.86334   0.70645 
 O                     2.23851   0.42835   0.01594 
 C                     2.95299   1.39356  -0.63529 
 C                     2.65804   2.75835  -0.65709 
 C                     3.46503   3.64193  -1.3818 
 C                     4.57649   3.17028  -2.08705 
 C                     4.87788   1.8046   -2.05643 
 C                     4.07069   0.9263   -1.33028 
 C                     5.40028   4.14531  -2.85931 
 O                     5.08746   5.3314   -2.88847 
 C                     6.59686   3.63398  -3.623 
 H                     0.57382  -0.01951   1.1159 
 H                     0.36939   1.35653   0.02702 
 H                     1.34093   1.51781   1.54247 
 H                     1.80601   3.16866  -0.12486 
 H                     3.21357   4.70134  -1.3922 
 H                     5.72903   1.39109  -2.58738 
 H                     4.31063  -0.13481  -1.31199 
 H                     7.22583   3.0071   -2.9855 
 H                     7.2083    4.48069  -3.94846 
 H                     6.26281   3.07849  -4.50322 
 
 NAtoms=     21 NQM=     21 NQMF=      0 NMic=      0 NMicF=      0 NTot=     21.
                    Isotopes and Nuclear Properties:
 (Nuclear quadrupole moments (NQMom) in fm**2, nuclear magnetic moments (NMagM)
  in nuclear magnetons)

  Atom         1           2           3           4           5           6           7           8           9          10
 IAtWgt=          12          16          12          12          12          12          12          12          12          16
 AtmWgt=  12.0000000  15.9949146  12.0000000  12.0000000  12.0000000  12.0000000  12.0000000  12.0000000  12.0000000  15.9949146
 NucSpn=           0           0           0           0           0           0           0           0           0           0
 AtZEff=   0.0000000   0.0000000   0.0000000   0.0000000   0.0000000   0.0000000   0.0000000   0.0000000   0.0000000   0.0000000
 NQMom=    0.0000000   0.0000000   0.0000000   0.0000000   0.0000000   0.0000000   0.0000000   0.0000000   0.0000000   0.0000000
 NMagM=    0.0000000   0.0000000   0.0000000   0.0000000   0.0000000   0.0000000   0.0000000   0.0000000   0.0000000   0.0000000

  Atom        11          12          13          14          15          16          17          18          19          20
 IAtWgt=          12           1           1           1           1           1           1           1           1           1
 AtmWgt=  12.0000000   1.0078250   1.0078250   1.0078250   1.0078250   1.0078250   1.0078250   1.0078250   1.0078250   1.0078250
 NucSpn=           0           1           1           1           1           1           1           1           1           1
 AtZEff=   0.0000000   0.0000000   0.0000000   0.0000000   0.0000000   0.0000000   0.0000000   0.0000000   0.0000000   0.0000000
 NQMom=    0.0000000   0.0000000   0.0000000   0.0000000   0.0000000   0.0000000   0.0000000   0.0000000   0.0000000   0.0000000
 NMagM=    0.0000000   2.7928460   2.7928460   2.7928460   2.7928460   2.7928460   2.7928460   2.7928460   2.7928460   2.7928460

  Atom        21
 IAtWgt=           1
 AtmWgt=   1.0078250
 NucSpn=           1
 AtZEff=   0.0000000
 NQMom=    0.0000000
 NMagM=    2.7928460
 Leave Link  101 at Mon Oct  4 04:40:59 2021, MaxMem=  805306368 cpu:       0.2
 (Enter /sw/target/amd/app/gaussian/Gaussian09RevA.02_gcc-4.9.2/g09/l103.exe)

 GradGradGradGradGradGradGradGradGradGradGradGradGradGradGradGradGradGrad
 Berny optimization.
 Initialization pass.
                           ----------------------------
                           !    Initial Parameters    !
                           ! (Angstroms and Degrees)  !
 --------------------------                            --------------------------
 ! Name  Definition              Value          Derivative Info.                !
 --------------------------------------------------------------------------------
 ! R1    R(1,2)                  1.4228         estimate D2E/DX2                !
 ! R2    R(1,12)                 1.0938         estimate D2E/DX2                !
 ! R3    R(1,13)                 1.0954         estimate D2E/DX2                !
 ! R4    R(1,14)                 1.095          estimate D2E/DX2                !
 ! R5    R(2,3)                  1.3661         estimate D2E/DX2                !
 ! R6    R(3,4)                  1.3965         estimate D2E/DX2                !
 ! R7    R(3,8)                  1.3966         estimate D2E/DX2                !
 ! R8    R(4,5)                  1.399          estimate D2E/DX2                !
 ! R9    R(4,15)                 1.0852         estimate D2E/DX2                !
 ! R10   R(5,6)                  1.3983         estimate D2E/DX2                !
 ! R11   R(5,16)                 1.0889         estimate D2E/DX2                !
 ! R12   R(6,7)                  1.3989         estimate D2E/DX2                !
 ! R13   R(6,9)                  1.4919         estimate D2E/DX2                !
 ! R14   R(7,8)                  1.3965         estimate D2E/DX2                !
 ! R15   R(7,17)                 1.0851         estimate D2E/DX2                !
 ! R16   R(8,18)                 1.0881         estimate D2E/DX2                !
 ! R17   R(9,10)                 1.227          estimate D2E/DX2                !
 ! R18   R(9,11)                 1.5088         estimate D2E/DX2                !
 ! R19   R(11,19)                1.0932         estimate D2E/DX2                !
 ! R20   R(11,20)                1.0939         estimate D2E/DX2                !
 ! R21   R(11,21)                1.0931         estimate D2E/DX2                !
 ! A1    A(2,1,12)             107.9862         estimate D2E/DX2                !
 ! A2    A(2,1,13)             111.2725         estimate D2E/DX2                !
 ! A3    A(2,1,14)             110.6629         estimate D2E/DX2                !
 ! A4    A(12,1,13)            107.6019         estimate D2E/DX2                !
 ! A5    A(12,1,14)            107.9561         estimate D2E/DX2                !
 ! A6    A(13,1,14)            111.1987         estimate D2E/DX2                !
 ! A7    A(1,2,3)              116.3445         estimate D2E/DX2                !
 ! A8    A(2,3,4)              125.9794         estimate D2E/DX2                !
 ! A9    A(2,3,8)              114.7964         estimate D2E/DX2                !
 ! A10   A(4,3,8)              119.2241         estimate D2E/DX2                !
 ! A11   A(3,4,5)              120.233          estimate D2E/DX2                !
 ! A12   A(3,4,15)             121.8509         estimate D2E/DX2                !
 ! A13   A(5,4,15)             117.9157         estimate D2E/DX2                !
 ! A14   A(4,5,6)              120.4476         estimate D2E/DX2                !
 ! A15   A(4,5,16)             119.093          estimate D2E/DX2                !
 ! A16   A(6,5,16)             120.459          estimate D2E/DX2                !
 ! A17   A(5,6,7)              119.3094         estimate D2E/DX2                !
 ! A18   A(5,6,9)              118.6562         estimate D2E/DX2                !
 ! A19   A(7,6,9)              122.033          estimate D2E/DX2                !
 ! A20   A(6,7,8)              120.0557         estimate D2E/DX2                !
 ! A21   A(6,7,17)             122.0293         estimate D2E/DX2                !
 ! A22   A(8,7,17)             117.9147         estimate D2E/DX2                !
 ! A23   A(3,8,7)              120.7241         estimate D2E/DX2                !
 ! A24   A(3,8,18)             119.6297         estimate D2E/DX2                !
 ! A25   A(7,8,18)             119.6446         estimate D2E/DX2                !
 ! A26   A(6,9,10)             120.2181         estimate D2E/DX2                !
 ! A27   A(6,9,11)             118.5834         estimate D2E/DX2                !
 ! A28   A(10,9,11)            121.1823         estimate D2E/DX2                !
 ! A29   A(9,11,19)            110.8225         estimate D2E/DX2                !
 ! A30   A(9,11,20)            109.3629         estimate D2E/DX2                !
 ! A31   A(9,11,21)            109.7206         estimate D2E/DX2                !
 ! A32   A(19,11,20)           107.2034         estimate D2E/DX2                !
 ! A33   A(19,11,21)           110.7328         estimate D2E/DX2                !
 ! A34   A(20,11,21)           108.9385         estimate D2E/DX2                !
 ! D1    D(12,1,2,3)           176.177          estimate D2E/DX2                !
 ! D2    D(13,1,2,3)            58.2995         estimate D2E/DX2                !
 ! D3    D(14,1,2,3)           -65.8634         estimate D2E/DX2                !
 ! D4    D(1,2,3,4)              1.4877         estimate D2E/DX2                !
 ! D5    D(1,2,3,8)           -178.4335         estimate D2E/DX2                !
 ! D6    D(2,3,4,5)           -179.1026         estimate D2E/DX2                !
 ! D7    D(2,3,4,15)             0.6587         estimate D2E/DX2                !
 ! D8    D(8,3,4,5)              0.8155         estimate D2E/DX2                !
 ! D9    D(8,3,4,15)          -179.4232         estimate D2E/DX2                !
 ! D10   D(2,3,8,7)            179.021          estimate D2E/DX2                !
 ! D11   D(2,3,8,18)            -0.5014         estimate D2E/DX2                !
 ! D12   D(4,3,8,7)             -0.9059         estimate D2E/DX2                !
 ! D13   D(4,3,8,18)           179.5716         estimate D2E/DX2                !
 ! D14   D(3,4,5,6)             -0.232          estimate D2E/DX2                !
 ! D15   D(3,4,5,16)           179.5381         estimate D2E/DX2                !
 ! D16   D(15,4,5,6)           179.9975         estimate D2E/DX2                !
 ! D17   D(15,4,5,16)           -0.2324         estimate D2E/DX2                !
 ! D18   D(4,5,6,7)             -0.2724         estimate D2E/DX2                !
 ! D19   D(4,5,6,9)            179.2994         estimate D2E/DX2                !
 ! D20   D(16,5,6,7)           179.9607         estimate D2E/DX2                !
 ! D21   D(16,5,6,9)            -0.4675         estimate D2E/DX2                !
 ! D22   D(5,6,7,8)              0.1857         estimate D2E/DX2                !
 ! D23   D(5,6,7,17)           179.9873         estimate D2E/DX2                !
 ! D24   D(9,6,7,8)           -179.3711         estimate D2E/DX2                !
 ! D25   D(9,6,7,17)             0.4305         estimate D2E/DX2                !
 ! D26   D(5,6,9,10)            -1.2697         estimate D2E/DX2                !
 ! D27   D(5,6,9,11)          -179.8228         estimate D2E/DX2                !
 ! D28   D(7,6,9,10)           178.2899         estimate D2E/DX2                !
 ! D29   D(7,6,9,11)            -0.2632         estimate D2E/DX2                !
 ! D30   D(6,7,8,3)              0.4074         estimate D2E/DX2                !
 ! D31   D(6,7,8,18)           179.9298         estimate D2E/DX2                !
 ! D32   D(17,7,8,3)          -179.4022         estimate D2E/DX2                !
 ! D33   D(17,7,8,18)            0.1202         estimate D2E/DX2                !
 ! D34   D(6,9,11,19)          -49.8681         estimate D2E/DX2                !
 ! D35   D(6,9,11,20)         -167.841          estimate D2E/DX2                !
 ! D36   D(6,9,11,21)           72.7252         estimate D2E/DX2                !
 ! D37   D(10,9,11,19)         131.5934         estimate D2E/DX2                !
 ! D38   D(10,9,11,20)          13.6204         estimate D2E/DX2                !
 ! D39   D(10,9,11,21)        -105.8133         estimate D2E/DX2                !
 --------------------------------------------------------------------------------
 Trust Radius=3.00D-01 FncErr=1.00D-07 GrdErr=1.00D-06
 Number of steps in this run= 104 maximum allowed number of steps= 126.
 GradGradGradGradGradGradGradGradGradGradGradGradGradGradGradGradGradGrad

 Leave Link  103 at Mon Oct  4 04:41:00 2021, MaxMem=  805306368 cpu:       0.0
 (Enter /sw/target/amd/app/gaussian/Gaussian09RevA.02_gcc-4.9.2/g09/l202.exe)
                          Input orientation:                          
 ---------------------------------------------------------------------
 Center     Atomic      Atomic             Coordinates (Angstroms)
 Number     Number       Type             X           Y           Z
 ---------------------------------------------------------------------
      1          6           0        1.073048    0.863341    0.706453
      2          8           0        2.238514    0.428354    0.015942
      3          6           0        2.952991    1.393558   -0.635291
      4          6           0        2.658041    2.758346   -0.657093
      5          6           0        3.465032    3.641934   -1.381796
      6          6           0        4.576491    3.170281   -2.087048
      7          6           0        4.877883    1.804604   -2.056432
      8          6           0        4.070687    0.926305   -1.330280
      9          6           0        5.400278    4.145307   -2.859312
     10          8           0        5.087455    5.331399   -2.888474
     11          6           0        6.596861    3.633975   -3.623003
     12          1           0        0.573823   -0.019510    1.115903
     13          1           0        0.369391    1.356527    0.027018
     14          1           0        1.340934    1.517806    1.542469
     15          1           0        1.806011    3.168657   -0.124860
     16          1           0        3.213571    4.701341   -1.392199
     17          1           0        5.729030    1.391088   -2.587382
     18          1           0        4.310632   -0.134811   -1.311995
     19          1           0        7.225835    3.007099   -2.985499
     20          1           0        7.208298    4.480686   -3.948465
     21          1           0        6.262815    3.078492   -4.503221
 ---------------------------------------------------------------------
                    Distance matrix (angstroms):
                    1          2          3          4          5
     1  C    0.000000
     2  O    1.422789   0.000000
     3  C    2.369724   1.366089   0.000000
     4  C    2.821791   2.461268   1.396466   0.000000
     5  C    4.219354   3.712831   2.423768   1.398985   0.000000
     6  C    5.039815   4.172154   2.810711   2.427944   1.398277
     7  C    4.795443   3.626992   2.427717   2.792037   2.413931
     8  C    3.624649   2.327472   1.396632   2.409382   2.782825
     9  C    6.496992   5.663884   4.302047   3.780647   2.486285
    10  O    7.000179   6.371181   5.013918   4.183506   2.785072
    11  C    7.545404   6.520209   5.217632   5.007759   3.851159
    12  H    1.093755   2.044918   3.274733   3.899225   5.291858
    13  H    1.095445   2.086923   2.667398   2.769661   4.097662
    14  H    1.094993   2.079144   2.712343   2.848120   4.192260
    15  H    2.557889   2.777794   2.174184   1.085165   2.134533
    16  H    4.869952   4.603479   3.403270   2.150402   1.088891
    17  H    5.727655   4.459580   3.393680   3.876388   3.412540
    18  H    3.943652   2.524727   2.153377   3.395631   3.870881
    19  H    7.488858   6.366470   5.136555   5.133040   4.137453
    20  H    8.508509   7.539010   6.214107   5.874046   4.615553
    21  H    7.679927   6.606138   5.362352   5.281059   4.229462
                    6          7          8          9         10
     6  C    0.000000
     7  C    1.398874   0.000000
     8  C    2.421562   1.396521   0.000000
     9  C    1.491875   2.529111   3.803646   0.000000
    10  O    2.360890   3.629669   4.781908   1.226998   0.000000
    11  C    2.579935   2.958991   4.355412   1.508806   2.387276
    12  H    6.037798   5.649427   4.371090   7.512836   8.064746
    13  H    5.045658   4.986786   3.965720   6.435683   6.823476
    14  H    5.135455   5.054142   4.006759   6.538938   6.943571
    15  H    3.394959   3.876598   3.407336   4.620588   4.804466
    16  H    2.164373   3.406204   3.871612   2.691335   2.479365
    17  H    2.178120   1.085060   2.132236   2.787068   4.003539
    18  H    3.405147   2.153437   1.088060   4.679843   5.741794
    19  H    2.802296   2.796791   4.126065   2.155017   3.159818
    20  H    3.479718   4.021447   5.416006   2.137210   2.518981
    21  H    2.947882   3.086682   4.416434   2.141145   3.010726
                   11         12         13         14         15
    11  C    0.000000
    12  H    8.490122   0.000000
    13  H    7.569069   1.766619   0.000000
    14  H    7.667141   1.770242   1.807346   0.000000
    15  H    5.950275   3.636232   2.317489   2.391985   0.000000
    16  H    4.190753   5.961986   4.614252   4.717409   2.436493
    17  H    2.618432   6.502328   5.963389   6.027198   4.961234
    18  H    4.977083   4.457771   4.421586   4.438267   4.312229
    19  H    1.093157   8.380401   7.668798   7.573147   6.130567
    20  H    1.093938   9.482396   8.505026   8.564752   6.747302
    21  H    1.093130   8.575360   7.630247   7.950536   6.248302
                   16         17         18         19         20
    16  H    0.000000
    17  H    4.325942   0.000000
    18  H    4.959672   2.442710   0.000000
    19  H    4.637599   2.238395   4.601155   0.000000
    20  H    4.747739   3.685973   6.053945   1.760417   0.000000
    21  H    4.648654   2.608198   4.931557   1.798884   1.779843
                   21
    21  H    0.000000
 Stoichiometry    C9H10O2
 Framework group  C1[X(C9H10O2)]
 Deg. of freedom    57
 Full point group                 C1      NOp   1
 Largest Abelian subgroup         C1      NOp   1
 Largest concise Abelian subgroup C1      NOp   1
                         Standard orientation:                         
 ---------------------------------------------------------------------
 Center     Atomic      Atomic             Coordinates (Angstroms)
 Number     Number       Type             X           Y           Z
 ---------------------------------------------------------------------
      1          6           0       -3.915226   -0.512662    0.037602
      2          8           0       -3.018378    0.591340    0.003367
      3          6           0       -1.686109    0.289778   -0.014526
      4          6           0       -1.135561   -0.993469   -0.031597
      5          6           0        0.252948   -1.164343   -0.030114
      6          6           0        1.103432   -0.054538   -0.016442
      7          6           0        0.551749    1.230939   -0.010033
      8          6           0       -0.834860    1.397006   -0.013357
      9          6           0        2.577602   -0.283064    0.000646
     10          8           0        3.025207   -1.425224    0.026034
     11          6           0        3.493743    0.915613    0.019482
     12          1           0       -4.932527   -0.119019    0.117873
     13          1           0       -3.734425   -1.144554    0.913971
     14          1           0       -3.849771   -1.092529   -0.888940
     15          1           0       -1.756904   -1.883074   -0.042456
     16          1           0        0.662225   -2.173374   -0.035934
     17          1           0        1.170109    2.122494    0.000756
     18          1           0       -1.256785    2.399910   -0.007173
     19          1           0        3.216281    1.629065   -0.760899
     20          1           0        4.518227    0.592387   -0.187049
     21          1           0        3.462628    1.388204    1.004684
 ---------------------------------------------------------------------
 Rotational constants (GHZ):      3.3286749      0.5701533      0.4899430
 Leave Link  202 at Mon Oct  4 04:41:00 2021, MaxMem=  805306368 cpu:       0.0
 (Enter /sw/target/amd/app/gaussian/Gaussian09RevA.02_gcc-4.9.2/g09/l301.exe)
 Standard basis: 6-31G(d) (6D, 7F)
 Ernie: Thresh=  0.10000D-02 Tol=  0.10000D-05 Strict=F.
 There are   185 symmetry adapted basis functions of A   symmetry.
 Integral buffers will be    131072 words long.
 Raffenetti 2 integral format.
 Two-electron integral symmetry is turned on.
   185 basis functions,   348 primitive gaussians,   185 cartesian basis functions
    40 alpha electrons       40 beta electrons
       nuclear repulsion energy       570.6529257367 Hartrees.
 IExCor=  402 DFT=T Ex+Corr=B3LYP ExCW=0 ScaHFX=  0.200000
 ScaDFX=  0.800000  0.720000  1.000000  0.810000 ScalE2=  1.000000  1.000000
 IRadAn=      0 IRanWt=     -1 IRanGd=            0 ICorTp=0
 NAtoms=   21 NActive=   21 NUniq=   21 SFac= 7.50D-01 NAtFMM=   80 NAOKFM=F Big=F
 Leave Link  301 at Mon Oct  4 04:41:01 2021, MaxMem=  805306368 cpu:       0.1
 (Enter /sw/target/amd/app/gaussian/Gaussian09RevA.02_gcc-4.9.2/g09/l302.exe)
 NPDir=0 NMtPBC=     1 NCelOv=     1 NCel=       1 NClECP=     1 NCelD=      1
         NCelK=      1 NCelE2=     1 NClLst=     1 CellRange=     0.0.
 One-electron integrals computed using PRISM.
 NBasis=   185 RedAO= T  NBF=   185
 NBsUse=   185 1.00D-06 NBFU=   185
 Precomputing XC quadrature grid using
 IXCGrd= 2 IRadAn=           0 IRanWt=          -1 IRanGd=           0 AccXCQ= 1.00D-10.
 NRdTot=    1325 NPtTot=      168726 NUsed=      178287 NTot=      178319
 NSgBfM=   184   184   184   184   184 NAtAll=    21    21.
 Leave Link  302 at Mon Oct  4 04:41:04 2021, MaxMem=  805306368 cpu:       1.2
 (Enter /sw/target/amd/app/gaussian/Gaussian09RevA.02_gcc-4.9.2/g09/l303.exe)
 DipDrv:  MaxL=1.
 Leave Link  303 at Mon Oct  4 04:41:05 2021, MaxMem=  805306368 cpu:       0.1
 (Enter /sw/target/amd/app/gaussian/Gaussian09RevA.02_gcc-4.9.2/g09/l401.exe)
 Harris functional with IExCor=  402 diagonalized for initial guess.
 ExpMin= 1.61D-01 ExpMax= 5.48D+03 ExpMxC= 8.25D+02 IAcc=1 IRadAn=         1 AccDes= 0.00D+00
 HarFok:  IExCor=  402 AccDes= 0.00D+00 IRadAn=         1 IDoV= 1
 ScaDFX=  1.000000  1.000000  1.000000  1.000000
 FoFCou: FMM=F IPFlag=           0 FMFlag=      100000 FMFlg1=           0
         NFxFlg=           0 DoJE=T BraDBF=F KetDBF=T FulRan=T
         Omega=  0.000000  0.000000  1.000000  0.000000  0.000000 ICntrl=     500 IOpCl=  0
         NMat0=    1 NMatS0=    1 NMatT0=    0 NMatD0=    1 NMtDS0=    0 NMtDT0=    0
         I1Cent=           4 NGrid=           0.
 Petite list used in FoFCou.
 Harris En= -499.487572087546    
 Initial guess orbital symmetries:
       Occupied  (A) (A) (A) (A) (A) (A) (A) (A) (A) (A) (A) (A)
                 (A) (A) (A) (A) (A) (A) (A) (A) (A) (A) (A) (A)
                 (A) (A) (A) (A) (A) (A) (A) (A) (A) (A) (A) (A)
                 (A) (A) (A) (A)
       Virtual   (A) (A) (A) (A) (A) (A) (A) (A) (A) (A) (A) (A)
                 (A) (A) (A) (A) (A) (A) (A) (A) (A) (A) (A) (A)
                 (A) (A) (A) (A) (A) (A) (A) (A) (A) (A) (A) (A)
                 (A) (A) (A) (A) (A) (A) (A) (A) (A) (A) (A) (A)
                 (A) (A) (A) (A) (A) (A) (A) (A) (A) (A) (A) (A)
                 (A) (A) (A) (A) (A) (A) (A) (A) (A) (A) (A) (A)
                 (A) (A) (A) (A) (A) (A) (A) (A) (A) (A) (A) (A)
                 (A) (A) (A) (A) (A) (A) (A) (A) (A) (A) (A) (A)
                 (A) (A) (A) (A) (A) (A) (A) (A) (A) (A) (A) (A)
                 (A) (A) (A) (A) (A) (A) (A) (A) (A) (A) (A) (A)
                 (A) (A) (A) (A) (A) (A) (A) (A) (A) (A) (A) (A)
                 (A) (A) (A) (A) (A) (A) (A) (A) (A) (A) (A) (A)
                 (A)
 The electronic state of the initial guess is 1-A.
 Leave Link  401 at Mon Oct  4 04:41:19 2021, MaxMem=  805306368 cpu:       5.5
 (Enter /sw/target/amd/app/gaussian/Gaussian09RevA.02_gcc-4.9.2/g09/l502.exe)
 Closed shell SCF:
 Requested convergence on RMS density matrix=1.00D-08 within  64 cycles.
 Requested convergence on MAX density matrix=1.00D-06.
 Requested convergence on             energy=1.00D-06.
 No special actions if energy rises.
 Using DIIS extrapolation, IDIIS=  1040.
 Integral symmetry usage will be decided dynamically.
       178085 words used for storage of precomputed grid.
 Keep R1 ints in memory in canonical form, NReq=151520773.
 IEnd=      288809 IEndB=      288809 NGot=   805306368 MDV=   657041551
 LenX=   657041551 LenY=   657006885
 Symmetry not used in FoFDir.
 MinBra= 0 MaxBra= 2 Meth= 1.
 IRaf=       0 NMat=   1 IRICut=       1 DoRegI=T DoRafI=F ISym2E= 0 JSym2E=0.
 Integral accuracy reduced to 1.0D-05 until final iterations.

 Cycle   1  Pass 0  IDiag  1:
 E= -499.143036781741    
 DIIS: error= 4.74D-02 at cycle   1 NSaved=   1.
 NSaved= 1 IEnMin= 1 EnMin= -499.143036781741     IErMin= 1 ErrMin= 4.74D-02
 ErrMax= 4.74D-02 EMaxC= 1.00D-01 BMatC= 2.80D-01 BMatP= 2.80D-01
 IDIUse=3 WtCom= 5.26D-01 WtEn= 4.74D-01
 Coeff-Com:  0.100D+01
 Coeff-En:   0.100D+01
 Coeff:      0.100D+01
 Gap=     0.183 Goal=   None    Shift=    0.000
 GapD=    0.183 DampG=1.000 DampE=0.500 DampFc=0.5000 IDamp=-1.
 Damping current iteration by 5.00D-01
 RMSDP=7.03D-03 MaxDP=1.98D-01              OVMax= 2.20D-01

 Cycle   2  Pass 0  IDiag  1:
 E= -499.254949389730     Delta-E=       -0.111912607988 Rises=F Damp=T
 DIIS: error= 1.37D-02 at cycle   2 NSaved=   2.
 NSaved= 2 IEnMin= 2 EnMin= -499.254949389730     IErMin= 2 ErrMin= 1.37D-02
 ErrMax= 1.37D-02 EMaxC= 1.00D-01 BMatC= 2.81D-02 BMatP= 2.80D-01
 IDIUse=3 WtCom= 8.63D-01 WtEn= 1.37D-01
 Coeff-Com:  0.129D+00 0.871D+00
 Coeff-En:   0.173D+00 0.827D+00
 Coeff:      0.135D+00 0.865D+00
 Gap=     0.216 Goal=   None    Shift=    0.000
 RMSDP=2.08D-03 MaxDP=6.33D-02 DE=-1.12D-01 OVMax= 1.89D-01

 Cycle   3  Pass 0  IDiag  1:
 E= -499.385128612855     Delta-E=       -0.130179223125 Rises=F Damp=F
 DIIS: error= 2.51D-02 at cycle   3 NSaved=   3.
 NSaved= 3 IEnMin= 3 EnMin= -499.385128612855     IErMin= 2 ErrMin= 1.37D-02
 ErrMax= 2.51D-02 EMaxC= 1.00D-01 BMatC= 3.99D-02 BMatP= 2.81D-02
 IDIUse=2 WtCom= 0.00D+00 WtEn= 1.00D+00
 Coeff-En:   0.000D+00 0.000D+00 0.100D+01
 Coeff:      0.000D+00 0.000D+00 0.100D+01
 Gap=     0.203 Goal=   None    Shift=    0.000
 RMSDP=3.70D-03 MaxDP=1.53D-01 DE=-1.30D-01 OVMax= 2.14D-01

 Cycle   4  Pass 0  IDiag  1:
 E= -499.234277599435     Delta-E=        0.150851013420 Rises=F Damp=F
 DIIS: error= 5.78D-02 at cycle   4 NSaved=   4.
 NSaved= 4 IEnMin= 3 EnMin= -499.385128612855     IErMin= 2 ErrMin= 1.37D-02
 ErrMax= 5.78D-02 EMaxC= 1.00D-01 BMatC= 2.27D-01 BMatP= 2.81D-02
 IDIUse=2 WtCom= 0.00D+00 WtEn= 1.00D+00
 Coeff-En:   0.000D+00 0.000D+00 0.792D+00 0.208D+00
 Coeff:      0.000D+00 0.000D+00 0.792D+00 0.208D+00
 Gap=     0.178 Goal=   None    Shift=    0.000
 RMSDP=2.10D-03 MaxDP=7.80D-02 DE= 1.51D-01 OVMax= 1.01D-01

 Cycle   5  Pass 0  IDiag  1:
 E= -499.405308245285     Delta-E=       -0.171030645850 Rises=F Damp=F
 DIIS: error= 1.58D-02 at cycle   5 NSaved=   5.
 NSaved= 5 IEnMin= 5 EnMin= -499.405308245285     IErMin= 2 ErrMin= 1.37D-02
 ErrMax= 1.58D-02 EMaxC= 1.00D-01 BMatC= 1.63D-02 BMatP= 2.81D-02
 IDIUse=3 WtCom= 8.42D-01 WtEn= 1.58D-01
 Coeff-Com: -0.383D-03 0.211D-01 0.326D+00-0.615D-01 0.715D+00
 Coeff-En:   0.000D+00 0.000D+00 0.331D+00 0.000D+00 0.669D+00
 Coeff:     -0.322D-03 0.177D-01 0.327D+00-0.517D-01 0.708D+00
 Gap=     0.198 Goal=   None    Shift=    0.000
 RMSDP=7.03D-04 MaxDP=2.97D-02 DE=-1.71D-01 OVMax= 3.36D-02

 Cycle   6  Pass 0  IDiag  1:
 E= -499.418479549670     Delta-E=       -0.013171304386 Rises=F Damp=F
 DIIS: error= 1.06D-03 at cycle   6 NSaved=   6.
 NSaved= 6 IEnMin= 6 EnMin= -499.418479549670     IErMin= 6 ErrMin= 1.06D-03
 ErrMax= 1.06D-03 EMaxC= 1.00D-01 BMatC= 1.24D-04 BMatP= 1.63D-02
 IDIUse=3 WtCom= 9.89D-01 WtEn= 1.06D-02
 Coeff-Com: -0.390D-02 0.137D-01 0.145D+00-0.603D-01 0.450D+00 0.456D+00
 Coeff-En:   0.000D+00 0.000D+00 0.000D+00 0.000D+00 0.000D+00 0.100D+01
 Coeff:     -0.386D-02 0.135D-01 0.143D+00-0.597D-01 0.445D+00 0.462D+00
 Gap=     0.187 Goal=   None    Shift=    0.000
 RMSDP=8.17D-05 MaxDP=1.96D-03 DE=-1.32D-02 OVMax= 6.64D-03

 Cycle   7  Pass 0  IDiag  1:
 E= -499.418606675565     Delta-E=       -0.000127125894 Rises=F Damp=F
 DIIS: error= 1.90D-04 at cycle   7 NSaved=   7.
 NSaved= 7 IEnMin= 7 EnMin= -499.418606675565     IErMin= 7 ErrMin= 1.90D-04
 ErrMax= 1.90D-04 EMaxC= 1.00D-01 BMatC= 6.46D-06 BMatP= 1.24D-04
 IDIUse=3 WtCom= 9.98D-01 WtEn= 1.90D-03
 Coeff-Com: -0.125D-02 0.369D-02 0.477D-01-0.228D-01 0.156D+00 0.233D+00
 Coeff-Com:  0.584D+00
 Coeff-En:   0.000D+00 0.000D+00 0.000D+00 0.000D+00 0.000D+00 0.000D+00
 Coeff-En:   0.100D+01
 Coeff:     -0.125D-02 0.369D-02 0.476D-01-0.227D-01 0.155D+00 0.233D+00
 Coeff:      0.585D+00
 Gap=     0.186 Goal=   None    Shift=    0.000
 RMSDP=1.87D-05 MaxDP=3.85D-04 DE=-1.27D-04 OVMax= 1.13D-03

 Cycle   8  Pass 0  IDiag  1:
 E= -499.418612610577     Delta-E=       -0.000005935012 Rises=F Damp=F
 DIIS: error= 6.03D-05 at cycle   8 NSaved=   8.
 NSaved= 8 IEnMin= 8 EnMin= -499.418612610577     IErMin= 8 ErrMin= 6.03D-05
 ErrMax= 6.03D-05 EMaxC= 1.00D-01 BMatC= 7.28D-07 BMatP= 6.46D-06
 IDIUse=1 WtCom= 1.00D+00 WtEn= 0.00D+00
 Coeff-Com: -0.258D-04-0.213D-03 0.111D-01-0.518D-02 0.338D-01 0.819D-01
 Coeff-Com:  0.324D+00 0.555D+00
 Coeff:     -0.258D-04-0.213D-03 0.111D-01-0.518D-02 0.338D-01 0.819D-01
 Coeff:      0.324D+00 0.555D+00
 Gap=     0.186 Goal=   None    Shift=    0.000
 RMSDP=5.19D-06 MaxDP=1.32D-04 DE=-5.94D-06 OVMax= 3.13D-04

 Initial convergence to 1.0D-05 achieved.  Increase integral accuracy.
 Cycle   9  Pass 1  IDiag  1:
 E= -499.418588085379     Delta-E=        0.000024525198 Rises=F Damp=F
 DIIS: error= 2.99D-05 at cycle   1 NSaved=   1.
 NSaved= 1 IEnMin= 1 EnMin= -499.418588085379     IErMin= 1 ErrMin= 2.99D-05
 ErrMax= 2.99D-05 EMaxC= 1.00D-01 BMatC= 1.26D-07 BMatP= 1.26D-07
 IDIUse=1 WtCom= 1.00D+00 WtEn= 0.00D+00
 Coeff-Com:  0.100D+01
 Coeff:      0.100D+01
 Gap=     0.186 Goal=   None    Shift=    0.000
 RMSDP=5.19D-06 MaxDP=1.32D-04 DE= 2.45D-05 OVMax= 2.49D-04

 Cycle  10  Pass 1  IDiag  1:
 E= -499.418588090896     Delta-E=       -0.000000005517 Rises=F Damp=F
 DIIS: error= 2.89D-05 at cycle   2 NSaved=   2.
 NSaved= 2 IEnMin= 2 EnMin= -499.418588090896     IErMin= 2 ErrMin= 2.89D-05
 ErrMax= 2.89D-05 EMaxC= 1.00D-01 BMatC= 1.38D-07 BMatP= 1.26D-07
 IDIUse=1 WtCom= 1.00D+00 WtEn= 0.00D+00
 Coeff-Com:  0.515D+00 0.485D+00
 Coeff:      0.515D+00 0.485D+00
 Gap=     0.186 Goal=   None    Shift=    0.000
 RMSDP=3.09D-06 MaxDP=7.91D-05 DE=-5.52D-09 OVMax= 2.24D-04

 Cycle  11  Pass 1  IDiag  1:
 E= -499.418588211736     Delta-E=       -0.000000120839 Rises=F Damp=F
 DIIS: error= 1.45D-05 at cycle   3 NSaved=   3.
 NSaved= 3 IEnMin= 3 EnMin= -499.418588211736     IErMin= 3 ErrMin= 1.45D-05
 ErrMax= 1.45D-05 EMaxC= 1.00D-01 BMatC= 2.90D-08 BMatP= 1.26D-07
 IDIUse=1 WtCom= 1.00D+00 WtEn= 0.00D+00
 Coeff-Com:  0.879D-02 0.311D+00 0.681D+00
 Coeff:      0.879D-02 0.311D+00 0.681D+00
 Gap=     0.186 Goal=   None    Shift=    0.000
 RMSDP=1.18D-06 MaxDP=3.54D-05 DE=-1.21D-07 OVMax= 7.18D-05

 Cycle  12  Pass 1  IDiag  1:
 E= -499.418588240193     Delta-E=       -0.000000028457 Rises=F Damp=F
 DIIS: error= 5.15D-06 at cycle   4 NSaved=   4.
 NSaved= 4 IEnMin= 4 EnMin= -499.418588240193     IErMin= 4 ErrMin= 5.15D-06
 ErrMax= 5.15D-06 EMaxC= 1.00D-01 BMatC= 3.36D-09 BMatP= 2.90D-08
 IDIUse=1 WtCom= 1.00D+00 WtEn= 0.00D+00
 Coeff-Com: -0.164D-01 0.178D+00 0.438D+00 0.400D+00
 Coeff:     -0.164D-01 0.178D+00 0.438D+00 0.400D+00
 Gap=     0.186 Goal=   None    Shift=    0.000
 RMSDP=3.81D-07 MaxDP=1.47D-05 DE=-2.85D-08 OVMax= 1.60D-05

 Cycle  13  Pass 1  IDiag  1:
 E= -499.418588242833     Delta-E=       -0.000000002641 Rises=F Damp=F
 DIIS: error= 1.38D-06 at cycle   5 NSaved=   5.
 NSaved= 5 IEnMin= 5 EnMin= -499.418588242833     IErMin= 5 ErrMin= 1.38D-06
 ErrMax= 1.38D-06 EMaxC= 1.00D-01 BMatC= 1.44D-10 BMatP= 3.36D-09
 IDIUse=1 WtCom= 1.00D+00 WtEn= 0.00D+00
 Coeff-Com: -0.100D-01 0.861D-01 0.219D+00 0.236D+00 0.469D+00
 Coeff:     -0.100D-01 0.861D-01 0.219D+00 0.236D+00 0.469D+00
 Gap=     0.186 Goal=   None    Shift=    0.000
 RMSDP=7.12D-08 MaxDP=2.36D-06 DE=-2.64D-09 OVMax= 3.74D-06

 Cycle  14  Pass 1  IDiag  1:
 E= -499.418588242970     Delta-E=       -0.000000000137 Rises=F Damp=F
 DIIS: error= 2.35D-07 at cycle   6 NSaved=   6.
 NSaved= 6 IEnMin= 6 EnMin= -499.418588242970     IErMin= 6 ErrMin= 2.35D-07
 ErrMax= 2.35D-07 EMaxC= 1.00D-01 BMatC= 8.66D-12 BMatP= 1.44D-10
 IDIUse=1 WtCom= 1.00D+00 WtEn= 0.00D+00
 Coeff-Com: -0.285D-02 0.192D-01 0.513D-01 0.647D-01 0.235D+00 0.633D+00
 Coeff:     -0.285D-02 0.192D-01 0.513D-01 0.647D-01 0.235D+00 0.633D+00
 Gap=     0.186 Goal=   None    Shift=    0.000
 RMSDP=2.18D-08 MaxDP=5.01D-07 DE=-1.37D-10 OVMax= 1.20D-06

 Cycle  15  Pass 1  IDiag  1:
 E= -499.418588242969     Delta-E=        0.000000000002 Rises=F Damp=F
 DIIS: error= 1.16D-07 at cycle   7 NSaved=   7.
 NSaved= 7 IEnMin= 6 EnMin= -499.418588242970     IErMin= 7 ErrMin= 1.16D-07
 ErrMax= 1.16D-07 EMaxC= 1.00D-01 BMatC= 1.54D-12 BMatP= 8.66D-12
 IDIUse=1 WtCom= 1.00D+00 WtEn= 0.00D+00
 Coeff-Com: -0.797D-03 0.390D-02 0.112D-01 0.176D-01 0.949D-01 0.368D+00
 Coeff-Com:  0.506D+00
 Coeff:     -0.797D-03 0.390D-02 0.112D-01 0.176D-01 0.949D-01 0.368D+00
 Coeff:      0.506D+00
 Gap=     0.186 Goal=   None    Shift=    0.000
 RMSDP=8.98D-09 MaxDP=2.65D-07 DE= 1.82D-12 OVMax= 6.73D-07

 SCF Done:  E(RB3LYP) =  -499.418588243     A.U. after   15 cycles
             Convg  =    0.8978D-08             -V/T =  2.0093
 KE= 4.947993226969D+02 PE=-2.303647594646D+03 EE= 7.387767579695D+02
 Leave Link  502 at Mon Oct  4 04:46:23 2021, MaxMem=  805306368 cpu:     110.3
 (Enter /sw/target/amd/app/gaussian/Gaussian09RevA.02_gcc-4.9.2/g09/l508.exe)
 QCSCF skips out because SCF is already converged.
 Leave Link  508 at Mon Oct  4 04:46:23 2021, MaxMem=  805306368 cpu:       0.0
 (Enter /sw/target/amd/app/gaussian/Gaussian09RevA.02_gcc-4.9.2/g09/l601.exe)
 Copying SCF densities to generalized density rwf, IOpCl= 0 IROHF=0.

 **********************************************************************

            Population analysis using the SCF density.

 **********************************************************************

 Orbital symmetries:
       Occupied  (A) (A) (A) (A) (A) (A) (A) (A) (A) (A) (A) (A)
                 (A) (A) (A) (A) (A) (A) (A) (A) (A) (A) (A) (A)
                 (A) (A) (A) (A) (A) (A) (A) (A) (A) (A) (A) (A)
                 (A) (A) (A) (A)
       Virtual   (A) (A) (A) (A) (A) (A) (A) (A) (A) (A) (A) (A)
                 (A) (A) (A) (A) (A) (A) (A) (A) (A) (A) (A) (A)
                 (A) (A) (A) (A) (A) (A) (A) (A) (A) (A) (A) (A)
                 (A) (A) (A) (A) (A) (A) (A) (A) (A) (A) (A) (A)
                 (A) (A) (A) (A) (A) (A) (A) (A) (A) (A) (A) (A)
                 (A) (A) (A) (A) (A) (A) (A) (A) (A) (A) (A) (A)
                 (A) (A) (A) (A) (A) (A) (A) (A) (A) (A) (A) (A)
                 (A) (A) (A) (A) (A) (A) (A) (A) (A) (A) (A) (A)
                 (A) (A) (A) (A) (A) (A) (A) (A) (A) (A) (A) (A)
                 (A) (A) (A) (A) (A) (A) (A) (A) (A) (A) (A) (A)
                 (A) (A) (A) (A) (A) (A) (A) (A) (A) (A) (A) (A)
                 (A) (A) (A) (A) (A) (A) (A) (A) (A) (A) (A) (A)
                 (A)
 The electronic state is 1-A.
 Alpha  occ. eigenvalues --  -19.18998 -19.12445 -10.26695 -10.25954 -10.24803
 Alpha  occ. eigenvalues --  -10.20227 -10.19870 -10.19663 -10.19296 -10.19172
 Alpha  occ. eigenvalues --  -10.18432  -1.07425  -1.02249  -0.86013  -0.77516
 Alpha  occ. eigenvalues --   -0.75879  -0.73302  -0.70472  -0.61810  -0.61372
 Alpha  occ. eigenvalues --   -0.55296  -0.53384  -0.49217  -0.47926  -0.47051
 Alpha  occ. eigenvalues --   -0.45709  -0.44317  -0.43352  -0.42512  -0.40710
 Alpha  occ. eigenvalues --   -0.39943  -0.38772  -0.36923  -0.36553  -0.35648
 Alpha  occ. eigenvalues --   -0.33599  -0.31958  -0.25908  -0.23944  -0.22987
 Alpha virt. eigenvalues --   -0.04339  -0.00939   0.05304   0.08601   0.09864
 Alpha virt. eigenvalues --    0.11419   0.13539   0.14511   0.15038   0.15546
 Alpha virt. eigenvalues --    0.16090   0.16570   0.17979   0.18925   0.20673
 Alpha virt. eigenvalues --    0.22852   0.24807   0.27504   0.29552   0.32867
 Alpha virt. eigenvalues --    0.33669   0.36713   0.39113   0.48256   0.48674
 Alpha virt. eigenvalues --    0.50963   0.51852   0.53705   0.54826   0.55781
 Alpha virt. eigenvalues --    0.55973   0.57578   0.58710   0.58808   0.59484
 Alpha virt. eigenvalues --    0.60235   0.61398   0.62002   0.65259   0.68061
 Alpha virt. eigenvalues --    0.68461   0.70818   0.73253   0.74073   0.75823
 Alpha virt. eigenvalues --    0.78253   0.81693   0.82622   0.83214   0.84657
 Alpha virt. eigenvalues --    0.85559   0.85762   0.87599   0.87992   0.90498
 Alpha virt. eigenvalues --    0.91842   0.92633   0.95245   0.96480   0.97885
 Alpha virt. eigenvalues --    0.99514   1.02476   1.02490   1.03660   1.05572
 Alpha virt. eigenvalues --    1.10406   1.13584   1.16825   1.18065   1.23934
 Alpha virt. eigenvalues --    1.25793   1.25877   1.32500   1.33672   1.36831
 Alpha virt. eigenvalues --    1.37112   1.39826   1.42225   1.44747   1.45335
 Alpha virt. eigenvalues --    1.48881   1.49920   1.50408   1.51574   1.65913
 Alpha virt. eigenvalues --    1.67971   1.70728   1.76716   1.78328   1.80580
 Alpha virt. eigenvalues --    1.81524   1.84190   1.86241   1.87550   1.92463
 Alpha virt. eigenvalues --    1.94426   1.95861   1.97065   1.98458   2.04353
 Alpha virt. eigenvalues --    2.04957   2.06086   2.07958   2.10023   2.12141
 Alpha virt. eigenvalues --    2.14272   2.14302   2.22557   2.23006   2.24521
 Alpha virt. eigenvalues --    2.26226   2.28405   2.29725   2.35021   2.35340
 Alpha virt. eigenvalues --    2.39412   2.42884   2.51595   2.53325   2.53828
 Alpha virt. eigenvalues --    2.59718   2.60944   2.66736   2.68338   2.72033
 Alpha virt. eigenvalues --    2.74487   2.79670   2.83570   2.95824   2.98077
 Alpha virt. eigenvalues --    2.98912   3.07175   3.21276   3.43433   3.97285
 Alpha virt. eigenvalues --    4.04246   4.09983   4.10997   4.20722   4.23230
 Alpha virt. eigenvalues --    4.30178   4.33014   4.42071   4.55582   4.76910
          Condensed to atoms (all electrons):
              1          2          3          4          5          6
     1  C    4.901765   0.244297  -0.043621  -0.006241   0.000284   0.000001
     2  O    0.244297   8.192874   0.285715  -0.062460   0.003508   0.000113
     3  C   -0.043621   0.285715   4.504400   0.453937  -0.000069  -0.033442
     4  C   -0.006241  -0.062460   0.453937   5.162523   0.439312  -0.025690
     5  C    0.000284   0.003508  -0.000069   0.439312   5.048300   0.484965
     6  C    0.000001   0.000113  -0.033442  -0.025690   0.484965   5.023568
     7  C   -0.000145   0.003304  -0.018937  -0.039017  -0.080746   0.494174
     8  C    0.004425  -0.055748   0.542433  -0.064312  -0.036801  -0.018568
     9  C    0.000000   0.000000   0.000105   0.007626  -0.029669   0.284471
    10  O    0.000000  -0.000000  -0.000019   0.001309   0.001737  -0.093645
    11  C    0.000000  -0.000000  -0.000021  -0.000100   0.011659  -0.128419
    12  H    0.383490  -0.030502   0.003258   0.000177  -0.000001   0.000000
    13  H    0.364426  -0.034516  -0.005827   0.005417  -0.000123  -0.000005
    14  H    0.367352  -0.035951  -0.004884   0.004324  -0.000082  -0.000004
    15  H    0.005863  -0.007173  -0.046857   0.355066  -0.036710   0.003288
    16  H   -0.000006  -0.000040   0.002913  -0.040078   0.353681  -0.038553
    17  H    0.000003  -0.000061   0.004181   0.000146   0.005874  -0.037730
    18  H   -0.000155  -0.000467  -0.035796   0.007371   0.000178   0.003833
    19  H   -0.000000   0.000000   0.000004  -0.000012  -0.000474   0.001691
    20  H   -0.000000  -0.000000   0.000000   0.000002  -0.000139   0.005392
    21  H   -0.000000  -0.000000   0.000003  -0.000001  -0.000338   0.001807
              7          8          9         10         11         12
     1  C   -0.000145   0.004425   0.000000   0.000000   0.000000   0.383490
     2  O    0.003304  -0.055748   0.000000  -0.000000  -0.000000  -0.030502
     3  C   -0.018937   0.542433   0.000105  -0.000019  -0.000021   0.003258
     4  C   -0.039017  -0.064312   0.007626   0.001309  -0.000100   0.000177
     5  C   -0.080746  -0.036801  -0.029669   0.001737   0.011659  -0.000001
     6  C    0.494174  -0.018568   0.284471  -0.093645  -0.128419   0.000000
     7  C    5.037690   0.512679  -0.041911   0.004597  -0.010951   0.000004
     8  C    0.512679   4.987628   0.004347  -0.000060  -0.000071  -0.000100
     9  C   -0.041911   0.004347   4.554885   0.581523   0.313759  -0.000000
    10  O    0.004597  -0.000060   0.581523   8.037329  -0.092888   0.000000
    11  C   -0.010951  -0.000071   0.313759  -0.092888   5.392536   0.000000
    12  H    0.000004  -0.000100  -0.000000   0.000000   0.000000   0.537879
    13  H    0.000000   0.000109   0.000000   0.000000  -0.000000  -0.032698
    14  H    0.000003   0.000004  -0.000000   0.000000   0.000000  -0.033745
    15  H    0.000786   0.004388  -0.000142   0.000002   0.000002  -0.000104
    16  H    0.005619   0.000405  -0.009168   0.016297   0.000692  -0.000000
    17  H    0.353670  -0.042579  -0.012347   0.000051   0.007939  -0.000000
    18  H   -0.039930   0.346022  -0.000092   0.000000   0.000008  -0.000024
    19  H    0.000916   0.000231  -0.017532   0.002286   0.343366  -0.000000
    20  H    0.000137  -0.000000  -0.019137   0.005601   0.349564  -0.000000
    21  H    0.000307   0.000040  -0.017518   0.000606   0.352704  -0.000000
             13         14         15         16         17         18
     1  C    0.364426   0.367352   0.005863  -0.000006   0.000003  -0.000155
     2  O   -0.034516  -0.035951  -0.007173  -0.000040  -0.000061  -0.000467
     3  C   -0.005827  -0.004884  -0.046857   0.002913   0.004181  -0.035796
     4  C    0.005417   0.004324   0.355066  -0.040078   0.000146   0.007371
     5  C   -0.000123  -0.000082  -0.036710   0.353681   0.005874   0.000178
     6  C   -0.000005  -0.000004   0.003288  -0.038553  -0.037730   0.003833
     7  C    0.000000   0.000003   0.000786   0.005619   0.353670  -0.039930
     8  C    0.000109   0.000004   0.004388   0.000405  -0.042579   0.346022
     9  C    0.000000  -0.000000  -0.000142  -0.009168  -0.012347  -0.000092
    10  O    0.000000   0.000000   0.000002   0.016297   0.000051   0.000000
    11  C   -0.000000   0.000000   0.000002   0.000692   0.007939   0.000008
    12  H   -0.032698  -0.033745  -0.000104  -0.000000  -0.000000  -0.000024
    13  H    0.588208  -0.044835   0.001756   0.000002  -0.000000   0.000030
    14  H   -0.044835   0.588123   0.001639   0.000001  -0.000000   0.000026
    15  H    0.001756   0.001639   0.584495  -0.004789   0.000016  -0.000155
    16  H    0.000002   0.000001  -0.004789   0.546778  -0.000151   0.000015
    17  H   -0.000000  -0.000000   0.000016  -0.000151   0.586227  -0.006113
    18  H    0.000030   0.000026  -0.000155   0.000015  -0.006113   0.583180
    19  H    0.000000  -0.000000   0.000000  -0.000023   0.002204  -0.000007
    20  H   -0.000000   0.000000  -0.000000  -0.000016  -0.000098  -0.000000
    21  H    0.000000  -0.000000  -0.000000  -0.000018   0.000558  -0.000003
             19         20         21
     1  C   -0.000000  -0.000000  -0.000000
     2  O    0.000000  -0.000000  -0.000000
     3  C    0.000004   0.000000   0.000003
     4  C   -0.000012   0.000002  -0.000001
     5  C   -0.000474  -0.000139  -0.000338
     6  C    0.001691   0.005392   0.001807
     7  C    0.000916   0.000137   0.000307
     8  C    0.000231  -0.000000   0.000040
     9  C   -0.017532  -0.019137  -0.017518
    10  O    0.002286   0.005601   0.000606
    11  C    0.343366   0.349564   0.352704
    12  H   -0.000000  -0.000000  -0.000000
    13  H    0.000000  -0.000000   0.000000
    14  H   -0.000000   0.000000  -0.000000
    15  H    0.000000  -0.000000  -0.000000
    16  H   -0.000023  -0.000016  -0.000018
    17  H    0.002204  -0.000098   0.000558
    18  H   -0.000007  -0.000000  -0.000003
    19  H    0.553792  -0.025600  -0.025341
    20  H   -0.025600   0.525575  -0.020323
    21  H   -0.025341  -0.020323   0.531434
 Mulliken atomic charges:
              1
     1  C   -0.221739
     2  O   -0.502894
     3  C    0.392523
     4  C   -0.199298
     5  C   -0.164348
     6  C    0.072751
     7  C   -0.182249
     8  C   -0.184473
     9  C    0.400800
    10  O   -0.464726
    11  C   -0.539779
    12  H    0.172365
    13  H    0.158054
    14  H    0.158029
    15  H    0.138630
    16  H    0.166439
    17  H    0.138211
    18  H    0.142081
    19  H    0.164499
    20  H    0.179042
    21  H    0.176083
 Sum of Mulliken atomic charges =  -0.00000
 Mulliken charges with hydrogens summed into heavy atoms:
              1
     1  C    0.266709
     2  O   -0.502894
     3  C    0.392523
     4  C   -0.060668
     5  C    0.002091
     6  C    0.072751
     7  C   -0.044038
     8  C   -0.042392
     9  C    0.400800
    10  O   -0.464726
    11  C   -0.020156
 Sum of Mulliken charges with hydrogens summed into heavy atoms =  -0.00000
 Electronic spatial extent (au):  <R**2>=           2221.1642
 Charge=             -0.0000 electrons
 Dipole moment (field-independent basis, Debye):
    X=             -2.7704    Y=              1.2985    Z=              0.0372  Tot=              3.0599
 Quadrupole moment (field-independent basis, Debye-Ang):
   XX=            -60.0357   YY=            -63.0077   ZZ=            -65.2723
   XY=             13.3497   XZ=             -0.2162   YZ=              0.1599
 Traceless Quadrupole moment (field-independent basis, Debye-Ang):
   XX=              2.7362   YY=             -0.2358   ZZ=             -2.5004
   XY=             13.3497   XZ=             -0.2162   YZ=              0.1599
 Octapole moment (field-independent basis, Debye-Ang**2):
  XXX=            -57.7089  YYY=              3.4930  ZZZ=              0.7757  XYY=            -12.1236
  XXY=              9.9027  XXZ=              0.6075  XZZ=              1.4976  YZZ=             -1.4798
  YYZ=             -0.1891  XYZ=              0.5680
 Hexadecapole moment (field-independent basis, Debye-Ang**3):
 XXXX=          -2145.7501 YYYY=           -444.6755 ZZZZ=            -76.8678 XXXY=            119.7107
 XXXZ=             -7.8438 YYYX=             -0.6813 YYYZ=             -0.0884 ZZZX=              1.9564
 ZZZY=              0.3962 XXYY=           -498.7824 XXZZ=           -392.6401 YYZZ=            -92.9730
 XXYZ=              2.0509 YYXZ=             -0.2596 ZZXY=             -2.7332
 N-N= 5.706529257367D+02 E-N=-2.303647602239D+03  KE= 4.947993226969D+02
 No NMR shielding tensors so no spin-rotation constants.
 Leave Link  601 at Mon Oct  4 04:46:25 2021, MaxMem=  805306368 cpu:       0.8
 (Enter /sw/target/amd/app/gaussian/Gaussian09RevA.02_gcc-4.9.2/g09/l701.exe)
 Compute integral first derivatives.
 ... and contract with generalized density number  0.
 Leave Link  701 at Mon Oct  4 04:46:27 2021, MaxMem=  805306368 cpu:       0.9
 (Enter /sw/target/amd/app/gaussian/Gaussian09RevA.02_gcc-4.9.2/g09/l702.exe)
 L702 exits ... SP integral derivatives will be done elsewhere.
 Leave Link  702 at Mon Oct  4 04:46:28 2021, MaxMem=  805306368 cpu:       0.1
 (Enter /sw/target/amd/app/gaussian/Gaussian09RevA.02_gcc-4.9.2/g09/l703.exe)
 Compute integral first derivatives, UseDBF=F ICtDFT=           0.
 Integral derivatives from FoFDir, PRISM(SPDF).
 Calling FoFJK, ICntrl=      2127 FMM=F ISym2X=0 I1Cent= 0 IOpClX= 0 NMat=1 NMatS=1 NMatT=0.
 FoFCou: FMM=F IPFlag=           0 FMFlag=      100000 FMFlg1=         800
         NFxFlg=           0 DoJE=F BraDBF=F KetDBF=F FulRan=T
         Omega=  0.000000  0.000000  1.000000  0.000000  0.000000 ICntrl=    2127 IOpCl=  0
         NMat0=    1 NMatS0=    1 NMatT0=    0 NMatD0=    1 NMtDS0=    0 NMtDT0=    0
         I1Cent=           0 NGrid=           0.
 Symmetry not used in FoFCou.
 Leave Link  703 at Mon Oct  4 04:48:11 2021, MaxMem=  805306368 cpu:      46.3
 (Enter /sw/target/amd/app/gaussian/Gaussian09RevA.02_gcc-4.9.2/g09/l716.exe)
 Dipole        =-1.08996508D+00 5.10886730D-01 1.46186810D-02
 ***** Axes restored to original set *****
 -------------------------------------------------------------------
 Center     Atomic                   Forces (Hartrees/Bohr)
 Number     Number              X              Y              Z
 -------------------------------------------------------------------
      1        6          -0.002441885   -0.004557339    0.002608456
      2        8          -0.003768535    0.006060259    0.000403421
      3        6           0.001674511   -0.008727264    0.000733193
      4        6          -0.002445877    0.011628825   -0.000554807
      5        6          -0.007027980   -0.007136356    0.006039509
      6        6           0.006038931    0.007524856   -0.005514827
      7        6          -0.009356517   -0.011029970    0.009035745
      8        6           0.012387241   -0.000982371   -0.009185175
      9        6          -0.009318666    0.008857737    0.002977179
     10        8           0.003623918   -0.003266014   -0.000758662
     11        6           0.007859343    0.007069260    0.001394886
     12        1           0.004217210   -0.002134816   -0.001879442
     13        1           0.000460294    0.003132602    0.000468878
     14        1          -0.001459149    0.003484885   -0.000490240
     15        1           0.000034236   -0.002208991    0.000357515
     16        1           0.003589831   -0.002527808   -0.001989673
     17        1           0.000052608    0.002066645   -0.000490977
     18        1          -0.002662445    0.001186517    0.001451315
     19        1          -0.000244282   -0.004843775   -0.002522552
     20        1          -0.003185286    0.000552802   -0.001481142
     21        1           0.001972500   -0.004149684   -0.000602600
 -------------------------------------------------------------------
 Cartesian Forces:  Max     0.012387241 RMS     0.004985384
 Leave Link  716 at Mon Oct  4 04:48:12 2021, MaxMem=  805306368 cpu:       0.1
 (Enter /sw/target/amd/app/gaussian/Gaussian09RevA.02_gcc-4.9.2/g09/l103.exe)

 GradGradGradGradGradGradGradGradGradGradGradGradGradGradGradGradGradGrad
 Berny optimization.
 Internal  Forces:  Max     0.008626067 RMS     0.002844267
 Search for a local minimum.
 Step number   1 out of a maximum of  104
 All quantities printed in internal units (Hartrees-Bohrs-Radians)
 RMS Force = .28443D-02 SwitMx=.10000D-02 MixMth= 1
 Mixed Optimization -- RFO/linear search
 Second derivative matrix not updated -- first step.
     Eigenvalues ---    0.00649   0.00740   0.00873   0.01390   0.01725
     Eigenvalues ---    0.02106   0.02108   0.02118   0.02119   0.02120
     Eigenvalues ---    0.02133   0.02134   0.02135   0.02140   0.07242
     Eigenvalues ---    0.07497   0.10018   0.10527   0.15999   0.16000
     Eigenvalues ---    0.16000   0.16000   0.16000   0.16000   0.16000
     Eigenvalues ---    0.16000   0.16000   0.16000   0.21999   0.22974
     Eigenvalues ---    0.24000   0.24993   0.24999   0.25000   0.25000
     Eigenvalues ---    0.25000   0.31471   0.33245   0.34191   0.34242
     Eigenvalues ---    0.34362   0.34382   0.34450   0.34453   0.34941
     Eigenvalues ---    0.35038   0.35377   0.35390   0.41698   0.42043
     Eigenvalues ---    0.42189   0.45829   0.46011   0.46042   0.46199
     Eigenvalues ---    0.51736   0.923491000.000001000.000001000.00000
     Eigenvalues --- 1000.000001000.000001000.000001000.000001000.00000
     Eigenvalues --- 1000.000001000.000001000.000001000.000001000.00000
     Eigenvalues --- 1000.000001000.000001000.000001000.000001000.00000
     Eigenvalues --- 1000.000001000.000001000.000001000.000001000.00000
     Eigenvalues --- 1000.000001000.000001000.000001000.000001000.00000
     Eigenvalues --- 1000.000001000.000001000.000001000.000001000.00000
     Eigenvalues --- 1000.000001000.000001000.000001000.00000
 RFO step:  Lambda=-3.45914244D-03 EMin= 6.49462537D-03
 Linear search not attempted -- first point.
 Iteration  1 RMS(Cart)=  0.03880760 RMS(Int)=  0.00076258
 Iteration  2 RMS(Cart)=  0.00093324 RMS(Int)=  0.00006640
 Iteration  3 RMS(Cart)=  0.00000073 RMS(Int)=  0.00006640
 Variable       Old X    -DE/DX   Delta X   Delta X   Delta X     New X
                                 (Linear)    (Quad)   (Total)
    R1        2.68868  -0.00032   0.00000  -0.00075  -0.00075   2.68793
    R2        2.06690  -0.00090   0.00000  -0.00261  -0.00261   2.06429
    R3        2.07009   0.00082   0.00000   0.00238   0.00238   2.07247
    R4        2.06924   0.00135   0.00000   0.00391   0.00391   2.07315
    R5        2.58153  -0.00213   0.00000  -0.00409  -0.00409   2.57744
    R6        2.63894   0.00440   0.00000   0.00970   0.00968   2.64862
    R7        2.63925   0.00554   0.00000   0.01227   0.01224   2.65149
    R8        2.64370  -0.00476   0.00000  -0.01044  -0.01043   2.63327
    R9        2.05066  -0.00069   0.00000  -0.00192  -0.00192   2.04874
   R10        2.64236   0.00202   0.00000   0.00399   0.00403   2.64639
   R11        2.05771  -0.00327   0.00000  -0.00927  -0.00927   2.04844
   R12        2.64349   0.00670   0.00000   0.01426   0.01428   2.65777
   R13        2.81924   0.00366   0.00000   0.01091   0.01091   2.83015
   R14        2.63904  -0.00620   0.00000  -0.01322  -0.01323   2.62581
   R15        2.05047  -0.00051   0.00000  -0.00142  -0.00142   2.04905
   R16        2.05614  -0.00172   0.00000  -0.00486  -0.00486   2.05128
   R17        2.31869  -0.00406   0.00000  -0.00438  -0.00438   2.31431
   R18        2.85123   0.00717   0.00000   0.02252   0.02252   2.87375
   R19        2.06577   0.00116   0.00000   0.00335   0.00335   2.06911
   R20        2.06724  -0.00091   0.00000  -0.00263  -0.00263   2.06462
   R21        2.06572   0.00199   0.00000   0.00572   0.00572   2.07144
    A1        1.88471  -0.00707   0.00000  -0.04151  -0.04142   1.84330
    A2        1.94207   0.00098   0.00000   0.00501   0.00505   1.94712
    A3        1.93143   0.00289   0.00000   0.01684   0.01692   1.94836
    A4        1.87801   0.00362   0.00000   0.02365   0.02369   1.90169
    A5        1.88419   0.00286   0.00000   0.01943   0.01957   1.90376
    A6        1.94078  -0.00333   0.00000  -0.02343  -0.02340   1.91738
    A7        2.03059   0.00863   0.00000   0.03403   0.03403   2.06463
    A8        2.19876  -0.00456   0.00000  -0.01842  -0.01840   2.18036
    A9        2.00358   0.00346   0.00000   0.01321   0.01324   2.01681
   A10        2.08085   0.00110   0.00000   0.00522   0.00515   2.08601
   A11        2.09846  -0.00241   0.00000  -0.01078  -0.01080   2.08766
   A12        2.12670  -0.00098   0.00000  -0.00797  -0.00797   2.11873
   A13        2.05802   0.00339   0.00000   0.01877   0.01877   2.07679
   A14        2.10221   0.00452   0.00000   0.01892   0.01895   2.12115
   A15        2.07856   0.00138   0.00000   0.01284   0.01281   2.09138
   A16        2.10241  -0.00590   0.00000  -0.03173  -0.03176   2.07065
   A17        2.08234  -0.00463   0.00000  -0.01968  -0.01964   2.06271
   A18        2.07094  -0.00155   0.00000  -0.00542  -0.00545   2.06549
   A19        2.12988   0.00618   0.00000   0.02509   0.02506   2.15494
   A20        2.09537   0.00339   0.00000   0.01456   0.01457   2.10993
   A21        2.12981  -0.00381   0.00000  -0.02023  -0.02023   2.10958
   A22        2.05800   0.00042   0.00000   0.00566   0.00565   2.06365
   A23        2.10703  -0.00196   0.00000  -0.00808  -0.00814   2.09889
   A24        2.08793  -0.00186   0.00000  -0.01329  -0.01328   2.07466
   A25        2.08819   0.00382   0.00000   0.02143   0.02144   2.10964
   A26        2.09820   0.00174   0.00000   0.00708   0.00695   2.10515
   A27        2.06967   0.00265   0.00000   0.01069   0.01056   2.08023
   A28        2.11503  -0.00439   0.00000  -0.01710  -0.01723   2.09780
   A29        1.93422   0.00343   0.00000   0.02202   0.02197   1.95619
   A30        1.90874  -0.00270   0.00000  -0.01034  -0.01041   1.89833
   A31        1.91499   0.00262   0.00000   0.00868   0.00871   1.92369
   A32        1.87105   0.00233   0.00000   0.02881   0.02866   1.89971
   A33        1.93265  -0.00532   0.00000  -0.04398  -0.04394   1.88872
   A34        1.90134  -0.00045   0.00000  -0.00512  -0.00511   1.89623
    D1        3.07487   0.00031   0.00000   0.02169   0.02178   3.09665
    D2        1.01752  -0.00032   0.00000   0.01546   0.01547   1.03299
    D3       -1.14953   0.00117   0.00000   0.02989   0.02979  -1.11974
    D4        0.02597   0.00015   0.00000   0.00597   0.00594   0.03190
    D5       -3.11425  -0.00000   0.00000   0.00000   0.00003  -3.11422
    D6       -3.12593  -0.00035   0.00000  -0.01393  -0.01386  -3.13979
    D7        0.01150  -0.00018   0.00000  -0.00749  -0.00747   0.00403
    D8        0.01423  -0.00019   0.00000  -0.00772  -0.00773   0.00650
    D9       -3.13153  -0.00002   0.00000  -0.00128  -0.00134  -3.13286
   D10        3.12451   0.00045   0.00000   0.01815   0.01815  -3.14053
   D11       -0.00875   0.00024   0.00000   0.01021   0.01033   0.00158
   D12       -0.01581   0.00031   0.00000   0.01264   0.01260  -0.00321
   D13        3.13412   0.00010   0.00000   0.00471   0.00479   3.13890
   D14       -0.00405  -0.00003   0.00000  -0.00202  -0.00206  -0.00611
   D15        3.13353   0.00013   0.00000   0.00486   0.00495   3.13848
   D16        3.14155  -0.00019   0.00000  -0.00815  -0.00824   3.13331
   D17       -0.00406  -0.00003   0.00000  -0.00127  -0.00123  -0.00529
   D18       -0.00475   0.00017   0.00000   0.00705   0.00703   0.00228
   D19        3.12937   0.00014   0.00000   0.00457   0.00462   3.13399
   D20        3.14091  -0.00001   0.00000  -0.00003   0.00000   3.14091
   D21       -0.00816  -0.00004   0.00000  -0.00251  -0.00241  -0.01057
   D22        0.00324  -0.00006   0.00000  -0.00221  -0.00213   0.00111
   D23        3.14137  -0.00013   0.00000  -0.00497  -0.00487   3.13650
   D24       -3.13062   0.00001   0.00000   0.00050   0.00056  -3.13006
   D25        0.00751  -0.00006   0.00000  -0.00226  -0.00218   0.00533
   D26       -0.02216  -0.00000   0.00000   0.00162   0.00175  -0.02041
   D27       -3.13850  -0.00027   0.00000  -0.02816  -0.02829   3.11639
   D28        3.11175  -0.00008   0.00000  -0.00113  -0.00100   3.11075
   D29       -0.00459  -0.00035   0.00000  -0.03091  -0.03104  -0.03564
   D30        0.00711  -0.00020   0.00000  -0.00778  -0.00773  -0.00062
   D31        3.14037  -0.00002   0.00000  -0.00001   0.00008   3.14044
   D32       -3.13116  -0.00013   0.00000  -0.00508  -0.00500  -3.13616
   D33        0.00210   0.00006   0.00000   0.00269   0.00280   0.00490
   D34       -0.87036   0.00169   0.00000  -0.00466  -0.00467  -0.87503
   D35       -2.92938  -0.00156   0.00000  -0.04684  -0.04699  -2.97637
   D36        1.26930  -0.00095   0.00000  -0.03952  -0.03962   1.22968
   D37        2.29674   0.00133   0.00000  -0.03512  -0.03495   2.26179
   D38        0.23772  -0.00193   0.00000  -0.07729  -0.07727   0.16045
   D39       -1.84679  -0.00131   0.00000  -0.06997  -0.06990  -1.91669
         Item               Value     Threshold  Converged?
 Maximum Force            0.008626     0.000450     NO 
 RMS     Force            0.002844     0.000300     NO 
 Maximum Displacement     0.139457     0.001800     NO 
 RMS     Displacement     0.038746     0.001200     NO 
 Predicted change in Energy=-1.792234D-03
 GradGradGradGradGradGradGradGradGradGradGradGradGradGradGradGradGradGrad

 Leave Link  103 at Mon Oct  4 04:48:22 2021, MaxMem=  805306368 cpu:       2.6
 (Enter /sw/target/amd/app/gaussian/Gaussian09RevA.02_gcc-4.9.2/g09/l202.exe)
                          Input orientation:                          
 ---------------------------------------------------------------------
 Center     Atomic      Atomic             Coordinates (Angstroms)
 Number     Number       Type             X           Y           Z
 ---------------------------------------------------------------------
      1          6           0        1.056364    0.866722    0.735479
      2          8           0        2.216003    0.446339    0.027162
      3          6           0        2.939956    1.387256   -0.644292
      4          6           0        2.650952    2.758580   -0.664191
      5          6           0        3.466399    3.623676   -1.391108
      6          6           0        4.579321    3.157238   -2.101728
      7          6           0        4.858987    1.779298   -2.068348
      8          6           0        4.052030    0.904778   -1.350850
      9          6           0        5.400854    4.148447   -2.866932
     10          8           0        5.090941    5.333114   -2.885811
     11          6           0        6.632597    3.668026   -3.618333
     12          1           0        0.618122   -0.044384    1.149140
     13          1           0        0.326920    1.341983    0.068546
     14          1           0        1.309247    1.548104    1.557254
     15          1           0        1.804302    3.165233   -0.122719
     16          1           0        3.244384    4.684494   -1.411240
     17          1           0        5.706855    1.370484   -2.606605
     18          1           0        4.267521   -0.158819   -1.326142
     19          1           0        7.287322    3.057586   -2.987806
     20          1           0        7.191935    4.538444   -3.969293
     21          1           0        6.336612    3.068181   -4.486747
 ---------------------------------------------------------------------
                    Distance matrix (angstroms):
                    1          2          3          4          5
     1  C    0.000000
     2  O    1.422392   0.000000
     3  C    2.392204   1.363922   0.000000
     4  C    2.842695   2.452267   1.401588   0.000000
     5  C    4.234553   3.697357   2.415875   1.393467   0.000000
     6  C    5.070250   4.179284   2.818594   2.438041   1.400407
     7  C    4.811879   3.626749   2.421634   2.793934   2.408253
     8  C    3.650786   2.340957   1.403111   2.423036   2.781545
     9  C    6.528528   5.676677   4.315128   3.787579   2.489088
    10  O    7.024259   6.374265   5.022045   4.185375   2.792034
    11  C    7.609031   6.570784   5.261409   5.040589   3.871344
    12  H    1.092376   2.013173   3.264491   3.908603   5.293412
    13  H    1.096704   2.091059   2.708901   2.818649   4.146450
    14  H    1.097062   2.092193   2.744428   2.863607   4.201683
    15  H    2.564969   2.753969   2.173235   1.084147   2.140455
    16  H    4.896041   4.592225   3.398921   2.149276   1.083989
    17  H    5.748944   4.469543   3.392150   3.877927   3.402051
    18  H    3.951398   2.531082   2.148883   3.400396   3.866948
    19  H    7.582056   6.451893   5.213603   5.194662   4.179636
    20  H    8.559303   7.581351   6.250196   5.891701   4.622062
    21  H    7.745908   6.650477   5.396966   5.319011   4.257896
                    6          7          8          9         10
     6  C    0.000000
     7  C    1.406430   0.000000
     8  C    2.432166   1.389521   0.000000
     9  C    1.497648   2.558168   3.826124   0.000000
    10  O    2.368750   3.653992   4.800584   1.224679   0.000000
    11  C    2.603255   3.019179   4.408667   1.520723   2.384494
    12  H    6.042319   5.626987   4.352308   7.522180   8.074926
    13  H    5.107657   5.029632   4.010272   6.499084   6.881370
    14  H    5.164382   5.079280   4.048925   6.563266   6.954735
    15  H    3.408412   3.877807   3.416174   4.629536   4.810030
    16  H    2.142741   3.388052   3.865514   2.656454   2.450477
    17  H    2.172262   1.084311   2.128907   2.806864   4.019918
    18  H    3.419794   2.158009   1.085488   4.712857   5.768182
    19  H    2.851024   2.894172   4.216790   2.182510   3.164257
    20  H    3.495896   4.082784   5.469806   2.138988   2.493915
    21  H    2.963836   3.113398   4.442238   2.160190   3.040496
                   11         12         13         14         15
    11  C    0.000000
    12  H    8.525532   0.000000
    13  H    7.665841   1.781711   0.000000
    14  H    7.721322   1.783319   1.795468   0.000000
    15  H    5.982019   3.650519   2.354460   2.383798   0.000000
    16  H    4.169467   5.984571   4.676938   4.732194   2.458105
    17  H    2.675686   6.480947   6.008406   6.058730   4.961928
    18  H    5.049007   4.411148   4.441385   4.469780   4.308712
    19  H    1.094928   8.438884   7.793060   7.659862   6.187392
    20  H    1.092548   9.508717   8.581955   8.607606   6.760802
    21  H    1.096159   8.611180   7.736075   8.007183   6.292535
                   16         17         18         19         20
    16  H    0.000000
    17  H    4.298293   0.000000
    18  H    4.950933   2.459682   0.000000
    19  H    4.634408   2.342969   4.714402   0.000000
    20  H    4.706180   3.754778   6.132107   1.779145   0.000000
    21  H    4.651138   2.610308   4.968309   1.775045   1.777923
                   21
    21  H    0.000000
 Stoichiometry    C9H10O2
 Framework group  C1[X(C9H10O2)]
 Deg. of freedom    57
 Full point group                 C1      NOp   1
 Largest Abelian subgroup         C1      NOp   1
 Largest concise Abelian subgroup C1      NOp   1
                         Standard orientation:                         
 ---------------------------------------------------------------------
 Center     Atomic      Atomic             Coordinates (Angstroms)
 Number     Number       Type             X           Y           Z
 ---------------------------------------------------------------------
      1          6           0       -3.939346   -0.519225    0.017105
      2          8           0       -3.025935    0.570898   -0.005486
      3          6           0       -1.690166    0.295208   -0.005911
      4          6           0       -1.136570   -0.992314   -0.022288
      5          6           0        0.248337   -1.146490   -0.018732
      6          6           0        1.108272   -0.041275   -0.006375
      7          6           0        0.537753    1.244189    0.005305
      8          6           0       -0.841533    1.412527    0.005926
      9          6           0        2.585134   -0.289582    0.006734
     10          8           0        3.025317   -1.432220    0.028111
     11          6           0        3.536777    0.896409   -0.013184
     12          1           0       -4.933615   -0.068850    0.060424
     13          1           0       -3.794224   -1.148339    0.903624
     14          1           0       -3.861887   -1.130642   -0.890481
     15          1           0       -1.763667   -1.876519   -0.039813
     16          1           0        0.680174   -2.140700   -0.028434
     17          1           0        1.162731    2.130146    0.019842
     18          1           0       -1.281568    2.404773    0.016014
     19          1           0        3.291258    1.607839   -0.808455
     20          1           0        4.553509    0.528626   -0.170194
     21          1           0        3.500286    1.427560    0.944997
 ---------------------------------------------------------------------
 Rotational constants (GHZ):      3.3304887      0.5644445      0.4856591
 Leave Link  202 at Mon Oct  4 04:48:22 2021, MaxMem=  805306368 cpu:       0.0
 (Enter /sw/target/amd/app/gaussian/Gaussian09RevA.02_gcc-4.9.2/g09/l301.exe)
 Standard basis: 6-31G(d) (6D, 7F)
 Ernie: Thresh=  0.10000D-02 Tol=  0.10000D-05 Strict=F.
 There are   185 symmetry adapted basis functions of A   symmetry.
 Integral buffers will be    131072 words long.
 Raffenetti 2 integral format.
 Two-electron integral symmetry is turned on.
   185 basis functions,   348 primitive gaussians,   185 cartesian basis functions
    40 alpha electrons       40 beta electrons
       nuclear repulsion energy       569.1639987005 Hartrees.
 IExCor=  402 DFT=T Ex+Corr=B3LYP ExCW=0 ScaHFX=  0.200000
 ScaDFX=  0.800000  0.720000  1.000000  0.810000 ScalE2=  1.000000  1.000000
 IRadAn=      0 IRanWt=     -1 IRanGd=            0 ICorTp=0
 NAtoms=   21 NActive=   21 NUniq=   21 SFac= 7.50D-01 NAtFMM=   80 NAOKFM=F Big=F
 Leave Link  301 at Mon Oct  4 04:48:23 2021, MaxMem=  805306368 cpu:       0.1
 (Enter /sw/target/amd/app/gaussian/Gaussian09RevA.02_gcc-4.9.2/g09/l302.exe)
 NPDir=0 NMtPBC=     1 NCelOv=     1 NCel=       1 NClECP=     1 NCelD=      1
         NCelK=      1 NCelE2=     1 NClLst=     1 CellRange=     0.0.
 One-electron integrals computed using PRISM.
 NBasis=   185 RedAO= T  NBF=   185
 NBsUse=   185 1.00D-06 NBFU=   185
 Precomputing XC quadrature grid using
 IXCGrd= 2 IRadAn=           0 IRanWt=          -1 IRanGd=           0 AccXCQ= 1.00D-10.
 NRdTot=    1325 NPtTot=      168726 NUsed=      178287 NTot=      178319
 NSgBfM=   184   184   184   184   184 NAtAll=    21    21.
 Leave Link  302 at Mon Oct  4 04:48:27 2021, MaxMem=  805306368 cpu:       1.2
 (Enter /sw/target/amd/app/gaussian/Gaussian09RevA.02_gcc-4.9.2/g09/l303.exe)
 DipDrv:  MaxL=1.
 Leave Link  303 at Mon Oct  4 04:48:27 2021, MaxMem=  805306368 cpu:       0.1
 (Enter /sw/target/amd/app/gaussian/Gaussian09RevA.02_gcc-4.9.2/g09/l401.exe)
 Initial guess read from the read-write file.
 B after Tr=     0.000000    0.000000    0.000000
         Rot=    1.000000    0.000000    0.000000    0.000000 Ang=   0.00 deg.
 Guess basis will be translated and rotated to current coordinates.
 Initial guess orbital symmetries:
       Occupied  (A) (A) (A) (A) (A) (A) (A) (A) (A) (A) (A) (A)
                 (A) (A) (A) (A) (A) (A) (A) (A) (A) (A) (A) (A)
                 (A) (A) (A) (A) (A) (A) (A) (A) (A) (A) (A) (A)
                 (A) (A) (A) (A)
       Virtual   (A) (A) (A) (A) (A) (A) (A) (A) (A) (A) (A) (A)
                 (A) (A) (A) (A) (A) (A) (A) (A) (A) (A) (A) (A)
                 (A) (A) (A) (A) (A) (A) (A) (A) (A) (A) (A) (A)
                 (A) (A) (A) (A) (A) (A) (A) (A) (A) (A) (A) (A)
                 (A) (A) (A) (A) (A) (A) (A) (A) (A) (A) (A) (A)
                 (A) (A) (A) (A) (A) (A) (A) (A) (A) (A) (A) (A)
                 (A) (A) (A) (A) (A) (A) (A) (A) (A) (A) (A) (A)
                 (A) (A) (A) (A) (A) (A) (A) (A) (A) (A) (A) (A)
                 (A) (A) (A) (A) (A) (A) (A) (A) (A) (A) (A) (A)
                 (A) (A) (A) (A) (A) (A) (A) (A) (A) (A) (A) (A)
                 (A) (A) (A) (A) (A) (A) (A) (A) (A) (A) (A) (A)
                 (A) (A) (A) (A) (A) (A) (A) (A) (A) (A) (A) (A)
                 (A)
 The electronic state of the initial guess is 1-A.
 Generating alternative initial guess.
 Harris functional with IExCor=  402 diagonalized for initial guess.
 ExpMin= 1.61D-01 ExpMax= 5.48D+03 ExpMxC= 8.25D+02 IAcc=1 IRadAn=         1 AccDes= 0.00D+00
 HarFok:  IExCor=  402 AccDes= 0.00D+00 IRadAn=         1 IDoV= 1
 ScaDFX=  1.000000  1.000000  1.000000  1.000000
 FoFCou: FMM=F IPFlag=           0 FMFlag=      100000 FMFlg1=           0
         NFxFlg=           0 DoJE=T BraDBF=F KetDBF=T FulRan=T
         Omega=  0.000000  0.000000  1.000000  0.000000  0.000000 ICntrl=     500 IOpCl=  0
         NMat0=    1 NMatS0=    1 NMatT0=    0 NMatD0=    1 NMtDS0=    0 NMtDT0=    0
         I1Cent=           4 NGrid=           0.
 Petite list used in FoFCou.
 Harris En= -499.489630662878    
 Leave Link  401 at Mon Oct  4 04:48:46 2021, MaxMem=  805306368 cpu:       6.1
 (Enter /sw/target/amd/app/gaussian/Gaussian09RevA.02_gcc-4.9.2/g09/l502.exe)
 Closed shell SCF:
 Requested convergence on RMS density matrix=1.00D-08 within  64 cycles.
 Requested convergence on MAX density matrix=1.00D-06.
 Requested convergence on             energy=1.00D-06.
 No special actions if energy rises.
 Using DIIS extrapolation, IDIIS=  1040.
 Integral symmetry usage will be decided dynamically.
       178085 words used for storage of precomputed grid.
 Keep R1 ints in memory in canonical form, NReq=151520773.
 IEnd=      288809 IEndB=      288809 NGot=   805306368 MDV=   657041551
 LenX=   657041551 LenY=   657006885
 Symmetry not used in FoFDir.
 MinBra= 0 MaxBra= 2 Meth= 1.
 IRaf=       0 NMat=   1 IRICut=       1 DoRegI=T DoRafI=F ISym2E= 0 JSym2E=0.
 Integral accuracy reduced to 1.0D-05 until final iterations.

 Cycle   1  Pass 0  IDiag  1:
 E= -499.418493900168    
 DIIS: error= 1.77D-03 at cycle   1 NSaved=   1.
 NSaved= 1 IEnMin= 1 EnMin= -499.418493900168     IErMin= 1 ErrMin= 1.77D-03
 ErrMax= 1.77D-03 EMaxC= 1.00D-01 BMatC= 1.05D-03 BMatP= 1.05D-03
 IDIUse=3 WtCom= 9.82D-01 WtEn= 1.77D-02
 Coeff-Com:  0.100D+01
 Coeff-En:   0.100D+01
 Coeff:      0.100D+01
 Gap=     0.187 Goal=   None    Shift=    0.000
 GapD=    0.187 DampG=1.000 DampE=1.000 DampFc=1.0000 IDamp=-1.
 RMSDP=3.64D-04 MaxDP=5.56D-03              OVMax= 9.89D-03

 Cycle   2  Pass 0  IDiag  1:
 E= -499.420458323406     Delta-E=       -0.001964423238 Rises=F Damp=F
 DIIS: error= 6.27D-04 at cycle   2 NSaved=   2.
 NSaved= 2 IEnMin= 2 EnMin= -499.420458323406     IErMin= 2 ErrMin= 6.27D-04
 ErrMax= 6.27D-04 EMaxC= 1.00D-01 BMatC= 6.35D-05 BMatP= 1.05D-03
 IDIUse=3 WtCom= 9.94D-01 WtEn= 6.27D-03
 Coeff-Com:  0.197D-01 0.980D+00
 Coeff-En:   0.000D+00 0.100D+01
 Coeff:      0.196D-01 0.980D+00
 Gap=     0.186 Goal=   None    Shift=    0.000
 RMSDP=1.12D-04 MaxDP=4.11D-03 DE=-1.96D-03 OVMax= 4.49D-03

 Cycle   3  Pass 0  IDiag  1:
 E= -499.420365870301     Delta-E=        0.000092453105 Rises=F Damp=F
 DIIS: error= 1.51D-03 at cycle   3 NSaved=   3.
 NSaved= 3 IEnMin= 2 EnMin= -499.420458323406     IErMin= 2 ErrMin= 6.27D-04
 ErrMax= 1.51D-03 EMaxC= 1.00D-01 BMatC= 1.93D-04 BMatP= 6.35D-05
 IDIUse=3 WtCom= 2.05D-01 WtEn= 7.95D-01
 Coeff-Com: -0.463D-01 0.671D+00 0.376D+00
 Coeff-En:   0.000D+00 0.691D+00 0.309D+00
 Coeff:     -0.947D-02 0.687D+00 0.323D+00
 Gap=     0.185 Goal=   None    Shift=    0.000
 RMSDP=7.01D-05 MaxDP=3.04D-03 DE= 9.25D-05 OVMax= 3.27D-03

 Cycle   4  Pass 0  IDiag  1:
 E= -499.420522708415     Delta-E=       -0.000156838114 Rises=F Damp=F
 DIIS: error= 7.59D-05 at cycle   4 NSaved=   4.
 NSaved= 4 IEnMin= 4 EnMin= -499.420522708415     IErMin= 4 ErrMin= 7.59D-05
 ErrMax= 7.59D-05 EMaxC= 1.00D-01 BMatC= 2.79D-06 BMatP= 6.35D-05
 IDIUse=1 WtCom= 1.00D+00 WtEn= 0.00D+00
 Coeff-Com: -0.264D-01 0.312D+00 0.153D+00 0.561D+00
 Coeff:     -0.264D-01 0.312D+00 0.153D+00 0.561D+00
 Gap=     0.185 Goal=   None    Shift=    0.000
 RMSDP=1.19D-05 MaxDP=4.04D-04 DE=-1.57D-04 OVMax= 5.92D-04

 Cycle   5  Pass 0  IDiag  1:
 E= -499.420525056719     Delta-E=       -0.000002348304 Rises=F Damp=F
 DIIS: error= 4.18D-05 at cycle   5 NSaved=   5.
 NSaved= 5 IEnMin= 5 EnMin= -499.420525056719     IErMin= 5 ErrMin= 4.18D-05
 ErrMax= 4.18D-05 EMaxC= 1.00D-01 BMatC= 4.32D-07 BMatP= 2.79D-06
 IDIUse=1 WtCom= 1.00D+00 WtEn= 0.00D+00
 Coeff-Com: -0.712D-02 0.634D-01 0.266D-01 0.301D+00 0.616D+00
 Coeff:     -0.712D-02 0.634D-01 0.266D-01 0.301D+00 0.616D+00
 Gap=     0.185 Goal=   None    Shift=    0.000
 RMSDP=4.20D-06 MaxDP=1.24D-04 DE=-2.35D-06 OVMax= 2.41D-04

 Initial convergence to 1.0D-05 achieved.  Increase integral accuracy.
 Cycle   6  Pass 1  IDiag  1:
 E= -499.420503477133     Delta-E=        0.000021579587 Rises=F Damp=F
[...]
    13  H    0.605503  -0.050998   0.001802   0.000003  -0.000000   0.000031
    14  H   -0.050998   0.605498   0.001802   0.000003  -0.000000   0.000031
    15  H    0.001802   0.001802   0.596720  -0.005462   0.000016  -0.000169
    16  H    0.000003   0.000003  -0.005462   0.587827  -0.000198   0.000015
    17  H   -0.000000  -0.000000   0.000016  -0.000198   0.616754  -0.006583
    18  H    0.000031   0.000031  -0.000169   0.000015  -0.006583   0.592723
    19  H    0.000000  -0.000000   0.000000  -0.000005   0.001024  -0.000000
    20  H    0.000000   0.000000  -0.000000  -0.000004   0.000010  -0.000000
    21  H   -0.000000   0.000000   0.000000  -0.000005   0.001024  -0.000000
             19         20         21
     1  C    0.000000   0.000000   0.000000
     2  O    0.000000  -0.000000   0.000000
     3  C   -0.000006   0.000000  -0.000006
     4  C    0.000002   0.000002   0.000002
     5  C    0.000031  -0.000069   0.000031
     6  C   -0.005970   0.003278  -0.005968
     7  C    0.002875   0.000317   0.002873
     8  C    0.000058  -0.000001   0.000058
     9  C   -0.028576  -0.025012  -0.028578
    10  O    0.001517  -0.000565   0.001517
    11  C    0.363481   0.361457   0.363478
    12  H    0.000000  -0.000000   0.000000
    13  H    0.000000   0.000000  -0.000000
    14  H   -0.000000   0.000000   0.000000
    15  H    0.000000  -0.000000   0.000000
    16  H   -0.000005  -0.000004  -0.000005
    17  H    0.001024   0.000010   0.001024
    18  H   -0.000000  -0.000000  -0.000000
    19  H    0.537617  -0.023953  -0.041162
    20  H   -0.023953   0.526778  -0.023960
    21  H   -0.041162  -0.023960   0.537632
 Mulliken atomic charges:
              1
     1  C   -0.212057
     2  O   -0.508411
     3  C    0.356995
     4  C   -0.191474
     5  C   -0.207381
     6  C    0.115126
     7  C   -0.208827
     8  C   -0.172859
     9  C    0.303164
    10  O   -0.313097
    11  C   -0.513556
    12  H    0.167024
    13  H    0.150026
    14  H    0.150027
    15  H    0.128940
    16  H    0.136964
    17  H    0.116886
    18  H    0.134656
    19  H    0.193067
    20  H    0.181722
    21  H    0.193065
 Sum of Mulliken atomic charges =  -0.00000
 Mulliken charges with hydrogens summed into heavy atoms:
              1
     1  C    0.255020
     2  O   -0.508411
     3  C    0.356995
     4  C   -0.062534
     5  C   -0.070417
     6  C    0.115126
     7  C   -0.091941
     8  C   -0.038203
     9  C    0.303164
    10  O   -0.313097
    11  C    0.054298
 Sum of Mulliken charges with hydrogens summed into heavy atoms =  -0.00000
 Electronic spatial extent (au):  <R**2>=           2227.3178
 Charge=             -0.0000 electrons
 Dipole moment (field-independent basis, Debye):
    X=             -0.2950    Y=              0.5294    Z=              0.0005  Tot=              0.6060
 Quadrupole moment (field-independent basis, Debye-Ang):
   XX=            -52.0552   YY=            -61.9414   ZZ=            -66.7788
   XY=            -10.4989   XZ=              0.0005   YZ=             -0.0000
 Traceless Quadrupole moment (field-independent basis, Debye-Ang):
   XX=              8.2033   YY=             -1.6829   ZZ=             -6.5204
   XY=            -10.4989   XZ=              0.0005   YZ=             -0.0000
 Octapole moment (field-independent basis, Debye-Ang**2):
  XXX=             10.9992  YYY=              1.8314  ZZZ=              0.0002  XYY=              4.0968
  XXY=              3.4528  XXZ=              0.0065  XZZ=             -0.4076  YZZ=             -0.9174
  YYZ=             -0.0003  XYZ=              0.0004
 Hexadecapole moment (field-independent basis, Debye-Ang**3):
 XXXX=          -2035.4908 YYYY=           -445.4198 ZZZZ=            -78.7353 XXXY=            -88.6702
 XXXZ=              0.0073 YYYX=              5.6880 YYYZ=             -0.0002 ZZZX=              0.0009
 ZZZY=              0.0003 XXYY=           -476.1483 XXZZ=           -402.7753 YYZZ=            -94.3441
 XXYZ=             -0.0005 YYXZ=             -0.0007 ZZXY=              1.7751
 N-N= 5.697548258842D+02 E-N=-2.301760802641D+03  KE= 4.948498455510D+02
 No NMR shielding tensors so no spin-rotation constants.
 Leave Link  601 at Mon Oct  4 10:05:28 2021, MaxMem=  805306368 cpu:       0.7
 (Enter /sw/target/amd/app/gaussian/Gaussian09RevA.02_gcc-4.9.2/g09/l604.exe)
 Evaluate density.
 Using the total density.
 Monte-Carlo method of calculating molar volume:
 based on  0.001 e/bohr**3 density envelope.
 Number of points per bohr**3 =   20 CutOff= 1.00D-04
 Using the CI density.
 There are       369 points.  Will hold       369 in memory.
 LenV=   805202217 MDV=   805306368.
 Box volume = 6313.886 fraction occupied=0.171
 Integrated density= 3.8829448025776294D+01 error=-4.1170551974223706D+01
 Molar volume = 1077.980 bohr**3/mol ( 96.198 cm**3/mol)
 Recommended a0 for SCRF calculation =  4.20 angstrom (  7.95 bohr)
 Leave Link  604 at Mon Oct  4 10:05:29 2021, MaxMem=  805306368 cpu:       0.2
 (Enter /sw/target/amd/app/gaussian/Gaussian09RevA.02_gcc-4.9.2/g09/l607.exe)
 ******************************Gaussian NBO Version 3.1******************************
             N A T U R A L   A T O M I C   O R B I T A L   A N D
          N A T U R A L   B O N D   O R B I T A L   A N A L Y S I S
 ******************************Gaussian NBO Version 3.1******************************
       /RESON  / : Allow strongly delocalized NBO set

 Analyzing the CI density

 Job title: COc1ccc(cc1)C(=O)C_conf_0                                       

 Storage needed:    104204 in NPA ( 805303953 available)


 NATURAL POPULATIONS:  Natural atomic orbital occupancies 
                                                          
   NAO  Atom  No  lang   Type(AO)    Occupancy
 --------------------------------------------
     1    C    1  S      Cor( 1S)     1.99943
     2    C    1  S      Val( 2S)     1.09916
     3    C    1  S      Ryd( 3S)     0.00141
     4    C    1  S      Ryd( 4S)     0.00002
     5    C    1  px     Val( 2p)     1.01952
     6    C    1  px     Ryd( 3p)     0.00225
     7    C    1  py     Val( 2p)     0.95960
     8    C    1  py     Ryd( 3p)     0.00323
     9    C    1  pz     Val( 2p)     1.22411
    10    C    1  pz     Ryd( 3p)     0.00029
    11    C    1  dxy    Ryd( 3d)     0.00175
    12    C    1  dxz    Ryd( 3d)     0.00060
    13    C    1  dyz    Ryd( 3d)     0.00188
    14    C    1  dx2y2  Ryd( 3d)     0.00130
    15    C    1  dz2    Ryd( 3d)     0.00108

    16    O    2  S      Cor( 1S)     1.99974
    17    O    2  S      Val( 2S)     1.58627
    18    O    2  S      Ryd( 3S)     0.00080
    19    O    2  S      Ryd( 4S)     0.00006
    20    O    2  px     Val( 2p)     1.40437
    21    O    2  px     Ryd( 3p)     0.00113
    22    O    2  py     Val( 2p)     1.68010
    23    O    2  py     Ryd( 3p)     0.00208
    24    O    2  pz     Val( 2p)     1.83892
    25    O    2  pz     Ryd( 3p)     0.00242
    26    O    2  dxy    Ryd( 3d)     0.00129
    27    O    2  dxz    Ryd( 3d)     0.00058
    28    O    2  dyz    Ryd( 3d)     0.00143
    29    O    2  dx2y2  Ryd( 3d)     0.00128
    30    O    2  dz2    Ryd( 3d)     0.00076

    31    C    3  S      Cor( 1S)     1.99882
    32    C    3  S      Val( 2S)     0.82705
    33    C    3  S      Ryd( 3S)     0.00142
    34    C    3  S      Ryd( 4S)     0.00012
    35    C    3  px     Val( 2p)     0.76530
    36    C    3  px     Ryd( 3p)     0.00690
    37    C    3  py     Val( 2p)     1.07435
    38    C    3  py     Ryd( 3p)     0.00644
    39    C    3  pz     Val( 2p)     1.02134
    40    C    3  pz     Ryd( 3p)     0.00135
    41    C    3  dxy    Ryd( 3d)     0.00147
    42    C    3  dxz    Ryd( 3d)     0.00203
    43    C    3  dyz    Ryd( 3d)     0.00066
    44    C    3  dx2y2  Ryd( 3d)     0.00160
    45    C    3  dz2    Ryd( 3d)     0.00048

    46    C    4  S      Cor( 1S)     1.99903
    47    C    4  S      Val( 2S)     0.95595
    48    C    4  S      Ryd( 3S)     0.00066
    49    C    4  S      Ryd( 4S)     0.00005
    50    C    4  px     Val( 2p)     1.12257
    51    C    4  px     Ryd( 3p)     0.00379
    52    C    4  py     Val( 2p)     1.15273
    53    C    4  py     Ryd( 3p)     0.00407
    54    C    4  pz     Val( 2p)     1.06724
    55    C    4  pz     Ryd( 3p)     0.00073
    56    C    4  dxy    Ryd( 3d)     0.00081
    57    C    4  dxz    Ryd( 3d)     0.00056
    58    C    4  dyz    Ryd( 3d)     0.00047
    59    C    4  dx2y2  Ryd( 3d)     0.00054
    60    C    4  dz2    Ryd( 3d)     0.00046

    61    C    5  S      Cor( 1S)     1.99906
    62    C    5  S      Val( 2S)     0.94010
    63    C    5  S      Ryd( 3S)     0.00072
    64    C    5  S      Ryd( 4S)     0.00005
    65    C    5  px     Val( 2p)     1.07774
    66    C    5  px     Ryd( 3p)     0.00411
    67    C    5  py     Val( 2p)     1.16677
    68    C    5  py     Ryd( 3p)     0.00507
    69    C    5  pz     Val( 2p)     1.01997
    70    C    5  pz     Ryd( 3p)     0.00229
    71    C    5  dxy    Ryd( 3d)     0.00080
    72    C    5  dxz    Ryd( 3d)     0.00062
    73    C    5  dyz    Ryd( 3d)     0.00030
    74    C    5  dx2y2  Ryd( 3d)     0.00065
    75    C    5  dz2    Ryd( 3d)     0.00045

    76    C    6  S      Cor( 1S)     1.99889
    77    C    6  S      Val( 2S)     0.88175
    78    C    6  S      Ryd( 3S)     0.00039
    79    C    6  S      Ryd( 4S)     0.00004
    80    C    6  px     Val( 2p)     1.02687
    81    C    6  px     Ryd( 3p)     0.00465
    82    C    6  py     Val( 2p)     1.10934
    83    C    6  py     Ryd( 3p)     0.00545
    84    C    6  pz     Val( 2p)     1.14067
    85    C    6  pz     Ryd( 3p)     0.00111
    86    C    6  dxy    Ryd( 3d)     0.00061
    87    C    6  dxz    Ryd( 3d)     0.00088
    88    C    6  dyz    Ryd( 3d)     0.00055
    89    C    6  dx2y2  Ryd( 3d)     0.00070
    90    C    6  dz2    Ryd( 3d)     0.00038

    91    C    7  S      Cor( 1S)     1.99905
    92    C    7  S      Val( 2S)     0.94016
    93    C    7  S      Ryd( 3S)     0.00053
    94    C    7  S      Ryd( 4S)     0.00004
    95    C    7  px     Val( 2p)     1.11148
    96    C    7  px     Ryd( 3p)     0.00357
    97    C    7  py     Val( 2p)     1.13744
    98    C    7  py     Ryd( 3p)     0.00451
    99    C    7  pz     Val( 2p)     1.03020
   100    C    7  pz     Ryd( 3p)     0.00140
   101    C    7  dxy    Ryd( 3d)     0.00088
   102    C    7  dxz    Ryd( 3d)     0.00060
   103    C    7  dyz    Ryd( 3d)     0.00037
   104    C    7  dx2y2  Ryd( 3d)     0.00056
   105    C    7  dz2    Ryd( 3d)     0.00045

   106    C    8  S      Cor( 1S)     1.99904
   107    C    8  S      Val( 2S)     0.95822
   108    C    8  S      Ryd( 3S)     0.00089
   109    C    8  S      Ryd( 4S)     0.00005
   110    C    8  px     Val( 2p)     1.08250
   111    C    8  px     Ryd( 3p)     0.00511
   112    C    8  py     Val( 2p)     1.17300
   113    C    8  py     Ryd( 3p)     0.00491
   114    C    8  pz     Val( 2p)     1.03772
   115    C    8  pz     Ryd( 3p)     0.00088
   116    C    8  dxy    Ryd( 3d)     0.00083
   117    C    8  dxz    Ryd( 3d)     0.00062
   118    C    8  dyz    Ryd( 3d)     0.00039
   119    C    8  dx2y2  Ryd( 3d)     0.00055
   120    C    8  dz2    Ryd( 3d)     0.00045

   121    C    9  S      Cor( 1S)     1.99928
   122    C    9  S      Val( 2S)     0.83692
   123    C    9  S      Ryd( 3S)     0.00451
   124    C    9  S      Ryd( 4S)     0.00020
   125    C    9  px     Val( 2p)     0.98098
   126    C    9  px     Ryd( 3p)     0.00373
   127    C    9  py     Val( 2p)     0.80308
   128    C    9  py     Ryd( 3p)     0.01500
   129    C    9  pz     Val( 2p)     0.98917
   130    C    9  pz     Ryd( 3p)     0.00347
   131    C    9  dxy    Ryd( 3d)     0.00129
   132    C    9  dxz    Ryd( 3d)     0.00096
   133    C    9  dyz    Ryd( 3d)     0.00177
   134    C    9  dx2y2  Ryd( 3d)     0.00125
   135    C    9  dz2    Ryd( 3d)     0.00033

   136    O   10  S      Cor( 1S)     1.99981
   137    O   10  S      Val( 2S)     1.70381
   138    O   10  S      Ryd( 3S)     0.00016
   139    O   10  S      Ryd( 4S)     0.00002
   140    O   10  px     Val( 2p)     1.20600
   141    O   10  px     Ryd( 3p)     0.00144
   142    O   10  py     Val( 2p)     1.53909
   143    O   10  py     Ryd( 3p)     0.00039
   144    O   10  pz     Val( 2p)     1.79427
   145    O   10  pz     Ryd( 3p)     0.00345
   146    O   10  dxy    Ryd( 3d)     0.00332
   147    O   10  dxz    Ryd( 3d)     0.00062
   148    O   10  dyz    Ryd( 3d)     0.00397
   149    O   10  dx2y2  Ryd( 3d)     0.00335
   150    O   10  dz2    Ryd( 3d)     0.00130

   151    C   11  S      Cor( 1S)     1.99933
   152    C   11  S      Val( 2S)     1.12875
   153    C   11  S      Ryd( 3S)     0.00018
   154    C   11  S      Ryd( 4S)     0.00001
   155    C   11  px     Val( 2p)     1.18350
   156    C   11  px     Ryd( 3p)     0.00150
   157    C   11  py     Val( 2p)     1.12636
   158    C   11  py     Ryd( 3p)     0.00150
   159    C   11  pz     Val( 2p)     1.26181
   160    C   11  pz     Ryd( 3p)     0.00007
   161    C   11  dxy    Ryd( 3d)     0.00077
   162    C   11  dxz    Ryd( 3d)     0.00032
   163    C   11  dyz    Ryd( 3d)     0.00119
   164    C   11  dx2y2  Ryd( 3d)     0.00050
   165    C   11  dz2    Ryd( 3d)     0.00071

   166    H   12  S      Val( 1S)     0.77285
   167    H   12  S      Ryd( 2S)     0.00053

   168    H   13  S      Val( 1S)     0.79712
   169    H   13  S      Ryd( 2S)     0.00203

   170    H   14  S      Val( 1S)     0.79712
   171    H   14  S      Ryd( 2S)     0.00203

   172    H   15  S      Val( 1S)     0.76130
   173    H   15  S      Ryd( 2S)     0.00086

   174    H   16  S      Val( 1S)     0.76061
   175    H   16  S      Ryd( 2S)     0.00082

   176    H   17  S      Val( 1S)     0.76937
   177    H   17  S      Ryd( 2S)     0.00096

   178    H   18  S      Val( 1S)     0.75288
   179    H   18  S      Ryd( 2S)     0.00122

   180    H   19  S      Val( 1S)     0.74066
   181    H   19  S      Ryd( 2S)     0.00133

   182    H   20  S      Val( 1S)     0.74247
   183    H   20  S      Ryd( 2S)     0.00114

   184    H   21  S      Val( 1S)     0.74066
   185    H   21  S      Ryd( 2S)     0.00133

 WARNING:  1 low occupancy (<1.9990e) core orbital  found on  C    3
           1 low occupancy (<1.9990e) core orbital  found on  C    6


 Summary of Natural Population Analysis:                  
                                                          
                                       Natural Population 
                Natural  -----------------------------------------------
    Atom  No    Charge         Core      Valence    Rydberg      Total
 -----------------------------------------------------------------------
      C    1   -0.31562      1.99943     4.30239    0.01380     6.31562
      O    2   -0.52124      1.99974     6.50967    0.01183     8.52124
      C    3    0.29068      1.99882     3.68804    0.02247     5.70932
      C    4   -0.30965      1.99903     4.29849    0.01214     6.30965
      C    5   -0.21871      1.99906     4.20459    0.01506     6.21871
      C    6   -0.17228      1.99889     4.15863    0.01477     6.17228
      C    7   -0.23124      1.99905     4.21928    0.01291     6.23124
      C    8   -0.26516      1.99904     4.25144    0.01468     6.26516
      C    9    0.35806      1.99928     3.61014    0.03251     5.64194
      O   10   -0.26101      1.99981     6.24316    0.01803     8.26101
      C   11   -0.70651      1.99933     4.70043    0.00675     6.70651
      H   12    0.22662      0.00000     0.77285    0.00053     0.77338
      H   13    0.20084      0.00000     0.79712    0.00203     0.79916
      H   14    0.20084      0.00000     0.79712    0.00203     0.79916
      H   15    0.23784      0.00000     0.76130    0.00086     0.76216
      H   16    0.23857      0.00000     0.76061    0.00082     0.76143
      H   17    0.22967      0.00000     0.76937    0.00096     0.77033
      H   18    0.24591      0.00000     0.75288    0.00122     0.75409
      H   19    0.25801      0.00000     0.74066    0.00133     0.74199
      H   20    0.25639      0.00000     0.74247    0.00114     0.74361
      H   21    0.25801      0.00000     0.74066    0.00133     0.74199
 =======================================================================
   * Total *    0.00000     21.99147    57.82131    0.18721    80.00000

                                 Natural Population      
 --------------------------------------------------------
   Core                      21.99147 ( 99.9612% of  22)
   Valence                   57.82131 ( 99.6919% of  58)
   Natural Minimal Basis     79.81279 ( 99.7660% of  80)
   Natural Rydberg Basis      0.18721 (  0.2340% of  80)
 --------------------------------------------------------

    Atom  No          Natural Electron Configuration
 ----------------------------------------------------------------------------
      C    1      [core]2S( 1.10)2p( 3.20)3p( 0.01)3d( 0.01)
      O    2      [core]2S( 1.59)2p( 4.92)3p( 0.01)3d( 0.01)
      C    3      [core]2S( 0.83)2p( 2.86)3p( 0.01)3d( 0.01)
      C    4      [core]2S( 0.96)2p( 3.34)3p( 0.01)
      C    5      [core]2S( 0.94)2p( 3.26)3p( 0.01)
      C    6      [core]2S( 0.88)2p( 3.28)3p( 0.01)
      C    7      [core]2S( 0.94)2p( 3.28)3p( 0.01)
      C    8      [core]2S( 0.96)2p( 3.29)3p( 0.01)
      C    9      [core]2S( 0.84)2p( 2.77)3p( 0.02)3d( 0.01)
      O   10      [core]2S( 1.70)2p( 4.54)3p( 0.01)3d( 0.01)
      C   11      [core]2S( 1.13)2p( 3.57)
      H   12            1S( 0.77)
      H   13            1S( 0.80)
      H   14            1S( 0.80)
      H   15            1S( 0.76)
      H   16            1S( 0.76)
      H   17            1S( 0.77)
      H   18            1S( 0.75)
      H   19            1S( 0.74)
      H   20            1S( 0.74)
      H   21            1S( 0.74)


 NBO analysis skipped by request.
 Leave Link  607 at Mon Oct  4 10:05:57 2021, MaxMem=  805306368 cpu:      10.1
 (Enter /sw/target/amd/app/gaussian/Gaussian09RevA.02_gcc-4.9.2/g09/l9999.exe)
 1\1\GINC-HERMITE\SP\RTD-B3LYP-FC\6-31G(d)\C9H10O2\JSCHLEINITZ\04-Oct-2
 021\0\\#p TD(NStates=10, Root=1) b3lyp/6-31G* volume pop=NPA density=c
 urrent Geom=AllCheck Guess=Read\\COc1ccc(cc1)C(=O)C_conf_0\\0,1\C,0,1.
 0630258357,0.8647010031,0.7309461262\O,0,2.2037686544,0.4468952734,-0.
 0068042979\C,0,2.9327323567,1.3867581599,-0.6647783617\C,0,2.642520355
 2,2.759997233,-0.6732126108\C,0,3.4635763279,3.6283707456,-1.384898126
 \C,0,4.5784767445,3.1646447041,-2.097035843\C,0,4.8542242742,1.7850429
 44,-2.077465574\C,0,4.045979637,0.9056184595,-1.3730976574\C,0,5.41310
 6216,4.1557626816,-2.8372586385\O,0,5.1340960563,5.3470764536,-2.82552
 29306\C,0,6.6252480157,3.6595862325,-3.612594244\H,0,0.6426999919,-0.0
 429522083,1.1670927411\H,0,0.314799464,1.336152083,0.0811697685\H,0,1.
 336622285,1.5610029715,1.5338318486\H,0,1.7885521314,3.1530122395,-0.1
 335710534\H,0,3.2537417109,4.6930836912,-1.4021208418\H,0,5.7092072109
 ,1.3897353173,-2.6174687671\H,0,4.251410422,-0.1599287493,-1.352682957
 1\H,0,7.3407841342,3.1584125913,-2.9496546271\H,0,7.1102420898,4.51507
 18178,-4.0857361697\H,0,6.3328105611,2.9367358582,-4.383703661\\Versio
 n=AM64L-G09RevA.02\State=1-A\HF=-499.4208251\RMSD=6.268e-09\Dipole=0.1
 799557,-0.1122157,-0.108945\Quadrupole=5.7785625,-6.1822117,0.4036492,
 0.1343592,-7.4927975,0.1118404\PG=C01 [X(C9H10O2)]\\@


 "THE TIME HAS COME", THE WALRUS SAID,
 "TO TALK OF MANY THINGS,
 OF SHOES AND SHIPS AND SEALING WAX,
 OF CABBAGES AND KINGS,
 AND WHY THE SEA IS BOILING HOT,
 AND WHETHER PIGS HAVE WINGS."
 Job cpu time:  0 days  1 hours 26 minutes 13.8 seconds.
 File lengths (MBytes):  RWF=    118 Int=      0 D2E=      0 Chk=     17 Scr=      1
 Normal termination of Gaussian 09 at Mon Oct  4 10:06:12 2021.
