 Entering Gaussian System, Link 0=g09
 Input=C9H12O_4f0e_conf_0.com
 Output=C9H12O_4f0e_conf_0.log
 Initial command:
 /sw/target/amd/app/gaussian/Gaussian09RevA.02_gcc-4.9.2/g09/l1.exe /home/jschleinitz/gaussian/Gau-3086263.inp -scrdir=/home/jschleinitz/gaussian/
 Entering Link 1 = /sw/target/amd/app/gaussian/Gaussian09RevA.02_gcc-4.9.2/g09/l1.exe PID=   3086265.
  
 Copyright (c) 1988,1990,1992,1993,1995,1998,2003,2009, Gaussian, Inc.
                  All Rights Reserved.
  
 This is part of the Gaussian(R) 09 program.  It is based on
 the Gaussian(R) 03 system (copyright 2003, Gaussian, Inc.),
 the Gaussian(R) 98 system (copyright 1998, Gaussian, Inc.),
 the Gaussian(R) 94 system (copyright 1995, Gaussian, Inc.),
 the Gaussian 92(TM) system (copyright 1992, Gaussian, Inc.),
 the Gaussian 90(TM) system (copyright 1990, Gaussian, Inc.),
 the Gaussian 88(TM) system (copyright 1988, Gaussian, Inc.),
 the Gaussian 86(TM) system (copyright 1986, Carnegie Mellon
 University), and the Gaussian 82(TM) system (copyright 1983,
 Carnegie Mellon University). Gaussian is a federally registered
 trademark of Gaussian, Inc.
  
 This software contains proprietary and confidential information,
 including trade secrets, belonging to Gaussian, Inc.
  
 This software is provided under written license and may be
 used, copied, transmitted, or stored only in accord with that
 written license.
  
 The following legend is applicable only to US Government
 contracts under FAR:
  
                    RESTRICTED RIGHTS LEGEND
  
 Use, reproduction and disclosure by the US Government is
 subject to restrictions as set forth in subparagraphs (a)
 and (c) of the Commercial Computer Software - Restricted
 Rights clause in FAR 52.227-19.
  
 Gaussian, Inc.
 340 Quinnipiac St., Bldg. 40, Wallingford CT 06492
  
  
 ---------------------------------------------------------------
 Warning -- This program may not be used in any manner that
 competes with the business of Gaussian, Inc. or will provide
 assistance to any competitor of Gaussian, Inc.  The licensee
 of this program is prohibited from giving any competitor of
 Gaussian, Inc. access to this program.  By using this program,
 the user acknowledges that Gaussian, Inc. is engaged in the
 business of creating and licensing software in the field of
 computational chemistry and represents and warrants to the
 licensee that it is not a competitor of Gaussian, Inc. and that
 it will not use this program in any manner prohibited above.
 ---------------------------------------------------------------
  

 Cite this work as:
 Gaussian 09, Revision A.02,
 M. J. Frisch, G. W. Trucks, H. B. Schlegel, G. E. Scuseria, 
 M. A. Robb, J. R. Cheeseman, G. Scalmani, V. Barone, B. Mennucci, 
 G. A. Petersson, H. Nakatsuji, M. Caricato, X. Li, H. P. Hratchian, 
 A. F. Izmaylov, J. Bloino, G. Zheng, J. L. Sonnenberg, M. Hada, 
 M. Ehara, K. Toyota, R. Fukuda, J. Hasegawa, M. Ishida, T. Nakajima, 
 Y. Honda, O. Kitao, H. Nakai, T. Vreven, J. A. Montgomery, Jr., 
 J. E. Peralta, F. Ogliaro, M. Bearpark, J. J. Heyd, E. Brothers, 
 K. N. Kudin, V. N. Staroverov, R. Kobayashi, J. Normand, 
 K. Raghavachari, A. Rendell, J. C. Burant, S. S. Iyengar, J. Tomasi, 
 M. Cossi, N. Rega, J. M. Millam, M. Klene, J. E. Knox, J. B. Cross, 
 V. Bakken, C. Adamo, J. Jaramillo, R. Gomperts, R. E. Stratmann, 
 O. Yazyev, A. J. Austin, R. Cammi, C. Pomelli, J. W. Ochterski, 
 R. L. Martin, K. Morokuma, V. G. Zakrzewski, G. A. Voth, 
 P. Salvador, J. J. Dannenberg, S. Dapprich, A. D. Daniels, 
 O. Farkas, J. B. Foresman, J. V. Ortiz, J. Cioslowski, 
 and D. J. Fox, Gaussian, Inc., Wallingford CT, 2009.
 
 ******************************************
 Gaussian 09:  AM64L-G09RevA.02 11-Jun-2009
                30-Sep-2021 
 ******************************************
 %nproc=3
 Will use up to    3 processors via shared memory.
 %mem=6gb
 %chk=C9H12O_4f0e_conf_0.chk
 -----------------------------------
 #p opt b3lyp/6-31G* scf=(xqc,tight)
 -----------------------------------
 1/14=-1,18=20,19=15,26=3,38=1/1,3;
 2/9=110,12=2,17=6,18=5,40=1/2;
 3/5=1,6=6,7=1,11=2,16=1,25=1,30=1,71=1,74=-5/1,2,3;
 4//1;
 5/5=2,8=3,13=1,32=2,38=5/2,8;
 6/7=2,8=2,9=2,10=2,28=1/1;
 7//1,2,3,16;
 1/14=-1,18=20,19=15/3(2);
 2/9=110/2;
 99//99;
 2/9=110/2;
 3/5=1,6=6,7=1,11=2,16=1,25=1,30=1,71=1,74=-5/1,2,3;
 4/5=5,16=3/1;
 5/5=2,8=3,13=1,32=2,38=5/2,8;
 7//1,2,3,16;
 1/14=-1,18=20,19=15/3(-5);
 2/9=110/2;
 6/7=2,8=2,9=2,10=2,19=2,28=1/1;
 99/9=1/99;
 Leave Link    1 at Thu Sep 30 11:37:39 2021, MaxMem=  805306368 cpu:       0.1
 (Enter /sw/target/amd/app/gaussian/Gaussian09RevA.02_gcc-4.9.2/g09/l101.exe)
 ---------------------
 CCOc1ccc(cc1)C_conf_0
 ---------------------
 Symbolic Z-matrix:
 Charge =  0 Multiplicity = 1
 C                     2.69329   0.187     0.88836 
 C                     4.17305  -0.03249   0.63292 
 O                     4.35399  -0.28349  -0.75973 
 C                     5.63568  -0.5052   -1.18364 
 C                     6.77534  -0.50695  -0.37921 
 C                     8.03416  -0.74596  -0.94011 
 C                     8.16961  -0.99464  -2.31045 
 C                     7.02737  -0.97912  -3.11661 
 C                     5.77077  -0.74122  -2.55331 
 C                     9.52804  -1.21325  -2.90639 
 H                     2.50681   0.37608   1.94935 
 H                     2.11352  -0.68827   0.57749 
 H                     2.32398   1.03855   0.30751 
 H                     4.51215  -0.89336   1.22077 
 H                     4.72248   0.86805   0.93099 
 H                     6.72295  -0.32492   0.68859 
 H                     8.91107  -0.73579  -0.29658 
 H                     7.10478  -1.15216  -4.18741 
 H                     4.88873  -0.73681  -3.1893 
 H                     10.155   -1.80458  -2.23074 
 H                     10.01418  -0.25057  -3.09215 
 H                     9.46112  -1.76154  -3.85171 
 
 NAtoms=     22 NQM=     22 NQMF=      0 NMic=      0 NMicF=      0 NTot=     22.
                    Isotopes and Nuclear Properties:
 (Nuclear quadrupole moments (NQMom) in fm**2, nuclear magnetic moments (NMagM)
  in nuclear magnetons)

  Atom         1           2           3           4           5           6           7           8           9          10
 IAtWgt=          12          12          16          12          12          12          12          12          12          12
 AtmWgt=  12.0000000  12.0000000  15.9949146  12.0000000  12.0000000  12.0000000  12.0000000  12.0000000  12.0000000  12.0000000
 NucSpn=           0           0           0           0           0           0           0           0           0           0
 AtZEff=   0.0000000   0.0000000   0.0000000   0.0000000   0.0000000   0.0000000   0.0000000   0.0000000   0.0000000   0.0000000
 NQMom=    0.0000000   0.0000000   0.0000000   0.0000000   0.0000000   0.0000000   0.0000000   0.0000000   0.0000000   0.0000000
 NMagM=    0.0000000   0.0000000   0.0000000   0.0000000   0.0000000   0.0000000   0.0000000   0.0000000   0.0000000   0.0000000

  Atom        11          12          13          14          15          16          17          18          19          20
 IAtWgt=           1           1           1           1           1           1           1           1           1           1
 AtmWgt=   1.0078250   1.0078250   1.0078250   1.0078250   1.0078250   1.0078250   1.0078250   1.0078250   1.0078250   1.0078250
 NucSpn=           1           1           1           1           1           1           1           1           1           1
 AtZEff=   0.0000000   0.0000000   0.0000000   0.0000000   0.0000000   0.0000000   0.0000000   0.0000000   0.0000000   0.0000000
 NQMom=    0.0000000   0.0000000   0.0000000   0.0000000   0.0000000   0.0000000   0.0000000   0.0000000   0.0000000   0.0000000
 NMagM=    2.7928460   2.7928460   2.7928460   2.7928460   2.7928460   2.7928460   2.7928460   2.7928460   2.7928460   2.7928460

  Atom        21          22
 IAtWgt=           1           1
 AtmWgt=   1.0078250   1.0078250
 NucSpn=           1           1
 AtZEff=   0.0000000   0.0000000
 NQMom=    0.0000000   0.0000000
 NMagM=    2.7928460   2.7928460
 Leave Link  101 at Thu Sep 30 11:37:39 2021, MaxMem=  805306368 cpu:       0.2
 (Enter /sw/target/amd/app/gaussian/Gaussian09RevA.02_gcc-4.9.2/g09/l103.exe)

 GradGradGradGradGradGradGradGradGradGradGradGradGradGradGradGradGradGrad
 Berny optimization.
 Initialization pass.
                           ----------------------------
                           !    Initial Parameters    !
                           ! (Angstroms and Degrees)  !
 --------------------------                            --------------------------
 ! Name  Definition              Value          Derivative Info.                !
 --------------------------------------------------------------------------------
 ! R1    R(1,2)                  1.5176         estimate D2E/DX2                !
 ! R2    R(1,11)                 1.0937         estimate D2E/DX2                !
 ! R3    R(1,12)                 1.0949         estimate D2E/DX2                !
 ! R4    R(1,13)                 1.0949         estimate D2E/DX2                !
 ! R5    R(2,3)                  1.4266         estimate D2E/DX2                !
 ! R6    R(2,14)                 1.0962         estimate D2E/DX2                !
 ! R7    R(2,15)                 1.0962         estimate D2E/DX2                !
 ! R8    R(3,4)                  1.3681         estimate D2E/DX2                !
 ! R9    R(4,5)                  1.395          estimate D2E/DX2                !
 ! R10   R(4,9)                  1.3964         estimate D2E/DX2                !
 ! R11   R(5,6)                  1.3987         estimate D2E/DX2                !
 ! R12   R(5,16)                 1.0845         estimate D2E/DX2                !
 ! R13   R(6,7)                  1.3993         estimate D2E/DX2                !
 ! R14   R(6,17)                 1.0878         estimate D2E/DX2                !
 ! R15   R(7,8)                  1.3982         estimate D2E/DX2                !
 ! R16   R(7,10)                 1.4994         estimate D2E/DX2                !
 ! R17   R(8,9)                  1.3975         estimate D2E/DX2                !
 ! R18   R(8,18)                 1.0874         estimate D2E/DX2                !
 ! R19   R(9,19)                 1.0874         estimate D2E/DX2                !
 ! R20   R(10,20)                1.0951         estimate D2E/DX2                !
 ! R21   R(10,21)                1.0943         estimate D2E/DX2                !
 ! R22   R(10,22)                1.0949         estimate D2E/DX2                !
 ! A1    A(2,1,11)             110.7647         estimate D2E/DX2                !
 ! A2    A(2,1,12)             110.6646         estimate D2E/DX2                !
 ! A3    A(2,1,13)             110.6138         estimate D2E/DX2                !
 ! A4    A(11,1,12)            108.8652         estimate D2E/DX2                !
 ! A5    A(11,1,13)            108.8228         estimate D2E/DX2                !
 ! A6    A(12,1,13)            107.0067         estimate D2E/DX2                !
 ! A7    A(1,2,3)              108.2657         estimate D2E/DX2                !
 ! A8    A(1,2,14)             108.9625         estimate D2E/DX2                !
 ! A9    A(1,2,15)             108.9125         estimate D2E/DX2                !
 ! A10   A(3,2,14)             110.2488         estimate D2E/DX2                !
 ! A11   A(3,2,15)             110.2673         estimate D2E/DX2                !
 ! A12   A(14,2,15)            110.1381         estimate D2E/DX2                !
 ! A13   A(2,3,4)              116.7324         estimate D2E/DX2                !
 ! A14   A(3,4,5)              125.9386         estimate D2E/DX2                !
 ! A15   A(3,4,9)              114.9579         estimate D2E/DX2                !
 ! A16   A(5,4,9)              119.1029         estimate D2E/DX2                !
 ! A17   A(4,5,6)              120.2805         estimate D2E/DX2                !
 ! A18   A(4,5,16)             121.8788         estimate D2E/DX2                !
 ! A19   A(6,5,16)             117.8407         estimate D2E/DX2                !
 ! A20   A(5,6,7)              120.6775         estimate D2E/DX2                !
 ! A21   A(5,6,17)             119.1239         estimate D2E/DX2                !
 ! A22   A(7,6,17)             120.1986         estimate D2E/DX2                !
 ! A23   A(6,7,8)              118.9214         estimate D2E/DX2                !
 ! A24   A(6,7,10)             120.1872         estimate D2E/DX2                !
 ! A25   A(8,7,10)             120.8367         estimate D2E/DX2                !
 ! A26   A(7,8,9)              120.27           estimate D2E/DX2                !
 ! A27   A(7,8,18)             120.5199         estimate D2E/DX2                !
 ! A28   A(9,8,18)             119.2101         estimate D2E/DX2                !
 ! A29   A(4,9,8)              120.7389         estimate D2E/DX2                !
 ! A30   A(4,9,19)             119.6371         estimate D2E/DX2                !
 ! A31   A(8,9,19)             119.6237         estimate D2E/DX2                !
 ! A32   A(7,10,20)            110.6215         estimate D2E/DX2                !
 ! A33   A(7,10,21)            109.9784         estimate D2E/DX2                !
 ! A34   A(7,10,22)            111.1491         estimate D2E/DX2                !
 ! A35   A(20,10,21)           108.9902         estimate D2E/DX2                !
 ! A36   A(20,10,22)           107.2949         estimate D2E/DX2                !
 ! A37   A(21,10,22)           108.7309         estimate D2E/DX2                !
 ! D1    D(11,1,2,3)           179.5629         estimate D2E/DX2                !
 ! D2    D(11,1,2,14)           59.6435         estimate D2E/DX2                !
 ! D3    D(11,1,2,15)          -60.5244         estimate D2E/DX2                !
 ! D4    D(12,1,2,3)            58.7266         estimate D2E/DX2                !
 ! D5    D(12,1,2,14)          -61.1928         estimate D2E/DX2                !
 ! D6    D(12,1,2,15)          178.6393         estimate D2E/DX2                !
 ! D7    D(13,1,2,3)           -59.688          estimate D2E/DX2                !
 ! D8    D(13,1,2,14)         -179.6073         estimate D2E/DX2                !
 ! D9    D(13,1,2,15)           60.2247         estimate D2E/DX2                !
 ! D10   D(1,2,3,4)            179.9189         estimate D2E/DX2                !
 ! D11   D(14,2,3,4)           -60.9711         estimate D2E/DX2                !
 ! D12   D(15,2,3,4)            60.8589         estimate D2E/DX2                !
 ! D13   D(2,3,4,5)             -0.0331         estimate D2E/DX2                !
 ! D14   D(2,3,4,9)           -179.745          estimate D2E/DX2                !
 ! D15   D(3,4,5,6)           -179.8764         estimate D2E/DX2                !
 ! D16   D(3,4,5,16)             0.0473         estimate D2E/DX2                !
 ! D17   D(9,4,5,6)             -0.1753         estimate D2E/DX2                !
 ! D18   D(9,4,5,16)           179.7483         estimate D2E/DX2                !
 ! D19   D(3,4,9,8)            179.8512         estimate D2E/DX2                !
 ! D20   D(3,4,9,19)             0.0429         estimate D2E/DX2                !
 ! D21   D(5,4,9,8)              0.1182         estimate D2E/DX2                !
 ! D22   D(5,4,9,19)          -179.6902         estimate D2E/DX2                !
 ! D23   D(4,5,6,7)             -0.4062         estimate D2E/DX2                !
 ! D24   D(4,5,6,17)           179.557          estimate D2E/DX2                !
 ! D25   D(16,5,6,7)           179.6671         estimate D2E/DX2                !
 ! D26   D(16,5,6,17)           -0.3696         estimate D2E/DX2                !
 ! D27   D(5,6,7,8)              1.0316         estimate D2E/DX2                !
 ! D28   D(5,6,7,10)           178.3663         estimate D2E/DX2                !
 ! D29   D(17,6,7,8)          -178.9312         estimate D2E/DX2                !
 ! D30   D(17,6,7,10)           -1.5966         estimate D2E/DX2                !
 ! D31   D(6,7,8,9)             -1.0849         estimate D2E/DX2                !
 ! D32   D(6,7,8,18)           178.952          estimate D2E/DX2                !
 ! D33   D(10,7,8,9)          -178.4016         estimate D2E/DX2                !
 ! D34   D(10,7,8,18)            1.6353         estimate D2E/DX2                !
 ! D35   D(6,7,10,20)           38.8643         estimate D2E/DX2                !
 ! D36   D(6,7,10,21)          -81.5831         estimate D2E/DX2                !
 ! D37   D(6,7,10,22)          157.9526         estimate D2E/DX2                !
 ! D38   D(8,7,10,20)         -143.8528         estimate D2E/DX2                !
 ! D39   D(8,7,10,21)           95.6997         estimate D2E/DX2                !
 ! D40   D(8,7,10,22)          -24.7645         estimate D2E/DX2                !
 ! D41   D(7,8,9,4)              0.5205         estimate D2E/DX2                !
 ! D42   D(7,8,9,19)          -179.6711         estimate D2E/DX2                !
 ! D43   D(18,8,9,4)          -179.5159         estimate D2E/DX2                !
 ! D44   D(18,8,9,19)            0.2924         estimate D2E/DX2                !
 --------------------------------------------------------------------------------
 Trust Radius=3.00D-01 FncErr=1.00D-07 GrdErr=1.00D-06
 Number of steps in this run= 113 maximum allowed number of steps= 132.
 GradGradGradGradGradGradGradGradGradGradGradGradGradGradGradGradGradGrad

 Leave Link  103 at Thu Sep 30 11:37:39 2021, MaxMem=  805306368 cpu:       0.0
 (Enter /sw/target/amd/app/gaussian/Gaussian09RevA.02_gcc-4.9.2/g09/l202.exe)
                          Input orientation:                          
 ---------------------------------------------------------------------
 Center     Atomic      Atomic             Coordinates (Angstroms)
 Number     Number       Type             X           Y           Z
 ---------------------------------------------------------------------
      1          6           0        2.693289    0.186997    0.888357
      2          6           0        4.173053   -0.032494    0.632922
      3          8           0        4.353993   -0.283487   -0.759731
      4          6           0        5.635682   -0.505200   -1.183639
      5          6           0        6.775343   -0.506951   -0.379207
      6          6           0        8.034162   -0.745959   -0.940113
      7          6           0        8.169607   -0.994642   -2.310449
      8          6           0        7.027371   -0.979120   -3.116615
      9          6           0        5.770769   -0.741223   -2.553311
     10          6           0        9.528042   -1.213253   -2.906390
     11          1           0        2.506809    0.376085    1.949350
     12          1           0        2.113523   -0.688271    0.577488
     13          1           0        2.323979    1.038549    0.307510
     14          1           0        4.512153   -0.893359    1.220771
     15          1           0        4.722481    0.868053    0.930995
     16          1           0        6.722954   -0.324918    0.688594
     17          1           0        8.911075   -0.735795   -0.296583
     18          1           0        7.104784   -1.152157   -4.187408
     19          1           0        4.888726   -0.736814   -3.189299
     20          1           0       10.155002   -1.804578   -2.230742
     21          1           0       10.014183   -0.250568   -3.092146
     22          1           0        9.461121   -1.761538   -3.851714
 ---------------------------------------------------------------------
                    Distance matrix (angstroms):
                    1          2          3          4          5
     1  C    0.000000
     2  C    1.517605   0.000000
     3  O    2.386522   1.426611   0.000000
     4  C    3.664694   2.379628   1.368058   0.000000
     5  C    4.330294   2.832213   2.461234   1.394971   0.000000
     6  C    5.721768   4.229850   3.713497   2.422803   1.398701
     7  C    6.451254   5.055848   4.179639   2.816030   2.431360
     8  C    6.015305   4.806480   3.631220   2.428537   2.789241
     9  C    4.709305   3.634153   2.331031   1.396408   2.406404
    10  C    7.941955   6.526625   5.678327   4.315052   3.803008
    11  H    1.093725   2.162473   3.344584   4.514658   4.941894
    12  H    1.094926   2.162124   2.640399   3.942168   4.762427
    13  H    1.094950   2.161504   2.647213   3.946399   4.761805
    14  H    2.141479   1.096195   2.078304   2.682196   2.798441
    15  H    2.140858   1.096222   2.078552   2.681686   2.796696
    16  H    4.066960   2.567218   2.776930   2.172538   1.084472
    17  H    6.396599   4.879289   4.602834   3.401211   2.149545
    18  H    6.856969   5.751893   4.480002   3.405795   3.876496
    19  H    4.722357   3.951915   2.528685   2.152733   3.392460
    20  H    8.329004   6.864734   6.174893   4.817578   4.066216
    21  H    8.344541   6.931269   6.122010   4.783149   4.232713
    22  H    8.489323   7.145993   6.150427   4.830216   4.565709
                    6          7          8          9         10
     6  C    0.000000
     7  C    1.399289   0.000000
     8  C    2.409389   1.398159   0.000000
     9  C    2.779456   2.424381   1.397481   0.000000
    10  C    2.513223   1.499428   2.520391   3.803233   0.000000
    11  H    6.337161   7.217483   6.923587   5.672369   8.683428
    12  H    6.112316   6.716412   6.154420   4.814577   8.209026
    13  H    6.111237   6.720040   6.157719   4.819983   8.203553
    14  H    4.134694   5.084953   5.014638   3.981326   6.503456
    15  H    4.131986   5.085201   5.010759   3.978575   6.492363
    16  H    2.132892   3.396409   3.873017   3.404396   4.645597
    17  H    1.087754   2.161581   3.400018   3.867088   2.723914
    18  H    3.402009   2.163708   1.087444   2.149125   2.741700
    19  H    3.866871   3.406322   2.153554   1.087428   4.672289
    20  H    2.698956   2.145727   3.353838   4.522861   1.095101
    21  H    2.965998   2.137092   3.074482   4.305537   1.094349
    22  H    3.397799   2.152124   2.660017   4.042968   1.094866
                   11         12         13         14         15
    11  H    0.000000
    12  H    1.780318   0.000000
    13  H    1.779866   1.760422   0.000000
    14  H    2.482684   2.491847   3.058499   0.000000
    15  H    2.487626   3.058394   2.484072   1.797437   0.000000
    16  H    4.456096   4.625065   4.621174   2.343924   2.341758
    17  H    6.877144   6.853683   6.848580   4.655932   4.650117
    18  H    7.818996   6.916076   6.918062   6.003093   5.996221
    19  H    5.772157   4.678974   4.685885   4.428887   4.424936
    20  H    8.984616   8.590558   8.709249   6.677201   6.830214
    21  H    9.064770   8.722284   8.506393   7.020454   6.740852
    22  H    9.305065   8.646209   8.722294   7.139757   7.227985
                   16         17         18         19         20
    16  H    0.000000
    17  H    2.434598   0.000000
    18  H    4.960395   4.309822   0.000000
    19  H    4.309537   4.954503   2.465694   0.000000
    20  H    4.742454   2.535868   3.682122   5.458261   0.000000
    21  H    5.013154   3.044251   3.236830   5.149387   1.782357
    22  H    5.493253   3.740810   2.456900   4.732404   1.763767
                   21         22
    21  H    0.000000
    22  H    1.779285   0.000000
 Stoichiometry    C9H12O
 Framework group  C1[X(C9H12O)]
 Deg. of freedom    60
 Full point group                 C1      NOp   1
 Largest Abelian subgroup         C1      NOp   1
 Largest concise Abelian subgroup C1      NOp   1
                         Standard orientation:                         
 ---------------------------------------------------------------------
 Center     Atomic      Atomic             Coordinates (Angstroms)
 Number     Number       Type             X           Y           Z
 ---------------------------------------------------------------------
      1          6           0       -4.105097   -0.004192    0.007895
      2          6           0       -2.688787   -0.549312    0.001813
      3          8           0       -1.784887    0.554396   -0.001642
      4          6           0       -0.449700    0.256332   -0.005583
      5          6           0        0.103292   -1.024349   -0.005865
      6          6           0        1.491785   -1.193016   -0.007522
      7          6           0        2.345609   -0.084459   -0.017450
      8          6           0        1.788842    1.197987   -0.003679
      9          6           0        0.401202    1.363542   -0.003242
     10          6           0        3.832151   -0.277410    0.017821
     11          1           0       -4.834338   -0.819310    0.002903
     12          1           0       -4.278332    0.631195   -0.866824
     13          1           0       -4.275370    0.616745    0.893536
     14          1           0       -2.545849   -1.159576   -0.897514
     15          1           0       -2.539191   -1.159841    0.899910
     16          1           0       -0.515111   -1.915220   -0.003600
     17          1           0        1.902757   -2.200121   -0.000368
     18          1           0        2.428233    2.077541    0.006202
     19          1           0       -0.020545    2.365840    0.002108
     20          1           0        4.124602   -1.134121   -0.598429
     21          1           0        4.162530   -0.449598    1.046802
     22          1           0        4.353920    0.600562   -0.376711
 ---------------------------------------------------------------------
 Rotational constants (GHZ):      4.6410271      0.6368321      0.5660226
 Leave Link  202 at Thu Sep 30 11:37:40 2021, MaxMem=  805306368 cpu:       0.0
 (Enter /sw/target/amd/app/gaussian/Gaussian09RevA.02_gcc-4.9.2/g09/l301.exe)
 Standard basis: 6-31G(d) (6D, 7F)
 Ernie: Thresh=  0.10000D-02 Tol=  0.10000D-05 Strict=F.
 There are   174 symmetry adapted basis functions of A   symmetry.
 Integral buffers will be    131072 words long.
 Raffenetti 2 integral format.
 Two-electron integral symmetry is turned on.
   174 basis functions,   328 primitive gaussians,   174 cartesian basis functions
    37 alpha electrons       37 beta electrons
       nuclear repulsion energy       499.1015436045 Hartrees.
 IExCor=  402 DFT=T Ex+Corr=B3LYP ExCW=0 ScaHFX=  0.200000
 ScaDFX=  0.800000  0.720000  1.000000  0.810000 ScalE2=  1.000000  1.000000
 IRadAn=      0 IRanWt=     -1 IRanGd=            0 ICorTp=0
 NAtoms=   22 NActive=   22 NUniq=   22 SFac= 7.50D-01 NAtFMM=   80 NAOKFM=F Big=F
 Leave Link  301 at Thu Sep 30 11:37:40 2021, MaxMem=  805306368 cpu:       0.1
 (Enter /sw/target/amd/app/gaussian/Gaussian09RevA.02_gcc-4.9.2/g09/l302.exe)
 NPDir=0 NMtPBC=     1 NCelOv=     1 NCel=       1 NClECP=     1 NCelD=      1
         NCelK=      1 NCelE2=     1 NClLst=     1 CellRange=     0.0.
 One-electron integrals computed using PRISM.
 NBasis=   174 RedAO= T  NBF=   174
 NBsUse=   174 1.00D-06 NBFU=   174
 Precomputing XC quadrature grid using
 IXCGrd= 2 IRadAn=           0 IRanWt=          -1 IRanGd=           0 AccXCQ= 1.00D-10.
 NRdTot=    1388 NPtTot=      176578 NUsed=      186593 NTot=      186625
 NSgBfM=   174   174   174   174   174 NAtAll=    22    22.
 Leave Link  302 at Thu Sep 30 11:37:43 2021, MaxMem=  805306368 cpu:       1.2
 (Enter /sw/target/amd/app/gaussian/Gaussian09RevA.02_gcc-4.9.2/g09/l303.exe)
 DipDrv:  MaxL=1.
 Leave Link  303 at Thu Sep 30 11:37:43 2021, MaxMem=  805306368 cpu:       0.1
 (Enter /sw/target/amd/app/gaussian/Gaussian09RevA.02_gcc-4.9.2/g09/l401.exe)
 Harris functional with IExCor=  402 diagonalized for initial guess.
 ExpMin= 1.61D-01 ExpMax= 5.48D+03 ExpMxC= 8.25D+02 IAcc=1 IRadAn=         1 AccDes= 0.00D+00
 HarFok:  IExCor=  402 AccDes= 0.00D+00 IRadAn=         1 IDoV= 1
 ScaDFX=  1.000000  1.000000  1.000000  1.000000
 FoFCou: FMM=F IPFlag=           0 FMFlag=      100000 FMFlg1=           0
         NFxFlg=           0 DoJE=T BraDBF=F KetDBF=T FulRan=T
         Omega=  0.000000  0.000000  1.000000  0.000000  0.000000 ICntrl=     500 IOpCl=  0
         NMat0=    1 NMatS0=    1 NMatT0=    0 NMatD0=    1 NMtDS0=    0 NMtDT0=    0
         I1Cent=           4 NGrid=           0.
 Petite list used in FoFCou.
 Harris En= -425.488268573919    
 Initial guess orbital symmetries:
       Occupied  (A) (A) (A) (A) (A) (A) (A) (A) (A) (A) (A) (A)
                 (A) (A) (A) (A) (A) (A) (A) (A) (A) (A) (A) (A)
                 (A) (A) (A) (A) (A) (A) (A) (A) (A) (A) (A) (A)
                 (A)
       Virtual   (A) (A) (A) (A) (A) (A) (A) (A) (A) (A) (A) (A)
                 (A) (A) (A) (A) (A) (A) (A) (A) (A) (A) (A) (A)
                 (A) (A) (A) (A) (A) (A) (A) (A) (A) (A) (A) (A)
                 (A) (A) (A) (A) (A) (A) (A) (A) (A) (A) (A) (A)
                 (A) (A) (A) (A) (A) (A) (A) (A) (A) (A) (A) (A)
                 (A) (A) (A) (A) (A) (A) (A) (A) (A) (A) (A) (A)
                 (A) (A) (A) (A) (A) (A) (A) (A) (A) (A) (A) (A)
                 (A) (A) (A) (A) (A) (A) (A) (A) (A) (A) (A) (A)
                 (A) (A) (A) (A) (A) (A) (A) (A) (A) (A) (A) (A)
                 (A) (A) (A) (A) (A) (A) (A) (A) (A) (A) (A) (A)
                 (A) (A) (A) (A) (A) (A) (A) (A) (A) (A) (A) (A)
                 (A) (A) (A) (A) (A)
 The electronic state of the initial guess is 1-A.
 Leave Link  401 at Thu Sep 30 11:37:53 2021, MaxMem=  805306368 cpu:       5.7
 (Enter /sw/target/amd/app/gaussian/Gaussian09RevA.02_gcc-4.9.2/g09/l502.exe)
 Closed shell SCF:
 Requested convergence on RMS density matrix=1.00D-08 within  64 cycles.
 Requested convergence on MAX density matrix=1.00D-06.
 Requested convergence on             energy=1.00D-06.
 No special actions if energy rises.
 Using DIIS extrapolation, IDIIS=  1040.
 Integral symmetry usage will be decided dynamically.
       186382 words used for storage of precomputed grid.
 Keep R1 ints in memory in canonical form, NReq=118872657.
 IEnd=      285118 IEndB=      285118 NGot=   805306368 MDV=   689147972
 LenX=   689147972 LenY=   689117255
 Symmetry not used in FoFDir.
 MinBra= 0 MaxBra= 2 Meth= 1.
 IRaf=       0 NMat=   1 IRICut=       1 DoRegI=T DoRafI=F ISym2E= 0 JSym2E=0.
 Integral accuracy reduced to 1.0D-05 until final iterations.

 Cycle   1  Pass 0  IDiag  1:
 E= -425.113736909807    
 DIIS: error= 4.54D-02 at cycle   1 NSaved=   1.
 NSaved= 1 IEnMin= 1 EnMin= -425.113736909807     IErMin= 1 ErrMin= 4.54D-02
 ErrMax= 4.54D-02 EMaxC= 1.00D-01 BMatC= 2.68D-01 BMatP= 2.68D-01
 IDIUse=3 WtCom= 5.46D-01 WtEn= 4.54D-01
 Coeff-Com:  0.100D+01
 Coeff-En:   0.100D+01
 Coeff:      0.100D+01
 Gap=     0.238 Goal=   None    Shift=    0.000
 GapD=    0.238 DampG=1.000 DampE=0.500 DampFc=0.5000 IDamp=-1.
 Damping current iteration by 5.00D-01
 RMSDP=6.74D-03 MaxDP=1.39D-01              OVMax= 1.88D-01

 Cycle   2  Pass 0  IDiag  1:
 E= -425.250468067561     Delta-E=       -0.136731157754 Rises=F Damp=T
 DIIS: error= 7.22D-03 at cycle   2 NSaved=   2.
 NSaved= 2 IEnMin= 2 EnMin= -425.250468067561     IErMin= 2 ErrMin= 7.22D-03
 ErrMax= 7.22D-03 EMaxC= 1.00D-01 BMatC= 1.20D-02 BMatP= 2.68D-01
 IDIUse=3 WtCom= 9.28D-01 WtEn= 7.22D-02
 Coeff-Com:  0.338D-01 0.966D+00
 Coeff-En:   0.528D-01 0.947D+00
 Coeff:      0.352D-01 0.965D+00
 Gap=     0.217 Goal=   None    Shift=    0.000
 RMSDP=1.70D-03 MaxDP=3.73D-02 DE=-1.37D-01 OVMax= 1.47D-01

 Cycle   3  Pass 0  IDiag  1:
 E= -425.396758901646     Delta-E=       -0.146290834084 Rises=F Damp=F
 DIIS: error= 6.65D-03 at cycle   3 NSaved=   3.
 NSaved= 3 IEnMin= 3 EnMin= -425.396758901646     IErMin= 3 ErrMin= 6.65D-03
 ErrMax= 6.65D-03 EMaxC= 1.00D-01 BMatC= 8.75D-03 BMatP= 1.20D-02
 IDIUse=3 WtCom= 9.33D-01 WtEn= 6.65D-02
 Coeff-Com: -0.112D-01 0.452D+00 0.559D+00
 Coeff-En:   0.000D+00 0.000D+00 0.100D+01
 Coeff:     -0.105D-01 0.422D+00 0.589D+00
 Gap=     0.215 Goal=   None    Shift=    0.000
 RMSDP=1.02D-03 MaxDP=3.01D-02 DE=-1.46D-01 OVMax= 7.64D-02

 Cycle   4  Pass 0  IDiag  1:
 E= -425.401617327243     Delta-E=       -0.004858425598 Rises=F Damp=F
 DIIS: error= 5.06D-03 at cycle   4 NSaved=   4.
 NSaved= 4 IEnMin= 4 EnMin= -425.401617327243     IErMin= 4 ErrMin= 5.06D-03
 ErrMax= 5.06D-03 EMaxC= 1.00D-01 BMatC= 4.28D-03 BMatP= 8.75D-03
 IDIUse=3 WtCom= 9.49D-01 WtEn= 5.06D-02
 Coeff-Com: -0.109D-01 0.802D-01 0.411D+00 0.520D+00
 Coeff-En:   0.000D+00 0.000D+00 0.366D+00 0.634D+00
 Coeff:     -0.103D-01 0.762D-01 0.408D+00 0.526D+00
 Gap=     0.211 Goal=   None    Shift=    0.000
 RMSDP=4.54D-04 MaxDP=1.16D-02 DE=-4.86D-03 OVMax= 3.12D-02

 Cycle   5  Pass 0  IDiag  1:
 E= -425.406352582533     Delta-E=       -0.004735255289 Rises=F Damp=F
 DIIS: error= 5.75D-04 at cycle   5 NSaved=   5.
 NSaved= 5 IEnMin= 5 EnMin= -425.406352582533     IErMin= 5 ErrMin= 5.75D-04
 ErrMax= 5.75D-04 EMaxC= 1.00D-01 BMatC= 6.36D-05 BMatP= 4.28D-03
 IDIUse=3 WtCom= 9.94D-01 WtEn= 5.75D-03
 Coeff-Com: -0.288D-02 0.124D-01 0.143D+00 0.222D+00 0.626D+00
 Coeff-En:   0.000D+00 0.000D+00 0.000D+00 0.000D+00 0.100D+01
 Coeff:     -0.287D-02 0.124D-01 0.142D+00 0.221D+00 0.628D+00
 Gap=     0.211 Goal=   None    Shift=    0.000
 RMSDP=5.51D-05 MaxDP=1.81D-03 DE=-4.74D-03 OVMax= 4.05D-03

 Cycle   6  Pass 0  IDiag  1:
 E= -425.406404062233     Delta-E=       -0.000051479700 Rises=F Damp=F
 DIIS: error= 2.25D-04 at cycle   6 NSaved=   6.
 NSaved= 6 IEnMin= 6 EnMin= -425.406404062233     IErMin= 6 ErrMin= 2.25D-04
 ErrMax= 2.25D-04 EMaxC= 1.00D-01 BMatC= 1.10D-05 BMatP= 6.36D-05
 IDIUse=3 WtCom= 9.98D-01 WtEn= 2.25D-03
 Coeff-Com: -0.594D-03 0.586D-04 0.433D-01 0.772D-01 0.351D+00 0.529D+00
 Coeff-En:   0.000D+00 0.000D+00 0.000D+00 0.000D+00 0.988D-01 0.901D+00
 Coeff:     -0.593D-03 0.585D-04 0.432D-01 0.771D-01 0.350D+00 0.530D+00
 Gap=     0.211 Goal=   None    Shift=    0.000
 RMSDP=2.11D-05 MaxDP=7.48D-04 DE=-5.15D-05 OVMax= 1.29D-03

 Cycle   7  Pass 0  IDiag  1:
 E= -425.406414036220     Delta-E=       -0.000009973988 Rises=F Damp=F
 DIIS: error= 6.94D-05 at cycle   7 NSaved=   7.
 NSaved= 7 IEnMin= 7 EnMin= -425.406414036220     IErMin= 7 ErrMin= 6.94D-05
 ErrMax= 6.94D-05 EMaxC= 1.00D-01 BMatC= 4.51D-07 BMatP= 1.10D-05
 IDIUse=1 WtCom= 1.00D+00 WtEn= 0.00D+00
 Coeff-Com: -0.115D-03-0.569D-03 0.154D-01 0.284D-01 0.148D+00 0.268D+00
 Coeff-Com:  0.541D+00
 Coeff:     -0.115D-03-0.569D-03 0.154D-01 0.284D-01 0.148D+00 0.268D+00
 Coeff:      0.541D+00
 Gap=     0.211 Goal=   None    Shift=    0.000
 RMSDP=5.95D-06 MaxDP=1.60D-04 DE=-9.97D-06 OVMax= 4.14D-04

 Initial convergence to 1.0D-05 achieved.  Increase integral accuracy.
 Cycle   8  Pass 1  IDiag  1:
 E= -425.406390212648     Delta-E=        0.000023823573 Rises=F Damp=F
 DIIS: error= 3.49D-05 at cycle   1 NSaved=   1.
 NSaved= 1 IEnMin= 1 EnMin= -425.406390212648     IErMin= 1 ErrMin= 3.49D-05
 ErrMax= 3.49D-05 EMaxC= 1.00D-01 BMatC= 1.58D-07 BMatP= 1.58D-07
 IDIUse=1 WtCom= 1.00D+00 WtEn= 0.00D+00
 Coeff-Com:  0.100D+01
 Coeff:      0.100D+01
 Gap=     0.211 Goal=   None    Shift=    0.000
 RMSDP=5.95D-06 MaxDP=1.60D-04 DE= 2.38D-05 OVMax= 4.15D-04

 Cycle   9  Pass 1  IDiag  1:
 E= -425.406390054640     Delta-E=        0.000000158008 Rises=F Damp=F
 DIIS: error= 6.14D-05 at cycle   2 NSaved=   2.
 NSaved= 2 IEnMin= 1 EnMin= -425.406390212648     IErMin= 1 ErrMin= 3.49D-05
 ErrMax= 6.14D-05 EMaxC= 1.00D-01 BMatC= 3.07D-07 BMatP= 1.58D-07
 IDIUse=1 WtCom= 1.00D+00 WtEn= 0.00D+00
 Coeff-Com:  0.595D+00 0.405D+00
 Coeff:      0.595D+00 0.405D+00
 Gap=     0.211 Goal=   None    Shift=    0.000
 RMSDP=4.21D-06 MaxDP=1.17D-04 DE= 1.58D-07 OVMax= 3.17D-04

 Cycle  10  Pass 1  IDiag  1:
 E= -425.406390390289     Delta-E=       -0.000000335649 Rises=F Damp=F
 DIIS: error= 1.17D-05 at cycle   3 NSaved=   3.
 NSaved= 3 IEnMin= 3 EnMin= -425.406390390289     IErMin= 3 ErrMin= 1.17D-05
 ErrMax= 1.17D-05 EMaxC= 1.00D-01 BMatC= 1.28D-08 BMatP= 1.58D-07
 IDIUse=1 WtCom= 1.00D+00 WtEn= 0.00D+00
 Coeff-Com:  0.341D-01 0.169D+00 0.797D+00
 Coeff:      0.341D-01 0.169D+00 0.797D+00
 Gap=     0.211 Goal=   None    Shift=    0.000
 RMSDP=8.75D-07 MaxDP=2.52D-05 DE=-3.36D-07 OVMax= 6.44D-05

 Cycle  11  Pass 1  IDiag  1:
 E= -425.406390402418     Delta-E=       -0.000000012129 Rises=F Damp=F
 DIIS: error= 3.23D-06 at cycle   4 NSaved=   4.
 NSaved= 4 IEnMin= 4 EnMin= -425.406390402418     IErMin= 4 ErrMin= 3.23D-06
 ErrMax= 3.23D-06 EMaxC= 1.00D-01 BMatC= 2.45D-09 BMatP= 1.28D-08
 IDIUse=1 WtCom= 1.00D+00 WtEn= 0.00D+00
 Coeff-Com: -0.132D-01 0.773D-01 0.464D+00 0.472D+00
 Coeff:     -0.132D-01 0.773D-01 0.464D+00 0.472D+00
 Gap=     0.211 Goal=   None    Shift=    0.000
 RMSDP=2.66D-07 MaxDP=9.39D-06 DE=-1.21D-08 OVMax= 1.86D-05

 Cycle  12  Pass 1  IDiag  1:
 E= -425.406390404641     Delta-E=       -0.000000002223 Rises=F Damp=F
 DIIS: error= 4.55D-07 at cycle   5 NSaved=   5.
 NSaved= 5 IEnMin= 5 EnMin= -425.406390404641     IErMin= 5 ErrMin= 4.55D-07
 ErrMax= 4.55D-07 EMaxC= 1.00D-01 BMatC= 3.57D-11 BMatP= 2.45D-09
 IDIUse=1 WtCom= 1.00D+00 WtEn= 0.00D+00
 Coeff-Com: -0.645D-02 0.281D-01 0.173D+00 0.205D+00 0.600D+00
 Coeff:     -0.645D-02 0.281D-01 0.173D+00 0.205D+00 0.600D+00
 Gap=     0.211 Goal=   None    Shift=    0.000
 RMSDP=6.22D-08 MaxDP=1.14D-06 DE=-2.22D-09 OVMax= 4.30D-06

 Cycle  13  Pass 1  IDiag  1:
 E= -425.406390404665     Delta-E=       -0.000000000023 Rises=F Damp=F
 DIIS: error= 2.40D-07 at cycle   6 NSaved=   6.
 NSaved= 6 IEnMin= 6 EnMin= -425.406390404665     IErMin= 6 ErrMin= 2.40D-07
 ErrMax= 2.40D-07 EMaxC= 1.00D-01 BMatC= 1.24D-11 BMatP= 3.57D-11
 IDIUse=1 WtCom= 1.00D+00 WtEn= 0.00D+00
 Coeff-Com: -0.289D-02 0.967D-02 0.608D-01 0.799D-01 0.380D+00 0.472D+00
 Coeff:     -0.289D-02 0.967D-02 0.608D-01 0.799D-01 0.380D+00 0.472D+00
 Gap=     0.211 Goal=   None    Shift=    0.000
 RMSDP=2.47D-08 MaxDP=7.81D-07 DE=-2.33D-11 OVMax= 1.90D-06

 Cycle  14  Pass 1  IDiag  1:
 E= -425.406390404682     Delta-E=       -0.000000000017 Rises=F Damp=F
 DIIS: error= 4.77D-08 at cycle   7 NSaved=   7.
 NSaved= 7 IEnMin= 7 EnMin= -425.406390404682     IErMin= 7 ErrMin= 4.77D-08
 ErrMax= 4.77D-08 EMaxC= 1.00D-01 BMatC= 5.83D-13 BMatP= 1.24D-11
 IDIUse=1 WtCom= 1.00D+00 WtEn= 0.00D+00
 Coeff-Com: -0.485D-03 0.973D-03 0.633D-02 0.112D-01 0.111D+00 0.230D+00
 Coeff-Com:  0.640D+00
 Coeff:     -0.485D-03 0.973D-03 0.633D-02 0.112D-01 0.111D+00 0.230D+00
 Coeff:      0.640D+00
 Gap=     0.211 Goal=   None    Shift=    0.000
 RMSDP=5.84D-09 MaxDP=1.79D-07 DE=-1.72D-11 OVMax= 4.04D-07

 SCF Done:  E(RB3LYP) =  -425.406390405     A.U. after   14 cycles
             Convg  =    0.5844D-08             -V/T =  2.0095
 KE= 4.213839087295D+02 PE=-1.985560143430D+03 EE= 6.396683006913D+02
 Leave Link  502 at Thu Sep 30 11:40:28 2021, MaxMem=  805306368 cpu:      91.6
 (Enter /sw/target/amd/app/gaussian/Gaussian09RevA.02_gcc-4.9.2/g09/l508.exe)
 QCSCF skips out because SCF is already converged.
 Leave Link  508 at Thu Sep 30 11:40:29 2021, MaxMem=  805306368 cpu:       0.0
 (Enter /sw/target/amd/app/gaussian/Gaussian09RevA.02_gcc-4.9.2/g09/l601.exe)
 Copying SCF densities to generalized density rwf, IOpCl= 0 IROHF=0.

 **********************************************************************

            Population analysis using the SCF density.

 **********************************************************************

 Orbital symmetries:
       Occupied  (A) (A) (A) (A) (A) (A) (A) (A) (A) (A) (A) (A)
                 (A) (A) (A) (A) (A) (A) (A) (A) (A) (A) (A) (A)
                 (A) (A) (A) (A) (A) (A) (A) (A) (A) (A) (A) (A)
                 (A)
       Virtual   (A) (A) (A) (A) (A) (A) (A) (A) (A) (A) (A) (A)
                 (A) (A) (A) (A) (A) (A) (A) (A) (A) (A) (A) (A)
                 (A) (A) (A) (A) (A) (A) (A) (A) (A) (A) (A) (A)
                 (A) (A) (A) (A) (A) (A) (A) (A) (A) (A) (A) (A)
                 (A) (A) (A) (A) (A) (A) (A) (A) (A) (A) (A) (A)
                 (A) (A) (A) (A) (A) (A) (A) (A) (A) (A) (A) (A)
                 (A) (A) (A) (A) (A) (A) (A) (A) (A) (A) (A) (A)
                 (A) (A) (A) (A) (A) (A) (A) (A) (A) (A) (A) (A)
                 (A) (A) (A) (A) (A) (A) (A) (A) (A) (A) (A) (A)
                 (A) (A) (A) (A) (A) (A) (A) (A) (A) (A) (A) (A)
                 (A) (A) (A) (A) (A) (A) (A) (A) (A) (A) (A) (A)
                 (A) (A) (A) (A) (A)
 The electronic state is 1-A.
 Alpha  occ. eigenvalues --  -19.16940 -10.23898 -10.23727 -10.18251 -10.18180
 Alpha  occ. eigenvalues --  -10.18106 -10.18087 -10.18054 -10.17648 -10.17536
 Alpha  occ. eigenvalues --   -1.05564  -0.84558  -0.77917  -0.74656  -0.73630
 Alpha  occ. eigenvalues --   -0.67181  -0.63290  -0.59479  -0.56956  -0.53005
 Alpha  occ. eigenvalues --   -0.48260  -0.47030  -0.45721  -0.43523  -0.41675
 Alpha  occ. eigenvalues --   -0.41354  -0.40306  -0.39198  -0.39060  -0.37105
 Alpha  occ. eigenvalues --   -0.35058  -0.34701  -0.34205  -0.31982  -0.30298
 Alpha  occ. eigenvalues --   -0.24247  -0.20686
 Alpha virt. eigenvalues --    0.00439   0.02255   0.09765   0.10008   0.12583
 Alpha virt. eigenvalues --    0.13406   0.14297   0.15237   0.15396   0.15926
 Alpha virt. eigenvalues --    0.17451   0.17595   0.18866   0.19207   0.20821
 Alpha virt. eigenvalues --    0.21136   0.22985   0.25143   0.26351   0.32921
 Alpha virt. eigenvalues --    0.34304   0.34905   0.36936   0.48121   0.50501
 Alpha virt. eigenvalues --    0.51090   0.52646   0.53730   0.55004   0.56090
 Alpha virt. eigenvalues --    0.56724   0.57033   0.58551   0.59757   0.60407
 Alpha virt. eigenvalues --    0.60866   0.62881   0.63445   0.64895   0.66747
 Alpha virt. eigenvalues --    0.68865   0.70282   0.72532   0.74214   0.75868
 Alpha virt. eigenvalues --    0.77869   0.79486   0.83647   0.84630   0.86769
 Alpha virt. eigenvalues --    0.87224   0.88097   0.88751   0.90738   0.91016
 Alpha virt. eigenvalues --    0.91851   0.92356   0.93542   0.96156   0.96547
 Alpha virt. eigenvalues --    0.98897   1.00944   1.03293   1.07825   1.08862
 Alpha virt. eigenvalues --    1.13106   1.16798   1.18316   1.20268   1.26431
 Alpha virt. eigenvalues --    1.27524   1.30026   1.36881   1.39764   1.40979
 Alpha virt. eigenvalues --    1.44508   1.45940   1.46833   1.48461   1.48990
 Alpha virt. eigenvalues --    1.50408   1.52289   1.65729   1.74781   1.79992
 Alpha virt. eigenvalues --    1.83832   1.85137   1.86994   1.89352   1.90142
 Alpha virt. eigenvalues --    1.91978   1.92695   1.95867   1.97358   1.99042
 Alpha virt. eigenvalues --    2.00066   2.06907   2.07818   2.11880   2.12433
 Alpha virt. eigenvalues --    2.14131   2.15563   2.17760   2.21345   2.25068
 Alpha virt. eigenvalues --    2.27172   2.28420   2.31478   2.33355   2.34312
 Alpha virt. eigenvalues --    2.39419   2.40799   2.42605   2.54308   2.55336
 Alpha virt. eigenvalues --    2.59768   2.65108   2.67405   2.68283   2.71968
 Alpha virt. eigenvalues --    2.77804   2.82176   2.88912   2.94679   3.03009
 Alpha virt. eigenvalues --    3.20118   3.43887   4.06811   4.10944   4.12217
 Alpha virt. eigenvalues --    4.17523   4.23377   4.31249   4.33973   4.43810
 Alpha virt. eigenvalues --    4.51009   4.77652
          Condensed to atoms (all electrons):
              1          2          3          4          5          6
     1  C    5.092563   0.383107  -0.047125   0.002999   0.000464  -0.000007
     2  C    0.383107   4.804561   0.235167  -0.036443  -0.007865   0.000523
     3  O   -0.047125   0.235167   8.244348   0.275007  -0.061192   0.003540
     4  C    0.002999  -0.036443   0.275007   4.507810   0.465677  -0.003921
     5  C    0.000464  -0.007865  -0.061192   0.465677   5.118934   0.475859
     6  C   -0.000007   0.000523   0.003540  -0.003921   0.475859   4.967972
     7  C   -0.000000  -0.000003   0.000183  -0.033513  -0.020721   0.555365
     8  C    0.000004  -0.000116   0.003172  -0.017395  -0.047881  -0.026542
     9  C   -0.000215   0.003723  -0.054707   0.542098  -0.060306  -0.045006
    10  C   -0.000000  -0.000000   0.000000   0.000427   0.007609  -0.067877
    11  H    0.362165  -0.027193   0.002927  -0.000076   0.000011  -0.000000
    12  H    0.373740  -0.030487   0.001814   0.000120   0.000016   0.000000
    13  H    0.373854  -0.030508   0.001797   0.000111   0.000015   0.000000
    14  H   -0.041152   0.363317  -0.038770  -0.004079   0.005188  -0.000132
    15  H   -0.041137   0.363101  -0.038813  -0.004000   0.005197  -0.000106
    16  H   -0.000116   0.005885  -0.007175  -0.047007   0.350390  -0.037928
    17  H   -0.000000  -0.000009  -0.000046   0.003237  -0.042227   0.355452
    18  H   -0.000000   0.000003  -0.000061   0.004306   0.000162   0.006400
    19  H   -0.000020  -0.000277  -0.000124  -0.037633   0.007499   0.000341
    20  H   -0.000000  -0.000000  -0.000000   0.000014   0.000122  -0.003433
    21  H    0.000000  -0.000000  -0.000000   0.000040  -0.000126  -0.002729
    22  H    0.000000   0.000000  -0.000000   0.000006  -0.000184   0.003424
              7          8          9         10         11         12
     1  C   -0.000000   0.000004  -0.000215  -0.000000   0.362165   0.373740
     2  C   -0.000003  -0.000116   0.003723  -0.000000  -0.027193  -0.030487
     3  O    0.000183   0.003172  -0.054707   0.000000   0.002927   0.001814
     4  C   -0.033513  -0.017395   0.542098   0.000427  -0.000076   0.000120
     5  C   -0.020721  -0.047881  -0.060306   0.007609   0.000011   0.000016
     6  C    0.555365  -0.026542  -0.045006  -0.067877  -0.000000   0.000000
     7  C    4.623460   0.554453  -0.025456   0.351524  -0.000000   0.000000
     8  C    0.554453   4.943667   0.509764  -0.062796  -0.000000  -0.000000
     9  C   -0.025456   0.509764   5.001911   0.007528   0.000003  -0.000024
    10  C    0.351524  -0.062796   0.007528   5.216906  -0.000000   0.000000
    11  H   -0.000000  -0.000000   0.000003  -0.000000   0.568880  -0.026858
    12  H    0.000000  -0.000000  -0.000024   0.000000  -0.026858   0.553300
    13  H    0.000000  -0.000000  -0.000023   0.000000  -0.026981  -0.031769
    14  H   -0.000002  -0.000005   0.000151   0.000000  -0.000204  -0.006902
    15  H   -0.000007  -0.000001   0.000143   0.000000  -0.000094   0.005800
    16  H    0.003622   0.000854   0.004564  -0.000205   0.000025   0.000005
    17  H   -0.044538   0.005858   0.000525  -0.009191   0.000000   0.000000
    18  H   -0.044382   0.355482  -0.044106  -0.010167   0.000000  -0.000000
    19  H    0.004295  -0.040673   0.342462  -0.000185   0.000000   0.000009
    20  H   -0.029584   0.002690  -0.000194   0.364345   0.000000  -0.000000
    21  H   -0.029023  -0.001390  -0.000172   0.363206   0.000000   0.000000
    22  H   -0.029480  -0.003167   0.000157   0.364398   0.000000  -0.000000
             13         14         15         16         17         18
     1  C    0.373854  -0.041152  -0.041137  -0.000116  -0.000000  -0.000000
     2  C   -0.030508   0.363317   0.363101   0.005885  -0.000009   0.000003
     3  O    0.001797  -0.038770  -0.038813  -0.007175  -0.000046  -0.000061
     4  C    0.000111  -0.004079  -0.004000  -0.047007   0.003237   0.004306
     5  C    0.000015   0.005188   0.005197   0.350390  -0.042227   0.000162
     6  C    0.000000  -0.000132  -0.000106  -0.037928   0.355452   0.006400
     7  C    0.000000  -0.000002  -0.000007   0.003622  -0.044538  -0.044382
     8  C   -0.000000  -0.000005  -0.000001   0.000854   0.005858   0.355482
     9  C   -0.000023   0.000151   0.000143   0.004564   0.000525  -0.044106
    10  C    0.000000   0.000000   0.000000  -0.000205  -0.009191  -0.010167
    11  H   -0.026981  -0.000204  -0.000094   0.000025   0.000000   0.000000
    12  H   -0.031769  -0.006902   0.005800   0.000005   0.000000  -0.000000
    13  H    0.553840   0.005793  -0.007082   0.000005   0.000000  -0.000000
    14  H    0.005793   0.631612  -0.056622   0.002012   0.000001  -0.000000
    15  H   -0.007082  -0.056622   0.631959   0.001957   0.000001  -0.000000
    16  H    0.000005   0.002012   0.001957   0.599592  -0.005773   0.000017
    17  H    0.000000   0.000001   0.000001  -0.005773   0.609779  -0.000184
    18  H   -0.000000  -0.000000  -0.000000   0.000017  -0.000184   0.610288
    19  H    0.000009   0.000030   0.000029  -0.000168   0.000017  -0.006327
    20  H    0.000000   0.000000  -0.000000  -0.000006   0.004473   0.000039
    21  H   -0.000000  -0.000000   0.000000   0.000002   0.000857   0.000419
    22  H    0.000000   0.000000  -0.000000   0.000003   0.000024   0.005793
             19         20         21         22
     1  C   -0.000020  -0.000000   0.000000   0.000000
     2  C   -0.000277  -0.000000  -0.000000   0.000000
     3  O   -0.000124  -0.000000  -0.000000  -0.000000
     4  C   -0.037633   0.000014   0.000040   0.000006
     5  C    0.007499   0.000122  -0.000126  -0.000184
     6  C    0.000341  -0.003433  -0.002729   0.003424
     7  C    0.004295  -0.029584  -0.029023  -0.029480
     8  C   -0.040673   0.002690  -0.001390  -0.003167
     9  C    0.342462  -0.000194  -0.000172   0.000157
    10  C   -0.000185   0.364345   0.363206   0.364398
    11  H    0.000000   0.000000   0.000000   0.000000
    12  H    0.000009  -0.000000   0.000000  -0.000000
    13  H    0.000009   0.000000  -0.000000   0.000000
    14  H    0.000030   0.000000  -0.000000   0.000000
    15  H    0.000029  -0.000000   0.000000  -0.000000
    16  H   -0.000168  -0.000006   0.000002   0.000003
    17  H    0.000017   0.004473   0.000857   0.000024
    18  H   -0.006327   0.000039   0.000419   0.005793
    19  H    0.598321   0.000003   0.000003  -0.000008
    20  H    0.000003   0.567290  -0.030382  -0.028366
    21  H    0.000003  -0.030382   0.566143  -0.029241
    22  H   -0.000008  -0.028366  -0.029241   0.565239
 Mulliken atomic charges:
              1
     1  C   -0.459123
     2  C   -0.026483
     3  O   -0.519943
     4  C    0.382214
     5  C   -0.196640
     6  C   -0.181196
     7  C    0.163808
     8  C   -0.175977
     9  C   -0.182821
    10  C   -0.525523
    11  H    0.147396
    12  H    0.161236
    13  H    0.160937
    14  H    0.139761
    15  H    0.139675
    16  H    0.129445
    17  H    0.121743
    18  H    0.122317
    19  H    0.132394
    20  H    0.152988
    21  H    0.162393
    22  H    0.151401
 Sum of Mulliken atomic charges =  -0.00000
 Mulliken charges with hydrogens summed into heavy atoms:
              1
     1  C    0.010446
     2  C    0.252954
     3  O   -0.519943
     4  C    0.382214
     5  C   -0.067196
     6  C   -0.059454
     7  C    0.163808
     8  C   -0.053660
     9  C   -0.050427
    10  C   -0.058741
 Sum of Mulliken charges with hydrogens summed into heavy atoms =  -0.00000
 Electronic spatial extent (au):  <R**2>=           2023.5350
 Charge=             -0.0000 electrons
 Dipole moment (field-independent basis, Debye):
    X=             -0.4753    Y=             -1.0951    Z=              0.0533  Tot=              1.1950
 Quadrupole moment (field-independent basis, Debye-Ang):
   XX=            -52.9697   YY=            -56.7496   ZZ=            -62.4545
   XY=              2.8990   XZ=              0.0957   YZ=              0.0006
 Traceless Quadrupole moment (field-independent basis, Debye-Ang):
   XX=              4.4215   YY=              0.6417   ZZ=             -5.0632
   XY=              2.8990   XZ=              0.0957   YZ=              0.0006
 Octapole moment (field-independent basis, Debye-Ang**2):
  XXX=            -17.8934  YYY=              2.6868  ZZZ=              0.6817  XYY=              0.5734
  XXY=             -5.2863  XXZ=              0.1266  XZZ=             -6.7333  YZZ=              0.2274
  YYZ=             -0.3451  XYZ=             -0.0424
 Hexadecapole moment (field-independent basis, Debye-Ang**3):
 XXXX=          -2221.4547 YYYY=           -342.5164 ZZZZ=            -83.0343 XXXY=             19.8989
 XXXZ=             -0.6648 YYYX=             -0.4211 YYYZ=              0.5143 ZZZX=              2.4139
 ZZZY=             -0.2029 XXYY=           -427.7171 XXZZ=           -394.7123 YYZZ=            -79.1847
 XXYZ=             -0.3911 YYXZ=             -1.6984 ZZXY=             -3.9649
 N-N= 4.991015436045D+02 E-N=-1.985560144649D+03  KE= 4.213839087295D+02
 No NMR shielding tensors so no spin-rotation constants.
 Leave Link  601 at Thu Sep 30 11:40:30 2021, MaxMem=  805306368 cpu:       0.8
 (Enter /sw/target/amd/app/gaussian/Gaussian09RevA.02_gcc-4.9.2/g09/l701.exe)
 Compute integral first derivatives.
 ... and contract with generalized density number  0.
 Leave Link  701 at Thu Sep 30 11:40:32 2021, MaxMem=  805306368 cpu:       0.9
 (Enter /sw/target/amd/app/gaussian/Gaussian09RevA.02_gcc-4.9.2/g09/l702.exe)
 L702 exits ... SP integral derivatives will be done elsewhere.
 Leave Link  702 at Thu Sep 30 11:40:32 2021, MaxMem=  805306368 cpu:       0.1
 (Enter /sw/target/amd/app/gaussian/Gaussian09RevA.02_gcc-4.9.2/g09/l703.exe)
 Compute integral first derivatives, UseDBF=F ICtDFT=           0.
 Integral derivatives from FoFDir, PRISM(SPDF).
 Calling FoFJK, ICntrl=      2127 FMM=F ISym2X=0 I1Cent= 0 IOpClX= 0 NMat=1 NMatS=1 NMatT=0.
 FoFCou: FMM=F IPFlag=           0 FMFlag=      100000 FMFlg1=         800
         NFxFlg=           0 DoJE=F BraDBF=F KetDBF=F FulRan=T
         Omega=  0.000000  0.000000  1.000000  0.000000  0.000000 ICntrl=    2127 IOpCl=  0
         NMat0=    1 NMatS0=    1 NMatT0=    0 NMatD0=    1 NMtDS0=    0 NMtDT0=    0
         I1Cent=           0 NGrid=           0.
 Symmetry not used in FoFCou.
 Leave Link  703 at Thu Sep 30 11:41:24 2021, MaxMem=  805306368 cpu:      34.9
 (Enter /sw/target/amd/app/gaussian/Gaussian09RevA.02_gcc-4.9.2/g09/l716.exe)
 Dipole        =-1.87010781D-01-4.30852248D-01 2.09571249D-02
 ***** Axes restored to original set *****
 -------------------------------------------------------------------
 Center     Atomic                   Forces (Hartrees/Bohr)
 Number     Number              X              Y              Z
 -------------------------------------------------------------------
      1        6          -0.004292993   -0.000361824   -0.006379913
      2        6          -0.009083624    0.001084012    0.000599432
      3        8           0.002099398    0.000815944    0.007804848
      4        6          -0.003310564   -0.000246673   -0.006324687
      5        6           0.005795203    0.000912542    0.007506115
      6        6          -0.008632751   -0.000912707   -0.005273833
      7        6           0.003417088    0.001373237    0.001946727
      8        6          -0.009423031    0.001458018    0.008636640
      9        6           0.005212308   -0.002001364   -0.011676076
     10        6           0.001109394   -0.004235009   -0.000831027
     11        1           0.000488726    0.000048052    0.000738013
     12        1           0.000217112   -0.000976245    0.001402851
     13        1           0.000380631    0.001198006    0.000984397
     14        1           0.004927328    0.000191011    0.000651286
     15        1           0.004818792   -0.001153129    0.000867050
     16        1          -0.002478766    0.000247655   -0.000082949
     17        1          -0.000175195   -0.000610097   -0.000523064
     18        1           0.000852895   -0.000526743    0.000452847
     19        1          -0.000836396    0.000497796    0.002842382
     20        1           0.002931424    0.001816930   -0.000335643
     21        1           0.004697084   -0.000191403   -0.001704347
     22        1           0.001285936    0.001571991   -0.001301049
 -------------------------------------------------------------------
 Cartesian Forces:  Max     0.011676076 RMS     0.003775467
 Leave Link  716 at Thu Sep 30 11:41:25 2021, MaxMem=  805306368 cpu:       0.1
 (Enter /sw/target/amd/app/gaussian/Gaussian09RevA.02_gcc-4.9.2/g09/l103.exe)

 GradGradGradGradGradGradGradGradGradGradGradGradGradGradGradGradGradGrad
 Berny optimization.
 Internal  Forces:  Max     0.010891099 RMS     0.002465964
 Search for a local minimum.
 Step number   1 out of a maximum of  113
 All quantities printed in internal units (Hartrees-Bohrs-Radians)
 RMS Force = .24660D-02 SwitMx=.10000D-02 MixMth= 1
 Mixed Optimization -- RFO/linear search
 Second derivative matrix not updated -- first step.
     Eigenvalues ---    0.00533   0.00774   0.01340   0.01570   0.02102
     Eigenvalues ---    0.02106   0.02114   0.02117   0.02120   0.02129
     Eigenvalues ---    0.02131   0.02136   0.02145   0.05480   0.05640
     Eigenvalues ---    0.05744   0.06109   0.07297   0.07348   0.11034
     Eigenvalues ---    0.13608   0.16000   0.16000   0.16000   0.16000
     Eigenvalues ---    0.16000   0.16000   0.16000   0.16000   0.16000
     Eigenvalues ---    0.16000   0.21999   0.22085   0.22969   0.23993
     Eigenvalues ---    0.24971   0.25000   0.25000   0.30598   0.32437
     Eigenvalues ---    0.34103   0.34106   0.34230   0.34247   0.34250
     Eigenvalues ---    0.34256   0.34315   0.34386   0.35073   0.35110
     Eigenvalues ---    0.35112   0.35459   0.41480   0.41657   0.42253
     Eigenvalues ---    0.45824   0.45948   0.46081   0.46320   0.51352
     Eigenvalues --- 1000.000001000.000001000.000001000.000001000.00000
     Eigenvalues --- 1000.000001000.000001000.000001000.000001000.00000
     Eigenvalues --- 1000.000001000.000001000.000001000.000001000.00000
     Eigenvalues --- 1000.000001000.000001000.000001000.000001000.00000
     Eigenvalues --- 1000.000001000.000001000.000001000.000001000.00000
     Eigenvalues --- 1000.000001000.000001000.000001000.000001000.00000
     Eigenvalues --- 1000.000001000.000001000.000001000.000001000.00000
     Eigenvalues --- 1000.000001000.000001000.000001000.000001000.00000
     Eigenvalues --- 1000.000001000.000001000.00000
 RFO step:  Lambda=-2.97568449D-03 EMin= 5.33069179D-03
 Linear search not attempted -- first point.
 Iteration  1 RMS(Cart)=  0.02566172 RMS(Int)=  0.00026853
 Iteration  2 RMS(Cart)=  0.00033522 RMS(Int)=  0.00011268
 Iteration  3 RMS(Cart)=  0.00000007 RMS(Int)=  0.00011268
 Variable       Old X    -DE/DX   Delta X   Delta X   Delta X     New X
                                 (Linear)    (Quad)   (Total)
    R1        2.86786   0.00257   0.00000   0.00831   0.00831   2.87617
    R2        2.06684   0.00064   0.00000   0.00185   0.00185   2.06869
    R3        2.06911   0.00027   0.00000   0.00078   0.00078   2.06989
    R4        2.06915   0.00028   0.00000   0.00082   0.00082   2.06997
    R5        2.69590  -0.00079   0.00000  -0.00188  -0.00188   2.69402
    R6        2.07151   0.00172   0.00000   0.00501   0.00501   2.07652
    R7        2.07156   0.00170   0.00000   0.00495   0.00495   2.07651
    R8        2.58526   0.00262   0.00000   0.00508   0.00508   2.59033
    R9        2.63611   0.00273   0.00000   0.00636   0.00634   2.64246
   R10        2.63883   0.00350   0.00000   0.00790   0.00788   2.64671
   R11        2.64316   0.00021   0.00000   0.00059   0.00060   2.64376
   R12        2.04935   0.00008   0.00000   0.00022   0.00022   2.04958
   R13        2.64427  -0.00064   0.00000  -0.00177  -0.00175   2.64252
   R14        2.05556  -0.00046   0.00000  -0.00129  -0.00129   2.05427
   R15        2.64214   0.00342   0.00000   0.00689   0.00690   2.64904
   R16        2.83351   0.01089   0.00000   0.03327   0.03327   2.86678
   R17        2.64086  -0.00415   0.00000  -0.00908  -0.00909   2.63176
   R18        2.05497  -0.00030   0.00000  -0.00085  -0.00085   2.05412
   R19        2.05494  -0.00098   0.00000  -0.00277  -0.00277   2.05217
   R20        2.06944   0.00049   0.00000   0.00142   0.00142   2.07086
   R21        2.06802   0.00221   0.00000   0.00638   0.00638   2.07440
   R22        2.06900   0.00026   0.00000   0.00074   0.00074   2.06974
    A1        1.93321  -0.00128   0.00000  -0.01302  -0.01304   1.92016
    A2        1.93146   0.00007   0.00000   0.00282   0.00276   1.93422
    A3        1.93058   0.00024   0.00000   0.00424   0.00418   1.93476
    A4        1.90006  -0.00001   0.00000  -0.00528  -0.00531   1.89474
    A5        1.89932  -0.00002   0.00000  -0.00469  -0.00471   1.89460
    A6        1.86762   0.00106   0.00000   0.01667   0.01659   1.88420
    A7        1.88959  -0.00332   0.00000  -0.01074  -0.01062   1.87897
    A8        1.90175   0.00422   0.00000   0.03201   0.03185   1.93360
    A9        1.90088   0.00430   0.00000   0.03247   0.03230   1.93318
   A10        1.92421  -0.00057   0.00000  -0.00924  -0.00923   1.91497
   A11        1.92453  -0.00065   0.00000  -0.00994  -0.00993   1.91460
   A12        1.92227  -0.00383   0.00000  -0.03298  -0.03363   1.88864
   A13        2.03736   0.00813   0.00000   0.03214   0.03214   2.06951
   A14        2.19804  -0.00371   0.00000  -0.01523  -0.01523   2.18281
   A15        2.00639   0.00416   0.00000   0.01590   0.01591   2.02230
   A16        2.07874  -0.00045   0.00000  -0.00061  -0.00069   2.07805
   A17        2.09929  -0.00229   0.00000  -0.00950  -0.00953   2.08976
   A18        2.12719  -0.00141   0.00000  -0.01091  -0.01090   2.11628
   A19        2.05671   0.00370   0.00000   0.02042   0.02043   2.07713
   A20        2.10622   0.00520   0.00000   0.02222   0.02223   2.12845
   A21        2.07910  -0.00216   0.00000  -0.00838  -0.00839   2.07072
   A22        2.09786  -0.00305   0.00000  -0.01384  -0.01384   2.08402
   A23        2.07557  -0.00619   0.00000  -0.02635  -0.02643   2.04914
   A24        2.09766   0.00363   0.00000   0.01576   0.01567   2.11333
   A25        2.10900   0.00258   0.00000   0.01160   0.01151   2.12051
   A26        2.09911   0.00503   0.00000   0.02058   0.02055   2.11966
   A27        2.10347  -0.00348   0.00000  -0.01623  -0.01621   2.08726
   A28        2.08061  -0.00155   0.00000  -0.00435  -0.00434   2.07627
   A29        2.10729  -0.00130   0.00000  -0.00592  -0.00598   2.10131
   A30        2.08806  -0.00227   0.00000  -0.01492  -0.01490   2.07316
   A31        2.08783   0.00357   0.00000   0.02086   0.02088   2.10871
   A32        1.93071   0.00255   0.00000   0.01730   0.01713   1.94784
   A33        1.91948   0.00501   0.00000   0.02756   0.02745   1.94694
   A34        1.93992   0.00081   0.00000   0.00651   0.00640   1.94632
   A35        1.90224  -0.00448   0.00000  -0.03044  -0.03059   1.87165
   A36        1.87265  -0.00065   0.00000   0.00210   0.00193   1.87458
   A37        1.89771  -0.00362   0.00000  -0.02527  -0.02532   1.87239
    D1        3.13396   0.00001   0.00000   0.00261   0.00262   3.13658
    D2        1.04098   0.00020   0.00000   0.00152   0.00167   1.04265
    D3       -1.05635  -0.00023   0.00000   0.00311   0.00297  -1.05338
    D4        1.02497   0.00082   0.00000   0.01604   0.01606   1.04103
    D5       -1.06802   0.00101   0.00000   0.01496   0.01511  -1.05290
    D6        3.11784   0.00058   0.00000   0.01654   0.01641   3.13425
    D7       -1.04175  -0.00070   0.00000  -0.00911  -0.00913  -1.05088
    D8       -3.13474  -0.00051   0.00000  -0.01020  -0.01007   3.13838
    D9        1.05112  -0.00094   0.00000  -0.00861  -0.00878   1.04234
   D10        3.14018   0.00002   0.00000   0.00019   0.00019   3.14036
   D11       -1.06415   0.00280   0.00000   0.02719   0.02701  -1.03714
   D12        1.06219  -0.00282   0.00000  -0.02696  -0.02678   1.03541
   D13       -0.00058   0.00013   0.00000   0.00581   0.00584   0.00526
   D14       -3.13714  -0.00016   0.00000  -0.00693  -0.00696   3.13908
   D15       -3.13943  -0.00023   0.00000  -0.00925  -0.00912   3.13463
   D16        0.00082  -0.00008   0.00000  -0.00236  -0.00227  -0.00145
   D17       -0.00306   0.00008   0.00000   0.00401   0.00410   0.00104
   D18        3.13720   0.00024   0.00000   0.01090   0.01095  -3.13503
   D19        3.13900   0.00020   0.00000   0.00852   0.00861  -3.13558
   D20        0.00075   0.00001   0.00000   0.00073   0.00085   0.00159
   D21        0.00206  -0.00006   0.00000  -0.00323  -0.00333  -0.00127
   D22       -3.13618  -0.00024   0.00000  -0.01102  -0.01109   3.13591
   D23       -0.00709   0.00019   0.00000   0.00994   0.01011   0.00302
   D24        3.13386   0.00022   0.00000   0.01036   0.01048  -3.13884
   D25        3.13578   0.00005   0.00000   0.00334   0.00343   3.13922
   D26       -0.00645   0.00007   0.00000   0.00376   0.00380  -0.00265
   D27        0.01801  -0.00059   0.00000  -0.02477  -0.02461  -0.00660
   D28        3.11308  -0.00002   0.00000   0.00044   0.00034   3.11342
   D29       -3.12294  -0.00061   0.00000  -0.02520  -0.02498   3.13527
   D30       -0.02787  -0.00004   0.00000   0.00002  -0.00003  -0.02790
   D31       -0.01894   0.00060   0.00000   0.02545   0.02527   0.00633
   D32        3.12330   0.00059   0.00000   0.02420   0.02401  -3.13588
   D33       -3.11370   0.00000   0.00000  -0.00004   0.00011  -3.11359
   D34        0.02854  -0.00001   0.00000  -0.00128  -0.00116   0.02739
   D35        0.67831  -0.00090   0.00000  -0.02518  -0.02533   0.65298
   D36       -1.42389  -0.00022   0.00000  -0.01626  -0.01644  -1.44034
   D37        2.75679   0.00048   0.00000  -0.00707  -0.00717   2.74962
   D38       -2.51071  -0.00056   0.00000  -0.00050  -0.00037  -2.51107
   D39        1.67028   0.00013   0.00000   0.00842   0.00852   1.67879
   D40       -0.43222   0.00082   0.00000   0.01761   0.01779  -0.41443
   D41        0.00908  -0.00024   0.00000  -0.01149  -0.01161  -0.00253
   D42       -3.13585  -0.00007   0.00000  -0.00377  -0.00376  -3.13961
   D43       -3.13314  -0.00023   0.00000  -0.01026  -0.01036   3.13968
   D44        0.00510  -0.00006   0.00000  -0.00255  -0.00251   0.00259
         Item               Value     Threshold  Converged?
 Maximum Force            0.010891     0.000450     NO 
 RMS     Force            0.002466     0.000300     NO 
 Maximum Displacement     0.098146     0.001800     NO 
 RMS     Displacement     0.025525     0.001200     NO 
 Predicted change in Energy=-1.517892D-03
 GradGradGradGradGradGradGradGradGradGradGradGradGradGradGradGradGradGrad

 Leave Link  103 at Thu Sep 30 11:41:33 2021, MaxMem=  805306368 cpu:       3.0
 (Enter /sw/target/amd/app/gaussian/Gaussian09RevA.02_gcc-4.9.2/g09/l202.exe)
                          Input orientation:                          
 ---------------------------------------------------------------------
 Center     Atomic      Atomic             Coordinates (Angstroms)
 Number     Number       Type             X           Y           Z
 ---------------------------------------------------------------------
      1          6           0        2.665099    0.186901    0.877756
      2          6           0        4.156381   -0.024186    0.658646
      3          8           0        4.358408   -0.272835   -0.730502
      4          6           0        5.634991   -0.494108   -1.178066
      5          6           0        6.778310   -0.503015   -0.373041
      6          6           0        8.029707   -0.749892   -0.947769
      7          6           0        8.181032   -0.987854   -2.317402
      8          6           0        7.021974   -0.978977   -3.105803
      9          6           0        5.767903   -0.735353   -2.551292
     10          6           0        9.551634   -1.217527   -2.925755
     11          1           0        2.465180    0.376673    1.937185
     12          1           0        2.097157   -0.697227    0.568691
     13          1           0        2.302638    1.041432    0.296157
     14          1           0        4.519472   -0.879598    1.245073
     15          1           0        4.724542    0.866100    0.962025
     16          1           0        6.715709   -0.326567    0.695267
     17          1           0        8.906401   -0.755254   -0.305037
     18          1           0        7.097984   -1.165164   -4.174030
     19          1           0        4.876374   -0.732675   -3.171355
     20          1           0       10.196834   -1.799938   -2.258366
     21          1           0       10.066120   -0.269595   -3.130032
     22          1           0        9.484249   -1.761984   -3.873711
 ---------------------------------------------------------------------
                    Distance matrix (angstroms):
                    1          2          3          4          5
     1  C    0.000000
     2  C    1.522001   0.000000
     3  O    2.380157   1.425614   0.000000
     4  C    3.675654   2.404293   1.370744   0.000000
     5  C    4.354191   2.858000   2.456967   1.398328   0.000000
     6  C    5.743617   4.255569   3.708534   2.419323   1.399019
     7  C    6.481867   5.097385   4.200233   2.832701   2.446066
     8  C    6.017505   4.826419   3.638031   2.423837   2.784582
     9  C    4.715540   3.661484   2.348590   1.400577   2.412402
    10  C    7.991463   6.586406   5.716745   4.349464   3.836431
    11  H    1.094702   2.157663   3.335076   4.528880   4.971326
    12  H    1.095336   2.168290   2.642209   3.950783   4.778888
    13  H    1.095381   2.168711   2.647173   3.954213   4.781714
    14  H    2.170492   1.098845   2.072921   2.695290   2.804007
    15  H    2.170189   1.098843   2.072650   2.694266   2.806214
    16  H    4.087100   2.577389   2.755463   2.169193   1.084590
    17  H    6.421877   4.901616   4.593255   3.395953   2.144067
    18  H    6.855589   5.771449   4.489923   3.400951   3.871454
    19  H    4.704323   3.960966   2.537223   2.146070   3.391264
    20  H    8.397012   6.938971   6.225240   4.866481   4.113728
    21  H    8.428871   7.024195   6.191585   4.847213   4.297113
    22  H    8.536709   7.207522   6.194479   4.867319   4.600196
                    6          7          8          9         10
     6  C    0.000000
     7  C    1.398364   0.000000
     8  C    2.392721   1.401810   0.000000
     9  C    2.772590   2.437551   1.392669   0.000000
    10  C    2.539168   1.517034   2.547254   3.832666   0.000000
    11  H    6.368365   7.254958   6.930648   5.682518   8.741138
    12  H    6.123526   6.739995   6.151025   4.817689   8.249309
    13  H    6.128256   6.745682   6.158532   4.824210   8.248125
    14  H    4.140910   5.109792   5.020210   3.998972   6.544667
    15  H    4.145221   5.112642   5.022919   3.999581   6.538895
    16  H    2.146011   3.414770   3.868794   3.406698   4.684878
    17  H    1.087072   2.151715   3.383106   3.859563   2.738281
    18  H    3.383684   2.156733   1.086993   2.141759   2.753421
    19  H    3.858516   3.422736   2.160685   1.085961   4.706746
    20  H    2.741659   2.174033   3.387014   4.564490   1.095853
    21  H    3.023232   2.174814   3.125802   4.361942   1.097725
    22  H    3.420696   2.172498   2.695475   4.076026   1.095259
                   11         12         13         14         15
    11  H    0.000000
    12  H    1.778055   0.000000
    13  H    1.778004   1.771844   0.000000
    14  H    2.505464   2.521579   3.083042   0.000000
    15  H    2.509023   3.082508   2.517885   1.780346   0.000000
    16  H    4.483737   4.635130   4.637446   2.330577   2.336313
    17  H    6.913621   6.865317   6.870168   4.654402   4.660706
    18  H    7.822218   6.908013   6.917152   6.008074   6.011516
    19  H    5.756882   4.659747   4.668535   4.433261   4.434407
    20  H    9.061939   8.649450   8.770251   6.734504   6.886555
    21  H    9.157982   8.795896   8.586572   7.090765   6.824015
    22  H    9.359899   8.685492   8.764844   7.185372   7.276398
                   16         17         18         19         20
    16  H    0.000000
    17  H    2.446123   0.000000
    18  H    4.955748   4.290397   0.000000
    19  H    4.301029   4.945443   2.475471   0.000000
    20  H    4.797187   2.563605   3.698050   5.502717   0.000000
    21  H    5.085412   3.092152   3.271361   5.210529   1.766022
    22  H    5.531799   3.752712   2.478033   4.773395   1.765944
                   21         22
    21  H    0.000000
    22  H    1.766028   0.000000
 Stoichiometry    C9H12O
 Framework group  C1[X(C9H12O)]
 Deg. of freedom    60
 Full point group                 C1      NOp   1
 Largest Abelian subgroup         C1      NOp   1
 Largest concise Abelian subgroup C1      NOp   1
                         Standard orientation:                         
 ---------------------------------------------------------------------
 Center     Atomic      Atomic             Coordinates (Angstroms)
 Number     Number       Type             X           Y           Z
 ---------------------------------------------------------------------
      1          6           0       -4.120552    0.020044    0.004491
      2          6           0       -2.714190   -0.561877    0.002613
      3          8           0       -1.795237    0.528032    0.002076
      4          6           0       -0.452307    0.253298    0.001895
      5          6           0        0.105370   -1.028999   -0.003826
      6          6           0        1.496108   -1.180793   -0.011836
      7          6           0        2.360501   -0.081592   -0.010779
      8          6           0        1.781135    1.194890   -0.009521
      9          6           0        0.398973    1.365469   -0.001802
     10          6           0        3.865678   -0.268831    0.017035
     11          1           0       -4.860065   -0.787093   -0.000200
     12          1           0       -4.283536    0.647378   -0.878486
     13          1           0       -4.285407    0.638622    0.893335
     14          1           0       -2.551092   -1.184810   -0.887787
     15          1           0       -2.549249   -1.184973    0.892558
     16          1           0       -0.520467   -1.914804   -0.007301
     17          1           0        1.910579   -2.185726   -0.018817
     18          1           0        2.419991    2.074319   -0.014079
     19          1           0       -0.039008    2.359190   -0.002743
     20          1           0        4.176428   -1.129296   -0.586229
     21          1           0        4.232191   -0.437883    1.037863
     22          1           0        4.387236    0.611169   -0.374336
 ---------------------------------------------------------------------
 Rotational constants (GHZ):      4.6698283      0.6294803      0.5605664
 Leave Link  202 at Thu Sep 30 11:41:33 2021, MaxMem=  805306368 cpu:       0.0
 (Enter /sw/target/amd/app/gaussian/Gaussian09RevA.02_gcc-4.9.2/g09/l301.exe)
 Standard basis: 6-31G(d) (6D, 7F)
 Ernie: Thresh=  0.10000D-02 Tol=  0.10000D-05 Strict=F.
 There are   174 symmetry adapted basis functions of A   symmetry.
 Integral buffers will be    131072 words long.
 Raffenetti 2 integral format.
 Two-electron integral symmetry is turned on.
   174 basis functions,   328 primitive gaussians,   174 cartesian basis functions
    37 alpha electrons       37 beta electrons
       nuclear repulsion energy       497.6266940989 Hartrees.
 IExCor=  402 DFT=T Ex+Corr=B3LYP ExCW=0 ScaHFX=  0.200000
 ScaDFX=  0.800000  0.720000  1.000000  0.810000 ScalE2=  1.000000  1.000000
 IRadAn=      0 IRanWt=     -1 IRanGd=            0 ICorTp=0
 NAtoms=   22 NActive=   22 NUniq=   22 SFac= 7.50D-01 NAtFMM=   80 NAOKFM=F Big=F
 Leave Link  301 at Thu Sep 30 11:41:33 2021, MaxMem=  805306368 cpu:       0.1
 (Enter /sw/target/amd/app/gaussian/Gaussian09RevA.02_gcc-4.9.2/g09/l302.exe)
 NPDir=0 NMtPBC=     1 NCelOv=     1 NCel=       1 NClECP=     1 NCelD=      1
         NCelK=      1 NCelE2=     1 NClLst=     1 CellRange=     0.0.
 One-electron integrals computed using PRISM.
 NBasis=   174 RedAO= T  NBF=   174
 NBsUse=   174 1.00D-06 NBFU=   174
 Precomputing XC quadrature grid using
 IXCGrd= 2 IRadAn=           0 IRanWt=          -1 IRanGd=           0 AccXCQ= 1.00D-10.
 NRdTot=    1389 NPtTot=      176578 NUsed=      186600 NTot=      186632
 NSgBfM=   173   173   173   173   173 NAtAll=    22    22.
 Leave Link  302 at Thu Sep 30 11:41:36 2021, MaxMem=  805306368 cpu:       1.4
 (Enter /sw/target/amd/app/gaussian/Gaussian09RevA.02_gcc-4.9.2/g09/l303.exe)
 DipDrv:  MaxL=1.
 Leave Link  303 at Thu Sep 30 11:41:36 2021, MaxMem=  805306368 cpu:       0.1
 (Enter /sw/target/amd/app/gaussian/Gaussian09RevA.02_gcc-4.9.2/g09/l401.exe)
 Initial guess read from the read-write file.
 B after Tr=     0.000000    0.000000    0.000000
         Rot=    1.000000    0.000000    0.000000    0.000000 Ang=   0.00 deg.
 Guess basis will be translated and rotated to current coordinates.
 Initial guess orbital symmetries:
       Occupied  (A) (A) (A) (A) (A) (A) (A) (A) (A) (A) (A) (A)
                 (A) (A) (A) (A) (A) (A) (A) (A) (A) (A) (A) (A)
                 (A) (A) (A) (A) (A) (A) (A) (A) (A) (A) (A) (A)
                 (A)
       Virtual   (A) (A) (A) (A) (A) (A) (A) (A) (A) (A) (A) (A)
                 (A) (A) (A) (A) (A) (A) (A) (A) (A) (A) (A) (A)
                 (A) (A) (A) (A) (A) (A) (A) (A) (A) (A) (A) (A)
                 (A) (A) (A) (A) (A) (A) (A) (A) (A) (A) (A) (A)
                 (A) (A) (A) (A) (A) (A) (A) (A) (A) (A) (A) (A)
                 (A) (A) (A) (A) (A) (A) (A) (A) (A) (A) (A) (A)
                 (A) (A) (A) (A) (A) (A) (A) (A) (A) (A) (A) (A)
                 (A) (A) (A) (A) (A) (A) (A) (A) (A) (A) (A) (A)
                 (A) (A) (A) (A) (A) (A) (A) (A) (A) (A) (A) (A)
                 (A) (A) (A) (A) (A) (A) (A) (A) (A) (A) (A) (A)
                 (A) (A) (A) (A) (A) (A) (A) (A) (A) (A) (A) (A)
                 (A) (A) (A) (A) (A)
 The electronic state of the initial guess is 1-A.
 Generating alternative initial guess.
 Harris functional with IExCor=  402 diagonalized for initial guess.
 ExpMin= 1.61D-01 ExpMax= 5.48D+03 ExpMxC= 8.25D+02 IAcc=1 IRadAn=         1 AccDes= 0.00D+00
 HarFok:  IExCor=  402 AccDes= 0.00D+00 IRadAn=         1 IDoV= 1
 ScaDFX=  1.000000  1.000000  1.000000  1.000000
 FoFCou: FMM=F IPFlag=           0 FMFlag=      100000 FMFlg1=           0
         NFxFlg=           0 DoJE=T BraDBF=F KetDBF=T FulRan=T
         Omega=  0.000000  0.000000  1.000000  0.000000  0.000000 ICntrl=     500 IOpCl=  0
         NMat0=    1 NMatS0=    1 NMatT0=    0 NMatD0=    1 NMtDS0=    0 NMtDT0=    0
         I1Cent=           4 NGrid=           0.
 Petite list used in FoFCou.
 Harris En= -425.487252268583    
 Leave Link  401 at Thu Sep 30 11:41:46 2021, MaxMem=  805306368 cpu:       6.5
 (Enter /sw/target/amd/app/gaussian/Gaussian09RevA.02_gcc-4.9.2/g09/l502.exe)
 Closed shell SCF:
 Requested convergence on RMS density matrix=1.00D-08 within  64 cycles.
 Requested convergence on MAX density matrix=1.00D-06.
 Requested convergence on             energy=1.00D-06.
 No special actions if energy rises.
 Using DIIS extrapolation, IDIIS=  1040.
 Integral symmetry usage will be decided dynamically.
       186389 words used for storage of precomputed grid.
 Keep R1 ints in memory in canonical form, NReq=118872664.
 IEnd=      285125 IEndB=      285125 NGot=   805306368 MDV=   689147965
 LenX=   689147965 LenY=   689117248
 Symmetry not used in FoFDir.
 MinBra= 0 MaxBra= 2 Meth= 1.
 IRaf=       0 NMat=   1 IRICut=       1 DoRegI=T DoRafI=F ISym2E= 0 JSym2E=0.
 Integral accuracy reduced to 1.0D-05 until final iterations.

 Cycle   1  Pass 0  IDiag  1:
 E= -425.407140446868    
 DIIS: error= 1.11D-03 at cycle   1 NSaved=   1.
 NSaved= 1 IEnMin= 1 EnMin= -425.407140446868     IErMin= 1 ErrMin= 1.11D-03
 ErrMax= 1.11D-03 EMaxC= 1.00D-01 BMatC= 4.46D-04 BMatP= 4.46D-04
 IDIUse=3 WtCom= 9.89D-01 WtEn= 1.11D-02
 Coeff-Com:  0.100D+01
 Coeff-En:   0.100D+01
 Coeff:      0.100D+01
 Gap=     0.214 Goal=   None    Shift=    0.000
 GapD=    0.214 DampG=1.000 DampE=1.000 DampFc=1.0000 IDamp=-1.
 RMSDP=2.87D-04 MaxDP=3.97D-03              OVMax= 6.27D-03

 Cycle   2  Pass 0  IDiag  1:
 E= -425.407863155540     Delta-E=       -0.000722708672 Rises=F Damp=F
 DIIS: error= 2.58D-04 at cycle   2 NSaved=   2.
 NSaved= 2 IEnMin= 2 EnMin= -425.407863155540     IErMin= 2 ErrMin= 2.58D-04
[...]
    11  H   -0.026380  -0.000151  -0.000151   0.000020   0.000000   0.000000
    12  H   -0.030025  -0.005737   0.005010   0.000003   0.000000  -0.000000
    13  H    0.544058   0.005010  -0.005738   0.000003   0.000000  -0.000000
    14  H    0.005010   0.599094  -0.052633   0.001689   0.000001  -0.000000
    15  H   -0.005738  -0.052633   0.599086   0.001688   0.000001  -0.000000
    16  H    0.000003   0.001689   0.001688   0.609862  -0.006216   0.000017
    17  H    0.000000   0.000001   0.000001  -0.006216   0.620098  -0.000212
    18  H   -0.000000  -0.000000  -0.000000   0.000017  -0.000212   0.626845
    19  H    0.000009   0.000024   0.000024  -0.000188   0.000017  -0.007111
    20  H    0.000000   0.000000   0.000000  -0.000010   0.007319   0.000025
    21  H    0.000000  -0.000000   0.000000   0.000003   0.000121   0.002042
    22  H   -0.000000   0.000000  -0.000000   0.000003   0.000121   0.002046
             19         20         21         22
     1  C   -0.000018  -0.000000   0.000000   0.000000
     2  C   -0.000268   0.000000   0.000000   0.000000
     3  O   -0.000937  -0.000000  -0.000000  -0.000000
     4  C   -0.040944   0.000003   0.000011   0.000011
     5  C    0.007409   0.000112  -0.000129  -0.000129
     6  C    0.000255  -0.002240  -0.000053  -0.000049
     7  C    0.004403  -0.028963  -0.026640  -0.026640
     8  C   -0.039655   0.003526   0.001304   0.001303
     9  C    0.345808  -0.000156  -0.000215  -0.000214
    10  C   -0.000157   0.362471   0.352730   0.352723
    11  H    0.000000   0.000000   0.000000   0.000000
    12  H    0.000009   0.000000  -0.000000   0.000000
    13  H    0.000009   0.000000   0.000000  -0.000000
    14  H    0.000024   0.000000  -0.000000   0.000000
    15  H    0.000024   0.000000   0.000000  -0.000000
    16  H   -0.000188  -0.000010   0.000003   0.000003
    17  H    0.000017   0.007319   0.000121   0.000121
    18  H   -0.007111   0.000025   0.002042   0.002046
    19  H    0.609544   0.000003  -0.000002  -0.000002
    20  H    0.000003   0.559093  -0.028452  -0.028458
    21  H   -0.000002  -0.028452   0.570466  -0.037284
    22  H   -0.000002  -0.028458  -0.037284   0.570486
 Mulliken atomic charges:
              1
     1  C   -0.460233
     2  C   -0.042646
     3  O   -0.458881
     4  C    0.356589
     5  C   -0.199593
     6  C   -0.219414
     7  C    0.201923
     8  C   -0.212224
     9  C   -0.190029
    10  C   -0.533318
    11  H    0.153751
    12  H    0.167638
    13  H    0.167637
    14  H    0.159880
    15  H    0.159884
    16  H    0.119157
    17  H    0.111781
    18  H    0.108414
    19  H    0.121774
    20  H    0.155726
    21  H    0.166099
    22  H    0.166085
 Sum of Mulliken atomic charges =  -0.00000
 Mulliken charges with hydrogens summed into heavy atoms:
              1
     1  C    0.028794
     2  C    0.277118
     3  O   -0.458881
     4  C    0.356589
     5  C   -0.080436
     6  C   -0.107633
     7  C    0.201923
     8  C   -0.103811
     9  C   -0.068255
    10  C   -0.045408
 Sum of Mulliken charges with hydrogens summed into heavy atoms =  -0.00000
 Electronic spatial extent (au):  <R**2>=           2035.0106
 Charge=             -0.0000 electrons
 Dipole moment (field-independent basis, Debye):
    X=             -1.6773    Y=             -1.2484    Z=              0.0006  Tot=              2.0909
 Quadrupole moment (field-independent basis, Debye-Ang):
   XX=            -48.9464   YY=            -58.7249   ZZ=            -62.6710
   XY=              2.5972   XZ=              0.0000   YZ=              0.0005
 Traceless Quadrupole moment (field-independent basis, Debye-Ang):
   XX=              7.8344   YY=             -1.9441   ZZ=             -5.8902
   XY=              2.5972   XZ=              0.0000   YZ=              0.0005
 Octapole moment (field-independent basis, Debye-Ang**2):
  XXX=            -21.4057  YYY=              0.6637  ZZZ=              0.0009  XYY=             -3.8134
  XXY=             -6.6034  XXZ=              0.0042  XZZ=             -8.1293  YZZ=              0.6432
  YYZ=             -0.0010  XYZ=             -0.0006
 Hexadecapole moment (field-independent basis, Debye-Ang**3):
 XXXX=          -2155.8277 YYYY=           -350.5594 ZZZZ=            -83.3212 XXXY=             18.0266
 XXXZ=              0.0077 YYYX=             -2.8717 YYYZ=              0.0017 ZZZX=              0.0072
 ZZZY=             -0.0006 XXYY=           -433.7930 XXZZ=           -394.6490 YYZZ=            -81.1222
 XXYZ=             -0.0006 YYXZ=             -0.0014 ZZXY=             -1.0398
 N-N= 4.981096828097D+02 E-N=-1.983344994324D+03  KE= 4.214962239805D+02
 No NMR shielding tensors so no spin-rotation constants.
 Leave Link  601 at Thu Sep 30 16:37:03 2021, MaxMem=  805306368 cpu:       0.8
 (Enter /sw/target/amd/app/gaussian/Gaussian09RevA.02_gcc-4.9.2/g09/l604.exe)
 Evaluate density.
 Using the total density.
 Monte-Carlo method of calculating molar volume:
 based on  0.001 e/bohr**3 density envelope.
 Number of points per bohr**3 =   20 CutOff= 1.00D-04
 Using the CI density.
 There are       373 points.  Will hold       373 in memory.
 LenV=   805209524 MDV=   805306368.
 Box volume = 6529.885 fraction occupied=0.206
 Integrated density= 4.9753058250188850D+01 error=-2.4246941749811150D+01
 Molar volume = 1347.992 bohr**3/mol (120.293 cm**3/mol)
 Recommended a0 for SCRF calculation =  4.49 angstrom (  8.49 bohr)
 Leave Link  604 at Thu Sep 30 16:37:04 2021, MaxMem=  805306368 cpu:       0.2
 (Enter /sw/target/amd/app/gaussian/Gaussian09RevA.02_gcc-4.9.2/g09/l607.exe)
 ******************************Gaussian NBO Version 3.1******************************
             N A T U R A L   A T O M I C   O R B I T A L   A N D
          N A T U R A L   B O N D   O R B I T A L   A N A L Y S I S
 ******************************Gaussian NBO Version 3.1******************************
       /RESON  / : Allow strongly delocalized NBO set

 Analyzing the CI density

 Job title: CCOc1ccc(cc1)C_conf_0                                           

 Storage needed:     92476 in NPA ( 805303728 available)


 NATURAL POPULATIONS:  Natural atomic orbital occupancies 
                                                          
   NAO  Atom  No  lang   Type(AO)    Occupancy
 --------------------------------------------
     1    C    1  S      Cor( 1S)     1.99945
     2    C    1  S      Val( 2S)     1.11274
     3    C    1  S      Ryd( 3S)     0.00051
     4    C    1  S      Ryd( 4S)     0.00001
     5    C    1  px     Val( 2p)     1.09771
     6    C    1  px     Ryd( 3p)     0.00158
     7    C    1  py     Val( 2p)     1.22433
     8    C    1  py     Ryd( 3p)     0.00167
     9    C    1  pz     Val( 2p)     1.25517
    10    C    1  pz     Ryd( 3p)     0.00134
    11    C    1  dxy    Ryd( 3d)     0.00085
    12    C    1  dxz    Ryd( 3d)     0.00020
    13    C    1  dyz    Ryd( 3d)     0.00106
    14    C    1  dx2y2  Ryd( 3d)     0.00032
    15    C    1  dz2    Ryd( 3d)     0.00073

    16    C    2  S      Cor( 1S)     1.99928
    17    C    2  S      Val( 2S)     1.03289
    18    C    2  S      Ryd( 3S)     0.00249
    19    C    2  S      Ryd( 4S)     0.00004
    20    C    2  px     Val( 2p)     0.90489
    21    C    2  px     Ryd( 3p)     0.00189
    22    C    2  py     Val( 2p)     0.92651
    23    C    2  py     Ryd( 3p)     0.00262
    24    C    2  pz     Val( 2p)     1.23611
    25    C    2  pz     Ryd( 3p)     0.00148
    26    C    2  dxy    Ryd( 3d)     0.00183
    27    C    2  dxz    Ryd( 3d)     0.00082
    28    C    2  dyz    Ryd( 3d)     0.00184
    29    C    2  dx2y2  Ryd( 3d)     0.00113
    30    C    2  dz2    Ryd( 3d)     0.00102

    31    O    3  S      Cor( 1S)     1.99974
    32    O    3  S      Val( 2S)     1.59908
    33    O    3  S      Ryd( 3S)     0.00109
    34    O    3  S      Ryd( 4S)     0.00008
    35    O    3  px     Val( 2p)     1.42578
    36    O    3  px     Ryd( 3p)     0.00118
    37    O    3  py     Val( 2p)     1.69531
    38    O    3  py     Ryd( 3p)     0.00225
    39    O    3  pz     Val( 2p)     1.70794
    40    O    3  pz     Ryd( 3p)     0.00237
    41    O    3  dxy    Ryd( 3d)     0.00134
    42    O    3  dxz    Ryd( 3d)     0.00061
    43    O    3  dyz    Ryd( 3d)     0.00135
    44    O    3  dx2y2  Ryd( 3d)     0.00132
    45    O    3  dz2    Ryd( 3d)     0.00073

    46    C    4  S      Cor( 1S)     1.99879
    47    C    4  S      Val( 2S)     0.84162
    48    C    4  S      Ryd( 3S)     0.00152
    49    C    4  S      Ryd( 4S)     0.00013
    50    C    4  px     Val( 2p)     0.74883
    51    C    4  px     Ryd( 3p)     0.00643
    52    C    4  py     Val( 2p)     1.08328
    53    C    4  py     Ryd( 3p)     0.00638
    54    C    4  pz     Val( 2p)     0.97111
    55    C    4  pz     Ryd( 3p)     0.00180
    56    C    4  dxy    Ryd( 3d)     0.00143
    57    C    4  dxz    Ryd( 3d)     0.00165
    58    C    4  dyz    Ryd( 3d)     0.00141
    59    C    4  dx2y2  Ryd( 3d)     0.00172
    60    C    4  dz2    Ryd( 3d)     0.00049

    61    C    5  S      Cor( 1S)     1.99905
    62    C    5  S      Val( 2S)     0.95648
    63    C    5  S      Ryd( 3S)     0.00064
    64    C    5  S      Ryd( 4S)     0.00005
    65    C    5  px     Val( 2p)     1.11609
    66    C    5  px     Ryd( 3p)     0.00379
    67    C    5  py     Val( 2p)     1.13882
    68    C    5  py     Ryd( 3p)     0.00416
    69    C    5  pz     Val( 2p)     1.11534
    70    C    5  pz     Ryd( 3p)     0.00604
    71    C    5  dxy    Ryd( 3d)     0.00082
    72    C    5  dxz    Ryd( 3d)     0.00057
    73    C    5  dyz    Ryd( 3d)     0.00046
    74    C    5  dx2y2  Ryd( 3d)     0.00055
    75    C    5  dz2    Ryd( 3d)     0.00047

    76    C    6  S      Cor( 1S)     1.99907
    77    C    6  S      Val( 2S)     0.94853
    78    C    6  S      Ryd( 3S)     0.00068
    79    C    6  S      Ryd( 4S)     0.00004
    80    C    6  px     Val( 2p)     1.06806
    81    C    6  px     Ryd( 3p)     0.00431
    82    C    6  py     Val( 2p)     1.16688
    83    C    6  py     Ryd( 3p)     0.00495
    84    C    6  pz     Val( 2p)     1.07387
    85    C    6  pz     Ryd( 3p)     0.00580
    86    C    6  dxy    Ryd( 3d)     0.00073
    87    C    6  dxz    Ryd( 3d)     0.00062
    88    C    6  dyz    Ryd( 3d)     0.00037
    89    C    6  dx2y2  Ryd( 3d)     0.00076
    90    C    6  dz2    Ryd( 3d)     0.00044

    91    C    7  S      Cor( 1S)     1.99904
    92    C    7  S      Val( 2S)     0.89530
    93    C    7  S      Ryd( 3S)     0.00047
    94    C    7  S      Ryd( 4S)     0.00005
    95    C    7  px     Val( 2p)     1.05518
    96    C    7  px     Ryd( 3p)     0.00447
    97    C    7  py     Val( 2p)     1.08553
    98    C    7  py     Ryd( 3p)     0.00437
    99    C    7  pz     Val( 2p)     0.90909
   100    C    7  pz     Ryd( 3p)     0.00266
   101    C    7  dxy    Ryd( 3d)     0.00086
   102    C    7  dxz    Ryd( 3d)     0.00056
   103    C    7  dyz    Ryd( 3d)     0.00107
   104    C    7  dx2y2  Ryd( 3d)     0.00071
   105    C    7  dz2    Ryd( 3d)     0.00034

   106    C    8  S      Cor( 1S)     1.99907
   107    C    8  S      Val( 2S)     0.94744
   108    C    8  S      Ryd( 3S)     0.00061
   109    C    8  S      Ryd( 4S)     0.00005
   110    C    8  px     Val( 2p)     1.10141
   111    C    8  px     Ryd( 3p)     0.00431
   112    C    8  py     Val( 2p)     1.13583
   113    C    8  py     Ryd( 3p)     0.00472
   114    C    8  pz     Val( 2p)     1.09740
   115    C    8  pz     Ryd( 3p)     0.00614
   116    C    8  dxy    Ryd( 3d)     0.00080
   117    C    8  dxz    Ryd( 3d)     0.00059
   118    C    8  dyz    Ryd( 3d)     0.00038
   119    C    8  dx2y2  Ryd( 3d)     0.00066
   120    C    8  dz2    Ryd( 3d)     0.00044

   121    C    9  S      Cor( 1S)     1.99907
   122    C    9  S      Val( 2S)     0.95799
   123    C    9  S      Ryd( 3S)     0.00086
   124    C    9  S      Ryd( 4S)     0.00004
   125    C    9  px     Val( 2p)     1.08157
   126    C    9  px     Ryd( 3p)     0.00548
   127    C    9  py     Val( 2p)     1.15709
   128    C    9  py     Ryd( 3p)     0.00445
   129    C    9  pz     Val( 2p)     1.09379
   130    C    9  pz     Ryd( 3p)     0.00680
   131    C    9  dxy    Ryd( 3d)     0.00084
   132    C    9  dxz    Ryd( 3d)     0.00067
   133    C    9  dyz    Ryd( 3d)     0.00039
   134    C    9  dx2y2  Ryd( 3d)     0.00053
   135    C    9  dz2    Ryd( 3d)     0.00046

   136    C   10  S      Cor( 1S)     1.99939
   137    C   10  S      Val( 2S)     1.10074
   138    C   10  S      Ryd( 3S)     0.00023
   139    C   10  S      Ryd( 4S)     0.00001
   140    C   10  px     Val( 2p)     1.09621
   141    C   10  px     Ryd( 3p)     0.00087
   142    C   10  py     Val( 2p)     1.25038
   143    C   10  py     Ryd( 3p)     0.00272
   144    C   10  pz     Val( 2p)     1.24022
   145    C   10  pz     Ryd( 3p)     0.00046
   146    C   10  dxy    Ryd( 3d)     0.00049
   147    C   10  dxz    Ryd( 3d)     0.00078
   148    C   10  dyz    Ryd( 3d)     0.00059
   149    C   10  dx2y2  Ryd( 3d)     0.00083
   150    C   10  dz2    Ryd( 3d)     0.00063

   151    H   11  S      Val( 1S)     0.75972
   152    H   11  S      Ryd( 2S)     0.00067

   153    H   12  S      Val( 1S)     0.75863
   154    H   12  S      Ryd( 2S)     0.00131

   155    H   13  S      Val( 1S)     0.75863
   156    H   13  S      Ryd( 2S)     0.00131

   157    H   14  S      Val( 1S)     0.77580
   158    H   14  S      Ryd( 2S)     0.00257

   159    H   15  S      Val( 1S)     0.77579
   160    H   15  S      Ryd( 2S)     0.00257

   161    H   16  S      Val( 1S)     0.77304
   162    H   16  S      Ryd( 2S)     0.00097

   163    H   17  S      Val( 1S)     0.77482
   164    H   17  S      Ryd( 2S)     0.00108

   165    H   18  S      Val( 1S)     0.77481
   166    H   18  S      Ryd( 2S)     0.00101

   167    H   19  S      Val( 1S)     0.76427
   168    H   19  S      Ryd( 2S)     0.00128

   169    H   20  S      Val( 1S)     0.76248
   170    H   20  S      Ryd( 2S)     0.00091

   171    H   21  S      Val( 1S)     0.75140
   172    H   21  S      Ryd( 2S)     0.00184

   173    H   22  S      Val( 1S)     0.75141
   174    H   22  S      Ryd( 2S)     0.00184

 WARNING:  1 low occupancy (<1.9990e) core orbital  found on  C    4


 Summary of Natural Population Analysis:                  
                                                          
                                       Natural Population 
                Natural  -----------------------------------------------
    Atom  No    Charge         Core      Valence    Rydberg      Total
 -----------------------------------------------------------------------
      C    1   -0.69768      1.99945     4.68995    0.00828     6.69768
      C    2   -0.11482      1.99928     4.10040    0.01515     6.11482
      O    3   -0.44018      1.99974     6.42810    0.01234     8.44018
      C    4    0.33342      1.99879     3.64485    0.02294     5.66658
      C    5   -0.34332      1.99905     4.32673    0.01754     6.34332
      C    6   -0.27513      1.99907     4.25735    0.01872     6.27513
      C    7    0.04028      1.99904     3.94510    0.01557     5.95972
      C    8   -0.29982      1.99907     4.28207    0.01868     6.29982
      C    9   -0.31005      1.99907     4.29045    0.02053     6.31005
      C   10   -0.69456      1.99939     4.68755    0.00762     6.69456
      H   11    0.23961      0.00000     0.75972    0.00067     0.76039
      H   12    0.24006      0.00000     0.75863    0.00131     0.75994
      H   13    0.24006      0.00000     0.75863    0.00131     0.75994
      H   14    0.22164      0.00000     0.77580    0.00257     0.77836
      H   15    0.22164      0.00000     0.77579    0.00257     0.77836
      H   16    0.22599      0.00000     0.77304    0.00097     0.77401
      H   17    0.22411      0.00000     0.77482    0.00108     0.77589
      H   18    0.22418      0.00000     0.77481    0.00101     0.77582
      H   19    0.23445      0.00000     0.76427    0.00128     0.76555
      H   20    0.23661      0.00000     0.76248    0.00091     0.76339
      H   21    0.24676      0.00000     0.75140    0.00184     0.75324
      H   22    0.24675      0.00000     0.75141    0.00184     0.75325
 =======================================================================
   * Total *   -0.00000     19.99195    53.83335    0.17470    74.00000

                                 Natural Population      
 --------------------------------------------------------
   Core                      19.99195 ( 99.9598% of  20)
   Valence                   53.83335 ( 99.6914% of  54)
   Natural Minimal Basis     73.82530 ( 99.7639% of  74)
   Natural Rydberg Basis      0.17470 (  0.2361% of  74)
 --------------------------------------------------------

    Atom  No          Natural Electron Configuration
 ----------------------------------------------------------------------------
      C    1      [core]2S( 1.11)2p( 3.58)
      C    2      [core]2S( 1.03)2p( 3.07)3p( 0.01)3d( 0.01)
      O    3      [core]2S( 1.60)2p( 4.83)3p( 0.01)3d( 0.01)
      C    4      [core]2S( 0.84)2p( 2.80)3p( 0.01)3d( 0.01)
      C    5      [core]2S( 0.96)2p( 3.37)3p( 0.01)
      C    6      [core]2S( 0.95)2p( 3.31)3p( 0.02)
      C    7      [core]2S( 0.90)2p( 3.05)3p( 0.01)
      C    8      [core]2S( 0.95)2p( 3.33)3p( 0.02)
      C    9      [core]2S( 0.96)2p( 3.33)3p( 0.02)
      C   10      [core]2S( 1.10)2p( 3.59)
      H   11            1S( 0.76)
      H   12            1S( 0.76)
      H   13            1S( 0.76)
      H   14            1S( 0.78)
      H   15            1S( 0.78)
      H   16            1S( 0.77)
      H   17            1S( 0.77)
      H   18            1S( 0.77)
      H   19            1S( 0.76)
      H   20            1S( 0.76)
      H   21            1S( 0.75)
      H   22            1S( 0.75)


 NBO analysis skipped by request.
 Leave Link  607 at Thu Sep 30 16:37:23 2021, MaxMem=  805306368 cpu:      10.8
 (Enter /sw/target/amd/app/gaussian/Gaussian09RevA.02_gcc-4.9.2/g09/l9999.exe)
 1\1\GINC-HERMITE\SP\RTD-B3LYP-FC\6-31G(d)\C9H12O1\JSCHLEINITZ\30-Sep-2
 021\0\\#p TD(NStates=10, Root=1) b3lyp/6-31G* volume pop=NPA density=c
 urrent Geom=AllCheck Guess=Read\\CCOc1ccc(cc1)C_conf_0\\0,1\C,0,2.6693
 659712,0.1836992554,0.8705976177\C,0,4.1549138032,-0.0551450523,0.6616
 154352\O,0,4.3681352754,-0.2417029204,-0.7351456248\C,0,5.6403436693,-
 0.4751773947,-1.1781206802\C,0,6.7720329692,-0.5484143775,-0.361182897
 4\C,0,8.0243983425,-0.7937218515,-0.9363117813\C,0,8.184798479,-0.9696
 520502,-2.3112305735\C,0,7.032887123,-0.8917970112,-3.1128322901\C,0,5
 .7814610074,-0.6494889025,-2.5635773179\C,0,9.5406179298,-1.2341096169
 ,-2.9242029739\H,0,2.456896901,0.333009124,1.9347713568\H,0,2.08798736
 92,-0.6734195383,0.5165507179\H,0,2.3413111331,1.072307894,0.322185032
 9\H,0,4.4901161936,-0.9452694622,1.2139003829\H,0,4.7437152881,0.80226
 01365,1.0191951462\H,0,6.6973675888,-0.4183961165,0.7124271231\H,0,8.8
 950426886,-0.8476615036,-0.2861549161\H,0,7.1203294144,-1.0240357258,-
 4.1894445232\H,0,4.8938791774,-0.5900465587,-3.18621118\H,0,10.3243518
 172,-1.2632050134,-2.1601707466\H,0,9.8148848975,-0.4578072447,-3.6500
 194883\H,0,9.5632630842,-2.1928689725,-3.4579978901\\Version=AM64L-G09
 RevA.02\State=1-A\HF=-425.4080547\RMSD=5.279e-09\Dipole=-0.3018811,0.1
 278403,0.754464\Quadrupole=1.9768095,-4.038984,2.0621745,-1.3601405,-3
 .9472038,1.2876648\PG=C01 [X(C9H12O1)]\\@


 FLOATING POINT NUMBERS ARE LIKE SANDPILES:
 EVERY TIME THAT YOU MOVE ONE, YOU LOSE A LITTLE SAND 
 AND YOU PICK UP A LITTLE DIRT.
 Job cpu time:  0 days  1 hours 46 minutes 58.0 seconds.
 File lengths (MBytes):  RWF=    105 Int=      0 D2E=      0 Chk=     15 Scr=      1
 Normal termination of Gaussian 09 at Thu Sep 30 16:37:27 2021.
