 Entering Gaussian System, Link 0=g09
 Input=C9H10O3_cd0a_conf_0.com
 Output=C9H10O3_cd0a_conf_0.log
 Initial command:
 /sw/target/amd/app/gaussian/Gaussian09RevA.02_gcc-4.9.2/g09/l1.exe /home/jschleinitz/gaussian/Gau-493137.inp -scrdir=/home/jschleinitz/gaussian/
 Entering Link 1 = /sw/target/amd/app/gaussian/Gaussian09RevA.02_gcc-4.9.2/g09/l1.exe PID=    493147.
  
 Copyright (c) 1988,1990,1992,1993,1995,1998,2003,2009, Gaussian, Inc.
                  All Rights Reserved.
  
 This is part of the Gaussian(R) 09 program.  It is based on
 the Gaussian(R) 03 system (copyright 2003, Gaussian, Inc.),
 the Gaussian(R) 98 system (copyright 1998, Gaussian, Inc.),
 the Gaussian(R) 94 system (copyright 1995, Gaussian, Inc.),
 the Gaussian 92(TM) system (copyright 1992, Gaussian, Inc.),
 the Gaussian 90(TM) system (copyright 1990, Gaussian, Inc.),
 the Gaussian 88(TM) system (copyright 1988, Gaussian, Inc.),
 the Gaussian 86(TM) system (copyright 1986, Carnegie Mellon
 University), and the Gaussian 82(TM) system (copyright 1983,
 Carnegie Mellon University). Gaussian is a federally registered
 trademark of Gaussian, Inc.
  
 This software contains proprietary and confidential information,
 including trade secrets, belonging to Gaussian, Inc.
  
 This software is provided under written license and may be
 used, copied, transmitted, or stored only in accord with that
 written license.
  
 The following legend is applicable only to US Government
 contracts under FAR:
  
                    RESTRICTED RIGHTS LEGEND
  
 Use, reproduction and disclosure by the US Government is
 subject to restrictions as set forth in subparagraphs (a)
 and (c) of the Commercial Computer Software - Restricted
 Rights clause in FAR 52.227-19.
  
 Gaussian, Inc.
 340 Quinnipiac St., Bldg. 40, Wallingford CT 06492
  
  
 ---------------------------------------------------------------
 Warning -- This program may not be used in any manner that
 competes with the business of Gaussian, Inc. or will provide
 assistance to any competitor of Gaussian, Inc.  The licensee
 of this program is prohibited from giving any competitor of
 Gaussian, Inc. access to this program.  By using this program,
 the user acknowledges that Gaussian, Inc. is engaged in the
 business of creating and licensing software in the field of
 computational chemistry and represents and warrants to the
 licensee that it is not a competitor of Gaussian, Inc. and that
 it will not use this program in any manner prohibited above.
 ---------------------------------------------------------------
  

 Cite this work as:
 Gaussian 09, Revision A.02,
 M. J. Frisch, G. W. Trucks, H. B. Schlegel, G. E. Scuseria, 
 M. A. Robb, J. R. Cheeseman, G. Scalmani, V. Barone, B. Mennucci, 
 G. A. Petersson, H. Nakatsuji, M. Caricato, X. Li, H. P. Hratchian, 
 A. F. Izmaylov, J. Bloino, G. Zheng, J. L. Sonnenberg, M. Hada, 
 M. Ehara, K. Toyota, R. Fukuda, J. Hasegawa, M. Ishida, T. Nakajima, 
 Y. Honda, O. Kitao, H. Nakai, T. Vreven, J. A. Montgomery, Jr., 
 J. E. Peralta, F. Ogliaro, M. Bearpark, J. J. Heyd, E. Brothers, 
 K. N. Kudin, V. N. Staroverov, R. Kobayashi, J. Normand, 
 K. Raghavachari, A. Rendell, J. C. Burant, S. S. Iyengar, J. Tomasi, 
 M. Cossi, N. Rega, J. M. Millam, M. Klene, J. E. Knox, J. B. Cross, 
 V. Bakken, C. Adamo, J. Jaramillo, R. Gomperts, R. E. Stratmann, 
 O. Yazyev, A. J. Austin, R. Cammi, C. Pomelli, J. W. Ochterski, 
 R. L. Martin, K. Morokuma, V. G. Zakrzewski, G. A. Voth, 
 P. Salvador, J. J. Dannenberg, S. Dapprich, A. D. Daniels, 
 O. Farkas, J. B. Foresman, J. V. Ortiz, J. Cioslowski, 
 and D. J. Fox, Gaussian, Inc., Wallingford CT, 2009.
 
 ******************************************
 Gaussian 09:  AM64L-G09RevA.02 11-Jun-2009
                29-Sep-2021 
 ******************************************
 %nproc=3
 Will use up to    3 processors via shared memory.
 %mem=6gb
 %chk=C9H10O3_cd0a_conf_0.chk
 -----------------------------------
 #p opt b3lyp/6-31G* scf=(xqc,tight)
 -----------------------------------
 1/14=-1,18=20,19=15,26=3,38=1/1,3;
 2/9=110,12=2,17=6,18=5,40=1/2;
 3/5=1,6=6,7=1,11=2,16=1,25=1,30=1,71=1,74=-5/1,2,3;
 4//1;
 5/5=2,8=3,13=1,32=2,38=5/2,8;
 6/7=2,8=2,9=2,10=2,28=1/1;
 7//1,2,3,16;
 1/14=-1,18=20,19=15/3(2);
 2/9=110/2;
 99//99;
 2/9=110/2;
 3/5=1,6=6,7=1,11=2,16=1,25=1,30=1,71=1,74=-5/1,2,3;
 4/5=5,16=3/1;
 5/5=2,8=3,13=1,32=2,38=5/2,8;
 7//1,2,3,16;
 1/14=-1,18=20,19=15/3(-5);
 2/9=110/2;
 6/7=2,8=2,9=2,10=2,19=2,28=1/1;
 99/9=1/99;
 Leave Link    1 at Wed Sep 29 00:38:54 2021, MaxMem=  805306368 cpu:       0.1
 (Enter /sw/target/amd/app/gaussian/Gaussian09RevA.02_gcc-4.9.2/g09/l101.exe)
 --------------------------
 COc1cccc(c1)C(=O)OC_conf_0
 --------------------------
 Symbolic Z-matrix:
 Charge =  0 Multiplicity = 1
 C                     1.74334   0.18865  -1.86217 
 O                     2.73172  -0.52696  -1.13256 
 C                     3.47288  -1.44341  -1.82698 
 C                     3.32189  -1.76804  -3.17584 
 C                     4.16154  -2.71574  -3.77078 
 C                     5.15355  -3.34392  -3.0184 
 C                     5.29737  -3.03705  -1.66175 
 C                     4.45859  -2.08301  -1.07157 
 C                     6.35909  -3.72361  -0.8885 
 O                     7.36394  -4.1985   -1.39172 
 O                     6.01266  -3.77369   0.42229 
 C                     6.95432  -4.43815   1.26566 
 H                     1.26772   0.89539  -1.17549 
 H                     0.9671   -0.48638  -2.2371 
 H                     2.19281   0.76715  -2.67611 
 H                     2.56267  -1.3012   -3.79499 
 H                     4.04164  -2.96235  -4.82429 
 H                     5.80698  -4.07669  -3.48845 
 H                     4.57206  -1.82134  -0.02306 
 H                     6.43606  -4.72941   2.18384 
 H                     7.76013  -3.74552   1.52354 
 H                     7.35676  -5.34346   0.80083 
 
 NAtoms=     22 NQM=     22 NQMF=      0 NMic=      0 NMicF=      0 NTot=     22.
                    Isotopes and Nuclear Properties:
 (Nuclear quadrupole moments (NQMom) in fm**2, nuclear magnetic moments (NMagM)
  in nuclear magnetons)

  Atom         1           2           3           4           5           6           7           8           9          10
 IAtWgt=          12          16          12          12          12          12          12          12          12          16
 AtmWgt=  12.0000000  15.9949146  12.0000000  12.0000000  12.0000000  12.0000000  12.0000000  12.0000000  12.0000000  15.9949146
 NucSpn=           0           0           0           0           0           0           0           0           0           0
 AtZEff=   0.0000000   0.0000000   0.0000000   0.0000000   0.0000000   0.0000000   0.0000000   0.0000000   0.0000000   0.0000000
 NQMom=    0.0000000   0.0000000   0.0000000   0.0000000   0.0000000   0.0000000   0.0000000   0.0000000   0.0000000   0.0000000
 NMagM=    0.0000000   0.0000000   0.0000000   0.0000000   0.0000000   0.0000000   0.0000000   0.0000000   0.0000000   0.0000000

  Atom        11          12          13          14          15          16          17          18          19          20
 IAtWgt=          16          12           1           1           1           1           1           1           1           1
 AtmWgt=  15.9949146  12.0000000   1.0078250   1.0078250   1.0078250   1.0078250   1.0078250   1.0078250   1.0078250   1.0078250
 NucSpn=           0           0           1           1           1           1           1           1           1           1
 AtZEff=   0.0000000   0.0000000   0.0000000   0.0000000   0.0000000   0.0000000   0.0000000   0.0000000   0.0000000   0.0000000
 NQMom=    0.0000000   0.0000000   0.0000000   0.0000000   0.0000000   0.0000000   0.0000000   0.0000000   0.0000000   0.0000000
 NMagM=    0.0000000   0.0000000   2.7928460   2.7928460   2.7928460   2.7928460   2.7928460   2.7928460   2.7928460   2.7928460

  Atom        21          22
 IAtWgt=           1           1
 AtmWgt=   1.0078250   1.0078250
 NucSpn=           1           1
 AtZEff=   0.0000000   0.0000000
 NQMom=    0.0000000   0.0000000
 NMagM=    2.7928460   2.7928460
 Leave Link  101 at Wed Sep 29 00:38:55 2021, MaxMem=  805306368 cpu:       0.2
 (Enter /sw/target/amd/app/gaussian/Gaussian09RevA.02_gcc-4.9.2/g09/l103.exe)

 GradGradGradGradGradGradGradGradGradGradGradGradGradGradGradGradGradGrad
 Berny optimization.
 Initialization pass.
                           ----------------------------
                           !    Initial Parameters    !
                           ! (Angstroms and Degrees)  !
 --------------------------                            --------------------------
 ! Name  Definition              Value          Derivative Info.                !
 --------------------------------------------------------------------------------
 ! R1    R(1,2)                  1.4217         estimate D2E/DX2                !
 ! R2    R(1,13)                 1.0942         estimate D2E/DX2                !
 ! R3    R(1,14)                 1.0949         estimate D2E/DX2                !
 ! R4    R(1,15)                 1.0951         estimate D2E/DX2                !
 ! R5    R(2,3)                  1.368          estimate D2E/DX2                !
 ! R6    R(3,4)                  1.3956         estimate D2E/DX2                !
 ! R7    R(3,8)                  1.3969         estimate D2E/DX2                !
 ! R8    R(4,5)                  1.399          estimate D2E/DX2                !
 ! R9    R(4,16)                 1.0852         estimate D2E/DX2                !
 ! R10   R(5,6)                  1.3946         estimate D2E/DX2                !
 ! R11   R(5,17)                 1.0886         estimate D2E/DX2                !
 ! R12   R(6,7)                  1.3983         estimate D2E/DX2                !
 ! R13   R(6,18)                 1.0885         estimate D2E/DX2                !
 ! R14   R(7,8)                  1.4007         estimate D2E/DX2                !
 ! R15   R(7,9)                  1.4821         estimate D2E/DX2                !
 ! R16   R(8,19)                 1.0866         estimate D2E/DX2                !
 ! R17   R(9,10)                 1.22           estimate D2E/DX2                !
 ! R18   R(9,11)                 1.3567         estimate D2E/DX2                !
 ! R19   R(11,12)                1.4281         estimate D2E/DX2                !
 ! R20   R(12,20)                1.0938         estimate D2E/DX2                !
 ! R21   R(12,21)                1.0934         estimate D2E/DX2                !
 ! R22   R(12,22)                1.0944         estimate D2E/DX2                !
 ! A1    A(2,1,13)             107.7725         estimate D2E/DX2                !
 ! A2    A(2,1,14)             110.9945         estimate D2E/DX2                !
 ! A3    A(2,1,15)             111.2231         estimate D2E/DX2                !
 ! A4    A(13,1,14)            107.7545         estimate D2E/DX2                !
 ! A5    A(13,1,15)            107.6779         estimate D2E/DX2                !
 ! A6    A(14,1,15)            111.2333         estimate D2E/DX2                !
 ! A7    A(1,2,3)              116.9583         estimate D2E/DX2                !
 ! A8    A(2,3,4)              126.0042         estimate D2E/DX2                !
 ! A9    A(2,3,8)              114.4897         estimate D2E/DX2                !
 ! A10   A(4,3,8)              119.506          estimate D2E/DX2                !
 ! A11   A(3,4,5)              120.2443         estimate D2E/DX2                !
 ! A12   A(3,4,16)             121.8073         estimate D2E/DX2                !
 ! A13   A(5,4,16)             117.9483         estimate D2E/DX2                !
 ! A14   A(4,5,6)              120.1758         estimate D2E/DX2                !
 ! A15   A(4,5,17)             119.9289         estimate D2E/DX2                !
 ! A16   A(6,5,17)             119.8952         estimate D2E/DX2                !
 ! A17   A(5,6,7)              119.8503         estimate D2E/DX2                !
 ! A18   A(5,6,18)             119.8205         estimate D2E/DX2                !
 ! A19   A(7,6,18)             120.3274         estimate D2E/DX2                !
 ! A20   A(6,7,8)              119.7792         estimate D2E/DX2                !
 ! A21   A(6,7,9)              118.5676         estimate D2E/DX2                !
 ! A22   A(8,7,9)              121.646          estimate D2E/DX2                !
 ! A23   A(3,8,7)              120.434          estimate D2E/DX2                !
 ! A24   A(3,8,19)             119.0282         estimate D2E/DX2                !
 ! A25   A(7,8,19)             120.5342         estimate D2E/DX2                !
 ! A26   A(7,9,10)             123.721          estimate D2E/DX2                !
 ! A27   A(7,9,11)             109.7702         estimate D2E/DX2                !
 ! A28   A(10,9,11)            126.4726         estimate D2E/DX2                !
 ! A29   A(9,11,12)            114.7949         estimate D2E/DX2                !
 ! A30   A(11,12,20)           107.8909         estimate D2E/DX2                !
 ! A31   A(11,12,21)           109.2984         estimate D2E/DX2                !
 ! A32   A(11,12,22)           112.1194         estimate D2E/DX2                !
 ! A33   A(20,12,21)           108.655          estimate D2E/DX2                !
 ! A34   A(20,12,22)           108.0891         estimate D2E/DX2                !
 ! A35   A(21,12,22)           110.6824         estimate D2E/DX2                !
 ! D1    D(13,1,2,3)          -178.2531         estimate D2E/DX2                !
 ! D2    D(14,1,2,3)            63.972          estimate D2E/DX2                !
 ! D3    D(15,1,2,3)           -60.4419         estimate D2E/DX2                !
 ! D4    D(1,2,3,4)             -1.9904         estimate D2E/DX2                !
 ! D5    D(1,2,3,8)            177.9065         estimate D2E/DX2                !
 ! D6    D(2,3,4,5)            179.1607         estimate D2E/DX2                !
 ! D7    D(2,3,4,16)            -0.686          estimate D2E/DX2                !
 ! D8    D(8,3,4,5)             -0.7315         estimate D2E/DX2                !
 ! D9    D(8,3,4,16)           179.4218         estimate D2E/DX2                !
 ! D10   D(2,3,8,7)           -179.4707         estimate D2E/DX2                !
 ! D11   D(2,3,8,19)            -0.1535         estimate D2E/DX2                !
 ! D12   D(4,3,8,7)              0.4335         estimate D2E/DX2                !
 ! D13   D(4,3,8,19)           179.7507         estimate D2E/DX2                !
 ! D14   D(3,4,5,6)              0.1165         estimate D2E/DX2                !
 ! D15   D(3,4,5,17)          -179.7716         estimate D2E/DX2                !
 ! D16   D(16,4,5,6)           179.969          estimate D2E/DX2                !
 ! D17   D(16,4,5,17)            0.0809         estimate D2E/DX2                !
 ! D18   D(4,5,6,7)              0.8007         estimate D2E/DX2                !
 ! D19   D(4,5,6,18)          -179.6872         estimate D2E/DX2                !
 ! D20   D(17,5,6,7)          -179.3111         estimate D2E/DX2                !
 ! D21   D(17,5,6,18)            0.201          estimate D2E/DX2                !
 ! D22   D(5,6,7,8)             -1.0944         estimate D2E/DX2                !
 ! D23   D(5,6,7,9)            179.8703         estimate D2E/DX2                !
 ! D24   D(18,6,7,8)           179.3959         estimate D2E/DX2                !
 ! D25   D(18,6,7,9)             0.3607         estimate D2E/DX2                !
 ! D26   D(6,7,8,3)              0.4789         estimate D2E/DX2                !
 ! D27   D(6,7,8,19)          -178.8279         estimate D2E/DX2                !
 ! D28   D(9,7,8,3)            179.4836         estimate D2E/DX2                !
 ! D29   D(9,7,8,19)             0.1767         estimate D2E/DX2                !
 ! D30   D(6,7,9,10)            24.1889         estimate D2E/DX2                !
 ! D31   D(6,7,9,11)          -153.7469         estimate D2E/DX2                !
 ! D32   D(8,7,9,10)          -154.8275         estimate D2E/DX2                !
 ! D33   D(8,7,9,11)            27.2367         estimate D2E/DX2                !
 ! D34   D(7,9,11,12)          178.9183         estimate D2E/DX2                !
 ! D35   D(10,9,11,12)           1.0534         estimate D2E/DX2                !
 ! D36   D(9,11,12,20)        -160.2251         estimate D2E/DX2                !
 ! D37   D(9,11,12,21)          81.7943         estimate D2E/DX2                !
 ! D38   D(9,11,12,22)         -41.3171         estimate D2E/DX2                !
 --------------------------------------------------------------------------------
 Trust Radius=3.00D-01 FncErr=1.00D-07 GrdErr=1.00D-06
 Number of steps in this run= 105 maximum allowed number of steps= 132.
 GradGradGradGradGradGradGradGradGradGradGradGradGradGradGradGradGradGrad

 Leave Link  103 at Wed Sep 29 00:38:55 2021, MaxMem=  805306368 cpu:       0.0
 (Enter /sw/target/amd/app/gaussian/Gaussian09RevA.02_gcc-4.9.2/g09/l202.exe)
                          Input orientation:                          
 ---------------------------------------------------------------------
 Center     Atomic      Atomic             Coordinates (Angstroms)
 Number     Number       Type             X           Y           Z
 ---------------------------------------------------------------------
      1          6           0        1.743344    0.188654   -1.862173
      2          8           0        2.731717   -0.526963   -1.132562
      3          6           0        3.472878   -1.443415   -1.826980
      4          6           0        3.321889   -1.768045   -3.175835
      5          6           0        4.161539   -2.715736   -3.770782
      6          6           0        5.153550   -3.343918   -3.018404
      7          6           0        5.297366   -3.037049   -1.661746
      8          6           0        4.458593   -2.083007   -1.071565
      9          6           0        6.359089   -3.723612   -0.888505
     10          8           0        7.363936   -4.198501   -1.391724
     11          8           0        6.012664   -3.773691    0.422293
     12          6           0        6.954315   -4.438145    1.265662
     13          1           0        1.267718    0.895385   -1.175493
     14          1           0        0.967097   -0.486376   -2.237105
     15          1           0        2.192813    0.767151   -2.676108
     16          1           0        2.562672   -1.301199   -3.794994
     17          1           0        4.041644   -2.962349   -4.824286
     18          1           0        5.806982   -4.076694   -3.488451
     19          1           0        4.572063   -1.821336   -0.023055
     20          1           0        6.436065   -4.729414    2.183840
     21          1           0        7.760126   -3.745518    1.523545
     22          1           0        7.356760   -5.343457    0.800828
 ---------------------------------------------------------------------
                    Distance matrix (angstroms):
                    1          2          3          4          5
     1  C    0.000000
     2  O    1.421732   0.000000
     3  C    2.378272   1.367999   0.000000
     4  C    2.836579   2.462429   1.395562   0.000000
     5  C    4.233903   3.714206   2.423102   1.398961   0.000000
     6  C    5.044347   4.166163   2.802867   2.421393   1.394550
     7  C    4.803791   3.628102   2.428112   2.793806   2.416895
     8  C    3.627407   2.325316   1.396912   2.412312   2.788254
     9  C    6.128536   4.841070   3.796083   4.275595   3.761989
    10  O    7.145594   5.916487   4.787513   5.042650   4.256038
    11  O    6.256682   4.870671   4.115815   4.920307   4.704021
    12  C    7.638379   6.235315   5.536537   6.328574   6.010995
    13  H    1.094175   2.041619   3.279810   3.913419   5.305650
    14  H    1.094897   2.082198   2.713497   2.840587   4.186487
    15  H    1.095067   2.085110   2.691874   2.819886   4.147854
    16  H    2.574249   2.777870   2.172966   1.085225   2.134919
    17  H    4.897460   4.612574   3.408005   2.159120   1.088606
    18  H    6.111557   5.254337   3.891361   3.406359   2.153927
    19  H    3.927348   2.508641   2.145967   3.392020   3.874783
    20  H    7.910704   6.510093   5.972013   6.869783   6.684751
    21  H    7.946222   6.534439   5.908145   6.759624   6.483839
    22  H    8.319030   6.951808   6.099200   6.699076   6.165548
                    6          7          8          9         10
     6  C    0.000000
     7  C    1.398347   0.000000
     8  C    2.421372   1.400732   0.000000
     9  C    2.476684   1.482068   2.517336   0.000000
    10  O    2.874406   2.385916   3.608163   1.220027   0.000000
    11  O    3.572280   2.323255   2.739556   1.356728   2.301534
    12  C    4.774234   3.643935   4.151859   2.346334   2.699429
    13  H    6.038850   5.651420   4.366154   6.880375   7.947220
    14  H    5.128583   5.058479   4.012264   6.432107   7.444065
    15  H    5.077797   5.013893   3.978909   6.381249   7.283396
    16  H    3.389460   3.878463   3.409223   5.359902   6.101000
    17  H    2.154794   3.403539   3.876854   4.630383   4.934387
    18  H    1.088521   2.162735   3.410906   2.681270   2.614423
    19  H    3.410059   2.165486   1.086610   2.749749   3.913915
    20  H    5.534238   4.353075   4.638052   3.233708   3.731953
    21  H    5.252125   4.088176   4.516487   2.789510   2.976735
    22  H    4.841366   3.952833   4.747185   2.544227   2.473512
                   11         12         13         14         15
    11  O    0.000000
    12  C    1.428102   0.000000
    13  H    6.846000   8.169649   0.000000
    14  H    6.583054   7.983272   1.768236   0.000000
    15  H    6.694072   8.081123   1.767509   1.807328   0.000000
    16  H    5.983409   7.398459   3.655636   2.374198   2.380499
    17  H    5.663019   6.910071   5.990865   4.719829   4.684231
    18  H    3.927854   4.903938   7.118726   6.154733   6.097947
    19  H    2.466852   3.766113   4.430280   4.436205   4.404518
    20  H    2.048346   1.093834   8.344776   8.213266   8.475642
    21  H    2.065713   1.093420   8.424615   8.420792   8.306397
    22  H    2.100963   1.094359   8.938984   8.581845   8.723243
                   16         17         18         19         20
    16  H    0.000000
    17  H    2.450759   0.000000
    18  H    4.280525   2.478434   0.000000
    19  H    4.305313   4.963373   4.315163   0.000000
    20  H    7.905839   7.613777   5.744273   4.099001   0.000000
    21  H    7.827839   7.398338   5.389299   4.032145   1.776845
    22  H    7.774620   6.949933   4.733330   4.564938   1.771285
                   21         22
    21  H    0.000000
    22  H    1.799564   0.000000
 Stoichiometry    C9H10O3
 Framework group  C1[X(C9H10O3)]
 Deg. of freedom    60
 Full point group                 C1      NOp   1
 Largest Abelian subgroup         C1      NOp   1
 Largest concise Abelian subgroup C1      NOp   1
                         Standard orientation:                         
 ---------------------------------------------------------------------
 Center     Atomic      Atomic             Coordinates (Angstroms)
 Number     Number       Type             X           Y           Z
 ---------------------------------------------------------------------
      1          6           0       -3.923554   -1.145570    0.078212
      2          8           0       -2.520957   -1.373814    0.122323
      3          6           0       -1.710559   -0.276309    0.021533
      4          6           0       -2.132851    1.041454   -0.159467
      5          6           0       -1.196219    2.078234   -0.229472
      6          6           0        0.166127    1.800648   -0.121161
      7          6           0        0.596631    0.480146    0.041054
      8          6           0       -0.344888   -0.554186    0.116886
      9          6           0        2.051102    0.217243    0.150250
     10          8           0        2.862727    1.046157    0.527917
     11          8           0        2.322513   -1.043397   -0.271452
     12          6           0        3.704095   -1.402996   -0.234097
     13          1           0       -4.423114   -2.111149    0.201964
     14          1           0       -4.224042   -0.736078   -0.891748
     15          1           0       -4.245641   -0.496847    0.899546
     16          1           0       -3.183534    1.298408   -0.247522
     17          1           0       -1.531530    3.104735   -0.367036
     18          1           0        0.889613    2.612393   -0.171319
     19          1           0       -0.024903   -1.582442    0.261864
     20          1           0        3.847058   -2.257588   -0.901710
     21          1           0        3.971650   -1.704577    0.782284
     22          1           0        4.350868   -0.590400   -0.579052
 ---------------------------------------------------------------------
 Rotational constants (GHZ):      1.9259689      0.5248976      0.4206434
 Leave Link  202 at Wed Sep 29 00:38:55 2021, MaxMem=  805306368 cpu:       0.0
 (Enter /sw/target/amd/app/gaussian/Gaussian09RevA.02_gcc-4.9.2/g09/l301.exe)
 Standard basis: 6-31G(d) (6D, 7F)
 Ernie: Thresh=  0.10000D-02 Tol=  0.10000D-05 Strict=F.
 There are   200 symmetry adapted basis functions of A   symmetry.
 Integral buffers will be    131072 words long.
 Raffenetti 2 integral format.
 Two-electron integral symmetry is turned on.
   200 basis functions,   376 primitive gaussians,   200 cartesian basis functions
    44 alpha electrons       44 beta electrons
       nuclear repulsion energy       671.4220136659 Hartrees.
 IExCor=  402 DFT=T Ex+Corr=B3LYP ExCW=0 ScaHFX=  0.200000
 ScaDFX=  0.800000  0.720000  1.000000  0.810000 ScalE2=  1.000000  1.000000
 IRadAn=      0 IRanWt=     -1 IRanGd=            0 ICorTp=0
 NAtoms=   22 NActive=   22 NUniq=   22 SFac= 7.50D-01 NAtFMM=   80 NAOKFM=F Big=F
 Leave Link  301 at Wed Sep 29 00:38:55 2021, MaxMem=  805306368 cpu:       0.1
 (Enter /sw/target/amd/app/gaussian/Gaussian09RevA.02_gcc-4.9.2/g09/l302.exe)
 NPDir=0 NMtPBC=     1 NCelOv=     1 NCel=       1 NClECP=     1 NCelD=      1
         NCelK=      1 NCelE2=     1 NClLst=     1 CellRange=     0.0.
 One-electron integrals computed using PRISM.
 NBasis=   200 RedAO= T  NBF=   200
 NBsUse=   200 1.00D-06 NBFU=   200
 Precomputing XC quadrature grid using
 IXCGrd= 2 IRadAn=           0 IRanWt=          -1 IRanGd=           0 AccXCQ= 1.00D-10.
 NRdTot=    1389 NPtTot=      177064 NUsed=      187086 NTot=      187118
 NSgBfM=   200   200   200   200   200 NAtAll=    22    22.
 Leave Link  302 at Wed Sep 29 00:38:59 2021, MaxMem=  805306368 cpu:       1.4
 (Enter /sw/target/amd/app/gaussian/Gaussian09RevA.02_gcc-4.9.2/g09/l303.exe)
 DipDrv:  MaxL=1.
 Leave Link  303 at Wed Sep 29 00:38:59 2021, MaxMem=  805306368 cpu:       0.1
 (Enter /sw/target/amd/app/gaussian/Gaussian09RevA.02_gcc-4.9.2/g09/l401.exe)
 Harris functional with IExCor=  402 diagonalized for initial guess.
 ExpMin= 1.61D-01 ExpMax= 5.48D+03 ExpMxC= 8.25D+02 IAcc=1 IRadAn=         1 AccDes= 0.00D+00
 HarFok:  IExCor=  402 AccDes= 0.00D+00 IRadAn=         1 IDoV= 1
 ScaDFX=  1.000000  1.000000  1.000000  1.000000
 FoFCou: FMM=F IPFlag=           0 FMFlag=      100000 FMFlg1=           0
         NFxFlg=           0 DoJE=T BraDBF=F KetDBF=T FulRan=T
         Omega=  0.000000  0.000000  1.000000  0.000000  0.000000 ICntrl=     500 IOpCl=  0
         NMat0=    1 NMatS0=    1 NMatT0=    0 NMatD0=    1 NMtDS0=    0 NMtDT0=    0
         I1Cent=           4 NGrid=           0.
 Petite list used in FoFCou.
 Harris En= -574.705696836228    
 Initial guess orbital symmetries:
       Occupied  (A) (A) (A) (A) (A) (A) (A) (A) (A) (A) (A) (A)
                 (A) (A) (A) (A) (A) (A) (A) (A) (A) (A) (A) (A)
                 (A) (A) (A) (A) (A) (A) (A) (A) (A) (A) (A) (A)
                 (A) (A) (A) (A) (A) (A) (A) (A)
       Virtual   (A) (A) (A) (A) (A) (A) (A) (A) (A) (A) (A) (A)
                 (A) (A) (A) (A) (A) (A) (A) (A) (A) (A) (A) (A)
                 (A) (A) (A) (A) (A) (A) (A) (A) (A) (A) (A) (A)
                 (A) (A) (A) (A) (A) (A) (A) (A) (A) (A) (A) (A)
                 (A) (A) (A) (A) (A) (A) (A) (A) (A) (A) (A) (A)
                 (A) (A) (A) (A) (A) (A) (A) (A) (A) (A) (A) (A)
                 (A) (A) (A) (A) (A) (A) (A) (A) (A) (A) (A) (A)
                 (A) (A) (A) (A) (A) (A) (A) (A) (A) (A) (A) (A)
                 (A) (A) (A) (A) (A) (A) (A) (A) (A) (A) (A) (A)
                 (A) (A) (A) (A) (A) (A) (A) (A) (A) (A) (A) (A)
                 (A) (A) (A) (A) (A) (A) (A) (A) (A) (A) (A) (A)
                 (A) (A) (A) (A) (A) (A) (A) (A) (A) (A) (A) (A)
                 (A) (A) (A) (A) (A) (A) (A) (A) (A) (A) (A) (A)
 The electronic state of the initial guess is 1-A.
 Leave Link  401 at Wed Sep 29 00:39:07 2021, MaxMem=  805306368 cpu:       6.0
 (Enter /sw/target/amd/app/gaussian/Gaussian09RevA.02_gcc-4.9.2/g09/l502.exe)
 Closed shell SCF:
 Requested convergence on RMS density matrix=1.00D-08 within  64 cycles.
 Requested convergence on MAX density matrix=1.00D-06.
 Requested convergence on             energy=1.00D-06.
 No special actions if energy rises.
 Using DIIS extrapolation, IDIIS=  1040.
 Integral symmetry usage will be decided dynamically.
       186875 words used for storage of precomputed grid.
 Keep R1 ints in memory in canonical form, NReq=206390389.
 IEnd=      315125 IEndB=      315125 NGot=   805306368 MDV=   603020590
 LenX=   603020590 LenY=   602980149
 Symmetry not used in FoFDir.
 MinBra= 0 MaxBra= 2 Meth= 1.
 IRaf=       0 NMat=   1 IRICut=       1 DoRegI=T DoRafI=F ISym2E= 0 JSym2E=0.
 Integral accuracy reduced to 1.0D-05 until final iterations.

 Cycle   1  Pass 0  IDiag  1:
 E= -574.368971059655    
 DIIS: error= 3.02D-02 at cycle   1 NSaved=   1.
 NSaved= 1 IEnMin= 1 EnMin= -574.368971059655     IErMin= 1 ErrMin= 3.02D-02
 ErrMax= 3.02D-02 EMaxC= 1.00D-01 BMatC= 2.95D-01 BMatP= 2.95D-01
 IDIUse=3 WtCom= 6.98D-01 WtEn= 3.02D-01
 Coeff-Com:  0.100D+01
 Coeff-En:   0.100D+01
 Coeff:      0.100D+01
 Gap=     0.187 Goal=   None    Shift=    0.000
 GapD=    0.187 DampG=1.000 DampE=0.500 DampFc=0.5000 IDamp=-1.
 Damping current iteration by 5.00D-01
 RMSDP=5.93D-03 MaxDP=2.02D-01              OVMax= 2.38D-01

 Cycle   2  Pass 0  IDiag  1:
 E= -574.464943001371     Delta-E=       -0.095971941715 Rises=F Damp=T
 DIIS: error= 1.06D-02 at cycle   2 NSaved=   2.
 NSaved= 2 IEnMin= 2 EnMin= -574.464943001371     IErMin= 2 ErrMin= 1.06D-02
 ErrMax= 1.06D-02 EMaxC= 1.00D-01 BMatC= 4.08D-02 BMatP= 2.95D-01
 IDIUse=3 WtCom= 8.94D-01 WtEn= 1.06D-01
 Coeff-Com:  0.179D+00 0.821D+00
 Coeff-En:   0.261D+00 0.739D+00
 Coeff:      0.188D+00 0.812D+00
 Gap=     0.222 Goal=   None    Shift=    0.000
 RMSDP=1.85D-03 MaxDP=6.31D-02 DE=-9.60D-02 OVMax= 1.55D-01

 Cycle   3  Pass 0  IDiag  1:
 E= -574.604244554970     Delta-E=       -0.139301553599 Rises=F Damp=F
 DIIS: error= 1.42D-02 at cycle   3 NSaved=   3.
 NSaved= 3 IEnMin= 3 EnMin= -574.604244554970     IErMin= 2 ErrMin= 1.06D-02
 ErrMax= 1.42D-02 EMaxC= 1.00D-01 BMatC= 4.99D-02 BMatP= 4.08D-02
 IDIUse=2 WtCom= 0.00D+00 WtEn= 1.00D+00
 Coeff-En:   0.000D+00 0.000D+00 0.100D+01
 Coeff:      0.000D+00 0.000D+00 0.100D+01
 Gap=     0.191 Goal=   None    Shift=    0.000
 RMSDP=3.29D-03 MaxDP=1.46D-01 DE=-1.39D-01 OVMax= 2.11D-01

 Cycle   4  Pass 0  IDiag  1:
 E= -574.396031093456     Delta-E=        0.208213461514 Rises=F Damp=F
 DIIS: error= 3.60D-02 at cycle   4 NSaved=   4.
 NSaved= 4 IEnMin= 3 EnMin= -574.604244554970     IErMin= 2 ErrMin= 1.06D-02
 ErrMax= 3.60D-02 EMaxC= 1.00D-01 BMatC= 3.13D-01 BMatP= 4.08D-02
 IDIUse=2 WtCom= 0.00D+00 WtEn= 1.00D+00
 Coeff-En:   0.000D+00 0.000D+00 0.801D+00 0.199D+00
 Coeff:      0.000D+00 0.000D+00 0.801D+00 0.199D+00
 Gap=     0.208 Goal=   None    Shift=    0.000
 RMSDP=1.74D-03 MaxDP=7.69D-02 DE= 2.08D-01 OVMax= 1.32D-01

 Cycle   5  Pass 0  IDiag  1:
 E= -574.627951313081     Delta-E=       -0.231920219626 Rises=F Damp=F
 DIIS: error= 9.56D-03 at cycle   5 NSaved=   5.
 NSaved= 5 IEnMin= 5 EnMin= -574.627951313081     IErMin= 5 ErrMin= 9.56D-03
 ErrMax= 9.56D-03 EMaxC= 1.00D-01 BMatC= 2.26D-02 BMatP= 4.08D-02
 IDIUse=3 WtCom= 9.04D-01 WtEn= 9.56D-02
 Coeff-Com: -0.582D-02 0.410D-01 0.300D+00-0.100D+00 0.764D+00
 Coeff-En:   0.000D+00 0.000D+00 0.349D+00 0.000D+00 0.651D+00
 Coeff:     -0.527D-02 0.371D-01 0.305D+00-0.905D-01 0.754D+00
 Gap=     0.188 Goal=   None    Shift=    0.000
 RMSDP=6.65D-04 MaxDP=2.73D-02 DE=-2.32D-01 OVMax= 4.62D-02

 Cycle   6  Pass 0  IDiag  1:
 E= -574.646365728014     Delta-E=       -0.018414414933 Rises=F Damp=F
 DIIS: error= 6.11D-04 at cycle   6 NSaved=   6.
 NSaved= 6 IEnMin= 6 EnMin= -574.646365728014     IErMin= 6 ErrMin= 6.11D-04
 ErrMax= 6.11D-04 EMaxC= 1.00D-01 BMatC= 9.36D-05 BMatP= 2.26D-02
 IDIUse=3 WtCom= 9.94D-01 WtEn= 6.11D-03
 Coeff-Com: -0.463D-02 0.193D-01 0.158D+00-0.637D-01 0.452D+00 0.440D+00
 Coeff-En:   0.000D+00 0.000D+00 0.000D+00 0.000D+00 0.000D+00 0.100D+01
 Coeff:     -0.460D-02 0.192D-01 0.157D+00-0.634D-01 0.449D+00 0.443D+00
 Gap=     0.188 Goal=   None    Shift=    0.000
 RMSDP=6.42D-05 MaxDP=1.93D-03 DE=-1.84D-02 OVMax= 5.82D-03

 Cycle   7  Pass 0  IDiag  1:
 E= -574.646455680494     Delta-E=       -0.000089952480 Rises=F Damp=F
 DIIS: error= 1.92D-04 at cycle   7 NSaved=   7.
 NSaved= 7 IEnMin= 7 EnMin= -574.646455680494     IErMin= 7 ErrMin= 1.92D-04
 ErrMax= 1.92D-04 EMaxC= 1.00D-01 BMatC= 8.98D-06 BMatP= 9.36D-05
 IDIUse=3 WtCom= 9.98D-01 WtEn= 1.92D-03
 Coeff-Com: -0.111D-02 0.305D-02 0.425D-01-0.189D-01 0.127D+00 0.240D+00
 Coeff-Com:  0.608D+00
 Coeff-En:   0.000D+00 0.000D+00 0.000D+00 0.000D+00 0.000D+00 0.668D-01
 Coeff-En:   0.933D+00
 Coeff:     -0.110D-02 0.304D-02 0.424D-01-0.189D-01 0.126D+00 0.239D+00
 Coeff:      0.609D+00
 Gap=     0.188 Goal=   None    Shift=    0.000
 RMSDP=1.68D-05 MaxDP=5.21D-04 DE=-9.00D-05 OVMax= 1.22D-03

 Cycle   8  Pass 0  IDiag  1:
 E= -574.646464032607     Delta-E=       -0.000008352113 Rises=F Damp=F
 DIIS: error= 4.14D-05 at cycle   8 NSaved=   8.
 NSaved= 8 IEnMin= 8 EnMin= -574.646464032607     IErMin= 8 ErrMin= 4.14D-05
 ErrMax= 4.14D-05 EMaxC= 1.00D-01 BMatC= 8.00D-07 BMatP= 8.98D-06
 IDIUse=1 WtCom= 1.00D+00 WtEn= 0.00D+00
 Coeff-Com: -0.303D-04-0.443D-03 0.118D-01-0.478D-02 0.325D-01 0.100D+00
 Coeff-Com:  0.337D+00 0.523D+00
 Coeff:     -0.303D-04-0.443D-03 0.118D-01-0.478D-02 0.325D-01 0.100D+00
 Coeff:      0.337D+00 0.523D+00
 Gap=     0.188 Goal=   None    Shift=    0.000
 RMSDP=4.07D-06 MaxDP=1.75D-04 DE=-8.35D-06 OVMax= 2.85D-04

 Initial convergence to 1.0D-05 achieved.  Increase integral accuracy.
 Cycle   9  Pass 1  IDiag  1:
 E= -574.646474688309     Delta-E=       -0.000010655702 Rises=F Damp=F
 DIIS: error= 1.07D-05 at cycle   1 NSaved=   1.
 NSaved= 1 IEnMin= 1 EnMin= -574.646474688309     IErMin= 1 ErrMin= 1.07D-05
 ErrMax= 1.07D-05 EMaxC= 1.00D-01 BMatC= 5.56D-08 BMatP= 5.56D-08
 IDIUse=1 WtCom= 1.00D+00 WtEn= 0.00D+00
 Coeff-Com:  0.100D+01
 Coeff:      0.100D+01
 Gap=     0.188 Goal=   None    Shift=    0.000
 RMSDP=4.07D-06 MaxDP=1.75D-04 DE=-1.07D-05 OVMax= 1.57D-04

 Cycle  10  Pass 1  IDiag  1:
 E= -574.646474682853     Delta-E=        0.000000005456 Rises=F Damp=F
 DIIS: error= 1.54D-05 at cycle   2 NSaved=   2.
 NSaved= 2 IEnMin= 1 EnMin= -574.646474688309     IErMin= 1 ErrMin= 1.07D-05
 ErrMax= 1.54D-05 EMaxC= 1.00D-01 BMatC= 8.08D-08 BMatP= 5.56D-08
 IDIUse=1 WtCom= 1.00D+00 WtEn= 0.00D+00
 Coeff-Com:  0.559D+00 0.441D+00
 Coeff:      0.559D+00 0.441D+00
 Gap=     0.188 Goal=   None    Shift=    0.000
 RMSDP=1.72D-06 MaxDP=7.12D-05 DE= 5.46D-09 OVMax= 1.20D-04

 Cycle  11  Pass 1  IDiag  1:
 E= -574.646474743372     Delta-E=       -0.000000060518 Rises=F Damp=F
 DIIS: error= 6.02D-06 at cycle   3 NSaved=   3.
 NSaved= 3 IEnMin= 3 EnMin= -574.646474743372     IErMin= 3 ErrMin= 6.02D-06
 ErrMax= 6.02D-06 EMaxC= 1.00D-01 BMatC= 1.30D-08 BMatP= 5.56D-08
 IDIUse=1 WtCom= 1.00D+00 WtEn= 0.00D+00
 Coeff-Com:  0.614D-01 0.279D+00 0.659D+00
 Coeff:      0.614D-01 0.279D+00 0.659D+00
 Gap=     0.188 Goal=   None    Shift=    0.000
 RMSDP=6.61D-07 MaxDP=2.65D-05 DE=-6.05D-08 OVMax= 4.67D-05

 Cycle  12  Pass 1  IDiag  1:
 E= -574.646474752302     Delta-E=       -0.000000008931 Rises=F Damp=F
 DIIS: error= 2.43D-06 at cycle   4 NSaved=   4.
 NSaved= 4 IEnMin= 4 EnMin= -574.646474752302     IErMin= 4 ErrMin= 2.43D-06
 ErrMax= 2.43D-06 EMaxC= 1.00D-01 BMatC= 2.83D-09 BMatP= 1.30D-08
 IDIUse=1 WtCom= 1.00D+00 WtEn= 0.00D+00
 Coeff-Com: -0.118D-01 0.139D+00 0.434D+00 0.439D+00
 Coeff:     -0.118D-01 0.139D+00 0.434D+00 0.439D+00
 Gap=     0.188 Goal=   None    Shift=    0.000
 RMSDP=2.39D-07 MaxDP=8.87D-06 DE=-8.93D-09 OVMax= 1.51D-05

 Cycle  13  Pass 1  IDiag  1:
 E= -574.646474754556     Delta-E=       -0.000000002254 Rises=F Damp=F
 DIIS: error= 4.62D-07 at cycle   5 NSaved=   5.
 NSaved= 5 IEnMin= 5 EnMin= -574.646474754556     IErMin= 5 ErrMin= 4.62D-07
 ErrMax= 4.62D-07 EMaxC= 1.00D-01 BMatC= 6.97D-11 BMatP= 2.83D-09
 IDIUse=1 WtCom= 1.00D+00 WtEn= 0.00D+00
 Coeff-Com: -0.838D-02 0.563D-01 0.191D+00 0.230D+00 0.531D+00
 Coeff:     -0.838D-02 0.563D-01 0.191D+00 0.230D+00 0.531D+00
 Gap=     0.188 Goal=   None    Shift=    0.000
 RMSDP=5.86D-08 MaxDP=1.56D-06 DE=-2.25D-09 OVMax= 4.01D-06

 Cycle  14  Pass 1  IDiag  1:
 E= -574.646474754614     Delta-E=       -0.000000000058 Rises=F Damp=F
 DIIS: error= 1.78D-07 at cycle   6 NSaved=   6.
 NSaved= 6 IEnMin= 6 EnMin= -574.646474754614     IErMin= 6 ErrMin= 1.78D-07
 ErrMax= 1.78D-07 EMaxC= 1.00D-01 BMatC= 1.12D-11 BMatP= 6.97D-11
 IDIUse=1 WtCom= 1.00D+00 WtEn= 0.00D+00
 Coeff-Com: -0.438D-02 0.200D-01 0.739D-01 0.999D-01 0.326D+00 0.485D+00
 Coeff:     -0.438D-02 0.200D-01 0.739D-01 0.999D-01 0.326D+00 0.485D+00
 Gap=     0.188 Goal=   None    Shift=    0.000
 RMSDP=1.92D-08 MaxDP=6.43D-07 DE=-5.75D-11 OVMax= 1.41D-06

 Cycle  15  Pass 1  IDiag  1:
 E= -574.646474754624     Delta-E=       -0.000000000010 Rises=F Damp=F
 DIIS: error= 3.84D-08 at cycle   7 NSaved=   7.
 NSaved= 7 IEnMin= 7 EnMin= -574.646474754624     IErMin= 7 ErrMin= 3.84D-08
 ErrMax= 3.84D-08 EMaxC= 1.00D-01 BMatC= 5.40D-13 BMatP= 1.12D-11
 IDIUse=1 WtCom= 1.00D+00 WtEn= 0.00D+00
 Coeff-Com: -0.911D-03 0.255D-02 0.117D-01 0.207D-01 0.866D-01 0.222D+00
 Coeff-Com:  0.658D+00
 Coeff:     -0.911D-03 0.255D-02 0.117D-01 0.207D-01 0.866D-01 0.222D+00
 Coeff:      0.658D+00
 Gap=     0.188 Goal=   None    Shift=    0.000
 RMSDP=5.22D-09 MaxDP=1.36D-07 DE=-1.02D-11 OVMax= 3.87D-07

 SCF Done:  E(RB3LYP) =  -574.646474755     A.U. after   15 cycles
             Convg  =    0.5223D-08             -V/T =  2.0092
 KE= 5.693873284530D+02 PE=-2.682834519492D+03 EE= 8.673787026187D+02
 Leave Link  502 at Wed Sep 29 00:42:39 2021, MaxMem=  805306368 cpu:     123.2
 (Enter /sw/target/amd/app/gaussian/Gaussian09RevA.02_gcc-4.9.2/g09/l508.exe)
 QCSCF skips out because SCF is already converged.
 Leave Link  508 at Wed Sep 29 00:42:39 2021, MaxMem=  805306368 cpu:       0.0
 (Enter /sw/target/amd/app/gaussian/Gaussian09RevA.02_gcc-4.9.2/g09/l601.exe)
 Copying SCF densities to generalized density rwf, IOpCl= 0 IROHF=0.

 **********************************************************************

            Population analysis using the SCF density.

 **********************************************************************

 Orbital symmetries:
       Occupied  (A) (A) (A) (A) (A) (A) (A) (A) (A) (A) (A) (A)
                 (A) (A) (A) (A) (A) (A) (A) (A) (A) (A) (A) (A)
                 (A) (A) (A) (A) (A) (A) (A) (A) (A) (A) (A) (A)
                 (A) (A) (A) (A) (A) (A) (A) (A)
       Virtual   (A) (A) (A) (A) (A) (A) (A) (A) (A) (A) (A) (A)
                 (A) (A) (A) (A) (A) (A) (A) (A) (A) (A) (A) (A)
                 (A) (A) (A) (A) (A) (A) (A) (A) (A) (A) (A) (A)
                 (A) (A) (A) (A) (A) (A) (A) (A) (A) (A) (A) (A)
                 (A) (A) (A) (A) (A) (A) (A) (A) (A) (A) (A) (A)
                 (A) (A) (A) (A) (A) (A) (A) (A) (A) (A) (A) (A)
                 (A) (A) (A) (A) (A) (A) (A) (A) (A) (A) (A) (A)
                 (A) (A) (A) (A) (A) (A) (A) (A) (A) (A) (A) (A)
                 (A) (A) (A) (A) (A) (A) (A) (A) (A) (A) (A) (A)
                 (A) (A) (A) (A) (A) (A) (A) (A) (A) (A) (A) (A)
                 (A) (A) (A) (A) (A) (A) (A) (A) (A) (A) (A) (A)
                 (A) (A) (A) (A) (A) (A) (A) (A) (A) (A) (A) (A)
                 (A) (A) (A) (A) (A) (A) (A) (A) (A) (A) (A) (A)
 The electronic state is 1-A.
 Alpha  occ. eigenvalues --  -19.19379 -19.18210 -19.13328 -10.31294 -10.25214
 Alpha  occ. eigenvalues --  -10.24420 -10.23818 -10.20161 -10.19670 -10.19611
 Alpha  occ. eigenvalues --  -10.19139 -10.18844  -1.09806  -1.06693  -1.01142
 Alpha  occ. eigenvalues --   -0.85794  -0.77266  -0.76008  -0.71992  -0.69803
 Alpha  occ. eigenvalues --   -0.63154  -0.60296  -0.56474  -0.53965  -0.49567
 Alpha  occ. eigenvalues --   -0.48567  -0.48401  -0.47853  -0.47411  -0.46174
 Alpha  occ. eigenvalues --   -0.43449  -0.41993  -0.41357  -0.40012  -0.37598
 Alpha  occ. eigenvalues --   -0.36946  -0.36785  -0.35295  -0.33464  -0.32197
 Alpha  occ. eigenvalues --   -0.29965  -0.27348  -0.25437  -0.22448
 Alpha virt. eigenvalues --   -0.03659   0.00396   0.05857   0.08996   0.10477
 Alpha virt. eigenvalues --    0.11646   0.12744   0.13742   0.14778   0.15713
 Alpha virt. eigenvalues --    0.16326   0.16574   0.17047   0.17440   0.18051
 Alpha virt. eigenvalues --    0.19753   0.24814   0.26227   0.29937   0.30290
 Alpha virt. eigenvalues --    0.30871   0.32912   0.38786   0.42074   0.46140
 Alpha virt. eigenvalues --    0.49898   0.51107   0.51505   0.51971   0.52956
 Alpha virt. eigenvalues --    0.55135   0.55308   0.57124   0.57821   0.58220
 Alpha virt. eigenvalues --    0.59331   0.60420   0.61085   0.61623   0.62507
 Alpha virt. eigenvalues --    0.64915   0.67032   0.68941   0.70760   0.73580
 Alpha virt. eigenvalues --    0.74497   0.75606   0.77707   0.82866   0.83002
 Alpha virt. eigenvalues --    0.83555   0.83870   0.84666   0.85879   0.86058
 Alpha virt. eigenvalues --    0.86836   0.89213   0.91544   0.92668   0.93204
 Alpha virt. eigenvalues --    0.94598   0.95320   0.97420   1.01154   1.01913
 Alpha virt. eigenvalues --    1.03541   1.05091   1.05963   1.09414   1.11952
 Alpha virt. eigenvalues --    1.14626   1.17721   1.20030   1.21511   1.23267
 Alpha virt. eigenvalues --    1.27069   1.30173   1.31900   1.36106   1.36958
 Alpha virt. eigenvalues --    1.38508   1.41281   1.44316   1.46972   1.47893
 Alpha virt. eigenvalues --    1.48895   1.50517   1.51947   1.54804   1.62796
 Alpha virt. eigenvalues --    1.64354   1.68572   1.71177   1.76929   1.78212
 Alpha virt. eigenvalues --    1.82382   1.84654   1.85743   1.87689   1.88450
 Alpha virt. eigenvalues --    1.91957   1.94964   1.95290   1.98156   1.99628
 Alpha virt. eigenvalues --    2.01252   2.02763   2.05861   2.07435   2.08077
 Alpha virt. eigenvalues --    2.10112   2.13084   2.13425   2.15120   2.17032
 Alpha virt. eigenvalues --    2.22268   2.23574   2.25509   2.27504   2.28936
 Alpha virt. eigenvalues --    2.31349   2.34320   2.35996   2.42182   2.43741
 Alpha virt. eigenvalues --    2.51182   2.51737   2.54961   2.61749   2.62687
 Alpha virt. eigenvalues --    2.65333   2.66638   2.68330   2.72757   2.78915
 Alpha virt. eigenvalues --    2.81580   2.83022   2.85684   2.96224   2.98944
 Alpha virt. eigenvalues --    3.09264   3.12802   3.23030   3.44235   3.96847
 Alpha virt. eigenvalues --    4.04746   4.09018   4.10958   4.20132   4.23486
 Alpha virt. eigenvalues --    4.24340   4.32710   4.35175   4.43101   4.51986
 Alpha virt. eigenvalues --    4.77720
          Condensed to atoms (all electrons):
              1          2          3          4          5          6
     1  C    4.896595   0.247646  -0.043319  -0.006312   0.000333  -0.000007
     2  O    0.247646   8.201108   0.275327  -0.063138   0.003494   0.000328
     3  C   -0.043319   0.275327   4.544856   0.468139   0.004019  -0.039354
     4  C   -0.006312  -0.063138   0.468139   5.099943   0.497314  -0.037652
     5  C    0.000333   0.003494   0.004019   0.497314   4.900464   0.511030
     6  C   -0.000007   0.000328  -0.039354  -0.037652   0.511030   4.975518
     7  C   -0.000111   0.002518  -0.009458  -0.033358  -0.017898   0.517952
     8  C    0.004274  -0.049950   0.502702  -0.075219  -0.039251  -0.063121
     9  C    0.000002  -0.000061   0.003960   0.000528   0.006529  -0.042353
    10  O   -0.000000   0.000000  -0.000063  -0.000006   0.000642   0.003078
    11  O   -0.000000  -0.000001   0.000504   0.000001  -0.000058   0.003429
    12  C    0.000000  -0.000000   0.000005   0.000000   0.000001  -0.000202
    13  H    0.384482  -0.031045   0.003304   0.000171   0.000001   0.000000
    14  H    0.365182  -0.036022  -0.005074   0.004533  -0.000121  -0.000002
    15  H    0.363834  -0.035686  -0.004820   0.005332  -0.000151  -0.000013
    16  H    0.005843  -0.007200  -0.046449   0.354751  -0.040597   0.004496
    17  H   -0.000008  -0.000043   0.002907  -0.039011   0.358658  -0.036903
    18  H   -0.000000   0.000002   0.000424   0.004910  -0.043355   0.357563
    19  H   -0.000193   0.000290  -0.038059   0.007226  -0.000152   0.005894
    20  H    0.000000  -0.000000  -0.000000   0.000000  -0.000000   0.000003
    21  H   -0.000000   0.000000  -0.000001  -0.000000  -0.000000  -0.000007
    22  H    0.000000  -0.000000   0.000002   0.000000   0.000000  -0.000000
              7          8          9         10         11         12
     1  C   -0.000111   0.004274   0.000002  -0.000000  -0.000000   0.000000
     2  O    0.002518  -0.049950  -0.000061   0.000000  -0.000001  -0.000000
     3  C   -0.009458   0.502702   0.003960  -0.000063   0.000504   0.000005
     4  C   -0.033358  -0.075219   0.000528  -0.000006   0.000001   0.000000
     5  C   -0.017898  -0.039251   0.006529   0.000642  -0.000058   0.000001
     6  C    0.517952  -0.063121  -0.042353   0.003078   0.003429  -0.000202
     7  C    4.898438   0.486734   0.341101  -0.083966  -0.100044   0.008447
     8  C    0.486734   5.118207  -0.036258   0.002933   0.004106  -0.000260
     9  C    0.341101  -0.036258   4.415694   0.540103   0.248548  -0.021250
    10  O   -0.083966   0.002933   0.540103   8.074189  -0.075277  -0.000554
    11  O   -0.100044   0.004106   0.248548  -0.075277   8.242974   0.210840
    12  C    0.008447  -0.000260  -0.021250  -0.000554   0.210840   4.904661
    13  H    0.000000  -0.000099  -0.000000   0.000000  -0.000000  -0.000000
    14  H    0.000011   0.000013  -0.000000  -0.000000   0.000000   0.000000
    15  H    0.000007   0.000055   0.000000   0.000000  -0.000000  -0.000000
    16  H    0.000627   0.004483   0.000009   0.000000   0.000000  -0.000000
    17  H    0.003277   0.000955  -0.000176   0.000001   0.000000  -0.000000
    18  H   -0.041810   0.005574  -0.007859   0.009640   0.000251  -0.000019
    19  H   -0.041144   0.344715  -0.008947   0.000091   0.009488  -0.000405
    20  H    0.000022  -0.000044   0.004304   0.000521  -0.031842   0.377061
    21  H   -0.000060  -0.000020  -0.003418   0.001453  -0.034001   0.379230
    22  H   -0.000104   0.000088  -0.007011   0.013204  -0.030143   0.367885
             13         14         15         16         17         18
     1  C    0.384482   0.365182   0.363834   0.005843  -0.000008  -0.000000
     2  O   -0.031045  -0.036022  -0.035686  -0.007200  -0.000043   0.000002
     3  C    0.003304  -0.005074  -0.004820  -0.046449   0.002907   0.000424
     4  C    0.000171   0.004533   0.005332   0.354751  -0.039011   0.004910
     5  C    0.000001  -0.000121  -0.000151  -0.040597   0.358658  -0.043355
     6  C    0.000000  -0.000002  -0.000013   0.004496  -0.036903   0.357563
     7  C    0.000000   0.000011   0.000007   0.000627   0.003277  -0.041810
     8  C   -0.000099   0.000013   0.000055   0.004483   0.000955   0.005574
     9  C   -0.000000  -0.000000   0.000000   0.000009  -0.000176  -0.007859
    10  O    0.000000  -0.000000   0.000000   0.000000   0.000001   0.009640
    11  O   -0.000000   0.000000  -0.000000   0.000000   0.000000   0.000251
    12  C   -0.000000   0.000000  -0.000000  -0.000000  -0.000000  -0.000019
    13  H    0.539958  -0.034013  -0.033210  -0.000104  -0.000000  -0.000000
    14  H   -0.034013   0.596053  -0.046122   0.001738   0.000002   0.000000
    15  H   -0.033210  -0.046122   0.594803   0.001663   0.000002   0.000000
    16  H   -0.000104   0.001738   0.001663   0.590933  -0.005559  -0.000167
    17  H   -0.000000   0.000002   0.000002  -0.005559   0.582827  -0.004693
    18  H   -0.000000   0.000000   0.000000  -0.000167  -0.004693   0.567394
    19  H   -0.000026   0.000028   0.000031  -0.000147   0.000015  -0.000130
    20  H   -0.000000   0.000000  -0.000000  -0.000000   0.000000   0.000000
    21  H   -0.000000  -0.000000   0.000000  -0.000000   0.000000  -0.000001
    22  H   -0.000000  -0.000000  -0.000000   0.000000  -0.000000  -0.000005
             19         20         21         22
     1  C   -0.000193   0.000000  -0.000000   0.000000
     2  O    0.000290  -0.000000   0.000000  -0.000000
     3  C   -0.038059  -0.000000  -0.000001   0.000002
     4  C    0.007226   0.000000  -0.000000   0.000000
     5  C   -0.000152  -0.000000  -0.000000   0.000000
     6  C    0.005894   0.000003  -0.000007  -0.000000
     7  C   -0.041144   0.000022  -0.000060  -0.000104
     8  C    0.344715  -0.000044  -0.000020   0.000088
     9  C   -0.008947   0.004304  -0.003418  -0.007011
    10  O    0.000091   0.000521   0.001453   0.013204
    11  O    0.009488  -0.031842  -0.034001  -0.030143
    12  C   -0.000405   0.377061   0.379230   0.367885
    13  H   -0.000026  -0.000000  -0.000000  -0.000000
    14  H    0.000028   0.000000  -0.000000  -0.000000
    15  H    0.000031  -0.000000   0.000000  -0.000000
    16  H   -0.000147  -0.000000  -0.000000   0.000000
    17  H    0.000015   0.000000   0.000000  -0.000000
    18  H   -0.000130   0.000000  -0.000001  -0.000005
    19  H    0.563926   0.000014  -0.000016   0.000022
    20  H    0.000014   0.553932  -0.036433  -0.031441
    21  H   -0.000016  -0.036433   0.562177  -0.033802
    22  H    0.000022  -0.031441  -0.033802   0.542396
 Mulliken atomic charges:
              1
     1  C   -0.218242
     2  O   -0.507570
     3  C    0.380448
     4  C   -0.188153
     5  C   -0.140901
     6  C   -0.159677
     7  C    0.068820
     8  C   -0.210619
     9  C    0.566555
    10  O   -0.485988
    11  O   -0.448777
    12  C   -0.225441
    13  H    0.170580
    14  H    0.153793
    15  H    0.154274
    16  H    0.135679
    17  H    0.137747
    18  H    0.152279
    19  H    0.157481
    20  H    0.163905
    21  H    0.164899
    22  H    0.178909
 Sum of Mulliken atomic charges =  -0.00000
 Mulliken charges with hydrogens summed into heavy atoms:
              1
     1  C    0.260405
     2  O   -0.507570
     3  C    0.380448
     4  C   -0.052475
     5  C   -0.003154
     6  C   -0.007397
     7  C    0.068820
     8  C   -0.053138
     9  C    0.566555
    10  O   -0.485988
    11  O   -0.448777
    12  C    0.282272
 Sum of Mulliken charges with hydrogens summed into heavy atoms =  -0.00000
 Electronic spatial extent (au):  <R**2>=           2586.9537
 Charge=              0.0000 electrons
 Dipole moment (field-independent basis, Debye):
    X=             -2.3370    Y=             -1.0451    Z=             -0.7483  Tot=              2.6672
 Quadrupole moment (field-independent basis, Debye-Ang):
   XX=            -54.9349   YY=            -66.8364   ZZ=            -71.0439
   XY=             -7.9349   XZ=             -2.5399   YZ=             -2.0266
 Traceless Quadrupole moment (field-independent basis, Debye-Ang):
   XX=              9.3368   YY=             -2.5647   ZZ=             -6.7722
   XY=             -7.9349   XZ=             -2.5399   YZ=             -2.0266
 Octapole moment (field-independent basis, Debye-Ang**2):
  XXX=            -28.8768  YYY=             -1.2563  ZZZ=              2.0547  XYY=              1.0932
  XXY=            -40.0419  XXZ=            -10.9375  XZZ=              5.6424  YZZ=             -6.6539
  YYZ=             -3.2118  XYZ=             -2.5124
 Hexadecapole moment (field-independent basis, Debye-Ang**3):
 XXXX=          -2161.4113 YYYY=           -676.2467 ZZZZ=           -100.7897 XXXY=            -49.5257
 XXXZ=            -41.9262 YYYX=            -10.4272 YYYZ=             -4.0038 ZZZX=              0.6879
 ZZZY=              3.6898 XXYY=           -499.7855 XXZZ=           -429.9348 YYZZ=           -142.4076
 XXYZ=             -9.7718 YYXZ=             -4.5969 ZZXY=              1.4612
 N-N= 6.714220136659D+02 E-N=-2.682834528295D+03  KE= 5.693873284530D+02
 No NMR shielding tensors so no spin-rotation constants.
 Leave Link  601 at Wed Sep 29 00:42:41 2021, MaxMem=  805306368 cpu:       0.9
 (Enter /sw/target/amd/app/gaussian/Gaussian09RevA.02_gcc-4.9.2/g09/l701.exe)
 Compute integral first derivatives.
 ... and contract with generalized density number  0.
 Leave Link  701 at Wed Sep 29 00:42:43 2021, MaxMem=  805306368 cpu:       0.9
 (Enter /sw/target/amd/app/gaussian/Gaussian09RevA.02_gcc-4.9.2/g09/l702.exe)
 L702 exits ... SP integral derivatives will be done elsewhere.
 Leave Link  702 at Wed Sep 29 00:42:43 2021, MaxMem=  805306368 cpu:       0.0
 (Enter /sw/target/amd/app/gaussian/Gaussian09RevA.02_gcc-4.9.2/g09/l703.exe)
 Compute integral first derivatives, UseDBF=F ICtDFT=           0.
 Integral derivatives from FoFDir, PRISM(SPDF).
 Calling FoFJK, ICntrl=      2127 FMM=F ISym2X=0 I1Cent= 0 IOpClX= 0 NMat=1 NMatS=1 NMatT=0.
 FoFCou: FMM=F IPFlag=           0 FMFlag=      100000 FMFlg1=         800
         NFxFlg=           0 DoJE=F BraDBF=F KetDBF=F FulRan=T
         Omega=  0.000000  0.000000  1.000000  0.000000  0.000000 ICntrl=    2127 IOpCl=  0
         NMat0=    1 NMatS0=    1 NMatT0=    0 NMatD0=    1 NMtDS0=    0 NMtDT0=    0
         I1Cent=           0 NGrid=           0.
 Symmetry not used in FoFCou.
 Leave Link  703 at Wed Sep 29 00:43:46 2021, MaxMem=  805306368 cpu:      47.1
 (Enter /sw/target/amd/app/gaussian/Gaussian09RevA.02_gcc-4.9.2/g09/l716.exe)
 Dipole        =-9.19443305D-01-4.11188251D-01-2.94390589D-01
 ***** Axes restored to original set *****
 -------------------------------------------------------------------
 Center     Atomic                   Forces (Hartrees/Bohr)
 Number     Number              X              Y              Z
 -------------------------------------------------------------------
      1        6          -0.001513475    0.002473471    0.004479621
      2        8          -0.003453900    0.002443550   -0.004723143
      3        6           0.002569902    0.000470646    0.006612016
      4        6          -0.004395456    0.000991906   -0.009292634
      5        6           0.003872406   -0.001524879    0.006570852
      6        6          -0.000379663   -0.002170689   -0.010940246
      7        6          -0.006342829    0.007939482   -0.002531284
      8        6           0.005143283   -0.005012314    0.002522977
      9        6          -0.001699193   -0.000157340   -0.008840371
     10        8          -0.007120634    0.000931139    0.013088634
     11        8           0.009002510   -0.007037835   -0.001847804
     12        6           0.003520535   -0.003772657    0.010166867
     13        1           0.003093429   -0.002302314    0.002815031
     14        1          -0.000095227   -0.000505031   -0.003940732
     15        1          -0.000447815   -0.001553825   -0.003463446
     16        1          -0.000529683    0.001450604    0.002201008
     17        1          -0.000553165    0.000917443    0.001805218
     18        1          -0.000005665    0.001667353    0.003364376
     19        1          -0.001197952   -0.000670676   -0.001949120
     20        1          -0.003356355    0.003430539   -0.001889856
     21        1           0.003094814   -0.001891564   -0.001091484
     22        1           0.000794135    0.003882991   -0.003116480
 -------------------------------------------------------------------
 Cartesian Forces:  Max     0.013088634 RMS     0.004433796
 Leave Link  716 at Wed Sep 29 00:43:46 2021, MaxMem=  805306368 cpu:       0.0
 (Enter /sw/target/amd/app/gaussian/Gaussian09RevA.02_gcc-4.9.2/g09/l103.exe)

 GradGradGradGradGradGradGradGradGradGradGradGradGradGradGradGradGradGrad
 Berny optimization.
 Internal  Forces:  Max     0.017524451 RMS     0.003553758
 Search for a local minimum.
 Step number   1 out of a maximum of  105
 All quantities printed in internal units (Hartrees-Bohrs-Radians)
 RMS Force = .35538D-02 SwitMx=.10000D-02 MixMth= 1
 Mixed Optimization -- RFO/linear search
 Second derivative matrix not updated -- first step.
     Eigenvalues ---    0.01003   0.01320   0.01404   0.01449   0.01761
     Eigenvalues ---    0.02096   0.02106   0.02115   0.02120   0.02126
     Eigenvalues ---    0.02131   0.02135   0.02138   0.02143   0.02264
     Eigenvalues ---    0.09994   0.10038   0.10529   0.10547   0.15999
     Eigenvalues ---    0.15999   0.16000   0.16000   0.16000   0.16000
     Eigenvalues ---    0.16000   0.16000   0.16000   0.16000   0.21999
     Eigenvalues ---    0.23474   0.23490   0.24990   0.24996   0.25000
     Eigenvalues ---    0.25000   0.25000   0.25000   0.34234   0.34253
     Eigenvalues ---    0.34314   0.34334   0.34335   0.34373   0.34420
     Eigenvalues ---    0.34974   0.34984   0.35207   0.35370   0.41263
     Eigenvalues ---    0.41714   0.42201   0.42202   0.45632   0.45941
     Eigenvalues ---    0.46211   0.46395   0.51363   0.53614   0.95371
     Eigenvalues --- 1000.000001000.000001000.000001000.000001000.00000
     Eigenvalues --- 1000.000001000.000001000.000001000.000001000.00000
     Eigenvalues --- 1000.000001000.000001000.000001000.000001000.00000
     Eigenvalues --- 1000.000001000.000001000.000001000.000001000.00000
     Eigenvalues --- 1000.000001000.000001000.000001000.000001000.00000
     Eigenvalues --- 1000.000001000.000001000.000001000.000001000.00000
     Eigenvalues --- 1000.000001000.000001000.000001000.000001000.00000
 RFO step:  Lambda=-5.74296211D-03 EMin= 1.00315227D-02
 Linear search not attempted -- first point.
 Iteration  1 RMS(Cart)=  0.09185145 RMS(Int)=  0.00332109
 Iteration  2 RMS(Cart)=  0.00783881 RMS(Int)=  0.00044631
 Iteration  3 RMS(Cart)=  0.00003477 RMS(Int)=  0.00044615
 Iteration  4 RMS(Cart)=  0.00000001 RMS(Int)=  0.00044615
 Variable       Old X    -DE/DX   Delta X   Delta X   Delta X     New X
                                 (Linear)    (Quad)   (Total)
    R1        2.68668  -0.00161   0.00000  -0.00377  -0.00377   2.68291
    R2        2.06769  -0.00107   0.00000  -0.00305  -0.00305   2.06464
    R3        2.06905   0.00173   0.00000   0.00496   0.00496   2.07401
    R4        2.06938   0.00157   0.00000   0.00452   0.00452   2.07389
    R5        2.58514  -0.00078   0.00000  -0.00149  -0.00149   2.58365
    R6        2.63723   0.00263   0.00000   0.00592   0.00592   2.64315
    R7        2.63978   0.00349   0.00000   0.00783   0.00782   2.64761
    R8        2.64365   0.00015   0.00000   0.00027   0.00028   2.64393
    R9        2.05078  -0.00026   0.00000  -0.00073  -0.00073   2.05005
   R10        2.63532  -0.00282   0.00000  -0.00633  -0.00632   2.62899
   R11        2.05717  -0.00189   0.00000  -0.00533  -0.00533   2.05184
   R12        2.64249   0.00337   0.00000   0.00694   0.00694   2.64943
   R13        2.05701  -0.00258   0.00000  -0.00725  -0.00725   2.04976
   R14        2.64700  -0.00318   0.00000  -0.00686  -0.00686   2.64014
   R15        2.80070   0.00855   0.00000   0.02449   0.02449   2.82519
   R16        2.05339  -0.00217   0.00000  -0.00606  -0.00606   2.04734
   R17        2.30552  -0.01163   0.00000  -0.01212  -0.01212   2.29340
   R18        2.56384  -0.00098   0.00000  -0.00181  -0.00181   2.56203
   R19        2.69872   0.00431   0.00000   0.01030   0.01030   2.70902
   R20        2.06705  -0.00091   0.00000  -0.00260  -0.00260   2.06445
   R21        2.06626   0.00083   0.00000   0.00236   0.00236   2.06863
   R22        2.06804  -0.00160   0.00000  -0.00458  -0.00458   2.06346
    A1        1.88098  -0.00635   0.00000  -0.03592  -0.03584   1.84515
    A2        1.93722   0.00213   0.00000   0.01162   0.01168   1.94890
    A3        1.94121   0.00125   0.00000   0.00624   0.00628   1.94749
    A4        1.88067   0.00309   0.00000   0.02112   0.02122   1.90189
    A5        1.87933   0.00344   0.00000   0.02309   0.02315   1.90249
    A6        1.94139  -0.00355   0.00000  -0.02564  -0.02561   1.91578
    A7        2.04131   0.00369   0.00000   0.01441   0.01441   2.05572
    A8        2.19919  -0.00561   0.00000  -0.02263  -0.02264   2.17655
    A9        1.99822   0.00464   0.00000   0.01744   0.01743   2.01565
   A10        2.08577   0.00097   0.00000   0.00520   0.00520   2.09097
   A11        2.09866  -0.00307   0.00000  -0.01287  -0.01286   2.08580
   A12        2.12594  -0.00120   0.00000  -0.01008  -0.01008   2.11585
   A13        2.05859   0.00427   0.00000   0.02296   0.02295   2.08153
   A14        2.09746   0.00318   0.00000   0.01344   0.01345   2.11091
   A15        2.09315  -0.00251   0.00000  -0.01227  -0.01228   2.08087
   A16        2.09257  -0.00067   0.00000  -0.00117  -0.00118   2.09139
   A17        2.09178  -0.00110   0.00000  -0.00608  -0.00609   2.08570
   A18        2.09126   0.00333   0.00000   0.01983   0.01981   2.11107
   A19        2.10011  -0.00223   0.00000  -0.01368  -0.01369   2.08642
   A20        2.09054   0.00076   0.00000   0.00261   0.00259   2.09313
   A21        2.06939  -0.00148   0.00000  -0.00561  -0.00561   2.06378
   A22        2.12312   0.00071   0.00000   0.00295   0.00296   2.12608
   A23        2.10197  -0.00074   0.00000  -0.00225  -0.00227   2.09970
   A24        2.07743  -0.00027   0.00000  -0.00270  -0.00271   2.07473
   A25        2.10372   0.00101   0.00000   0.00504   0.00504   2.10875
   A26        2.15934   0.00395   0.00000   0.01648   0.01486   2.17420
   A27        1.91585   0.01365   0.00000   0.05442   0.05289   1.96874
   A28        2.20736  -0.01752   0.00000  -0.06744  -0.06891   2.13846
   A29        2.00355   0.00520   0.00000   0.02035   0.02035   2.02390
   A30        1.88305  -0.00588   0.00000  -0.03232  -0.03237   1.85068
   A31        1.90762   0.00418   0.00000   0.02389   0.02397   1.93159
   A32        1.95685  -0.00410   0.00000  -0.02670  -0.02677   1.93008
   A33        1.89639   0.00246   0.00000   0.01891   0.01903   1.91542
   A34        1.88651   0.00584   0.00000   0.03753   0.03731   1.92382
   A35        1.93177  -0.00240   0.00000  -0.02022  -0.02018   1.91160
    D1       -3.11110  -0.00004   0.00000  -0.00350  -0.00353  -3.11463
    D2        1.11652  -0.00116   0.00000  -0.01398  -0.01392   1.10260
    D3       -1.05491   0.00098   0.00000   0.00622   0.00620  -1.04871
    D4       -0.03474   0.00013   0.00000   0.00486   0.00488  -0.02986
    D5        3.10505   0.00032   0.00000   0.01190   0.01188   3.11694
    D6        3.12694   0.00029   0.00000   0.01018   0.01007   3.13701
    D7       -0.01197   0.00020   0.00000   0.00748   0.00744  -0.00454
    D8       -0.01277   0.00008   0.00000   0.00281   0.00277  -0.01000
    D9        3.13150  -0.00001   0.00000   0.00010   0.00014   3.13164
   D10       -3.13236  -0.00007   0.00000  -0.00278  -0.00289  -3.13524
   D11       -0.00268   0.00015   0.00000   0.00537   0.00528   0.00260
   D12        0.00757   0.00010   0.00000   0.00373   0.00372   0.01128
   D13        3.13724   0.00032   0.00000   0.01188   0.01189  -3.13405
   D14        0.00203  -0.00018   0.00000  -0.00622  -0.00621  -0.00417
   D15       -3.13761  -0.00008   0.00000  -0.00229  -0.00226  -3.13987
   D16        3.14105  -0.00010   0.00000  -0.00366  -0.00368   3.13738
   D17        0.00141  -0.00000   0.00000   0.00026   0.00027   0.00168
   D18        0.01397   0.00007   0.00000   0.00297   0.00301   0.01698
   D19       -3.13613   0.00030   0.00000   0.01172   0.01183  -3.12430
   D20       -3.12957  -0.00003   0.00000  -0.00096  -0.00098  -3.13055
   D21        0.00351   0.00020   0.00000   0.00778   0.00784   0.01135
   D22       -0.01910   0.00010   0.00000   0.00349   0.00350  -0.01560
   D23        3.13933   0.00019   0.00000   0.00730   0.00727  -3.13659
   D24        3.13105  -0.00016   0.00000  -0.00546  -0.00536   3.12569
   D25        0.00630  -0.00007   0.00000  -0.00166  -0.00159   0.00470
   D26        0.00836  -0.00018   0.00000  -0.00680  -0.00679   0.00157
   D27       -3.12114  -0.00039   0.00000  -0.01502  -0.01507  -3.13620
   D28        3.13258  -0.00029   0.00000  -0.01081  -0.01078   3.12180
   D29        0.00308  -0.00050   0.00000  -0.01903  -0.01906  -0.01597
   D30        0.42218  -0.00090   0.00000  -0.06414  -0.06319   0.35898
   D31       -2.68339  -0.00269   0.00000  -0.16143  -0.16234  -2.84573
   D32       -2.70225  -0.00081   0.00000  -0.06026  -0.05934  -2.76159
   D33        0.47537  -0.00260   0.00000  -0.15755  -0.15850   0.31687
   D34        3.12271   0.00195   0.00000   0.07737   0.07537  -3.08510
   D35        0.01839  -0.00048   0.00000  -0.02553  -0.02354  -0.00515
   D36       -2.79646  -0.00007   0.00000  -0.01713  -0.01741  -2.81386
   D37        1.42758  -0.00197   0.00000  -0.03453  -0.03446   1.39312
   D38       -0.72112   0.00091   0.00000  -0.00751  -0.00730  -0.72842
         Item               Value     Threshold  Converged?
 Maximum Force            0.017524     0.000450     NO 
 RMS     Force            0.003554     0.000300     NO 
 Maximum Displacement     0.277318     0.001800     NO 
 RMS     Displacement     0.092498     0.001200     NO 
 Predicted change in Energy=-3.127585D-03
 GradGradGradGradGradGradGradGradGradGradGradGradGradGradGradGradGradGrad

 Leave Link  103 at Wed Sep 29 00:43:53 2021, MaxMem=  805306368 cpu:       3.0
 (Enter /sw/target/amd/app/gaussian/Gaussian09RevA.02_gcc-4.9.2/g09/l202.exe)
                          Input orientation:                          
 ---------------------------------------------------------------------
 Center     Atomic      Atomic             Coordinates (Angstroms)
 Number     Number       Type             X           Y           Z
 ---------------------------------------------------------------------
      1          6           0        1.724981    0.196052   -1.884449
      2          8           0        2.678894   -0.552330   -1.145782
      3          6           0        3.447062   -1.454922   -1.827326
      4          6           0        3.338375   -1.720006   -3.196364
      5          6           0        4.186294   -2.664602   -3.784819
      6          6           0        5.138954   -3.340083   -3.028768
      7          6           0        5.236738   -3.084978   -1.653626
      8          6           0        4.393079   -2.144371   -1.057483
      9          6           0        6.274657   -3.821729   -0.869391
     10          8           0        7.258310   -4.345252   -1.350235
     11          8           0        6.048735   -3.783733    0.466881
     12          6           0        7.042921   -4.408295    1.289429
     13          1           0        1.250048    0.864687   -1.162610
     14          1           0        0.958396   -0.451367   -2.329139
     15          1           0        2.202913    0.797595   -2.668119
     16          1           0        2.607920   -1.206441   -3.812453
     17          1           0        4.099055   -2.865628   -4.848262
     18          1           0        5.807061   -4.060782   -3.487860
     19          1           0        4.459528   -1.932289    0.002881
     20          1           0        6.564858   -4.590812    2.254627
     21          1           0        7.905077   -3.747102    1.422896
     22          1           0        7.370964   -5.350850    0.846373
 ---------------------------------------------------------------------
                    Distance matrix (angstroms):
                    1          2          3          4          5
     1  C    0.000000
     2  O    1.419737   0.000000
     3  C    2.386324   1.367208   0.000000
     4  C    2.827621   2.450157   1.398695   0.000000
     5  C    4.225258   3.701143   2.416933   1.399109   0.000000
     6  C    5.046674   4.167625   2.803532   2.427925   1.391204
     7  C    4.811535   3.635213   2.426972   2.801245   2.412910
     8  C    3.644201   2.341116   1.401052   2.422251   2.784199
     9  C    6.154060   4.867738   3.809817   4.295788   3.768278
    10  O    7.178200   5.949715   4.806998   5.066163   4.264865
    11  O    6.329478   4.939482   4.177972   5.002439   4.774735
    12  C    7.717124   6.312167   5.600605   6.408814   6.078550
    13  H    1.092559   2.012416   3.263327   3.895882   5.287097
    14  H    1.097521   2.090608   2.729908   2.832988   4.175732
    15  H    1.097457   2.089585   2.707152   2.811873   4.143383
    16  H    2.542394   2.746640   2.169477   1.084840   2.149013
    17  H    4.877940   4.590922   3.397240   2.149384   1.085787
    18  H    6.111868   5.251665   3.888119   3.414471   2.159720
    19  H    3.945833   2.528709   2.145372   3.396648   3.867506
    20  H    7.966833   6.555367   6.018039   6.954497   6.770728
    21  H    8.042424   6.642113   5.974272   6.804517   6.490104
    22  H    8.372731   7.000714   6.141980   6.766722   6.229445
                    6          7          8          9         10
     6  C    0.000000
     7  C    1.402019   0.000000
     8  C    2.423225   1.397099   0.000000
     9  C    2.486908   1.495025   2.527694   0.000000
    10  O    2.884356   2.401477   3.624793   1.213615   0.000000
    11  O    3.639243   2.375742   2.784311   1.355769   2.253949
    12  C    4.838697   3.697977   4.201786   2.365332   2.649187
    13  H    6.023804   5.633351   4.352485   6.877147   7.954739
    14  H    5.129447   5.069165   4.034901   6.461643   7.470577
    15  H    5.086332   5.030672   4.005764   6.415034   7.330943
    16  H    3.401870   3.885887   3.414142   5.380176   6.127053
    17  H    2.148733   3.398255   3.869970   4.634521   4.940281
    18  H    1.084684   2.154501   3.402750   2.670612   2.599325
    19  H    3.410923   2.162582   1.083404   2.761437   3.935288
    20  H    5.613536   4.393845   4.655294   3.230355   3.679158
    21  H    5.256844   4.125946   4.588589   2.813969   2.909698
    22  H    4.903241   3.992379   4.772208   2.546360   2.418471
                   11         12         13         14         15
    11  O    0.000000
    12  C    1.433551   0.000000
    13  H    6.876805   8.208179   0.000000
    14  H    6.695816   8.110041   1.782652   0.000000
    15  H    6.753306   8.135671   1.782978   1.795449   0.000000
    16  H    6.065834   7.479993   3.626990   2.343350   2.343009
    17  H    5.735409   6.979786   5.967923   4.694504   4.665573
    18  H    3.971793   4.946777   7.101647   6.154678   6.104562
    19  H    2.483691   3.802595   4.413865   4.459750   4.436081
    20  H    2.028249   1.092458   8.347884   8.341363   8.502642
    21  H    2.088375   1.094670   8.499579   8.555467   8.360942
    22  H    2.085223   1.091934   8.951788   8.672360   8.767198
                   16         17         18         19         20
    16  H    0.000000
    17  H    2.459529   0.000000
    18  H    4.299665   2.489251   0.000000
    19  H    4.302566   4.953246   4.304834   0.000000
    20  H    7.995047   7.714108   5.816472   4.070690   0.000000
    21  H    7.869162   7.388519   5.349354   4.145093   1.788801
    22  H    7.846487   7.022149   4.784939   4.568861   1.791827
                   21         22
    21  H    0.000000
    22  H    1.785963   0.000000
 Stoichiometry    C9H10O3
 Framework group  C1[X(C9H10O3)]
 Deg. of freedom    60
 Full point group                 C1      NOp   1
 Largest Abelian subgroup         C1      NOp   1
 Largest concise Abelian subgroup C1      NOp   1
                         Standard orientation:                         
 ---------------------------------------------------------------------
 Center     Atomic      Atomic             Coordinates (Angstroms)
 Number     Number       Type             X           Y           Z
 ---------------------------------------------------------------------
      1          6           0       -3.942006   -1.158356    0.074776
      2          8           0       -2.539796   -1.380734    0.077840
      3          6           0       -1.721042   -0.287786    0.011792
      4          6           0       -2.164761    1.034514   -0.093018
      5          6           0       -1.228934    2.073154   -0.147454
      6          6           0        0.136061    1.809783   -0.093863
      7          6           0        0.580225    0.482994   -0.004395
      8          6           0       -0.347282   -0.560443    0.049060
      9          6           0        2.052795    0.232520    0.058073
     10          8           0        2.878231    1.057789    0.390409
     11          8           0        2.379542   -1.052732   -0.223836
     12          6           0        3.769484   -1.385661   -0.112989
     13          1           0       -4.398703   -2.147128    0.161046
     14          1           0       -4.276130   -0.691407   -0.860571
     15          1           0       -4.255233   -0.544285    0.928718
     16          1           0       -3.222691    1.271291   -0.132993
     17          1           0       -1.578488    3.098040   -0.227172
     18          1           0        0.861282    2.615953   -0.120014
     19          1           0       -0.020224   -1.590629    0.123316
     20          1           0        3.904988   -2.308678   -0.681445
     21          1           0        4.044763   -1.551950    0.933372
     22          1           0        4.389392   -0.590103   -0.531463
 ---------------------------------------------------------------------
 Rotational constants (GHZ):      1.9526464      0.5167171      0.4135834
 Leave Link  202 at Wed Sep 29 00:43:53 2021, MaxMem=  805306368 cpu:       0.0
 (Enter /sw/target/amd/app/gaussian/Gaussian09RevA.02_gcc-4.9.2/g09/l301.exe)
 Standard basis: 6-31G(d) (6D, 7F)
 Ernie: Thresh=  0.10000D-02 Tol=  0.10000D-05 Strict=F.
 There are   200 symmetry adapted basis functions of A   symmetry.
 Integral buffers will be    131072 words long.
 Raffenetti 2 integral format.
 Two-electron integral symmetry is turned on.
   200 basis functions,   376 primitive gaussians,   200 cartesian basis functions
    44 alpha electrons       44 beta electrons
       nuclear repulsion energy       669.9457112806 Hartrees.
 IExCor=  402 DFT=T Ex+Corr=B3LYP ExCW=0 ScaHFX=  0.200000
 ScaDFX=  0.800000  0.720000  1.000000  0.810000 ScalE2=  1.000000  1.000000
 IRadAn=      0 IRanWt=     -1 IRanGd=            0 ICorTp=0
 NAtoms=   22 NActive=   22 NUniq=   22 SFac= 7.50D-01 NAtFMM=   80 NAOKFM=F Big=F
 Leave Link  301 at Wed Sep 29 00:43:53 2021, MaxMem=  805306368 cpu:       0.1
 (Enter /sw/target/amd/app/gaussian/Gaussian09RevA.02_gcc-4.9.2/g09/l302.exe)
 NPDir=0 NMtPBC=     1 NCelOv=     1 NCel=       1 NClECP=     1 NCelD=      1
         NCelK=      1 NCelE2=     1 NClLst=     1 CellRange=     0.0.
 One-electron integrals computed using PRISM.
 NBasis=   200 RedAO= T  NBF=   200
 NBsUse=   200 1.00D-06 NBFU=   200
 Precomputing XC quadrature grid using
 IXCGrd= 2 IRadAn=           0 IRanWt=          -1 IRanGd=           0 AccXCQ= 1.00D-10.
 NRdTot=    1390 NPtTot=      177064 NUsed=      187093 NTot=      187125
 NSgBfM=   199   200   200   200   200 NAtAll=    22    22.
 Leave Link  302 at Wed Sep 29 00:43:56 2021, MaxMem=  805306368 cpu:       1.3
 (Enter /sw/target/amd/app/gaussian/Gaussian09RevA.02_gcc-4.9.2/g09/l303.exe)
 DipDrv:  MaxL=1.
 Leave Link  303 at Wed Sep 29 00:43:56 2021, MaxMem=  805306368 cpu:       0.1
 (Enter /sw/target/amd/app/gaussian/Gaussian09RevA.02_gcc-4.9.2/g09/l401.exe)
 Initial guess read from the read-write file.
 B after Tr=     0.000000    0.000000    0.000000
         Rot=    1.000000    0.000000    0.000000    0.000000 Ang=   0.00 deg.
 Guess basis will be translated and rotated to current coordinates.
 Initial guess orbital symmetries:
       Occupied  (A) (A) (A) (A) (A) (A) (A) (A) (A) (A) (A) (A)
                 (A) (A) (A) (A) (A) (A) (A) (A) (A) (A) (A) (A)
                 (A) (A) (A) (A) (A) (A) (A) (A) (A) (A) (A) (A)
                 (A) (A) (A) (A) (A) (A) (A) (A)
       Virtual   (A) (A) (A) (A) (A) (A) (A) (A) (A) (A) (A) (A)
                 (A) (A) (A) (A) (A) (A) (A) (A) (A) (A) (A) (A)
                 (A) (A) (A) (A) (A) (A) (A) (A) (A) (A) (A) (A)
                 (A) (A) (A) (A) (A) (A) (A) (A) (A) (A) (A) (A)
                 (A) (A) (A) (A) (A) (A) (A) (A) (A) (A) (A) (A)
                 (A) (A) (A) (A) (A) (A) (A) (A) (A) (A) (A) (A)
                 (A) (A) (A) (A) (A) (A) (A) (A) (A) (A) (A) (A)
                 (A) (A) (A) (A) (A) (A) (A) (A) (A) (A) (A) (A)
                 (A) (A) (A) (A) (A) (A) (A) (A) (A) (A) (A) (A)
                 (A) (A) (A) (A) (A) (A) (A) (A) (A) (A) (A) (A)
                 (A) (A) (A) (A) (A) (A) (A) (A) (A) (A) (A) (A)
                 (A) (A) (A) (A) (A) (A) (A) (A) (A) (A) (A) (A)
                 (A) (A) (A) (A) (A) (A) (A) (A) (A) (A) (A) (A)
 The electronic state of the initial guess is 1-A.
 Generating alternative initial guess.
 Harris functional with IExCor=  402 diagonalized for initial guess.
 ExpMin= 1.61D-01 ExpMax= 5.48D+03 ExpMxC= 8.25D+02 IAcc=1 IRadAn=         1 AccDes= 0.00D+00
 HarFok:  IExCor=  402 AccDes= 0.00D+00 IRadAn=         1 IDoV= 1
 ScaDFX=  1.000000  1.000000  1.000000  1.000000
 FoFCou: FMM=F IPFlag=           0 FMFlag=      100000 FMFlg1=           0
         NFxFlg=           0 DoJE=T BraDBF=F KetDBF=T FulRan=T
         Omega=  0.000000  0.000000  1.000000  0.000000  0.000000 ICntrl=     500 IOpCl=  0
         NMat0=    1 NMatS0=    1 NMatT0=    0 NMatD0=    1 NMtDS0=    0 NMtDT0=    0
         I1Cent=           4 NGrid=           0.
 Petite list used in FoFCou.
 Harris En= -574.707875935710    
 Leave Link  401 at Wed Sep 29 00:44:05 2021, MaxMem=  805306368 cpu:       6.2
 (Enter /sw/target/amd/app/gaussian/Gaussian09RevA.02_gcc-4.9.2/g09/l502.exe)
 Closed shell SCF:
 Requested convergence on RMS density matrix=1.00D-08 within  64 cycles.
 Requested convergence on MAX density matrix=1.00D-06.
 Requested convergence on             energy=1.00D-06.
 No special actions if energy rises.
 Using DIIS extrapolation, IDIIS=  1040.
 Integral symmetry usage will be decided dynamically.
       186882 words used for storage of precomputed grid.
 Keep R1 ints in memory in canonical form, NReq=206390396.
 IEnd=      315132 IEndB=      315132 NGot=   805306368 MDV=   603020583
 LenX=   603020583 LenY=   602980142
 Symmetry not used in FoFDir.
 MinBra= 0 MaxBra= 2 Meth= 1.
 IRaf=       0 NMat=   1 IRICut=       1 DoRegI=T DoRafI=F ISym2E= 0 JSym2E=0.
 Integral accuracy reduced to 1.0D-05 until final iterations.

 Cycle   1  Pass 0  IDiag  1:
 E= -574.631753099808    
 DIIS: error= 4.69D-03 at cycle   1 NSaved=   1.
 NSaved= 1 IEnMin= 1 EnMin= -574.631753099808     IErMin= 1 ErrMin= 4.69D-03
 ErrMax= 4.69D-03 EMaxC= 1.00D-01 BMatC= 8.38D-03 BMatP= 8.38D-03
 IDIUse=3 WtCom= 9.53D-01 WtEn= 4.69D-02
 Coeff-Com:  0.100D+01
 Coeff-En:   0.100D+01
 Coeff:      0.100D+01
 Gap=     0.273 Goal=   None    Shift=    0.000
 GapD=    0.273 DampG=1.000 DampE=1.000 DampFc=1.0000 IDamp=-1.
 RMSDP=8.78D-04 MaxDP=2.22D-02              OVMax= 2.90D-02

 Cycle   2  Pass 0  IDiag  1:
[...]
     8  C    0.348690  -0.000083   0.000060   0.000060
     9  C   -0.010067   0.004706  -0.003033  -0.003031
    10  O    0.000162   0.000855   0.006248   0.006239
    11  O    0.013319  -0.035097  -0.034526  -0.034533
    12  C   -0.000516   0.375171   0.371265   0.371271
    13  H   -0.000020  -0.000000  -0.000000  -0.000000
    14  H    0.000020   0.000000  -0.000000   0.000000
    15  H    0.000019   0.000000   0.000000  -0.000000
    16  H   -0.000148  -0.000000   0.000000   0.000000
    17  H    0.000015   0.000000   0.000000   0.000000
    18  H   -0.000123  -0.000000  -0.000003  -0.000003
    19  H    0.543134  -0.000028   0.000028   0.000028
    20  H   -0.000028   0.577812  -0.033744  -0.033754
    21  H    0.000028  -0.033744   0.577148  -0.040910
    22  H    0.000028  -0.033754  -0.040910   0.577186
 Mulliken atomic charges:
              1
     1  C   -0.239159
     2  O   -0.425929
     3  C    0.366443
     4  C   -0.195052
     5  C   -0.143797
     6  C   -0.129119
     7  C    0.052311
     8  C   -0.215512
     9  C    0.518538
    10  O   -0.550049
    11  O   -0.491016
    12  C   -0.200238
    13  H    0.191652
    14  H    0.185566
    15  H    0.185561
    16  H    0.130438
    17  H    0.145857
    18  H    0.182267
    19  H    0.171980
    20  H    0.144011
    21  H    0.157634
    22  H    0.157614
 Sum of Mulliken atomic charges =  -0.00000
 Mulliken charges with hydrogens summed into heavy atoms:
              1
     1  C    0.323620
     2  O   -0.425929
     3  C    0.366443
     4  C   -0.064614
     5  C    0.002060
     6  C    0.053148
     7  C    0.052311
     8  C   -0.043533
     9  C    0.518538
    10  O   -0.550049
    11  O   -0.491016
    12  C    0.259021
 Sum of Mulliken charges with hydrogens summed into heavy atoms =  -0.00000
 Electronic spatial extent (au):  <R**2>=           2611.6615
 Charge=             -0.0000 electrons
 Dipole moment (field-independent basis, Debye):
    X=              7.0364    Y=             -1.4230    Z=              0.0016  Tot=              7.1788
 Quadrupole moment (field-independent basis, Debye-Ang):
   XX=            -55.6822   YY=            -65.7901   ZZ=            -70.4692
   XY=              4.9366   XZ=              0.0062   YZ=             -0.0023
 Traceless Quadrupole moment (field-independent basis, Debye-Ang):
   XX=              8.2983   YY=             -1.8096   ZZ=             -6.4887
   XY=              4.9366   XZ=              0.0062   YZ=             -0.0023
 Octapole moment (field-independent basis, Debye-Ang**2):
  XXX=             84.6905  YYY=             -0.9458  ZZZ=              0.0018  XYY=              9.0870
  XXY=            -50.2294  XXZ=              0.0178  XZZ=             -4.1772  YZZ=             -5.2711
  YYZ=              0.0064  XYZ=             -0.0102
 Hexadecapole moment (field-independent basis, Debye-Ang**3):
 XXXX=          -2167.3261 YYYY=           -670.6167 ZZZZ=            -79.8719 XXXY=             15.8929
 XXXZ=              0.0596 YYYX=             -1.3210 YYYZ=              0.0005 ZZZX=             -0.0011
 ZZZY=              0.0036 XXYY=           -513.9021 XXZZ=           -427.4526 YYZZ=           -142.9224
 XXYZ=             -0.0436 YYXZ=              0.0189 ZZXY=             -9.5093
 N-N= 6.706739553367D+02 E-N=-2.681573452541D+03  KE= 5.695754286293D+02
 No NMR shielding tensors so no spin-rotation constants.
 Leave Link  601 at Wed Sep 29 04:14:59 2021, MaxMem=  805306368 cpu:       0.9
 (Enter /sw/target/amd/app/gaussian/Gaussian09RevA.02_gcc-4.9.2/g09/l604.exe)
 Evaluate density.
 Using the total density.
 Monte-Carlo method of calculating molar volume:
 based on  0.001 e/bohr**3 density envelope.
 Number of points per bohr**3 =   20 CutOff= 1.00D-04
 Using the CI density.
 There are       383 points.  Will hold       383 in memory.
 LenV=   805188036 MDV=   805306368.
 Box volume = 7043.918 fraction occupied=0.201
 Integrated density= 4.2058958752366976D+01 error=-4.5941041247633024D+01
 Molar volume = 1416.140 bohr**3/mol (126.375 cm**3/mol)
 Recommended a0 for SCRF calculation =  4.56 angstrom (  8.61 bohr)
 Leave Link  604 at Wed Sep 29 04:15:00 2021, MaxMem=  805306368 cpu:       0.3
 (Enter /sw/target/amd/app/gaussian/Gaussian09RevA.02_gcc-4.9.2/g09/l607.exe)
 ******************************Gaussian NBO Version 3.1******************************
             N A T U R A L   A T O M I C   O R B I T A L   A N D
          N A T U R A L   B O N D   O R B I T A L   A N A L Y S I S
 ******************************Gaussian NBO Version 3.1******************************
       /RESON  / : Allow strongly delocalized NBO set

 Analyzing the CI density

 Job title: COc1cccc(c1)C(=O)OC_conf_0                                      

 Storage needed:    121674 in NPA ( 805303728 available)


 NATURAL POPULATIONS:  Natural atomic orbital occupancies 
                                                          
   NAO  Atom  No  lang   Type(AO)    Occupancy
 --------------------------------------------
     1    C    1  S      Cor( 1S)     1.99941
     2    C    1  S      Val( 2S)     1.10844
     3    C    1  S      Ryd( 3S)     0.00147
     4    C    1  S      Ryd( 4S)     0.00003
     5    C    1  px     Val( 2p)     0.72738
     6    C    1  px     Ryd( 3p)     0.00296
     7    C    1  py     Val( 2p)     1.24545
     8    C    1  py     Ryd( 3p)     0.00298
     9    C    1  pz     Val( 2p)     1.23626
    10    C    1  pz     Ryd( 3p)     0.00029
    11    C    1  dxy    Ryd( 3d)     0.00133
    12    C    1  dxz    Ryd( 3d)     0.00131
    13    C    1  dyz    Ryd( 3d)     0.00089
    14    C    1  dx2y2  Ryd( 3d)     0.00175
    15    C    1  dz2    Ryd( 3d)     0.00112

    16    O    2  S      Cor( 1S)     1.99975
    17    O    2  S      Val( 2S)     1.60086
    18    O    2  S      Ryd( 3S)     0.00074
    19    O    2  S      Ryd( 4S)     0.00006
    20    O    2  px     Val( 2p)     1.42032
    21    O    2  px     Ryd( 3p)     0.00086
    22    O    2  py     Val( 2p)     1.69742
    23    O    2  py     Ryd( 3p)     0.00224
    24    O    2  pz     Val( 2p)     1.66455
    25    O    2  pz     Ryd( 3p)     0.00206
    26    O    2  dxy    Ryd( 3d)     0.00137
    27    O    2  dxz    Ryd( 3d)     0.00041
    28    O    2  dyz    Ryd( 3d)     0.00165
    29    O    2  dx2y2  Ryd( 3d)     0.00136
    30    O    2  dz2    Ryd( 3d)     0.00077

    31    C    3  S      Cor( 1S)     1.99879
    32    C    3  S      Val( 2S)     0.84634
    33    C    3  S      Ryd( 3S)     0.00160
    34    C    3  S      Ryd( 4S)     0.00015
    35    C    3  px     Val( 2p)     0.95444
    36    C    3  px     Ryd( 3p)     0.00408
    37    C    3  py     Val( 2p)     0.87990
    38    C    3  py     Ryd( 3p)     0.00875
    39    C    3  pz     Val( 2p)     0.94617
    40    C    3  pz     Ryd( 3p)     0.00128
    41    C    3  dxy    Ryd( 3d)     0.00183
    42    C    3  dxz    Ryd( 3d)     0.00138
    43    C    3  dyz    Ryd( 3d)     0.00152
    44    C    3  dx2y2  Ryd( 3d)     0.00139
    45    C    3  dz2    Ryd( 3d)     0.00049

    46    C    4  S      Cor( 1S)     1.99905
    47    C    4  S      Val( 2S)     0.95999
    48    C    4  S      Ryd( 3S)     0.00063
    49    C    4  S      Ryd( 4S)     0.00004
    50    C    4  px     Val( 2p)     1.19633
    51    C    4  px     Ryd( 3p)     0.00353
    52    C    4  py     Val( 2p)     1.06573
    53    C    4  py     Ryd( 3p)     0.00430
    54    C    4  pz     Val( 2p)     1.12515
    55    C    4  pz     Ryd( 3p)     0.00360
    56    C    4  dxy    Ryd( 3d)     0.00052
    57    C    4  dxz    Ryd( 3d)     0.00038
    58    C    4  dyz    Ryd( 3d)     0.00048
    59    C    4  dx2y2  Ryd( 3d)     0.00083
    60    C    4  dz2    Ryd( 3d)     0.00046

    61    C    5  S      Cor( 1S)     1.99914
    62    C    5  S      Val( 2S)     0.96685
    63    C    5  S      Ryd( 3S)     0.00072
    64    C    5  S      Ryd( 4S)     0.00004
    65    C    5  px     Val( 2p)     1.07360
    66    C    5  px     Ryd( 3p)     0.00507
    67    C    5  py     Val( 2p)     1.17992
    68    C    5  py     Ryd( 3p)     0.00515
    69    C    5  pz     Val( 2p)     0.97999
    70    C    5  pz     Ryd( 3p)     0.00221
    71    C    5  dxy    Ryd( 3d)     0.00074
    72    C    5  dxz    Ryd( 3d)     0.00066
    73    C    5  dyz    Ryd( 3d)     0.00039
    74    C    5  dx2y2  Ryd( 3d)     0.00079
    75    C    5  dz2    Ryd( 3d)     0.00044

    76    C    6  S      Cor( 1S)     1.99906
    77    C    6  S      Val( 2S)     0.97293
    78    C    6  S      Ryd( 3S)     0.00064
    79    C    6  S      Ryd( 4S)     0.00005
    80    C    6  px     Val( 2p)     1.11889
    81    C    6  px     Ryd( 3p)     0.00485
    82    C    6  py     Val( 2p)     1.13887
    83    C    6  py     Ryd( 3p)     0.00488
    84    C    6  pz     Val( 2p)     0.86739
    85    C    6  pz     Ryd( 3p)     0.00234
    86    C    6  dxy    Ryd( 3d)     0.00088
    87    C    6  dxz    Ryd( 3d)     0.00063
    88    C    6  dyz    Ryd( 3d)     0.00046
    89    C    6  dx2y2  Ryd( 3d)     0.00071
    90    C    6  dz2    Ryd( 3d)     0.00042

    91    C    7  S      Cor( 1S)     1.99896
    92    C    7  S      Val( 2S)     0.91505
    93    C    7  S      Ryd( 3S)     0.00117
    94    C    7  S      Ryd( 4S)     0.00006
    95    C    7  px     Val( 2p)     1.10818
    96    C    7  px     Ryd( 3p)     0.00575
    97    C    7  py     Val( 2p)     1.08331
    98    C    7  py     Ryd( 3p)     0.00632
    99    C    7  pz     Val( 2p)     1.03882
   100    C    7  pz     Ryd( 3p)     0.00191
   101    C    7  dxy    Ryd( 3d)     0.00069
   102    C    7  dxz    Ryd( 3d)     0.00106
   103    C    7  dyz    Ryd( 3d)     0.00045
   104    C    7  dx2y2  Ryd( 3d)     0.00074
   105    C    7  dz2    Ryd( 3d)     0.00035

   106    C    8  S      Cor( 1S)     1.99902
   107    C    8  S      Val( 2S)     0.96235
   108    C    8  S      Ryd( 3S)     0.00085
   109    C    8  S      Ryd( 4S)     0.00006
   110    C    8  px     Val( 2p)     1.04731
   111    C    8  px     Ryd( 3p)     0.00442
   112    C    8  py     Val( 2p)     1.20650
   113    C    8  py     Ryd( 3p)     0.00492
   114    C    8  pz     Val( 2p)     1.00212
   115    C    8  pz     Ryd( 3p)     0.00441
   116    C    8  dxy    Ryd( 3d)     0.00055
   117    C    8  dxz    Ryd( 3d)     0.00053
   118    C    8  dyz    Ryd( 3d)     0.00042
   119    C    8  dx2y2  Ryd( 3d)     0.00086
   120    C    8  dz2    Ryd( 3d)     0.00045

   121    C    9  S      Cor( 1S)     1.99937
   122    C    9  S      Val( 2S)     0.74353
   123    C    9  S      Ryd( 3S)     0.00353
   124    C    9  S      Ryd( 4S)     0.00033
   125    C    9  px     Val( 2p)     0.88653
   126    C    9  px     Ryd( 3p)     0.01115
   127    C    9  py     Val( 2p)     0.69228
   128    C    9  py     Ryd( 3p)     0.01887
   129    C    9  pz     Val( 2p)     0.94694
   130    C    9  pz     Ryd( 3p)     0.00207
   131    C    9  dxy    Ryd( 3d)     0.00176
   132    C    9  dxz    Ryd( 3d)     0.00137
   133    C    9  dyz    Ryd( 3d)     0.00228
   134    C    9  dx2y2  Ryd( 3d)     0.00375
   135    C    9  dz2    Ryd( 3d)     0.00042

   136    O   10  S      Cor( 1S)     1.99979
   137    O   10  S      Val( 2S)     1.69587
   138    O   10  S      Ryd( 3S)     0.00037
   139    O   10  S      Ryd( 4S)     0.00012
   140    O   10  px     Val( 2p)     1.71304
   141    O   10  px     Ryd( 3p)     0.00066
   142    O   10  py     Val( 2p)     1.71020
   143    O   10  py     Ryd( 3p)     0.00105
   144    O   10  pz     Val( 2p)     1.52725
   145    O   10  pz     Ryd( 3p)     0.00187
   146    O   10  dxy    Ryd( 3d)     0.00445
   147    O   10  dxz    Ryd( 3d)     0.00218
   148    O   10  dyz    Ryd( 3d)     0.00226
   149    O   10  dx2y2  Ryd( 3d)     0.00465
   150    O   10  dz2    Ryd( 3d)     0.00139

   151    O   11  S      Cor( 1S)     1.99975
   152    O   11  S      Val( 2S)     1.61587
   153    O   11  S      Ryd( 3S)     0.00126
   154    O   11  S      Ryd( 4S)     0.00014
   155    O   11  px     Val( 2p)     1.52870
   156    O   11  px     Ryd( 3p)     0.00072
   157    O   11  py     Val( 2p)     1.59308
   158    O   11  py     Ryd( 3p)     0.00150
   159    O   11  pz     Val( 2p)     1.82704
   160    O   11  pz     Ryd( 3p)     0.00194
   161    O   11  dxy    Ryd( 3d)     0.00123
   162    O   11  dxz    Ryd( 3d)     0.00065
   163    O   11  dyz    Ryd( 3d)     0.00123
   164    O   11  dx2y2  Ryd( 3d)     0.00123
   165    O   11  dz2    Ryd( 3d)     0.00069

   166    C   12  S      Cor( 1S)     1.99943
   167    C   12  S      Val( 2S)     1.10384
   168    C   12  S      Ryd( 3S)     0.00144
   169    C   12  S      Ryd( 4S)     0.00003
   170    C   12  px     Val( 2p)     0.76377
   171    C   12  px     Ryd( 3p)     0.00281
   172    C   12  py     Val( 2p)     1.19622
   173    C   12  py     Ryd( 3p)     0.00324
   174    C   12  pz     Val( 2p)     1.23645
   175    C   12  pz     Ryd( 3p)     0.00037
   176    C   12  dxy    Ryd( 3d)     0.00098
   177    C   12  dxz    Ryd( 3d)     0.00178
   178    C   12  dyz    Ryd( 3d)     0.00048
   179    C   12  dx2y2  Ryd( 3d)     0.00197
   180    C   12  dz2    Ryd( 3d)     0.00111

   181    H   13  S      Val( 1S)     0.76007
   182    H   13  S      Ryd( 2S)     0.00047

   183    H   14  S      Val( 1S)     0.77228
   184    H   14  S      Ryd( 2S)     0.00146

   185    H   15  S      Val( 1S)     0.77229
   186    H   15  S      Ryd( 2S)     0.00146

   187    H   16  S      Val( 1S)     0.76504
   188    H   16  S      Ryd( 2S)     0.00096

   189    H   17  S      Val( 1S)     0.75749
   190    H   17  S      Ryd( 2S)     0.00083

   191    H   18  S      Val( 1S)     0.73498
   192    H   18  S      Ryd( 2S)     0.00199

   193    H   19  S      Val( 1S)     0.73422
   194    H   19  S      Ryd( 2S)     0.00150

   195    H   20  S      Val( 1S)     0.78904
   196    H   20  S      Ryd( 2S)     0.00070

   197    H   21  S      Val( 1S)     0.78621
   198    H   21  S      Ryd( 2S)     0.00181

   199    H   22  S      Val( 1S)     0.78622
   200    H   22  S      Ryd( 2S)     0.00181

 WARNING:  1 low occupancy (<1.9990e) core orbital  found on  C    3
           1 low occupancy (<1.9990e) core orbital  found on  C    7


 Summary of Natural Population Analysis:                  
                                                          
                                       Natural Population 
                Natural  -----------------------------------------------
    Atom  No    Charge         Core      Valence    Rydberg      Total
 -----------------------------------------------------------------------
      C    1   -0.33107      1.99941     4.31753    0.01413     6.33107
      O    2   -0.39442      1.99975     6.38315    0.01152     8.39442
      C    3    0.35189      1.99879     3.62685    0.02247     5.64811
      C    4   -0.36103      1.99905     4.34719    0.01478     6.36103
      C    5   -0.21570      1.99914     4.20036    0.01620     6.21570
      C    6   -0.11300      1.99906     4.09808    0.01586     6.11300
      C    7   -0.16282      1.99896     4.14535    0.01851     6.16282
      C    8   -0.23478      1.99902     4.21829    0.01747     6.23478
      C    9    0.68582      1.99937     3.26928    0.04553     5.31418
      O   10   -0.66515      1.99979     6.64636    0.01899     8.66515
      O   11   -0.57502      1.99975     6.56469    0.01059     8.57502
      C   12   -0.31391      1.99943     4.30028    0.01421     6.31391
      H   13    0.23946      0.00000     0.76007    0.00047     0.76054
      H   14    0.22625      0.00000     0.77228    0.00146     0.77375
      H   15    0.22626      0.00000     0.77229    0.00146     0.77374
      H   16    0.23400      0.00000     0.76504    0.00096     0.76600
      H   17    0.24168      0.00000     0.75749    0.00083     0.75832
      H   18    0.26303      0.00000     0.73498    0.00199     0.73697
      H   19    0.26428      0.00000     0.73422    0.00150     0.73572
      H   20    0.21027      0.00000     0.78904    0.00070     0.78973
      H   21    0.21198      0.00000     0.78621    0.00181     0.78802
      H   22    0.21197      0.00000     0.78622    0.00181     0.78803
 =======================================================================
   * Total *   -0.00000     23.99154    63.77523    0.23323    88.00000

                                 Natural Population      
 --------------------------------------------------------
   Core                      23.99154 ( 99.9647% of  24)
   Valence                   63.77523 ( 99.6488% of  64)
   Natural Minimal Basis     87.76677 ( 99.7350% of  88)
   Natural Rydberg Basis      0.23323 (  0.2650% of  88)
 --------------------------------------------------------

    Atom  No          Natural Electron Configuration
 ----------------------------------------------------------------------------
      C    1      [core]2S( 1.11)2p( 3.21)3p( 0.01)3d( 0.01)
      O    2      [core]2S( 1.60)2p( 4.78)3p( 0.01)3d( 0.01)
      C    3      [core]2S( 0.85)2p( 2.78)3p( 0.01)3d( 0.01)
      C    4      [core]2S( 0.96)2p( 3.39)3p( 0.01)
      C    5      [core]2S( 0.97)2p( 3.23)3p( 0.01)
      C    6      [core]2S( 0.97)2p( 3.13)3p( 0.01)
      C    7      [core]2S( 0.92)2p( 3.23)3p( 0.01)
      C    8      [core]2S( 0.96)2p( 3.26)3p( 0.01)
      C    9      [core]2S( 0.74)2p( 2.53)3p( 0.03)3d( 0.01)
      O   10      [core]2S( 1.70)2p( 4.95)3d( 0.01)
      O   11      [core]2S( 1.62)2p( 4.95)3d( 0.01)
      C   12      [core]2S( 1.10)2p( 3.20)3p( 0.01)3d( 0.01)
      H   13            1S( 0.76)
      H   14            1S( 0.77)
      H   15            1S( 0.77)
      H   16            1S( 0.77)
      H   17            1S( 0.76)
      H   18            1S( 0.73)
      H   19            1S( 0.73)
      H   20            1S( 0.79)
      H   21            1S( 0.79)
      H   22            1S( 0.79)


 NBO analysis skipped by request.
 Leave Link  607 at Wed Sep 29 04:15:16 2021, MaxMem=  805306368 cpu:      11.1
 (Enter /sw/target/amd/app/gaussian/Gaussian09RevA.02_gcc-4.9.2/g09/l9999.exe)
 1\1\GINC-HERMITE\SP\RTD-B3LYP-FC\6-31G(d)\C9H10O3\JSCHLEINITZ\29-Sep-2
 021\0\\#p TD(NStates=10, Root=1) b3lyp/6-31G* volume pop=NPA density=c
 urrent Geom=AllCheck Guess=Read\\COc1cccc(c1)C(=O)OC_conf_0\\0,1\C,0,1
 .666197899,0.1351698311,-1.8664234988\O,0,2.6163314889,-0.6228366385,-
 1.134873584\C,0,3.4320473545,-1.4751340885,-1.8223524466\C,0,3.4034147
 894,-1.6591454035,-3.2101488995\C,0,4.2909551461,-2.5631426549,-3.8049
 46544\C,0,5.2003105955,-3.2808690572,-3.0386877134\C,0,5.2254398065,-3
 .0930934641,-1.6477065785\C,0,4.3460722258,-2.1949460443,-1.0419990687
 \C,0,6.2155910427,-3.8813966881,-0.8584280572\O,0,7.0019413005,-4.6748
 765993,-1.3377858716\O,0,6.1501878575,-3.6207235817,0.4681711776\C,0,7
 .0804903198,-4.3506146938,1.2807026132\H,0,1.1314083862,0.7360121668,-
 1.128648542\H,0,0.9518187328,-0.5116129144,-2.3930762713\H,0,2.1521691
 004,0.8010911968,-2.5919758422\H,0,2.7033177413,-1.1109846619,-3.83021
 52273\H,0,4.262411142,-2.7001906777,-4.8824727152\H,0,5.8929167789,-3.
 9839837999,-3.4872479263\H,0,4.3553981716,-2.0409385507,0.0302523557\H
 ,0,6.8934009622,-4.0239351201,2.3041992622\H,0,8.1088537893,-4.1241569
 613,0.9862834233\H,0,6.9141445459,-5.4269287828,1.1837819379\\Version=
 AM64L-G09RevA.02\State=1-A\HF=-574.6508342\RMSD=8.353e-09\Dipole=-2.08
 44991,1.8287397,-0.5362688\Quadrupole=-0.2280987,-2.0247473,2.2528459,
 -3.5450479,4.3810335,-2.9445202\PG=C01 [X(C9H10O3)]\\@


 SI MONUMENTUM REQUIRIS, CIRCUMSPICE
     -- FROM SIR CHRISTOPHER WREN'S TOMBSTONE
 Job cpu time:  0 days  1 hours 33 minutes 48.4 seconds.
 File lengths (MBytes):  RWF=    139 Int=      0 D2E=      0 Chk=     19 Scr=      1
 Normal termination of Gaussian 09 at Wed Sep 29 04:15:19 2021.
