 Entering Gaussian System, Link 0=g09
 Input=C9H13LiOSi_4f26_conf_0.com
 Output=C9H13LiOSi_4f26_conf_0.log
 Initial command:
 /sw/target/amd/app/gaussian/Gaussian09RevA.02_gcc-4.9.2/g09/l1.exe /home/jschleinitz/gaussian/Gau-4053018.inp -scrdir=/home/jschleinitz/gaussian/
 Entering Link 1 = /sw/target/amd/app/gaussian/Gaussian09RevA.02_gcc-4.9.2/g09/l1.exe PID=   4053028.
  
 Copyright (c) 1988,1990,1992,1993,1995,1998,2003,2009, Gaussian, Inc.
                  All Rights Reserved.
  
 This is part of the Gaussian(R) 09 program.  It is based on
 the Gaussian(R) 03 system (copyright 2003, Gaussian, Inc.),
 the Gaussian(R) 98 system (copyright 1998, Gaussian, Inc.),
 the Gaussian(R) 94 system (copyright 1995, Gaussian, Inc.),
 the Gaussian 92(TM) system (copyright 1992, Gaussian, Inc.),
 the Gaussian 90(TM) system (copyright 1990, Gaussian, Inc.),
 the Gaussian 88(TM) system (copyright 1988, Gaussian, Inc.),
 the Gaussian 86(TM) system (copyright 1986, Carnegie Mellon
 University), and the Gaussian 82(TM) system (copyright 1983,
 Carnegie Mellon University). Gaussian is a federally registered
 trademark of Gaussian, Inc.
  
 This software contains proprietary and confidential information,
 including trade secrets, belonging to Gaussian, Inc.
  
 This software is provided under written license and may be
 used, copied, transmitted, or stored only in accord with that
 written license.
  
 The following legend is applicable only to US Government
 contracts under FAR:
  
                    RESTRICTED RIGHTS LEGEND
  
 Use, reproduction and disclosure by the US Government is
 subject to restrictions as set forth in subparagraphs (a)
 and (c) of the Commercial Computer Software - Restricted
 Rights clause in FAR 52.227-19.
  
 Gaussian, Inc.
 340 Quinnipiac St., Bldg. 40, Wallingford CT 06492
  
  
 ---------------------------------------------------------------
 Warning -- This program may not be used in any manner that
 competes with the business of Gaussian, Inc. or will provide
 assistance to any competitor of Gaussian, Inc.  The licensee
 of this program is prohibited from giving any competitor of
 Gaussian, Inc. access to this program.  By using this program,
 the user acknowledges that Gaussian, Inc. is engaged in the
 business of creating and licensing software in the field of
 computational chemistry and represents and warrants to the
 licensee that it is not a competitor of Gaussian, Inc. and that
 it will not use this program in any manner prohibited above.
 ---------------------------------------------------------------
  

 Cite this work as:
 Gaussian 09, Revision A.02,
 M. J. Frisch, G. W. Trucks, H. B. Schlegel, G. E. Scuseria, 
 M. A. Robb, J. R. Cheeseman, G. Scalmani, V. Barone, B. Mennucci, 
 G. A. Petersson, H. Nakatsuji, M. Caricato, X. Li, H. P. Hratchian, 
 A. F. Izmaylov, J. Bloino, G. Zheng, J. L. Sonnenberg, M. Hada, 
 M. Ehara, K. Toyota, R. Fukuda, J. Hasegawa, M. Ishida, T. Nakajima, 
 Y. Honda, O. Kitao, H. Nakai, T. Vreven, J. A. Montgomery, Jr., 
 J. E. Peralta, F. Ogliaro, M. Bearpark, J. J. Heyd, E. Brothers, 
 K. N. Kudin, V. N. Staroverov, R. Kobayashi, J. Normand, 
 K. Raghavachari, A. Rendell, J. C. Burant, S. S. Iyengar, J. Tomasi, 
 M. Cossi, N. Rega, J. M. Millam, M. Klene, J. E. Knox, J. B. Cross, 
 V. Bakken, C. Adamo, J. Jaramillo, R. Gomperts, R. E. Stratmann, 
 O. Yazyev, A. J. Austin, R. Cammi, C. Pomelli, J. W. Ochterski, 
 R. L. Martin, K. Morokuma, V. G. Zakrzewski, G. A. Voth, 
 P. Salvador, J. J. Dannenberg, S. Dapprich, A. D. Daniels, 
 O. Farkas, J. B. Foresman, J. V. Ortiz, J. Cioslowski, 
 and D. J. Fox, Gaussian, Inc., Wallingford CT, 2009.
 
 ******************************************
 Gaussian 09:  AM64L-G09RevA.02 11-Jun-2009
                 2-Oct-2021 
 ******************************************
 %nproc=4
 Will use up to    4 processors via shared memory.
 %mem=8gb
 %chk=C9H13LiOSi_4f26_conf_0.chk
 -----------------------------------
 #p opt b3lyp/6-31G* scf=(xqc,tight)
 -----------------------------------
 1/14=-1,18=20,19=15,26=3,38=1/1,3;
 2/9=110,12=2,17=6,18=5,40=1/2;
 3/5=1,6=6,7=1,11=2,16=1,25=1,30=1,71=1,74=-5/1,2,3;
 4//1;
 5/5=2,8=3,13=1,32=2,38=5/2,8;
 6/7=2,8=2,9=2,10=2,28=1/1;
 7//1,2,3,16;
 1/14=-1,18=20,19=15/3(2);
 2/9=110/2;
 99//99;
 2/9=110/2;
 3/5=1,6=6,7=1,11=2,16=1,25=1,30=1,71=1,74=-5/1,2,3;
 4/5=5,16=3/1;
 5/5=2,8=3,13=1,32=2,38=5/2,8;
 7//1,2,3,16;
 1/14=-1,18=20,19=15/3(-5);
 2/9=110/2;
 6/7=2,8=2,9=2,10=2,19=2,28=1/1;
 99/9=1/99;
 Leave Link    1 at Sat Oct  2 19:10:48 2021, MaxMem= 1073741824 cpu:       0.1
 (Enter /sw/target/amd/app/gaussian/Gaussian09RevA.02_gcc-4.9.2/g09/l101.exe)
 ---------------------------------
 [Li]c1ccc(cc1)O[Si](C)(C)C_conf_0
 ---------------------------------
 Symbolic Z-matrix:
 Charge =  0 Multiplicity = 1
 Li                    5.91528   3.52497  -5.51701 
 C                     6.33325   2.22772  -4.02162 
 C                     7.28364   1.22464  -4.21468 
 C                     7.57638   0.32537  -3.18435 
 C                     6.91343   0.42521  -1.94211 
 C                     5.96095   1.43905  -1.76429 
 C                     5.6721    2.33557  -2.79777 
 O                     7.14684  -0.41226  -0.89823 
 Si                    8.22876  -1.73117  -0.79039 
 C                     8.07465  -2.4755    0.9144 
 C                     7.79129  -3.05527  -2.03862 
 C                     9.99758  -1.16135  -1.01219 
 H                     7.79339   1.14538  -5.16554 
 H                     8.31603  -0.43473  -3.37274 
 H                     5.44127   1.53264  -0.81874 
 H                     4.93588   3.11448  -2.65174 
 H                     7.03338  -2.82342   1.07322 
 H                     8.32972  -1.71061   1.67625 
 H                     8.76987  -3.33513   1.0062 
 H                     6.75039  -3.39483  -1.86064 
 H                     8.48285  -3.91385  -1.91676 
 H                     7.87587  -2.66776  -3.07231 
 H                     10.2362  -0.40278  -0.2388 
 H                     10.14725  -0.71763  -2.01548 
 H                     10.67764  -2.02984  -0.89589 
 
 NAtoms=     25 NQM=     25 NQMF=      0 NMic=      0 NMicF=      0 NTot=     25.
                    Isotopes and Nuclear Properties:
 (Nuclear quadrupole moments (NQMom) in fm**2, nuclear magnetic moments (NMagM)
  in nuclear magnetons)

  Atom         1           2           3           4           5           6           7           8           9          10
 IAtWgt=           7          12          12          12          12          12          12          16          28          12
 AtmWgt=   7.0160045  12.0000000  12.0000000  12.0000000  12.0000000  12.0000000  12.0000000  15.9949146  27.9769284  12.0000000
 NucSpn=           3           0           0           0           0           0           0           0           0           0
 AtZEff=   0.0000000   0.0000000   0.0000000   0.0000000   0.0000000   0.0000000   0.0000000   0.0000000   0.0000000   0.0000000
 NQMom=   -4.0100000   0.0000000   0.0000000   0.0000000   0.0000000   0.0000000   0.0000000   0.0000000   0.0000000   0.0000000
 NMagM=    3.2564240   0.0000000   0.0000000   0.0000000   0.0000000   0.0000000   0.0000000   0.0000000   0.0000000   0.0000000

  Atom        11          12          13          14          15          16          17          18          19          20
 IAtWgt=          12          12           1           1           1           1           1           1           1           1
 AtmWgt=  12.0000000  12.0000000   1.0078250   1.0078250   1.0078250   1.0078250   1.0078250   1.0078250   1.0078250   1.0078250
 NucSpn=           0           0           1           1           1           1           1           1           1           1
 AtZEff=   0.0000000   0.0000000   0.0000000   0.0000000   0.0000000   0.0000000   0.0000000   0.0000000   0.0000000   0.0000000
 NQMom=    0.0000000   0.0000000   0.0000000   0.0000000   0.0000000   0.0000000   0.0000000   0.0000000   0.0000000   0.0000000
 NMagM=    0.0000000   0.0000000   2.7928460   2.7928460   2.7928460   2.7928460   2.7928460   2.7928460   2.7928460   2.7928460

  Atom        21          22          23          24          25
 IAtWgt=           1           1           1           1           1
 AtmWgt=   1.0078250   1.0078250   1.0078250   1.0078250   1.0078250
 NucSpn=           1           1           1           1           1
 AtZEff=   0.0000000   0.0000000   0.0000000   0.0000000   0.0000000
 NQMom=    0.0000000   0.0000000   0.0000000   0.0000000   0.0000000
 NMagM=    2.7928460   2.7928460   2.7928460   2.7928460   2.7928460
 Leave Link  101 at Sat Oct  2 19:10:50 2021, MaxMem= 1073741824 cpu:       0.2
 (Enter /sw/target/amd/app/gaussian/Gaussian09RevA.02_gcc-4.9.2/g09/l103.exe)

 GradGradGradGradGradGradGradGradGradGradGradGradGradGradGradGradGradGrad
 Berny optimization.
 Initialization pass.
                           ----------------------------
                           !    Initial Parameters    !
                           ! (Angstroms and Degrees)  !
 --------------------------                            --------------------------
 ! Name  Definition              Value          Derivative Info.                !
 --------------------------------------------------------------------------------
 ! R1    R(1,2)                  2.0233         estimate D2E/DX2                !
 ! R2    R(2,3)                  1.3952         estimate D2E/DX2                !
 ! R3    R(2,7)                  1.3952         estimate D2E/DX2                !
 ! R4    R(3,4)                  1.3986         estimate D2E/DX2                !
 ! R5    R(3,13)                 1.0818         estimate D2E/DX2                !
 ! R6    R(4,5)                  1.4116         estimate D2E/DX2                !
 ! R7    R(4,14)                 1.0772         estimate D2E/DX2                !
 ! R8    R(5,6)                  1.4024         estimate D2E/DX2                !
 ! R9    R(5,8)                  1.3585         estimate D2E/DX2                !
 ! R10   R(6,7)                  1.3983         estimate D2E/DX2                !
 ! R11   R(6,15)                 1.083          estimate D2E/DX2                !
 ! R12   R(7,16)                 1.0817         estimate D2E/DX2                !
 ! R13   R(8,9)                  1.7093         estimate D2E/DX2                !
 ! R14   R(9,10)                 1.8666         estimate D2E/DX2                !
 ! R15   R(9,11)                 1.8715         estimate D2E/DX2                !
 ! R16   R(9,12)                 1.8715         estimate D2E/DX2                !
 ! R17   R(10,17)                1.1093         estimate D2E/DX2                !
 ! R18   R(10,18)                1.1093         estimate D2E/DX2                !
 ! R19   R(10,19)                1.1094         estimate D2E/DX2                !
 ! R20   R(11,20)                1.1093         estimate D2E/DX2                !
 ! R21   R(11,21)                1.1092         estimate D2E/DX2                !
 ! R22   R(11,22)                1.1072         estimate D2E/DX2                !
 ! R23   R(12,23)                1.1093         estimate D2E/DX2                !
 ! R24   R(12,24)                1.1072         estimate D2E/DX2                !
 ! R25   R(12,25)                1.1092         estimate D2E/DX2                !
 ! A1    A(1,2,3)              119.9599         estimate D2E/DX2                !
 ! A2    A(1,2,7)              120.057          estimate D2E/DX2                !
 ! A3    A(3,2,7)              119.9832         estimate D2E/DX2                !
 ! A4    A(2,3,4)              120.1928         estimate D2E/DX2                !
 ! A5    A(2,3,13)             119.6877         estimate D2E/DX2                !
 ! A6    A(4,3,13)             120.1195         estimate D2E/DX2                !
 ! A7    A(3,4,5)              120.3005         estimate D2E/DX2                !
 ! A8    A(3,4,14)             117.9439         estimate D2E/DX2                !
 ! A9    A(5,4,14)             121.7557         estimate D2E/DX2                !
 ! A10   A(4,5,6)              118.7958         estimate D2E/DX2                !
 ! A11   A(4,5,8)              123.4987         estimate D2E/DX2                !
 ! A12   A(6,5,8)              117.7054         estimate D2E/DX2                !
 ! A13   A(5,6,7)              120.6699         estimate D2E/DX2                !
 ! A14   A(5,6,15)             119.9395         estimate D2E/DX2                !
 ! A15   A(7,6,15)             119.3907         estimate D2E/DX2                !
 ! A16   A(2,7,6)              120.0578         estimate D2E/DX2                !
 ! A17   A(2,7,16)             119.7771         estimate D2E/DX2                !
 ! A18   A(6,7,16)             120.1651         estimate D2E/DX2                !
 ! A19   A(5,8,9)              129.2645         estimate D2E/DX2                !
 ! A20   A(8,9,10)             108.2434         estimate D2E/DX2                !
 ! A21   A(8,9,11)             110.8467         estimate D2E/DX2                !
 ! A22   A(8,9,12)             110.8437         estimate D2E/DX2                !
 ! A23   A(10,9,11)            107.9217         estimate D2E/DX2                !
 ! A24   A(10,9,12)            107.9201         estimate D2E/DX2                !
 ! A25   A(11,9,12)            110.9338         estimate D2E/DX2                !
 ! A26   A(9,10,17)            109.4715         estimate D2E/DX2                !
 ! A27   A(9,10,18)            109.4699         estimate D2E/DX2                !
 ! A28   A(9,10,19)            109.4408         estimate D2E/DX2                !
 ! A29   A(17,10,18)           109.4982         estimate D2E/DX2                !
 ! A30   A(17,10,19)           109.4737         estimate D2E/DX2                !
 ! A31   A(18,10,19)           109.4732         estimate D2E/DX2                !
 ! A32   A(9,11,20)            109.2026         estimate D2E/DX2                !
 ! A33   A(9,11,21)            109.1857         estimate D2E/DX2                !
 ! A34   A(9,11,22)            110.929          estimate D2E/DX2                !
 ! A35   A(20,11,21)           109.2983         estimate D2E/DX2                !
 ! A36   A(20,11,22)           109.185          estimate D2E/DX2                !
 ! A37   A(21,11,22)           109.0182         estimate D2E/DX2                !
 ! A38   A(9,12,23)            109.2014         estimate D2E/DX2                !
 ! A39   A(9,12,24)            110.9263         estimate D2E/DX2                !
 ! A40   A(9,12,25)            109.1864         estimate D2E/DX2                !
 ! A41   A(23,12,24)           109.1864         estimate D2E/DX2                !
 ! A42   A(23,12,25)           109.2961         estimate D2E/DX2                !
 ! A43   A(24,12,25)           109.022          estimate D2E/DX2                !
 ! D1    D(1,2,3,4)            179.9979         estimate D2E/DX2                !
 ! D2    D(1,2,3,13)            -0.0102         estimate D2E/DX2                !
 ! D3    D(7,2,3,4)              0.0065         estimate D2E/DX2                !
 ! D4    D(7,2,3,13)           179.9984         estimate D2E/DX2                !
 ! D5    D(1,2,7,6)           -180.0            estimate D2E/DX2                !
 ! D6    D(1,2,7,16)             0.0097         estimate D2E/DX2                !
 ! D7    D(3,2,7,6)             -0.0086         estimate D2E/DX2                !
 ! D8    D(3,2,7,16)          -179.999          estimate D2E/DX2                !
 ! D9    D(2,3,4,5)             -0.0026         estimate D2E/DX2                !
 ! D10   D(2,3,4,14)           179.9963         estimate D2E/DX2                !
 ! D11   D(13,3,4,5)          -179.9945         estimate D2E/DX2                !
 ! D12   D(13,3,4,14)            0.0044         estimate D2E/DX2                !
 ! D13   D(3,4,5,6)              0.0009         estimate D2E/DX2                !
 ! D14   D(3,4,5,8)            179.9995         estimate D2E/DX2                !
 ! D15   D(14,4,5,6)          -179.998          estimate D2E/DX2                !
 ! D16   D(14,4,5,8)             0.0006         estimate D2E/DX2                !
 ! D17   D(4,5,6,7)             -0.0031         estimate D2E/DX2                !
 ! D18   D(4,5,6,15)          -179.999          estimate D2E/DX2                !
 ! D19   D(8,5,6,7)            179.9983         estimate D2E/DX2                !
 ! D20   D(8,5,6,15)             0.0024         estimate D2E/DX2                !
 ! D21   D(4,5,8,9)              0.0156         estimate D2E/DX2                !
 ! D22   D(6,5,8,9)           -179.9859         estimate D2E/DX2                !
 ! D23   D(5,6,7,2)              0.0069         estimate D2E/DX2                !
 ! D24   D(5,6,7,16)           179.9973         estimate D2E/DX2                !
 ! D25   D(15,6,7,2)          -179.9971         estimate D2E/DX2                !
 ! D26   D(15,6,7,16)           -0.0068         estimate D2E/DX2                !
 ! D27   D(5,8,9,10)          -179.9949         estimate D2E/DX2                !
 ! D28   D(5,8,9,11)           -61.8165         estimate D2E/DX2                !
 ! D29   D(5,8,9,12)            61.8304         estimate D2E/DX2                !
 ! D30   D(8,9,10,17)           60.0175         estimate D2E/DX2                !
 ! D31   D(8,9,10,18)          -60.0149         estimate D2E/DX2                !
 ! D32   D(8,9,10,19)         -179.9979         estimate D2E/DX2                !
 ! D33   D(11,9,10,17)         -60.0098         estimate D2E/DX2                !
 ! D34   D(11,9,10,18)         179.9577         estimate D2E/DX2                !
 ! D35   D(11,9,10,19)          59.9748         estimate D2E/DX2                !
 ! D36   D(12,9,10,17)        -179.9595         estimate D2E/DX2                !
 ! D37   D(12,9,10,18)          60.0081         estimate D2E/DX2                !
 ! D38   D(12,9,10,19)         -59.9749         estimate D2E/DX2                !
 ! D39   D(8,9,11,20)          -58.2285         estimate D2E/DX2                !
 ! D40   D(8,9,11,21)         -177.6826         estimate D2E/DX2                !
 ! D41   D(8,9,11,22)           62.1533         estimate D2E/DX2                !
 ! D42   D(10,9,11,20)          60.1451         estimate D2E/DX2                !
 ! D43   D(10,9,11,21)         -59.309          estimate D2E/DX2                !
 ! D44   D(10,9,11,22)        -179.4731         estimate D2E/DX2                !
 ! D45   D(12,9,11,20)         178.1763         estimate D2E/DX2                !
 ! D46   D(12,9,11,21)          58.7221         estimate D2E/DX2                !
 ! D47   D(12,9,11,22)         -61.4419         estimate D2E/DX2                !
 ! D48   D(8,9,12,23)           58.2412         estimate D2E/DX2                !
 ! D49   D(8,9,12,24)          -62.14           estimate D2E/DX2                !
 ! D50   D(8,9,12,25)          177.6924         estimate D2E/DX2                !
 ! D51   D(10,9,12,23)         -60.1297         estimate D2E/DX2                !
 ! D52   D(10,9,12,24)         179.489          estimate D2E/DX2                !
 ! D53   D(10,9,12,25)          59.3214         estimate D2E/DX2                !
 ! D54   D(11,9,12,23)        -178.1619         estimate D2E/DX2                !
 ! D55   D(11,9,12,24)          61.4569         estimate D2E/DX2                !
 ! D56   D(11,9,12,25)         -58.7107         estimate D2E/DX2                !
 --------------------------------------------------------------------------------
 Trust Radius=3.00D-01 FncErr=1.00D-07 GrdErr=1.00D-06
 Number of steps in this run= 134 maximum allowed number of steps= 150.
 GradGradGradGradGradGradGradGradGradGradGradGradGradGradGradGradGradGrad

 Leave Link  103 at Sat Oct  2 19:10:50 2021, MaxMem= 1073741824 cpu:       0.0
 (Enter /sw/target/amd/app/gaussian/Gaussian09RevA.02_gcc-4.9.2/g09/l202.exe)
                          Input orientation:                          
 ---------------------------------------------------------------------
 Center     Atomic      Atomic             Coordinates (Angstroms)
 Number     Number       Type             X           Y           Z
 ---------------------------------------------------------------------
      1          3           0        5.915281    3.524973   -5.517011
      2          6           0        6.333253    2.227718   -4.021616
      3          6           0        7.283641    1.224641   -4.214676
      4          6           0        7.576377    0.325366   -3.184348
      5          6           0        6.913434    0.425213   -1.942111
      6          6           0        5.960950    1.439047   -1.764294
      7          6           0        5.672104    2.335570   -2.797774
      8          8           0        7.146836   -0.412262   -0.898234
      9         14           0        8.228764   -1.731169   -0.790392
     10          6           0        8.074647   -2.475503    0.914401
     11          6           0        7.791289   -3.055268   -2.038618
     12          6           0        9.997580   -1.161346   -1.012193
     13          1           0        7.793390    1.145382   -5.165536
     14          1           0        8.316028   -0.434733   -3.372737
     15          1           0        5.441269    1.532638   -0.818739
     16          1           0        4.935884    3.114480   -2.651735
     17          1           0        7.033375   -2.823416    1.073221
     18          1           0        8.329723   -1.710614    1.676250
     19          1           0        8.769865   -3.335132    1.006203
     20          1           0        6.750388   -3.394827   -1.860643
     21          1           0        8.482845   -3.913848   -1.916756
     22          1           0        7.875868   -2.667764   -3.072308
     23          1           0       10.236202   -0.402781   -0.238805
     24          1           0       10.147245   -0.717632   -2.015481
     25          1           0       10.677637   -2.029836   -0.895888
 ---------------------------------------------------------------------
                    Distance matrix (angstroms):
                    1          2          3          4          5
     1  Li   0.000000
     2  C    2.023308   0.000000
     3  C    2.976577   1.395232   0.000000
     4  C    4.293953   2.421842   1.398559   0.000000
     5  C    4.835776   2.812468   2.437354   1.411601   0.000000
     6  C    4.293722   2.419940   2.792822   2.422074   1.402392
     7  C    2.977929   1.395184   2.416366   2.795821   2.433623
     8  O    6.192870   4.169762   3.700940   2.440270   1.358498
     9  Si   7.437751   5.450372   4.621233   3.222727   2.776064
    10  C    9.057131   7.036832   6.373711   4.989277   4.233466
    11  C    7.675818   5.828215   4.828101   3.575971   3.590778
    12  C    7.675945   5.828351   4.828488   3.576422   3.590804
    13  H    3.051766   2.147558   1.081786   2.155140   3.418104
    14  H    5.103015   3.382467   2.127959   1.077184   2.180245
    15  H    5.125216   3.396644   3.875769   3.407682   2.157690
    16  H    3.055736   2.148385   3.395032   3.877504   3.412687
    17  H    9.218640   7.208431   6.664177   5.323211   4.433983
    18  H    9.218671   7.208469   6.664310   5.323360   4.433978
    19  H    9.887467   7.884246   7.089286   5.690727   5.126313
    20  H    7.870835   6.037947   5.212035   4.034139   3.824385
    21  H    8.653917   6.838860   5.755224   4.516570   4.614233
    22  H    6.940494   5.219826   4.099580   3.010161   3.430762
    23  H    7.871281   6.038393   5.212837   4.034984   3.824606
    24  H    6.940456   5.219790   4.099892   3.010558   3.430600
    25  H    8.653942   6.838904   5.755448   4.516840   4.614225
                    6          7          8          9         10
     6  C    0.000000
     7  C    1.398308   0.000000
     8  O    2.362991   3.651529   0.000000
     9  Si   4.017677   5.206194   1.709302   0.000000
    10  C    5.192959   6.534438   2.898870   1.866576   0.000000
    11  C    4.860479   5.841951   2.949793   1.871547   3.022704
    12  C    4.860255   5.841786   2.949721   1.871525   3.022656
    13  H    3.874600   3.394510   4.588480   5.254140   7.082059
    14  H    3.412409   3.872402   2.736910   2.890824   4.754215
    15  H    1.083006   2.148154   2.588032   4.292245   5.099377
    16  H    2.155317   1.081688   4.516745   6.147192   7.336012
    17  H    5.231651   6.591873   3.116597   2.468808   1.109285
    18  H    5.231519   6.591770   3.116554   2.468793   1.109294
    19  H    6.193419   7.498214   3.847632   2.468449   1.109377
    20  H    4.898860   5.905790   3.158971   2.469573   3.209313
    21  H    5.919179   6.908812   3.883737   2.469279   3.201705
    22  H    4.716323   5.474056   3.216422   2.491763   3.996289
    23  H    4.898696   5.905750   3.158974   2.469549   3.209110
    24  H    4.715870   5.473657   3.216201   2.491720   3.996246
    25  H    5.918987   6.908639   3.883698   2.469273   3.201769
                   11         12         13         14         15
    11  C    0.000000
    12  C    3.083538   0.000000
    13  H    5.236706   5.237338   0.000000
    14  H    2.987043   2.987934   2.446231   0.000000
    15  H    5.297129   5.296692   4.957528   4.319455   0.000000
    16  H    6.826056   6.825801   4.285076   4.954002   2.473361
    17  H    3.211188   3.987222   7.433107   5.207451   5.008944
    18  H    3.987261   3.211101   7.433331   5.207718   5.008674
    19  H    3.210431   3.210382   7.688880   5.271944   6.172936
    20  H    1.109256   4.031446   5.711713   3.674208   5.203774
    21  H    1.109171   3.269392   6.051920   3.775175   6.334117
    22  H    1.107171   3.318890   4.350689   2.295741   5.352496
    23  H    4.031453   1.109275   5.712865   3.675544   5.203225
    24  H    3.318976   1.107189   4.351357   2.296853   5.351833
    25  H    3.269304   1.109179   6.052338   3.775756   6.333776
                   16         17         18         19         20
    16  H    0.000000
    17  H    7.316651   0.000000
    18  H    7.316497   1.811764   0.000000
    19  H    8.347300   1.811558   1.811559   0.000000
    20  H    6.803626   3.002358   4.223800   3.507229   0.000000
    21  H    7.906866   3.497137   4.217508   2.993490   1.809403
    22  H    6.500364   4.233135   4.865277   4.228340   1.806503
    23  H    6.803435   4.223622   3.002087   3.506975   4.871714
    24  H    6.499861   4.865243   4.232999   4.228363   4.327815
    25  H    7.906625   4.217559   3.497213   2.993550   4.268165
                   21         22         23         24         25
    21  H    0.000000
    22  H    1.804563   0.000000
    23  H    4.268181   4.327825   0.000000
    24  H    3.604964   3.174752   1.806550   0.000000
    25  H    3.067374   3.604673   1.809401   1.804628   0.000000
 Stoichiometry    C9H13LiOSi
 Framework group  C1[X(C9H13LiOSi)]
 Deg. of freedom    69
 Full point group                 C1      NOp   1
 Largest Abelian subgroup         C1      NOp   1
 Largest concise Abelian subgroup C1      NOp   1
                         Standard orientation:                         
 ---------------------------------------------------------------------
 Center     Atomic      Atomic             Coordinates (Angstroms)
 Number     Number       Type             X           Y           Z
 ---------------------------------------------------------------------
      1          3           0        5.425772   -0.786669    0.000241
      2          6           0        3.473504   -0.255233    0.000012
      3          6           0        2.483700   -1.238575    0.000049
      4          6           0        1.132763   -0.876724   -0.000064
      5          6           0        0.760146    0.484810   -0.000159
      6          6           0        1.767216    1.460778   -0.000158
      7          6           0        3.116423    1.093481    0.000000
      8          8           0       -0.530441    0.908961   -0.000281
      9         14           0       -1.971371   -0.010514    0.000009
     10          6           0       -3.417572    1.169575   -0.000502
     11          6           0       -2.088477   -1.065620   -1.541330
     12          6           0       -2.088573   -1.064312    1.542208
     13          1           0        2.765959   -2.282888    0.000033
     14          1           0        0.398969   -1.665311   -0.000092
     15          1           0        1.502243    2.510869   -0.000213
     16          1           0        3.886530    1.853076   -0.000046
     17          1           0       -3.373597    1.807941   -0.906630
     18          1           0       -3.373622    1.808657    0.905133
     19          1           0       -4.365036    0.592488   -0.000283
     20          1           0       -2.049177   -0.410624   -2.435693
     21          1           0       -3.050607   -1.617433   -1.533092
     22          1           0       -1.255452   -1.793529   -1.586559
     23          1           0       -2.049590   -0.408514    2.436020
     24          1           0       -1.255370   -1.791998    1.588193
     25          1           0       -3.050615   -1.616301    1.534282
 ---------------------------------------------------------------------
 Rotational constants (GHZ):      2.0245638      0.4449588      0.4127410
 Leave Link  202 at Sat Oct  2 19:10:50 2021, MaxMem= 1073741824 cpu:       0.0
 (Enter /sw/target/amd/app/gaussian/Gaussian09RevA.02_gcc-4.9.2/g09/l301.exe)
 Standard basis: 6-31G(d) (6D, 7F)
 Ernie: Thresh=  0.10000D-02 Tol=  0.10000D-05 Strict=F.
 There are   210 symmetry adapted basis functions of A   symmetry.
 Integral buffers will be    131072 words long.
 Raffenetti 2 integral format.
 Two-electron integral symmetry is turned on.
   210 basis functions,   412 primitive gaussians,   210 cartesian basis functions
    46 alpha electrons       46 beta electrons
       nuclear repulsion energy       705.9235865469 Hartrees.
 IExCor=  402 DFT=T Ex+Corr=B3LYP ExCW=0 ScaHFX=  0.200000
 ScaDFX=  0.800000  0.720000  1.000000  0.810000 ScalE2=  1.000000  1.000000
 IRadAn=      0 IRanWt=     -1 IRanGd=            0 ICorTp=0
 NAtoms=   25 NActive=   25 NUniq=   25 SFac= 7.50D-01 NAtFMM=   80 NAOKFM=F Big=F
 Leave Link  301 at Sat Oct  2 19:10:51 2021, MaxMem= 1073741824 cpu:       0.1
 (Enter /sw/target/amd/app/gaussian/Gaussian09RevA.02_gcc-4.9.2/g09/l302.exe)
 NPDir=0 NMtPBC=     1 NCelOv=     1 NCel=       1 NClECP=     1 NCelD=      1
         NCelK=      1 NCelE2=     1 NClLst=     1 CellRange=     0.0.
 One-electron integrals computed using PRISM.
 NBasis=   210 RedAO= T  NBF=   210
 NBsUse=   210 1.00D-06 NBFU=   210
 Precomputing XC quadrature grid using
 IXCGrd= 2 IRadAn=           0 IRanWt=          -1 IRanGd=           0 AccXCQ= 1.00D-10.
 NRdTot=    1619 NPtTot=      206288 NUsed=      217959 NTot=      217991
 NSgBfM=   209   209   209   209   209 NAtAll=    25    25.
 Leave Link  302 at Sat Oct  2 19:10:57 2021, MaxMem= 1073741824 cpu:       1.8
 (Enter /sw/target/amd/app/gaussian/Gaussian09RevA.02_gcc-4.9.2/g09/l303.exe)
 DipDrv:  MaxL=1.
 Leave Link  303 at Sat Oct  2 19:10:57 2021, MaxMem= 1073741824 cpu:       0.2
 (Enter /sw/target/amd/app/gaussian/Gaussian09RevA.02_gcc-4.9.2/g09/l401.exe)
 Harris functional with IExCor=  402 diagonalized for initial guess.
 ExpMin= 3.60D-02 ExpMax= 1.61D+04 ExpMxC= 2.43D+03 IAcc=3 IRadAn=         0 AccDes= 0.00D+00
 HarFok:  IExCor=  402 AccDes= 0.00D+00 IRadAn=         0 IDoV= 1
 ScaDFX=  1.000000  1.000000  1.000000  1.000000
 FoFCou: FMM=F IPFlag=           0 FMFlag=      100000 FMFlg1=           0
         NFxFlg=           0 DoJE=T BraDBF=F KetDBF=T FulRan=T
         Omega=  0.000000  0.000000  1.000000  0.000000  0.000000 ICntrl=     500 IOpCl=  0
         NMat0=    1 NMatS0=    1 NMatT0=    0 NMatD0=    1 NMtDS0=    0 NMtDT0=    0
         I1Cent=           4 NGrid=           0.
 Petite list used in FoFCou.
 Harris En= -723.333381947028    
 Initial guess orbital symmetries:
       Occupied  (A) (A) (A) (A) (A) (A) (A) (A) (A) (A) (A) (A)
                 (A) (A) (A) (A) (A) (A) (A) (A) (A) (A) (A) (A)
                 (A) (A) (A) (A) (A) (A) (A) (A) (A) (A) (A) (A)
                 (A) (A) (A) (A) (A) (A) (A) (A) (A) (A)
       Virtual   (A) (A) (A) (A) (A) (A) (A) (A) (A) (A) (A) (A)
                 (A) (A) (A) (A) (A) (A) (A) (A) (A) (A) (A) (A)
                 (A) (A) (A) (A) (A) (A) (A) (A) (A) (A) (A) (A)
                 (A) (A) (A) (A) (A) (A) (A) (A) (A) (A) (A) (A)
                 (A) (A) (A) (A) (A) (A) (A) (A) (A) (A) (A) (A)
                 (A) (A) (A) (A) (A) (A) (A) (A) (A) (A) (A) (A)
                 (A) (A) (A) (A) (A) (A) (A) (A) (A) (A) (A) (A)
                 (A) (A) (A) (A) (A) (A) (A) (A) (A) (A) (A) (A)
                 (A) (A) (A) (A) (A) (A) (A) (A) (A) (A) (A) (A)
                 (A) (A) (A) (A) (A) (A) (A) (A) (A) (A) (A) (A)
                 (A) (A) (A) (A) (A) (A) (A) (A) (A) (A) (A) (A)
                 (A) (A) (A) (A) (A) (A) (A) (A) (A) (A) (A) (A)
                 (A) (A) (A) (A) (A) (A) (A) (A) (A) (A) (A) (A)
                 (A) (A) (A) (A) (A) (A) (A) (A)
 The electronic state of the initial guess is 1-A.
 Leave Link  401 at Sat Oct  2 19:11:37 2021, MaxMem= 1073741824 cpu:      18.2
 (Enter /sw/target/amd/app/gaussian/Gaussian09RevA.02_gcc-4.9.2/g09/l502.exe)
 Closed shell SCF:
 Requested convergence on RMS density matrix=1.00D-08 within  64 cycles.
 Requested convergence on MAX density matrix=1.00D-06.
 Requested convergence on             energy=1.00D-06.
 No special actions if energy rises.
 Using DIIS extrapolation, IDIIS=  1040.
 Integral symmetry usage will be decided dynamically.
       217721 words used for storage of precomputed grid.
 Keep R1 ints in memory in canonical form, NReq=250488378.
 IEnd=      358414 IEndB=      358414 NGot=  1073741824 MDV=   827998827
 LenX=   827998827 LenY=   827954286
 Symmetry not used in FoFDir.
 MinBra= 0 MaxBra= 2 Meth= 1.
 IRaf=       0 NMat=   1 IRICut=       1 DoRegI=T DoRafI=F ISym2E= 0 JSym2E=0.

 Cycle   1  Pass 1  IDiag  1:
 E= -722.426468149221    
 DIIS: error= 5.14D-02 at cycle   1 NSaved=   1.
 NSaved= 1 IEnMin= 1 EnMin= -722.426468149221     IErMin= 1 ErrMin= 5.14D-02
 ErrMax= 5.14D-02 EMaxC= 1.00D-01 BMatC= 5.97D-01 BMatP= 5.97D-01
 IDIUse=3 WtCom= 4.86D-01 WtEn= 5.14D-01
 Coeff-Com:  0.100D+01
 Coeff-En:   0.100D+01
 Coeff:      0.100D+01
 Gap=     0.215 Goal=   None    Shift=    0.000
 GapD=    0.215 DampG=1.000 DampE=0.500 DampFc=0.5000 IDamp=-1.
 Damping current iteration by 5.00D-01
 RMSDP=9.38D-03 MaxDP=4.59D-01              OVMax= 9.48D-01

 Cycle   2  Pass 1  IDiag  1:
 E= -722.498635731368     Delta-E=       -0.072167582147 Rises=F Damp=T
 DIIS: error= 2.48D-02 at cycle   2 NSaved=   2.
 NSaved= 2 IEnMin= 2 EnMin= -722.498635731368     IErMin= 2 ErrMin= 2.48D-02
 ErrMax= 2.48D-02 EMaxC= 1.00D-01 BMatC= 7.26D-02 BMatP= 5.97D-01
 IDIUse=3 WtCom= 7.52D-01 WtEn= 2.48D-01
 Coeff-Com:  0.192D+00 0.808D+00
 Coeff-En:   0.449D+00 0.551D+00
 Coeff:      0.256D+00 0.744D+00
 Gap=     0.055 Goal=   None    Shift=    0.000
 RMSDP=3.58D-03 MaxDP=2.30D-01 DE=-7.22D-02 OVMax= 9.03D-01

 Cycle   3  Pass 1  IDiag  1:
 E= -722.902576235571     Delta-E=       -0.403940504204 Rises=F Damp=F
 DIIS: error= 3.09D-02 at cycle   3 NSaved=   3.
 NSaved= 3 IEnMin= 3 EnMin= -722.902576235571     IErMin= 2 ErrMin= 2.48D-02
 ErrMax= 3.09D-02 EMaxC= 1.00D-01 BMatC= 1.39D-01 BMatP= 7.26D-02
 IDIUse=2 WtCom= 0.00D+00 WtEn= 1.00D+00
 Coeff-En:   0.000D+00 0.000D+00 0.100D+01
 Coeff:      0.000D+00 0.000D+00 0.100D+01
 Gap=     0.175 Goal=   None    Shift=    0.000
 RMSDP=6.99D-03 MaxDP=4.90D-01 DE=-4.04D-01 OVMax= 8.67D-01

 Cycle   4  Pass 1  IDiag  1:
 E= -721.820961495399     Delta-E=        1.081614740173 Rises=F Damp=F
 DIIS: error= 6.59D-02 at cycle   4 NSaved=   4.
 NSaved= 4 IEnMin= 3 EnMin= -722.902576235571     IErMin= 2 ErrMin= 2.48D-02
 ErrMax= 6.59D-02 EMaxC= 1.00D-01 BMatC= 7.54D-01 BMatP= 7.26D-02
 IDIUse=2 WtCom= 0.00D+00 WtEn= 1.00D+00
 Coeff-En:   0.000D+00 0.000D+00 0.833D+00 0.167D+00
 Coeff:      0.000D+00 0.000D+00 0.833D+00 0.167D+00
 Gap=     0.009 Goal=   None    Shift=    0.000
 RMSDP=4.94D-03 MaxDP=4.65D-01 DE= 1.08D+00 OVMax= 7.27D-01

 Cycle   5  Pass 1  IDiag  1:
 E= -722.982216698702     Delta-E=       -1.161255203304 Rises=F Damp=F
 DIIS: error= 1.95D-02 at cycle   5 NSaved=   5.
 NSaved= 5 IEnMin= 5 EnMin= -722.982216698702     IErMin= 5 ErrMin= 1.95D-02
 ErrMax= 1.95D-02 EMaxC= 1.00D-01 BMatC= 7.29D-02 BMatP= 7.26D-02
 IDIUse=3 WtCom= 8.05D-01 WtEn= 1.95D-01
 Coeff-Com: -0.102D-01 0.106D+00 0.350D+00-0.755D-01 0.630D+00
 Coeff-En:   0.000D+00 0.000D+00 0.371D+00 0.000D+00 0.629D+00
 Coeff:     -0.821D-02 0.849D-01 0.354D+00-0.607D-01 0.630D+00
 Gap=     0.117 Goal=   None    Shift=    0.000
 RMSDP=1.41D-03 MaxDP=4.77D-02 DE=-1.16D+00 OVMax= 9.98D-02

 Cycle   6  Pass 1  IDiag  1:
 E= -723.064226524331     Delta-E=       -0.082009825629 Rises=F Damp=F
 DIIS: error= 1.41D-03 at cycle   6 NSaved=   6.
 NSaved= 6 IEnMin= 6 EnMin= -723.064226524331     IErMin= 6 ErrMin= 1.41D-03
 ErrMax= 1.41D-03 EMaxC= 1.00D-01 BMatC= 3.57D-04 BMatP= 7.26D-02
 IDIUse=3 WtCom= 9.86D-01 WtEn= 1.41D-02
 Coeff-Com: -0.225D-02 0.185D-01 0.116D+00-0.187D-01 0.210D+00 0.677D+00
 Coeff-En:   0.000D+00 0.000D+00 0.000D+00 0.000D+00 0.000D+00 0.100D+01
 Coeff:     -0.222D-02 0.182D-01 0.114D+00-0.184D-01 0.207D+00 0.681D+00
 Gap=     0.123 Goal=   None    Shift=    0.000
 RMSDP=1.70D-04 MaxDP=6.22D-03 DE=-8.20D-02 OVMax= 1.50D-02

 Cycle   7  Pass 1  IDiag  1:
 E= -723.064371714773     Delta-E=       -0.000145190442 Rises=F Damp=F
 DIIS: error= 1.54D-03 at cycle   7 NSaved=   7.
 NSaved= 7 IEnMin= 7 EnMin= -723.064371714773     IErMin= 6 ErrMin= 1.41D-03
 ErrMax= 1.54D-03 EMaxC= 1.00D-01 BMatC= 2.27D-04 BMatP= 3.57D-04
 IDIUse=3 WtCom= 9.86D-01 WtEn= 1.41D-02
 Coeff-Com:  0.275D-02-0.289D-02 0.618D-02-0.145D-02 0.585D-02 0.418D+00
 Coeff-Com:  0.571D+00
 Coeff-En:   0.000D+00 0.000D+00 0.000D+00 0.000D+00 0.000D+00 0.403D+00
 Coeff-En:   0.597D+00
 Coeff:      0.271D-02-0.285D-02 0.610D-02-0.143D-02 0.577D-02 0.418D+00
 Coeff:      0.572D+00
 Gap=     0.124 Goal=   None    Shift=    0.000
 RMSDP=8.30D-05 MaxDP=2.89D-03 DE=-1.45D-04 OVMax= 7.88D-03

 Cycle   8  Pass 1  IDiag  1:
 E= -723.064619564494     Delta-E=       -0.000247849721 Rises=F Damp=F
 DIIS: error= 1.95D-04 at cycle   8 NSaved=   8.
 NSaved= 8 IEnMin= 8 EnMin= -723.064619564494     IErMin= 8 ErrMin= 1.95D-04
 ErrMax= 1.95D-04 EMaxC= 1.00D-01 BMatC= 8.74D-06 BMatP= 2.27D-04
 IDIUse=3 WtCom= 9.98D-01 WtEn= 1.95D-03
 Coeff-Com:  0.197D-02-0.221D-02-0.211D-03-0.333D-04-0.593D-02 0.182D+00
 Coeff-Com:  0.297D+00 0.527D+00
 Coeff-En:   0.000D+00 0.000D+00 0.000D+00 0.000D+00 0.000D+00 0.000D+00
 Coeff-En:   0.000D+00 0.100D+01
 Coeff:      0.197D-02-0.221D-02-0.211D-03-0.332D-04-0.592D-02 0.182D+00
 Coeff:      0.297D+00 0.528D+00
 Gap=     0.124 Goal=   None    Shift=    0.000
 RMSDP=1.76D-05 MaxDP=5.68D-04 DE=-2.48D-04 OVMax= 1.48D-03

 Cycle   9  Pass 1  IDiag  1:
 E= -723.064627897650     Delta-E=       -0.000008333156 Rises=F Damp=F
 DIIS: error= 6.21D-05 at cycle   9 NSaved=   9.
 NSaved= 9 IEnMin= 9 EnMin= -723.064627897650     IErMin= 9 ErrMin= 6.21D-05
 ErrMax= 6.21D-05 EMaxC= 1.00D-01 BMatC= 1.18D-06 BMatP= 8.74D-06
 IDIUse=1 WtCom= 1.00D+00 WtEn= 0.00D+00
 Coeff-Com:  0.953D-03-0.138D-02-0.186D-03 0.201D-03-0.389D-02 0.578D-01
 Coeff-Com:  0.111D+00 0.310D+00 0.525D+00
 Coeff:      0.953D-03-0.138D-02-0.186D-03 0.201D-03-0.389D-02 0.578D-01
 Coeff:      0.111D+00 0.310D+00 0.525D+00
 Gap=     0.124 Goal=   None    Shift=    0.000
 RMSDP=6.79D-06 MaxDP=2.04D-04 DE=-8.33D-06 OVMax= 5.45D-04

 Cycle  10  Pass 1  IDiag  1:
 E= -723.064629185686     Delta-E=       -0.000001288036 Rises=F Damp=F
 DIIS: error= 2.68D-05 at cycle  10 NSaved=  10.
 NSaved=10 IEnMin=10 EnMin= -723.064629185686     IErMin=10 ErrMin= 2.68D-05
 ErrMax= 2.68D-05 EMaxC= 1.00D-01 BMatC= 1.16D-07 BMatP= 1.18D-06
 IDIUse=1 WtCom= 1.00D+00 WtEn= 0.00D+00
 Coeff-Com:  0.367D-03-0.538D-03 0.157D-03 0.817D-05-0.128D-02 0.138D-01
 Coeff-Com:  0.324D-01 0.110D+00 0.271D+00 0.574D+00
 Coeff:      0.367D-03-0.538D-03 0.157D-03 0.817D-05-0.128D-02 0.138D-01
 Coeff:      0.324D-01 0.110D+00 0.271D+00 0.574D+00
 Gap=     0.124 Goal=   None    Shift=    0.000
 RMSDP=1.95D-06 MaxDP=7.74D-05 DE=-1.29D-06 OVMax= 1.48D-04

 Cycle  11  Pass 1  IDiag  1:
 E= -723.064629316430     Delta-E=       -0.000000130744 Rises=F Damp=F
 DIIS: error= 8.76D-06 at cycle  11 NSaved=  11.
 NSaved=11 IEnMin=11 EnMin= -723.064629316430     IErMin=11 ErrMin= 8.76D-06
 ErrMax= 8.76D-06 EMaxC= 1.00D-01 BMatC= 1.85D-08 BMatP= 1.16D-07
 IDIUse=1 WtCom= 1.00D+00 WtEn= 0.00D+00
 Coeff-Com:  0.670D-04-0.814D-04 0.107D-03-0.965D-05-0.284D-03-0.247D-02
 Coeff-Com: -0.122D-02 0.481D-02 0.493D-01 0.270D+00 0.679D+00
 Coeff:      0.670D-04-0.814D-04 0.107D-03-0.965D-05-0.284D-03-0.247D-02
 Coeff:     -0.122D-02 0.481D-02 0.493D-01 0.270D+00 0.679D+00
 Gap=     0.124 Goal=   None    Shift=    0.000
 RMSDP=1.01D-06 MaxDP=3.47D-05 DE=-1.31D-07 OVMax= 1.36D-04

 Cycle  12  Pass 1  IDiag  1:
 E= -723.064629342376     Delta-E=       -0.000000025946 Rises=F Damp=F
 DIIS: error= 1.16D-06 at cycle  12 NSaved=  12.
 NSaved=12 IEnMin=12 EnMin= -723.064629342376     IErMin=12 ErrMin= 1.16D-06
 ErrMax= 1.16D-06 EMaxC= 1.00D-01 BMatC= 4.70D-10 BMatP= 1.85D-08
 IDIUse=1 WtCom= 1.00D+00 WtEn= 0.00D+00
 Coeff-Com: -0.335D-06 0.133D-04 0.159D-04-0.148D-04-0.137D-04-0.887D-03
 Coeff-Com: -0.148D-02-0.468D-02-0.350D-02 0.419D-01 0.223D+00 0.746D+00
 Coeff:     -0.335D-06 0.133D-04 0.159D-04-0.148D-04-0.137D-04-0.887D-03
 Coeff:     -0.148D-02-0.468D-02-0.350D-02 0.419D-01 0.223D+00 0.746D+00
 Gap=     0.124 Goal=   None    Shift=    0.000
 RMSDP=2.56D-07 MaxDP=1.08D-05 DE=-2.59D-08 OVMax= 2.98D-05

 Cycle  13  Pass 1  IDiag  1:
 E= -723.064629343109     Delta-E=       -0.000000000733 Rises=F Damp=F
 DIIS: error= 5.99D-07 at cycle  13 NSaved=  13.
 NSaved=13 IEnMin=13 EnMin= -723.064629343109     IErMin=13 ErrMin= 5.99D-07
 ErrMax= 5.99D-07 EMaxC= 1.00D-01 BMatC= 1.10D-10 BMatP= 4.70D-10
 IDIUse=1 WtCom= 1.00D+00 WtEn= 0.00D+00
 Coeff-Com: -0.363D-05 0.213D-06-0.115D-04-0.218D-05 0.176D-05 0.252D-03
 Coeff-Com:  0.182D-03-0.687D-03-0.302D-02-0.403D-02 0.236D-01 0.290D+00
 Coeff-Com:  0.694D+00
 Coeff:     -0.363D-05 0.213D-06-0.115D-04-0.218D-05 0.176D-05 0.252D-03
 Coeff:      0.182D-03-0.687D-03-0.302D-02-0.403D-02 0.236D-01 0.290D+00
 Coeff:      0.694D+00
 Gap=     0.124 Goal=   None    Shift=    0.000
 RMSDP=8.55D-08 MaxDP=3.11D-06 DE=-7.33D-10 OVMax= 6.92D-06

 Cycle  14  Pass 1  IDiag  1:
 E= -723.064629343263     Delta-E=       -0.000000000154 Rises=F Damp=F
 DIIS: error= 3.78D-07 at cycle  14 NSaved=  14.
 NSaved=14 IEnMin=14 EnMin= -723.064629343263     IErMin=14 ErrMin= 3.78D-07
 ErrMax= 3.78D-07 EMaxC= 1.00D-01 BMatC= 1.88D-11 BMatP= 1.10D-10
 IDIUse=1 WtCom= 1.00D+00 WtEn= 0.00D+00
 Coeff-Com: -0.256D-05 0.299D-05-0.102D-04-0.155D-05 0.406D-05 0.183D-03
 Coeff-Com:  0.173D-03-0.183D-03-0.184D-02-0.582D-02-0.186D-02 0.100D+00
 Coeff-Com:  0.371D+00 0.538D+00
 Coeff:     -0.256D-05 0.299D-05-0.102D-04-0.155D-05 0.406D-05 0.183D-03
 Coeff:      0.173D-03-0.183D-03-0.184D-02-0.582D-02-0.186D-02 0.100D+00
 Coeff:      0.371D+00 0.538D+00
 Gap=     0.124 Goal=   None    Shift=    0.000
 RMSDP=2.81D-08 MaxDP=1.01D-06 DE=-1.54D-10 OVMax= 3.12D-06

 Cycle  15  Pass 1  IDiag  1:
 E= -723.064629343269     Delta-E=       -0.000000000006 Rises=F Damp=F
 DIIS: error= 1.29D-07 at cycle  15 NSaved=  15.
 NSaved=15 IEnMin=15 EnMin= -723.064629343269     IErMin=15 ErrMin= 1.29D-07
 ErrMax= 1.29D-07 EMaxC= 1.00D-01 BMatC= 2.65D-12 BMatP= 1.88D-11
 IDIUse=1 WtCom= 1.00D+00 WtEn= 0.00D+00
 Coeff-Com: -0.248D-06 0.872D-06-0.272D-05-0.438D-07 0.391D-07 0.103D-04
 Coeff-Com:  0.183D-04 0.745D-04 0.586D-04-0.408D-03-0.218D-02-0.288D-01
 Coeff-Com: -0.204D-01 0.235D+00 0.817D+00
 Coeff:     -0.248D-06 0.872D-06-0.272D-05-0.438D-07 0.391D-07 0.103D-04
 Coeff:      0.183D-04 0.745D-04 0.586D-04-0.408D-03-0.218D-02-0.288D-01
 Coeff:     -0.204D-01 0.235D+00 0.817D+00
 Gap=     0.124 Goal=   None    Shift=    0.000
 RMSDP=1.52D-08 MaxDP=7.97D-07 DE=-6.14D-12 OVMax= 2.16D-06

 Cycle  16  Pass 1  IDiag  1:
 E= -723.064629343290     Delta-E=       -0.000000000021 Rises=F Damp=F
 DIIS: error= 2.71D-08 at cycle  16 NSaved=  16.
 NSaved=16 IEnMin=16 EnMin= -723.064629343290     IErMin=16 ErrMin= 2.71D-08
 ErrMax= 2.71D-08 EMaxC= 1.00D-01 BMatC= 2.08D-13 BMatP= 2.65D-12
 IDIUse=1 WtCom= 1.00D+00 WtEn= 0.00D+00
 Coeff-Com: -0.339D-07 0.333D-06-0.289D-06-0.858D-07 0.459D-06-0.946D-05
 Coeff-Com: -0.120D-04 0.267D-04 0.159D-03 0.484D-03 0.106D-03-0.169D-01
 Coeff-Com: -0.342D-01 0.485D-01 0.314D+00 0.688D+00
 Coeff:     -0.339D-07 0.333D-06-0.289D-06-0.858D-07 0.459D-06-0.946D-05
 Coeff:     -0.120D-04 0.267D-04 0.159D-03 0.484D-03 0.106D-03-0.169D-01
 Coeff:     -0.342D-01 0.485D-01 0.314D+00 0.688D+00
 Gap=     0.124 Goal=   None    Shift=    0.000
 RMSDP=3.24D-09 MaxDP=1.44D-07 DE=-2.09D-11 OVMax= 2.88D-07

 SCF Done:  E(RB3LYP) =  -723.064629343     A.U. after   16 cycles
             Convg  =    0.3241D-08             -V/T =  2.0075
 KE= 7.176606372726D+02 PE=-3.109533804650D+03 EE= 9.628849514876D+02
 Leave Link  502 at Sat Oct  2 19:23:28 2021, MaxMem= 1073741824 cpu:     240.3
 (Enter /sw/target/amd/app/gaussian/Gaussian09RevA.02_gcc-4.9.2/g09/l508.exe)
 QCSCF skips out because SCF is already converged.
 Leave Link  508 at Sat Oct  2 19:23:31 2021, MaxMem= 1073741824 cpu:       0.0
 (Enter /sw/target/amd/app/gaussian/Gaussian09RevA.02_gcc-4.9.2/g09/l601.exe)
 Copying SCF densities to generalized density rwf, IOpCl= 0 IROHF=0.

 **********************************************************************

            Population analysis using the SCF density.

 **********************************************************************

 Orbital symmetries:
       Occupied  (A) (A) (A) (A) (A) (A) (A) (A) (A) (A) (A) (A)
                 (A) (A) (A) (A) (A) (A) (A) (A) (A) (A) (A) (A)
                 (A) (A) (A) (A) (A) (A) (A) (A) (A) (A) (A) (A)
                 (A) (A) (A) (A) (A) (A) (A) (A) (A) (A)
       Virtual   (A) (A) (A) (A) (A) (A) (A) (A) (A) (A) (A) (A)
                 (A) (A) (A) (A) (A) (A) (A) (A) (A) (A) (A) (A)
                 (A) (A) (A) (A) (A) (A) (A) (A) (A) (A) (A) (A)
                 (A) (A) (A) (A) (A) (A) (A) (A) (A) (A) (A) (A)
                 (A) (A) (A) (A) (A) (A) (A) (A) (A) (A) (A) (A)
                 (A) (A) (A) (A) (A) (A) (A) (A) (A) (A) (A) (A)
                 (A) (A) (A) (A) (A) (A) (A) (A) (A) (A) (A) (A)
                 (A) (A) (A) (A) (A) (A) (A) (A) (A) (A) (A) (A)
                 (A) (A) (A) (A) (A) (A) (A) (A) (A) (A) (A) (A)
                 (A) (A) (A) (A) (A) (A) (A) (A) (A) (A) (A) (A)
                 (A) (A) (A) (A) (A) (A) (A) (A) (A) (A) (A) (A)
                 (A) (A) (A) (A) (A) (A) (A) (A) (A) (A) (A) (A)
                 (A) (A) (A) (A) (A) (A) (A) (A) (A) (A) (A) (A)
                 (A) (A) (A) (A) (A) (A) (A) (A)
 The electronic state is 1-A.
 Alpha  occ. eigenvalues --  -66.12967 -19.13153 -10.21350 -10.15502 -10.15289
 Alpha  occ. eigenvalues --  -10.15289 -10.14854 -10.14547 -10.14404 -10.14327
 Alpha  occ. eigenvalues --  -10.10469  -5.27153  -3.63230  -3.62961  -3.62927
 Alpha  occ. eigenvalues --   -1.99753  -1.00191  -0.79573  -0.70721  -0.70038
 Alpha  occ. eigenvalues --   -0.67409  -0.66404  -0.66297  -0.57156  -0.55020
 Alpha  occ. eigenvalues --   -0.50646  -0.43225  -0.41870  -0.41454  -0.40273
 Alpha  occ. eigenvalues --   -0.40047  -0.39334  -0.38923  -0.38308  -0.37508
 Alpha  occ. eigenvalues --   -0.37149  -0.36997  -0.36485  -0.32425  -0.30052
 Alpha  occ. eigenvalues --   -0.29238  -0.27370  -0.27055  -0.20926  -0.17768
 Alpha  occ. eigenvalues --   -0.17534
 Alpha virt. eigenvalues --   -0.05097   0.00380   0.00408   0.03712   0.05791
 Alpha virt. eigenvalues --    0.05884   0.08398   0.08921   0.11575   0.11866
 Alpha virt. eigenvalues --    0.12024   0.12166   0.13662   0.14434   0.14654
 Alpha virt. eigenvalues --    0.14811   0.16910   0.17454   0.17998   0.19878
 Alpha virt. eigenvalues --    0.20365   0.21281   0.21998   0.22026   0.22656
 Alpha virt. eigenvalues --    0.22833   0.25153   0.28453   0.29952   0.34225
 Alpha virt. eigenvalues --    0.36466   0.36747   0.38084   0.38387   0.38630
 Alpha virt. eigenvalues --    0.41173   0.43809   0.45577   0.46225   0.47589
 Alpha virt. eigenvalues --    0.49297   0.49581   0.50256   0.56881   0.57399
 Alpha virt. eigenvalues --    0.58983   0.60314   0.60867   0.62667   0.64551
 Alpha virt. eigenvalues --    0.64772   0.65468   0.65685   0.67676   0.70416
 Alpha virt. eigenvalues --    0.71256   0.73345   0.74397   0.74989   0.76429
 Alpha virt. eigenvalues --    0.77592   0.78267   0.78483   0.80914   0.84695
 Alpha virt. eigenvalues --    0.85718   0.86279   0.86415   0.88078   0.88670
 Alpha virt. eigenvalues --    0.89451   0.89907   0.90610   0.91526   0.91809
 Alpha virt. eigenvalues --    0.92691   0.93189   0.93985   0.95056   0.96050
 Alpha virt. eigenvalues --    0.96600   0.99028   1.00226   1.03137   1.03177
 Alpha virt. eigenvalues --    1.03812   1.05792   1.08707   1.13573   1.15296
 Alpha virt. eigenvalues --    1.18641   1.20728   1.22363   1.25083   1.26451
 Alpha virt. eigenvalues --    1.27324   1.30347   1.30502   1.31899   1.44555
 Alpha virt. eigenvalues --    1.45792   1.48283   1.49770   1.52085   1.55655
 Alpha virt. eigenvalues --    1.59784   1.63045   1.67488   1.69868   1.71114
 Alpha virt. eigenvalues --    1.75456   1.80250   1.82722   1.83744   1.85199
 Alpha virt. eigenvalues --    1.87277   1.88454   1.92101   1.95843   1.99829
 Alpha virt. eigenvalues --    2.01988   2.02097   2.03258   2.09653   2.12769
 Alpha virt. eigenvalues --    2.16933   2.18969   2.19451   2.24294   2.24739
 Alpha virt. eigenvalues --    2.26690   2.26693   2.26970   2.27618   2.28398
 Alpha virt. eigenvalues --    2.28775   2.30068   2.31528   2.34882   2.36759
 Alpha virt. eigenvalues --    2.51718   2.54265   2.56712   2.66971   2.70219
 Alpha virt. eigenvalues --    2.72159   2.75982   2.79132   2.80326   2.93101
 Alpha virt. eigenvalues --    3.01592   3.11424   3.18059   3.41902   4.11911
 Alpha virt. eigenvalues --    4.15918   4.16776   4.17633   4.22360   4.26570
 Alpha virt. eigenvalues --    4.29510   4.37678   4.49915   4.78259
          Condensed to atoms (all electrons):
              1          2          3          4          5          6
     1  Li   2.379102   0.358386  -0.024785   0.004774   0.002398   0.003682
     2  C    0.358386   4.887521   0.522798  -0.036249  -0.052239  -0.032884
     3  C   -0.024785   0.522798   4.960093   0.516177  -0.009279  -0.032849
     4  C    0.004774  -0.036249   0.516177   5.089984   0.499396  -0.081862
     5  C    0.002398  -0.052239  -0.009279   0.499396   4.501497   0.550791
     6  C    0.003682  -0.032884  -0.032849  -0.081862   0.550791   5.014433
     7  C   -0.024688   0.516598  -0.058241  -0.033827  -0.010549   0.519115
     8  O   -0.000041   0.000083   0.003601  -0.054960   0.251518  -0.060724
     9  Si   0.000041   0.000361  -0.000348   0.004292  -0.017997  -0.003658
    10  C    0.000001   0.000000   0.000001  -0.000076   0.000172   0.000020
    11  C    0.000001  -0.000004   0.000056  -0.001690  -0.002244  -0.000096
    12  C    0.000001  -0.000004   0.000056  -0.001688  -0.002243  -0.000096
    13  H   -0.016538  -0.045326   0.349908  -0.052420   0.002221   0.000871
    14  H   -0.000501   0.006316  -0.041577   0.331071  -0.051329   0.006042
    15  H   -0.000326   0.006933  -0.000032   0.007851  -0.043589   0.335614
    16  H   -0.016184  -0.048209   0.006802   0.000565   0.002931  -0.050701
    17  H   -0.000000  -0.000000   0.000000   0.000001  -0.000053  -0.000001
    18  H   -0.000000  -0.000000   0.000000   0.000001  -0.000053  -0.000001
    19  H    0.000000   0.000000  -0.000000   0.000001   0.000009   0.000000
    20  H    0.000004  -0.000000  -0.000002   0.000131  -0.000005   0.000010
    21  H   -0.000000   0.000000  -0.000000   0.000024   0.000073   0.000002
    22  H    0.000029  -0.000002   0.000055   0.001314   0.000160  -0.000005
    23  H    0.000004  -0.000000  -0.000002   0.000131  -0.000005   0.000010
    24  H    0.000029  -0.000002   0.000054   0.001321   0.000161  -0.000005
    25  H   -0.000000   0.000000  -0.000000   0.000024   0.000073   0.000002
              7          8          9         10         11         12
     1  Li  -0.024688  -0.000041   0.000041   0.000001   0.000001   0.000001
     2  C    0.516598   0.000083   0.000361   0.000000  -0.000004  -0.000004
     3  C   -0.058241   0.003601  -0.000348   0.000001   0.000056   0.000056
     4  C   -0.033827  -0.054960   0.004292  -0.000076  -0.001690  -0.001688
     5  C   -0.010549   0.251518  -0.017997   0.000172  -0.002244  -0.002243
     6  C    0.519115  -0.060724  -0.003658   0.000020  -0.000096  -0.000096
     7  C    4.967268   0.003637   0.000255   0.000000   0.000002   0.000002
     8  O    0.003637   8.204835   0.349678  -0.019483  -0.017266  -0.017268
     9  Si   0.000255   0.349678  11.780567   0.391923   0.383092   0.383123
    10  C    0.000000  -0.019483   0.391923   5.271146  -0.034819  -0.034822
    11  C    0.000002  -0.017266   0.383092  -0.034819   5.302456  -0.032750
    12  C    0.000002  -0.017268   0.383123  -0.034822  -0.032750   5.302398
    13  H    0.006357  -0.000059  -0.000111  -0.000000   0.000001   0.000001
    14  H    0.000345  -0.007596   0.011871  -0.000019  -0.001320  -0.001321
    15  H   -0.049422  -0.002513   0.000879  -0.000016   0.000001   0.000001
    16  H    0.350556  -0.000065   0.000001  -0.000000  -0.000000  -0.000000
    17  H   -0.000000  -0.000460  -0.021728   0.362221  -0.001441   0.001394
    18  H   -0.000000  -0.000460  -0.021725   0.362219   0.001394  -0.001441
    19  H   -0.000000   0.000460  -0.011493   0.355663  -0.000707  -0.000707
    20  H    0.000000  -0.000885  -0.022349  -0.001207   0.364164   0.001200
    21  H   -0.000000   0.000498  -0.010603  -0.000669   0.351871  -0.000711
    22  H   -0.000002  -0.000829  -0.026359   0.001434   0.362744  -0.001495
    23  H    0.000000  -0.000885  -0.022356  -0.001208   0.001200   0.364165
    24  H   -0.000002  -0.000831  -0.026345   0.001434  -0.001496   0.362740
    25  H   -0.000000   0.000499  -0.010606  -0.000668  -0.000711   0.351874
             13         14         15         16         17         18
     1  Li  -0.016538  -0.000501  -0.000326  -0.016184  -0.000000  -0.000000
     2  C   -0.045326   0.006316   0.006933  -0.048209  -0.000000  -0.000000
     3  C    0.349908  -0.041577  -0.000032   0.006802   0.000000   0.000000
     4  C   -0.052420   0.331071   0.007851   0.000565   0.000001   0.000001
     5  C    0.002221  -0.051329  -0.043589   0.002931  -0.000053  -0.000053
     6  C    0.000871   0.006042   0.335614  -0.050701  -0.000001  -0.000001
     7  C    0.006357   0.000345  -0.049422   0.350556  -0.000000  -0.000000
     8  O   -0.000059  -0.007596  -0.002513  -0.000065  -0.000460  -0.000460
     9  Si  -0.000111   0.011871   0.000879   0.000001  -0.021728  -0.021725
    10  C   -0.000000  -0.000019  -0.000016  -0.000000   0.362221   0.362219
    11  C    0.000001  -0.001320   0.000001  -0.000000  -0.001441   0.001394
    12  C    0.000001  -0.001321   0.000001  -0.000000   0.001394  -0.001441
    13  H    0.668148  -0.003743   0.000027  -0.000171  -0.000000  -0.000000
    14  H   -0.003743   0.639057  -0.000119   0.000026   0.000001   0.000001
    15  H    0.000027  -0.000119   0.642876  -0.004875  -0.000001  -0.000001
    16  H   -0.000171   0.000026  -0.004875   0.667899   0.000000   0.000000
    17  H   -0.000000   0.000001  -0.000001   0.000000   0.538493  -0.020741
    18  H   -0.000000   0.000001  -0.000001   0.000000  -0.020741   0.538493
    19  H    0.000000   0.000003   0.000000   0.000000  -0.023376  -0.023376
    20  H    0.000000  -0.000055  -0.000000   0.000000   0.000833   0.000004
    21  H    0.000000   0.000054   0.000000   0.000000  -0.000034   0.000002
    22  H   -0.000003   0.003012  -0.000000   0.000000  -0.000004  -0.000026
    23  H    0.000000  -0.000055  -0.000000   0.000000   0.000004   0.000833
    24  H   -0.000003   0.003003  -0.000000   0.000000  -0.000026  -0.000004
    25  H    0.000000   0.000054   0.000000   0.000000   0.000002  -0.000034
             19         20         21         22         23         24
     1  Li   0.000000   0.000004  -0.000000   0.000029   0.000004   0.000029
     2  C    0.000000  -0.000000   0.000000  -0.000002  -0.000000  -0.000002
     3  C   -0.000000  -0.000002  -0.000000   0.000055  -0.000002   0.000054
     4  C    0.000001   0.000131   0.000024   0.001314   0.000131   0.001321
     5  C    0.000009  -0.000005   0.000073   0.000160  -0.000005   0.000161
     6  C    0.000000   0.000010   0.000002  -0.000005   0.000010  -0.000005
     7  C   -0.000000   0.000000  -0.000000  -0.000002   0.000000  -0.000002
     8  O    0.000460  -0.000885   0.000498  -0.000829  -0.000885  -0.000831
     9  Si  -0.011493  -0.022349  -0.010603  -0.026359  -0.022356  -0.026345
    10  C    0.355663  -0.001207  -0.000669   0.001434  -0.001208   0.001434
    11  C   -0.000707   0.364164   0.351871   0.362744   0.001200  -0.001496
    12  C   -0.000707   0.001200  -0.000711  -0.001495   0.364165   0.362740
    13  H    0.000000   0.000000   0.000000  -0.000003   0.000000  -0.000003
    14  H    0.000003  -0.000055   0.000054   0.003012  -0.000055   0.003003
    15  H    0.000000  -0.000000   0.000000  -0.000000  -0.000000  -0.000000
    16  H    0.000000   0.000000   0.000000   0.000000   0.000000   0.000000
    17  H   -0.023376   0.000833  -0.000034  -0.000004   0.000004  -0.000026
    18  H   -0.023376   0.000004   0.000002  -0.000026   0.000833  -0.000004
    19  H    0.544244  -0.000020   0.000077  -0.000003  -0.000020  -0.000003
    20  H   -0.000020   0.538160  -0.023703  -0.020470  -0.000023   0.000001
    21  H    0.000077  -0.023703   0.552514  -0.023038   0.000002  -0.000001
    22  H   -0.000003  -0.020470  -0.023038   0.537467   0.000001   0.000098
    23  H   -0.000020  -0.000023   0.000002   0.000001   0.538176  -0.020469
    24  H   -0.000003   0.000001  -0.000001   0.000098  -0.020469   0.537459
    25  H    0.000077   0.000002   0.000073  -0.000001  -0.023706  -0.023035
             25
     1  Li  -0.000000
     2  C    0.000000
     3  C   -0.000000
     4  C    0.000024
     5  C    0.000073
     6  C    0.000002
     7  C   -0.000000
     8  O    0.000499
     9  Si  -0.010606
    10  C   -0.000668
    11  C   -0.000711
    12  C    0.351874
    13  H    0.000000
    14  H    0.000054
    15  H    0.000000
    16  H    0.000000
    17  H    0.000002
    18  H   -0.000034
    19  H    0.000077
    20  H    0.000002
    21  H    0.000073
    22  H   -0.000001
    23  H   -0.023706
    24  H   -0.023035
    25  H    0.552516
 Mulliken atomic charges:
              1
     1  Li   0.334612
     2  C   -0.084077
     3  C   -0.192485
     4  C   -0.194287
     5  C    0.378186
     6  C   -0.167709
     7  C   -0.187404
     8  O   -0.630487
     9  Si   0.889593
    10  C   -0.653248
    11  C   -0.672440
    12  C   -0.672406
    13  H    0.090842
    14  H    0.106776
    15  H    0.106716
    16  H    0.091425
    17  H    0.164914
    18  H    0.164915
    19  H    0.159170
    20  H    0.164211
    21  H    0.153568
    22  H    0.165923
    23  H    0.164202
    24  H    0.165922
    25  H    0.153565
 Sum of Mulliken atomic charges =  -0.00000
 Mulliken charges with hydrogens summed into heavy atoms:
              1
     1  Li   0.334612
     2  C   -0.084077
     3  C   -0.101643
     4  C   -0.087510
     5  C    0.378186
     6  C   -0.060993
     7  C   -0.095979
     8  O   -0.630487
     9  Si   0.889593
    10  C   -0.164248
    11  C   -0.188738
    12  C   -0.188716
 Sum of Mulliken charges with hydrogens summed into heavy atoms =  -0.00000
 Electronic spatial extent (au):  <R**2>=           2688.7410
 Charge=             -0.0000 electrons
 Dipole moment (field-independent basis, Debye):
    X=              5.2510    Y=             -2.4133    Z=              0.0008  Tot=              5.7790
 Quadrupole moment (field-independent basis, Debye-Ang):
   XX=            -20.4462   YY=            -74.7545   ZZ=            -80.2632
   XY=             -9.3041   XZ=              0.0040   YZ=             -0.0003
 Traceless Quadrupole moment (field-independent basis, Debye-Ang):
   XX=             38.0418   YY=            -16.2665   ZZ=            -21.7752
   XY=             -9.3041   XZ=              0.0040   YZ=             -0.0003
 Octapole moment (field-independent basis, Debye-Ang**2):
  XXX=            357.9468  YYY=              1.3840  ZZZ=             -0.0071  XYY=             10.1977
  XXY=            -66.4021  XXZ=              0.0268  XZZ=            -15.7031  YZZ=              6.0169
  YYZ=              0.0037  XYZ=             -0.0054
 Hexadecapole moment (field-independent basis, Debye-Ang**3):
 XXXX=           -455.8228 YYYY=           -575.3456 ZZZZ=           -353.3082 XXXY=           -373.2863
 XXXZ=              0.1417 YYYX=            -11.5109 YYYZ=             -0.0042 ZZZX=              0.0145
 ZZZY=              0.0023 XXYY=           -515.3303 XXZZ=           -584.7659 YYZZ=           -164.0157
 XXYZ=             -0.0223 YYXZ=             -0.0051 ZZXY=            -10.8886
 N-N= 7.059235865469D+02 E-N=-3.109533804113D+03  KE= 7.176606372726D+02
 No NMR shielding tensors so no spin-rotation constants.
 Leave Link  601 at Sat Oct  2 19:23:35 2021, MaxMem= 1073741824 cpu:       1.3
 (Enter /sw/target/amd/app/gaussian/Gaussian09RevA.02_gcc-4.9.2/g09/l701.exe)
 Compute integral first derivatives.
 ... and contract with generalized density number  0.
 Leave Link  701 at Sat Oct  2 19:23:39 2021, MaxMem= 1073741824 cpu:       1.2
 (Enter /sw/target/amd/app/gaussian/Gaussian09RevA.02_gcc-4.9.2/g09/l702.exe)
 L702 exits ... SP integral derivatives will be done elsewhere.
 Leave Link  702 at Sat Oct  2 19:23:40 2021, MaxMem= 1073741824 cpu:       0.1
 (Enter /sw/target/amd/app/gaussian/Gaussian09RevA.02_gcc-4.9.2/g09/l703.exe)
 Compute integral first derivatives, UseDBF=F ICtDFT=           0.
 Integral derivatives from FoFDir, PRISM(SPDF).
 Calling FoFJK, ICntrl=      2127 FMM=F ISym2X=0 I1Cent= 0 IOpClX= 0 NMat=1 NMatS=1 NMatT=0.
 FoFCou: FMM=F IPFlag=           0 FMFlag=      100000 FMFlg1=         800
         NFxFlg=           0 DoJE=F BraDBF=F KetDBF=F FulRan=T
         Omega=  0.000000  0.000000  1.000000  0.000000  0.000000 ICntrl=    2127 IOpCl=  0
         NMat0=    1 NMatS0=    1 NMatT0=    0 NMatD0=    1 NMtDS0=    0 NMtDT0=    0
         I1Cent=           0 NGrid=           0.
 Symmetry not used in FoFCou.
 Leave Link  703 at Sat Oct  2 19:26:22 2021, MaxMem= 1073741824 cpu:      75.8
 (Enter /sw/target/amd/app/gaussian/Gaussian09RevA.02_gcc-4.9.2/g09/l716.exe)
 Dipole        = 2.06590605D+00-9.49454256D-01 3.24019174D-04
 ***** Axes restored to original set *****
 -------------------------------------------------------------------
 Center     Atomic                   Forces (Hartrees/Bohr)
 Number     Number              X              Y              Z
 -------------------------------------------------------------------
      1        3           0.000984340   -0.003161727    0.003716760
      2        6          -0.008863913    0.028782615   -0.034032471
      3        6          -0.006690319   -0.002993482    0.019892507
      4        6          -0.002200374    0.002235749    0.000618810
      5        6          -0.000327327    0.009142463   -0.016177766
      6        6          -0.004001182    0.003684160    0.001835388
      7        6           0.012725136   -0.017363908    0.004630200
      8        8           0.009348991   -0.017432476    0.012065327
      9       14          -0.004048202    0.006228583   -0.002800314
     10        6          -0.006173821    0.003625710    0.006589114
     11        6          -0.002611987   -0.002473046   -0.005878440
     12        6           0.005044673    0.004102042   -0.002319362
     13        1           0.004926859   -0.003977583   -0.003250364
     14        1           0.004256558   -0.006483748    0.002817703
     15        1           0.000627428   -0.003541382    0.005185163
     16        1          -0.004387705    0.002486660    0.004859410
     17        1           0.009310624    0.001371345    0.003256886
     18        1          -0.002980746   -0.009181785   -0.002463958
     19        1          -0.006210035    0.006614644    0.001142126
     20        1           0.008348583    0.000102472   -0.004292307
     21        1          -0.006603175    0.004605381   -0.002553132
     22        1          -0.002381000   -0.006630990    0.006415028
     23        1           0.001751219   -0.005560693   -0.007371594
     24        1           0.002831671   -0.002164060    0.008845458
     25        1          -0.002676297    0.007983058   -0.000730172
 -------------------------------------------------------------------
 Cartesian Forces:  Max     0.034032471 RMS     0.008321255
 Leave Link  716 at Sat Oct  2 19:26:23 2021, MaxMem= 1073741824 cpu:       0.1
 (Enter /sw/target/amd/app/gaussian/Gaussian09RevA.02_gcc-4.9.2/g09/l103.exe)

 GradGradGradGradGradGradGradGradGradGradGradGradGradGradGradGradGradGrad
 Berny optimization.
 Internal  Forces:  Max     0.021425119 RMS     0.005277475
 Search for a local minimum.
 Step number   1 out of a maximum of  134
 All quantities printed in internal units (Hartrees-Bohrs-Radians)
 RMS Force = .52775D-02 SwitMx=.10000D-02 MixMth= 1
 Mixed Optimization -- RFO/linear search
 Second derivative matrix not updated -- first step.
     Eigenvalues ---    0.01144   0.01144   0.01210   0.01992   0.02028
     Eigenvalues ---    0.02052   0.02084   0.02103   0.02127   0.02132
     Eigenvalues ---    0.02142   0.02152   0.02241   0.02893   0.05605
     Eigenvalues ---    0.06170   0.06170   0.06345   0.06345   0.06354
     Eigenvalues ---    0.06354   0.06358   0.07084   0.08443   0.16000
     Eigenvalues ---    0.16000   0.16000   0.16000   0.16000   0.16000
     Eigenvalues ---    0.16000   0.16000   0.16000   0.16000   0.16000
     Eigenvalues ---    0.16000   0.16000   0.16210   0.16448   0.21204
     Eigenvalues ---    0.21205   0.21503   0.22000   0.22974   0.24000
     Eigenvalues ---    0.25000   0.25000   0.25000   0.32666   0.32675
     Eigenvalues ---    0.32676   0.32677   0.32679   0.32687   0.32688
     Eigenvalues ---    0.32899   0.32901   0.34794   0.35634   0.35779
     Eigenvalues ---    0.35791   0.36337   0.41147   0.41725   0.44760
     Eigenvalues ---    0.45785   0.45881   0.46331   0.532521000.00000
     Eigenvalues --- 1000.000001000.000001000.000001000.000001000.00000
     Eigenvalues --- 1000.000001000.000001000.000001000.000001000.00000
     Eigenvalues --- 1000.000001000.000001000.000001000.000001000.00000
     Eigenvalues --- 1000.000001000.000001000.000001000.000001000.00000
     Eigenvalues --- 1000.000001000.000001000.000001000.000001000.00000
     Eigenvalues --- 1000.000001000.000001000.000001000.000001000.00000
     Eigenvalues --- 1000.000001000.000001000.000001000.000001000.00000
     Eigenvalues --- 1000.000001000.000001000.000001000.000001000.00000
     Eigenvalues --- 1000.000001000.000001000.000001000.000001000.00000
     Eigenvalues --- 1000.000001000.000001000.000001000.000001000.00000
     Eigenvalues --- 1000.000001000.000001000.000001000.00000
 RFO step:  Lambda=-1.33078030D-02 EMin= 1.14409475D-02
 Linear search not attempted -- first point.
 Iteration  1 RMS(Cart)=  0.08095366 RMS(Int)=  0.00171047
 Iteration  2 RMS(Cart)=  0.00302390 RMS(Int)=  0.00017025
 Iteration  3 RMS(Cart)=  0.00000133 RMS(Int)=  0.00017025
 Iteration  4 RMS(Cart)=  0.00000000 RMS(Int)=  0.00017025
 Variable       Old X    -DE/DX   Delta X   Delta X   Delta X     New X
                                 (Linear)    (Quad)   (Total)
    R1        3.82350  -0.00498   0.00000  -0.05094  -0.05094   3.77256
    R2        2.63661   0.01178   0.00000   0.02577   0.02600   2.66260
    R3        2.63652   0.01243   0.00000   0.02717   0.02739   2.66390
    R4        2.64289   0.00384   0.00000   0.00811   0.00812   2.65101
    R5        2.04428   0.00547   0.00000   0.01473   0.01473   2.05901
    R6        2.66754  -0.00816   0.00000  -0.01931  -0.01953   2.64801
    R7        2.03558   0.00700   0.00000   0.01859   0.01859   2.05417
    R8        2.65014  -0.00387   0.00000  -0.00943  -0.00966   2.64048
    R9        2.56719   0.01353   0.00000   0.02479   0.02479   2.59198
   R10        2.64242   0.00197   0.00000   0.00421   0.00421   2.64663
   R11        2.04658   0.00392   0.00000   0.01061   0.01061   2.05720
   R12        2.04409   0.00544   0.00000   0.01464   0.01464   2.05874
   R13        3.23011  -0.01082   0.00000  -0.02995  -0.02995   3.20017
   R14        3.52732   0.00731   0.00000   0.03201   0.03201   3.55933
   R15        3.53671   0.00808   0.00000   0.03587   0.03587   3.57258
   R16        3.53667   0.00809   0.00000   0.03590   0.03590   3.57257
   R17        2.09624  -0.00871   0.00000  -0.02560  -0.02560   2.07064
   R18        2.09626  -0.00871   0.00000  -0.02562  -0.02562   2.07064
   R19        2.09642  -0.00892   0.00000  -0.02623  -0.02623   2.07019
   R20        2.09619  -0.00856   0.00000  -0.02516  -0.02516   2.07103
   R21        2.09603  -0.00796   0.00000  -0.02341  -0.02341   2.07262
   R22        2.09225  -0.00849   0.00000  -0.02480  -0.02480   2.06745
   R23        2.09623  -0.00857   0.00000  -0.02519  -0.02519   2.07103
   R24        2.09228  -0.00850   0.00000  -0.02482  -0.02482   2.06746
   R25        2.09605  -0.00797   0.00000  -0.02342  -0.02342   2.07262
    A1        2.09369   0.01085   0.00000   0.03991   0.03967   2.13336
    A2        2.09539   0.01057   0.00000   0.03883   0.03859   2.13398
    A3        2.09410  -0.02143   0.00000  -0.07874  -0.07826   2.01584
    A4        2.09776   0.01064   0.00000   0.04612   0.04636   2.14412
    A5        2.08894  -0.00067   0.00000   0.00377   0.00365   2.09260
    A6        2.09648  -0.00997   0.00000  -0.04989  -0.05001   2.04647
    A7        2.09964  -0.00032   0.00000  -0.00554  -0.00577   2.09387
    A8        2.05851   0.00460   0.00000   0.02838   0.02849   2.08700
    A9        2.12504  -0.00428   0.00000  -0.02284  -0.02272   2.10231
   A10        2.07338   0.00108   0.00000  -0.00163  -0.00210   2.07128
   A11        2.15546   0.00413   0.00000   0.01854   0.01878   2.17424
   A12        2.05435  -0.00521   0.00000  -0.01691  -0.01668   2.03767
   A13        2.10609  -0.00014   0.00000  -0.00455  -0.00479   2.10129
   A14        2.09334  -0.00499   0.00000  -0.02694  -0.02682   2.06652
   A15        2.08376   0.00513   0.00000   0.03149   0.03161   2.11537
   A16        2.09540   0.01017   0.00000   0.04434   0.04456   2.13996
   A17        2.09050  -0.00056   0.00000   0.00393   0.00382   2.09433
   A18        2.09728  -0.00961   0.00000  -0.04827  -0.04838   2.04889
   A19        2.25609   0.01182   0.00000   0.04489   0.04489   2.30098
   A20        1.88920  -0.00518   0.00000  -0.04985  -0.04973   1.83947
   A21        1.93464   0.00105   0.00000   0.00311   0.00315   1.93779
   A22        1.93459   0.00105   0.00000   0.00307   0.00311   1.93770
   A23        1.88359   0.00205   0.00000   0.01616   0.01584   1.89943
   A24        1.88356   0.00206   0.00000   0.01622   0.01590   1.89946
   A25        1.93616  -0.00109   0.00000   0.01037   0.01002   1.94618
   A26        1.91064   0.00578   0.00000   0.03419   0.03376   1.94440
   A27        1.91061   0.00578   0.00000   0.03419   0.03376   1.94437
   A28        1.91010   0.00068   0.00000   0.00223   0.00218   1.91228
   A29        1.91110  -0.00521   0.00000  -0.02671  -0.02745   1.88365
   A30        1.91068  -0.00351   0.00000  -0.02194  -0.02199   1.88869
   A31        1.91067  -0.00351   0.00000  -0.02194  -0.02198   1.88868
   A32        1.90595   0.00403   0.00000   0.02235   0.02211   1.92805
   A33        1.90565   0.00228   0.00000   0.01273   0.01255   1.91820
   A34        1.93608   0.00499   0.00000   0.03013   0.02980   1.96588
   A35        1.90761  -0.00356   0.00000  -0.02326  -0.02334   1.88427
   A36        1.90564  -0.00448   0.00000  -0.02500  -0.02537   1.88027
   A37        1.90273  -0.00339   0.00000  -0.01777  -0.01802   1.88471
   A38        1.90592   0.00403   0.00000   0.02236   0.02212   1.92804
   A39        1.93603   0.00499   0.00000   0.03013   0.02980   1.96583
   A40        1.90566   0.00228   0.00000   0.01274   0.01256   1.91823
   A41        1.90566  -0.00448   0.00000  -0.02502  -0.02538   1.88028
   A42        1.90758  -0.00356   0.00000  -0.02323  -0.02332   1.88426
   A43        1.90279  -0.00340   0.00000  -0.01781  -0.01806   1.88474
    D1        3.14156  -0.00000   0.00000  -0.00004  -0.00004   3.14152
    D2       -0.00018   0.00000   0.00000   0.00006   0.00006  -0.00011
    D3        0.00011  -0.00000   0.00000  -0.00009  -0.00009   0.00003
    D4        3.14157  -0.00000   0.00000   0.00001   0.00002   3.14158
    D5       -3.14159   0.00000   0.00000   0.00007   0.00007  -3.14152
    D6        0.00017  -0.00000   0.00000  -0.00006  -0.00006   0.00011
    D7       -0.00015   0.00000   0.00000   0.00012   0.00012  -0.00003
    D8       -3.14157   0.00000   0.00000  -0.00001  -0.00001  -3.14159
    D9       -0.00005   0.00000   0.00000   0.00003   0.00004  -0.00001
   D10        3.14153   0.00000   0.00000   0.00008   0.00008  -3.14158
   D11       -3.14150  -0.00000   0.00000  -0.00007  -0.00007  -3.14157
   D12        0.00008  -0.00000   0.00000  -0.00003  -0.00003   0.00005
   D13        0.00002  -0.00000   0.00000  -0.00002  -0.00002  -0.00000
   D14        3.14158   0.00000   0.00000   0.00003   0.00003  -3.14158
   D15       -3.14156  -0.00000   0.00000  -0.00007  -0.00006   3.14156
   D16        0.00001  -0.00000   0.00000  -0.00002  -0.00002  -0.00001
   D17       -0.00005   0.00000   0.00000   0.00006   0.00005   0.00000
   D18       -3.14157   0.00000   0.00000   0.00001   0.00001  -3.14157
   D19        3.14156   0.00000   0.00000   0.00001   0.00001   3.14157
   D20        0.00004  -0.00000   0.00000  -0.00004  -0.00004   0.00000
   D21        0.00027  -0.00001   0.00000  -0.00019  -0.00019   0.00008
   D22       -3.14135  -0.00000   0.00000  -0.00015  -0.00015  -3.14149
   D23        0.00012  -0.00000   0.00000  -0.00010  -0.00010   0.00002
   D24        3.14154   0.00000   0.00000   0.00003   0.00003   3.14157
   D25       -3.14154  -0.00000   0.00000  -0.00005  -0.00006   3.14159
   D26       -0.00012   0.00000   0.00000   0.00008   0.00008  -0.00004
   D27       -3.14150  -0.00000   0.00000  -0.00014  -0.00014   3.14154
   D28       -1.07890  -0.00005   0.00000  -0.00903  -0.00890  -1.08780
   D29        1.07914   0.00004   0.00000   0.00869   0.00856   1.08770
   D30        1.04750   0.00035   0.00000   0.00459   0.00477   1.05228
   D31       -1.04746  -0.00035   0.00000  -0.00459  -0.00477  -1.05223
   D32       -3.14156   0.00000   0.00000  -0.00000  -0.00000  -3.14156
   D33       -1.04737   0.00085   0.00000   0.01982   0.02010  -1.02727
   D34        3.14085   0.00015   0.00000   0.01064   0.01055  -3.13178
   D35        1.04676   0.00050   0.00000   0.01523   0.01532   1.06208
   D36       -3.14089  -0.00015   0.00000  -0.01065  -0.01056   3.13174
   D37        1.04734  -0.00085   0.00000  -0.01983  -0.02010   1.02724
   D38       -1.04676  -0.00050   0.00000  -0.01524  -0.01533  -1.06209
   D39       -1.01628   0.00166   0.00000   0.01731   0.01727  -0.99900
   D40       -3.10115   0.00223   0.00000   0.02466   0.02474  -3.07641
   D41        1.08478   0.00185   0.00000   0.01967   0.01973   1.10451
   D42        1.04973  -0.00278   0.00000  -0.03160  -0.03172   1.01801
   D43       -1.03514  -0.00221   0.00000  -0.02426  -0.02426  -1.05940
   D44       -3.13240  -0.00259   0.00000  -0.02925  -0.02927   3.12152
   D45        3.10976   0.00035   0.00000   0.00377   0.00372   3.11348
   D46        1.02489   0.00091   0.00000   0.01112   0.01118   1.03607
   D47       -1.07236   0.00053   0.00000   0.00612   0.00617  -1.06619
   D48        1.01650  -0.00167   0.00000  -0.01733  -0.01729   0.99921
   D49       -1.08455  -0.00185   0.00000  -0.01966  -0.01972  -1.10427
   D50        3.10132  -0.00223   0.00000  -0.02462  -0.02470   3.07662
   D51       -1.04946   0.00277   0.00000   0.03157   0.03169  -1.01777
   D52        3.13267   0.00259   0.00000   0.02924   0.02926  -3.12125
   D53        1.03535   0.00221   0.00000   0.02428   0.02428   1.05964
   D54       -3.10951  -0.00034   0.00000  -0.00376  -0.00371  -3.11322
   D55        1.07263  -0.00053   0.00000  -0.00610  -0.00614   1.06648
   D56       -1.02469  -0.00090   0.00000  -0.01106  -0.01112  -1.03581
         Item               Value     Threshold  Converged?
 Maximum Force            0.021425     0.000450     NO 
 RMS     Force            0.005277     0.000300     NO 
 Maximum Displacement     0.246570     0.001800     NO 
 RMS     Displacement     0.080857     0.001200     NO 
 Predicted change in Energy=-7.074941D-03
 GradGradGradGradGradGradGradGradGradGradGradGradGradGradGradGradGradGrad

 Leave Link  103 at Sat Oct  2 19:26:38 2021, MaxMem= 1073741824 cpu:       5.3
 (Enter /sw/target/amd/app/gaussian/Gaussian09RevA.02_gcc-4.9.2/g09/l202.exe)
                          Input orientation:                          
 ---------------------------------------------------------------------
 Center     Atomic      Atomic             Coordinates (Angstroms)
 Number     Number       Type             X           Y           Z
 ---------------------------------------------------------------------
      1          3           0        5.816188    3.620470   -5.479357
      2          6           0        6.278931    2.306350   -4.049540
      3          6           0        7.238483    1.292779   -4.242380
      4          6           0        7.573643    0.362876   -3.246917
      5          6           0        6.944110    0.418775   -1.996276
      6          6           0        5.987208    1.411762   -1.771093
      7          6           0        5.668038    2.329962   -2.779326
      8          8           0        7.198489   -0.440317   -0.957726
      9         14           0        8.257734   -1.753501   -0.811644
     10          6           0        8.005688   -2.407091    0.936765
     11          6           0        7.818714   -3.119352   -2.042827
     12          6           0       10.055126   -1.199513   -1.002823
     13          1           0        7.755034    1.208654   -5.198038
     14          1           0        8.322368   -0.397662   -3.453340
     15          1           0        5.500930    1.451113   -0.797910
     16          1           0        4.915122    3.083519   -2.550985
     17          1           0        6.971513   -2.731748    1.097135
     18          1           0        8.239527   -1.643272    1.686792
     19          1           0        8.664338   -3.265982    1.105864
     20          1           0        6.783008   -3.447236   -1.898267
     21          1           0        8.472635   -3.986124   -1.887804
     22          1           0        7.924408   -2.798243   -3.083336
     23          1           0       10.299400   -0.428850   -0.262887
     24          1           0       10.265681   -0.788026   -1.994437
     25          1           0       10.727559   -2.050444   -0.839462
 ---------------------------------------------------------------------
[...]
     6  C   -0.126646
     7  C   -0.189567
     8  O   -0.568599
     9  Si   0.883096
    10  C   -0.669250
    11  C   -0.689678
    12  C   -0.689674
    13  H    0.171329
    14  H    0.161973
    15  H    0.169047
    16  H    0.170291
    17  H    0.179300
    18  H    0.179300
    19  H    0.176145
    20  H    0.181030
    21  H    0.180481
    22  H    0.172595
    23  H    0.181030
    24  H    0.172596
    25  H    0.180481
 Sum of Mulliken atomic charges =  -0.00000
 Mulliken charges with hydrogens summed into heavy atoms:
              1
     1  Li  -0.299712
     2  C   -0.001863
     3  C   -0.013556
     4  C    0.010376
     5  C    0.412778
     6  C    0.042401
     7  C   -0.019276
     8  O   -0.568599
     9  Si   0.883096
    10  C   -0.134505
    11  C   -0.155572
    12  C   -0.155568
 Sum of Mulliken charges with hydrogens summed into heavy atoms =  -0.00000
 Electronic spatial extent (au):  <R**2>=           2835.4967
 Charge=             -0.0000 electrons
 Dipole moment (field-independent basis, Debye):
    X=            -13.6415    Y=              1.6170    Z=             -0.0004  Tot=             13.7370
 Quadrupole moment (field-independent basis, Debye-Ang):
   XX=           -163.3889   YY=            -77.0858   ZZ=            -81.3961
   XY=             16.5598   XZ=             -0.0037   YZ=              0.0007
 Traceless Quadrupole moment (field-independent basis, Debye-Ang):
   XX=            -56.0986   YY=             30.2044   ZZ=             25.8942
   XY=             16.5598   XZ=             -0.0037   YZ=              0.0007
 Octapole moment (field-independent basis, Debye-Ang**2):
  XXX=           -790.0681  YYY=             24.5606  ZZZ=             -0.0047  XYY=            -48.7301
  XXY=            105.9979  XXZ=             -0.0249  XZZ=            -53.2424  YZZ=              9.1685
  YYZ=             -0.0015  XYZ=              0.0038
 Hexadecapole moment (field-independent basis, Debye-Ang**3):
 XXXX=          -8772.2217 YYYY=           -617.5314 ZZZZ=           -372.0376 XXXY=            796.6099
 XXXZ=             -0.1864 YYYX=            133.5157 YYYZ=              0.0038 ZZZX=             -0.0227
 ZZZY=              0.0035 XXYY=           -917.4685 XXZZ=           -829.9318 YYZZ=           -174.5051
 XXYZ=              0.0243 YYXZ=             -0.0129 ZZXY=             32.9915
 N-N= 7.025565265854D+02 E-N=-3.096757541570D+03  KE= 7.177326009908D+02
 No NMR shielding tensors so no spin-rotation constants.
 Leave Link  601 at Sun Oct  3 02:53:42 2021, MaxMem= 1073741824 cpu:       1.2
 (Enter /sw/target/amd/app/gaussian/Gaussian09RevA.02_gcc-4.9.2/g09/l604.exe)
 Evaluate density.
 Using the total density.
 Monte-Carlo method of calculating molar volume:
 based on  0.001 e/bohr**3 density envelope.
 Number of points per bohr**3 =   20 CutOff= 1.00D-04
 Using the CI density.
 There are       519 points.  Will hold       519 in memory.
 LenV=  1073586448 MDV=  1073741824.
 Box volume =17518.836 fraction occupied=0.092
 Integrated density= 7.3175349103925015D+01 error=-1.8824650896074985D+01
 Molar volume = 1620.239 bohr**3/mol (144.588 cm**3/mol)
 Recommended a0 for SCRF calculation =  4.74 angstrom (  8.96 bohr)
 Leave Link  604 at Sun Oct  3 02:53:44 2021, MaxMem= 1073741824 cpu:       0.4
 (Enter /sw/target/amd/app/gaussian/Gaussian09RevA.02_gcc-4.9.2/g09/l607.exe)
 ******************************Gaussian NBO Version 3.1******************************
             N A T U R A L   A T O M I C   O R B I T A L   A N D
          N A T U R A L   B O N D   O R B I T A L   A N A L Y S I S
 ******************************Gaussian NBO Version 3.1******************************
       /RESON  / : Allow strongly delocalized NBO set

 Analyzing the CI density

 Job title: [Li]c1ccc(cc1)O[Si](C)(C)C_conf_0                               

 Storage needed:    134410 in NPA (1073738449 available)


 NATURAL POPULATIONS:  Natural atomic orbital occupancies 
                                                          
   NAO  Atom  No  lang   Type(AO)    Occupancy
 --------------------------------------------
     1   Li    1  S      Cor( 1S)     1.99879
     2   Li    1  S      Val( 2S)     0.87531
     3   Li    1  S      Ryd( 3S)     0.00276
     4   Li    1  S      Ryd( 4S)     0.00000
     5   Li    1  px     Val( 2p)     0.16717
     6   Li    1  px     Ryd( 3p)     0.00000
     7   Li    1  py     Val( 2p)     0.01204
     8   Li    1  py     Ryd( 3p)     0.00000
     9   Li    1  pz     Val( 2p)     0.00368
    10   Li    1  pz     Ryd( 3p)     0.00000
    11   Li    1  dxy    Ryd( 3d)     0.00000
    12   Li    1  dxz    Ryd( 3d)     0.00000
    13   Li    1  dyz    Ryd( 3d)     0.00000
    14   Li    1  dx2y2  Ryd( 3d)     0.00000
    15   Li    1  dz2    Ryd( 3d)     0.00000

    16    C    2  S      Cor( 1S)     1.99936
    17    C    2  S      Val( 2S)     1.22505
    18    C    2  S      Ryd( 3S)     0.00420
    19    C    2  S      Ryd( 4S)     0.00001
    20    C    2  px     Val( 2p)     1.51204
    21    C    2  px     Ryd( 3p)     0.00945
    22    C    2  py     Val( 2p)     0.98217
    23    C    2  py     Ryd( 3p)     0.00627
    24    C    2  pz     Val( 2p)     0.55243
    25    C    2  pz     Ryd( 3p)     0.00000
    26    C    2  dxy    Ryd( 3d)     0.00109
    27    C    2  dxz    Ryd( 3d)     0.00087
    28    C    2  dyz    Ryd( 3d)     0.00037
    29    C    2  dx2y2  Ryd( 3d)     0.00054
    30    C    2  dz2    Ryd( 3d)     0.00045

    31    C    3  S      Cor( 1S)     1.99918
    32    C    3  S      Val( 2S)     0.99465
    33    C    3  S      Ryd( 3S)     0.00095
    34    C    3  S      Ryd( 4S)     0.00004
    35    C    3  px     Val( 2p)     1.06487
    36    C    3  px     Ryd( 3p)     0.00614
    37    C    3  py     Val( 2p)     1.21837
    38    C    3  py     Ryd( 3p)     0.00579
    39    C    3  pz     Val( 2p)     0.91266
    40    C    3  pz     Ryd( 3p)     0.00035
    41    C    3  dxy    Ryd( 3d)     0.00063
    42    C    3  dxz    Ryd( 3d)     0.00045
    43    C    3  dyz    Ryd( 3d)     0.00034
    44    C    3  dx2y2  Ryd( 3d)     0.00143
    45    C    3  dz2    Ryd( 3d)     0.00042

    46    C    4  S      Cor( 1S)     1.99901
    47    C    4  S      Val( 2S)     0.98128
    48    C    4  S      Ryd( 3S)     0.00066
    49    C    4  S      Ryd( 4S)     0.00004
    50    C    4  px     Val( 2p)     1.15647
    51    C    4  px     Ryd( 3p)     0.00436
    52    C    4  py     Val( 2p)     1.12473
    53    C    4  py     Ryd( 3p)     0.00372
    54    C    4  pz     Val( 2p)     1.00993
    55    C    4  pz     Ryd( 3p)     0.00050
    56    C    4  dxy    Ryd( 3d)     0.00088
    57    C    4  dxz    Ryd( 3d)     0.00038
    58    C    4  dyz    Ryd( 3d)     0.00039
    59    C    4  dx2y2  Ryd( 3d)     0.00062
    60    C    4  dz2    Ryd( 3d)     0.00043

    61    C    5  S      Cor( 1S)     1.99874
    62    C    5  S      Val( 2S)     0.84963
    63    C    5  S      Ryd( 3S)     0.00133
    64    C    5  S      Ryd( 4S)     0.00012
    65    C    5  px     Val( 2p)     0.77303
    66    C    5  px     Ryd( 3p)     0.00562
    67    C    5  py     Val( 2p)     1.06602
    68    C    5  py     Ryd( 3p)     0.00658
    69    C    5  pz     Val( 2p)     0.85902
    70    C    5  pz     Ryd( 3p)     0.00074
    71    C    5  dxy    Ryd( 3d)     0.00173
    72    C    5  dxz    Ryd( 3d)     0.00165
    73    C    5  dyz    Ryd( 3d)     0.00089
    74    C    5  dx2y2  Ryd( 3d)     0.00169
    75    C    5  dz2    Ryd( 3d)     0.00044

    76    C    6  S      Cor( 1S)     1.99901
    77    C    6  S      Val( 2S)     0.98678
    78    C    6  S      Ryd( 3S)     0.00087
    79    C    6  S      Ryd( 4S)     0.00004
    80    C    6  px     Val( 2p)     1.08860
    81    C    6  px     Ryd( 3p)     0.00511
    82    C    6  py     Val( 2p)     1.18630
    83    C    6  py     Ryd( 3p)     0.00453
    84    C    6  pz     Val( 2p)     0.96835
    85    C    6  pz     Ryd( 3p)     0.00062
    86    C    6  dxy    Ryd( 3d)     0.00097
    87    C    6  dxz    Ryd( 3d)     0.00041
    88    C    6  dyz    Ryd( 3d)     0.00040
    89    C    6  dx2y2  Ryd( 3d)     0.00057
    90    C    6  dz2    Ryd( 3d)     0.00043

    91    C    7  S      Cor( 1S)     1.99918
    92    C    7  S      Val( 2S)     0.99483
    93    C    7  S      Ryd( 3S)     0.00089
    94    C    7  S      Ryd( 4S)     0.00005
    95    C    7  px     Val( 2p)     1.10838
    96    C    7  px     Ryd( 3p)     0.00494
    97    C    7  py     Val( 2p)     1.17832
    98    C    7  py     Ryd( 3p)     0.00660
    99    C    7  pz     Val( 2p)     0.93132
   100    C    7  pz     Ryd( 3p)     0.00029
   101    C    7  dxy    Ryd( 3d)     0.00129
   102    C    7  dxz    Ryd( 3d)     0.00043
   103    C    7  dyz    Ryd( 3d)     0.00035
   104    C    7  dx2y2  Ryd( 3d)     0.00076
   105    C    7  dz2    Ryd( 3d)     0.00042

   106    O    8  S      Cor( 1S)     1.99977
   107    O    8  S      Val( 2S)     1.64821
   108    O    8  S      Ryd( 3S)     0.00160
   109    O    8  S      Ryd( 4S)     0.00009
   110    O    8  px     Val( 2p)     1.53375
   111    O    8  px     Ryd( 3p)     0.00111
   112    O    8  py     Val( 2p)     1.86863
   113    O    8  py     Ryd( 3p)     0.00265
   114    O    8  pz     Val( 2p)     1.72670
   115    O    8  pz     Ryd( 3p)     0.00132
   116    O    8  dxy    Ryd( 3d)     0.00158
   117    O    8  dxz    Ryd( 3d)     0.00022
   118    O    8  dyz    Ryd( 3d)     0.00122
   119    O    8  dx2y2  Ryd( 3d)     0.00128
   120    O    8  dz2    Ryd( 3d)     0.00095

   121   Si    9  S      Cor( 1S)     2.00000
   122   Si    9  S      Cor( 2S)     1.99865
   123   Si    9  S      Val( 3S)     0.74680
   124   Si    9  S      Ryd( 4S)     0.00119
   125   Si    9  S      Ryd( 5S)     0.00001
   126   Si    9  px     Cor( 2p)     1.99961
   127   Si    9  px     Val( 3p)     0.32167
   128   Si    9  px     Ryd( 4p)     0.00104
   129   Si    9  py     Cor( 2p)     1.99975
   130   Si    9  py     Val( 3p)     0.42415
   131   Si    9  py     Ryd( 4p)     0.00304
   132   Si    9  pz     Cor( 2p)     1.99982
   133   Si    9  pz     Val( 3p)     0.46227
   134   Si    9  pz     Ryd( 4p)     0.00216
   135   Si    9  dxy    Ryd( 3d)     0.00785
   136   Si    9  dxz    Ryd( 3d)     0.00433
   137   Si    9  dyz    Ryd( 3d)     0.00968
   138   Si    9  dx2y2  Ryd( 3d)     0.00617
   139   Si    9  dz2    Ryd( 3d)     0.00761

   140    C   10  S      Cor( 1S)     1.99949
   141    C   10  S      Val( 2S)     1.23280
   142    C   10  S      Ryd( 3S)     0.00152
   143    C   10  S      Ryd( 4S)     0.00001
   144    C   10  px     Val( 2p)     1.34614
   145    C   10  px     Ryd( 3p)     0.00167
   146    C   10  py     Val( 2p)     1.35299
   147    C   10  py     Ryd( 3p)     0.00215
   148    C   10  pz     Val( 2p)     1.28072
   149    C   10  pz     Ryd( 3p)     0.00059
   150    C   10  dxy    Ryd( 3d)     0.00073
   151    C   10  dxz    Ryd( 3d)     0.00006
   152    C   10  dyz    Ryd( 3d)     0.00094
   153    C   10  dx2y2  Ryd( 3d)     0.00031
   154    C   10  dz2    Ryd( 3d)     0.00071

   155    C   11  S      Cor( 1S)     1.99948
   156    C   11  S      Val( 2S)     1.23375
   157    C   11  S      Ryd( 3S)     0.00179
   158    C   11  S      Ryd( 4S)     0.00001
   159    C   11  px     Val( 2p)     1.27922
   160    C   11  px     Ryd( 3p)     0.00072
   161    C   11  py     Val( 2p)     1.32288
   162    C   11  py     Ryd( 3p)     0.00132
   163    C   11  pz     Val( 2p)     1.38007
   164    C   11  pz     Ryd( 3p)     0.00237
   165    C   11  dxy    Ryd( 3d)     0.00090
   166    C   11  dxz    Ryd( 3d)     0.00004
   167    C   11  dyz    Ryd( 3d)     0.00083
   168    C   11  dx2y2  Ryd( 3d)     0.00033
   169    C   11  dz2    Ryd( 3d)     0.00068

   170    C   12  S      Cor( 1S)     1.99948
   171    C   12  S      Val( 2S)     1.23375
   172    C   12  S      Ryd( 3S)     0.00179
   173    C   12  S      Ryd( 4S)     0.00001
   174    C   12  px     Val( 2p)     1.27922
   175    C   12  px     Ryd( 3p)     0.00072
   176    C   12  py     Val( 2p)     1.32286
   177    C   12  py     Ryd( 3p)     0.00132
   178    C   12  pz     Val( 2p)     1.38010
   179    C   12  pz     Ryd( 3p)     0.00237
   180    C   12  dxy    Ryd( 3d)     0.00090
   181    C   12  dxz    Ryd( 3d)     0.00004
   182    C   12  dyz    Ryd( 3d)     0.00083
   183    C   12  dx2y2  Ryd( 3d)     0.00033
   184    C   12  dz2    Ryd( 3d)     0.00068

   185    H   13  S      Val( 1S)     0.75701
   186    H   13  S      Ryd( 2S)     0.00078

   187    H   14  S      Val( 1S)     0.75761
   188    H   14  S      Ryd( 2S)     0.00115

   189    H   15  S      Val( 1S)     0.74258
   190    H   15  S      Ryd( 2S)     0.00111

   191    H   16  S      Val( 1S)     0.75554
   192    H   16  S      Ryd( 2S)     0.00073

   193    H   17  S      Val( 1S)     0.73793
   194    H   17  S      Ryd( 2S)     0.00076

   195    H   18  S      Val( 1S)     0.73793
   196    H   18  S      Ryd( 2S)     0.00076

   197    H   19  S      Val( 1S)     0.73889
   198    H   19  S      Ryd( 2S)     0.00046

   199    H   20  S      Val( 1S)     0.73668
   200    H   20  S      Ryd( 2S)     0.00076

   201    H   21  S      Val( 1S)     0.73434
   202    H   21  S      Ryd( 2S)     0.00044

   203    H   22  S      Val( 1S)     0.74429
   204    H   22  S      Ryd( 2S)     0.00065

   205    H   23  S      Val( 1S)     0.73668
   206    H   23  S      Ryd( 2S)     0.00076

   207    H   24  S      Val( 1S)     0.74429
   208    H   24  S      Ryd( 2S)     0.00065

   209    H   25  S      Val( 1S)     0.73434
   210    H   25  S      Ryd( 2S)     0.00044

 WARNING:  1 low occupancy (<1.9990e) core orbital  found on Li    1
           1 low occupancy (<1.9990e) core orbital  found on  C    5
           1 low occupancy (<1.9990e) core orbital  found on Si    9


 Summary of Natural Population Analysis:                  
                                                          
                                       Natural Population 
                Natural  -----------------------------------------------
    Atom  No    Charge         Core      Valence    Rydberg      Total
 -----------------------------------------------------------------------
     Li    1   -0.05976      1.99879     1.05821    0.00276     3.05976
      C    2   -0.29429      1.99936     4.27168    0.02325     6.29429
      C    3   -0.20629      1.99918     4.19055    0.01656     6.20629
      C    4   -0.28342      1.99901     4.27241    0.01199     6.28342
      C    5    0.43276      1.99874     3.54770    0.02080     5.56724
      C    6   -0.24299      1.99901     4.23003    0.01395     6.24299
      C    7   -0.22806      1.99918     4.21285    0.01603     6.22806
      O    8   -0.78906      1.99977     6.77728    0.01201     8.78906
     Si    9    2.00419      9.99783     1.95489    0.04309    11.99581
      C   10   -1.22080      1.99949     5.21264    0.00867     7.22080
      C   11   -1.22441      1.99948     5.21592    0.00900     7.22441
      C   12   -1.22441      1.99948     5.21593    0.00900     7.22441
      H   13    0.24221      0.00000     0.75701    0.00078     0.75779
      H   14    0.24125      0.00000     0.75761    0.00115     0.75875
      H   15    0.25631      0.00000     0.74258    0.00111     0.74369
      H   16    0.24373      0.00000     0.75554    0.00073     0.75627
      H   17    0.26130      0.00000     0.73793    0.00076     0.73870
      H   18    0.26130      0.00000     0.73793    0.00076     0.73870
      H   19    0.26065      0.00000     0.73889    0.00046     0.73935
      H   20    0.26256      0.00000     0.73668    0.00076     0.73744
      H   21    0.26522      0.00000     0.73434    0.00044     0.73478
      H   22    0.25506      0.00000     0.74429    0.00065     0.74494
      H   23    0.26256      0.00000     0.73668    0.00076     0.73744
      H   24    0.25506      0.00000     0.74429    0.00065     0.74494
      H   25    0.26522      0.00000     0.73434    0.00044     0.73478
 =======================================================================
   * Total *   -0.00409     31.98932    59.81821    0.19656    92.00409

                                 Natural Population      
 --------------------------------------------------------
   Core                      31.98932 ( 99.9666% of  32)
   Valence                   59.81821 ( 99.6970% of  60)
   Natural Minimal Basis     91.80753 ( 99.7908% of  92)
   Natural Rydberg Basis      0.19656 (  0.2137% of  92)
 --------------------------------------------------------

    Atom  No          Natural Electron Configuration
 ----------------------------------------------------------------------------
     Li    1      [core]2S( 0.88)2p( 0.18)
      C    2      [core]2S( 1.23)2p( 3.05)3p( 0.02)
      C    3      [core]2S( 0.99)2p( 3.20)3p( 0.01)
      C    4      [core]2S( 0.98)2p( 3.29)3p( 0.01)
      C    5      [core]2S( 0.85)2p( 2.70)3p( 0.01)3d( 0.01)
      C    6      [core]2S( 0.99)2p( 3.24)3p( 0.01)
      C    7      [core]2S( 0.99)2p( 3.22)3p( 0.01)
      O    8      [core]2S( 1.65)2p( 5.13)3p( 0.01)3d( 0.01)
     Si    9      [core]3S( 0.75)3p( 1.21)3d( 0.04)4p( 0.01)
      C   10      [core]2S( 1.23)2p( 3.98)
      C   11      [core]2S( 1.23)2p( 3.98)
      C   12      [core]2S( 1.23)2p( 3.98)
      H   13            1S( 0.76)
      H   14            1S( 0.76)
      H   15            1S( 0.74)
      H   16            1S( 0.76)
      H   17            1S( 0.74)
      H   18            1S( 0.74)
      H   19            1S( 0.74)
      H   20            1S( 0.74)
      H   21            1S( 0.73)
      H   22            1S( 0.74)
      H   23            1S( 0.74)
      H   24            1S( 0.74)
      H   25            1S( 0.73)


 NBO analysis skipped by request.
 Leave Link  607 at Sun Oct  3 02:54:22 2021, MaxMem= 1073741824 cpu:      17.4
 (Enter /sw/target/amd/app/gaussian/Gaussian09RevA.02_gcc-4.9.2/g09/l9999.exe)
 1\1\GINC-HERMITE\SP\RTD-B3LYP-FC\6-31G(d)\C9H13Li1O1Si1\JSCHLEINITZ\03
 -Oct-2021\0\\#p TD(NStates=10, Root=1) b3lyp/6-31G* volume pop=NPA den
 sity=current Geom=AllCheck Guess=Read\\[Li]c1ccc(cc1)O[Si](C)(C)C_conf
 _0\\0,1\Li,0,5.8051562537,3.6154035465,-5.4465703534\C,0,6.2714784678,
 2.3134995101,-4.0466478305\C,0,7.2318168647,1.2924038627,-4.2274596735
 \C,0,7.5744670804,0.3590666233,-3.2418144082\C,0,6.9482110718,0.411923
 6292,-1.9925011429\C,0,5.9892171567,1.4018031565,-1.7569492399\C,0,5.6
 72280764,2.3163372947,-2.7632017565\O,0,7.218205334,-0.459254016,-0.96
 5296225\Si,0,8.2695609982,-1.7642311683,-0.8172310566\C,0,7.9752072978
 ,-2.372616909,0.9386621915\C,0,7.8418427853,-3.1235545766,-2.056800228
 7\C,0,10.0649587622,-1.2151664044,-1.0229155663\H,0,7.7547522249,1.200
 6244206,-5.1827245113\H,0,8.3233396692,-0.401789501,-3.4481613463\H,0,
 5.5071362708,1.4357139541,-0.7827305122\H,0,4.9154897195,3.0658860157,
 -2.5189682022\H,0,6.9308415133,-2.6730770178,1.080222348\H,0,8.1969329
 216,-1.5862277625,1.6690353096\H,0,8.608365368,-3.2372359324,1.1731593
 079\H,0,6.8012212572,-3.4468613838,-1.9361173194\H,0,8.4827064776,-4.0
 013981371,-1.9041972959\H,0,7.9671455917,-2.7961649345,-3.0945660154\H
 ,0,10.3166663855,-0.4292493025,-0.3011380711\H,0,10.268320281,-0.82057
 68582,-2.0243078528\H,0,10.7485548052,-2.0563599894,-0.8505999058\\Ver
 sion=AM64L-G09RevA.02\State=1-A\HF=-723.0729829\RMSD=4.491e-09\Dipole=
 1.6673729,-3.8118508,3.4494934\Quadrupole=17.0287537,-9.1788526,-7.849
 9012,10.0802392,-13.8234904,30.7926238\PG=C01 [X(C9H13Li1O1Si1)]\\@


 CURIOUSER AND CURIOUSER

                  -- ALICE, IN WONDERLAND
 Job cpu time:  0 days  1 hours 48 minutes 15.2 seconds.
 File lengths (MBytes):  RWF=    123 Int=      0 D2E=      0 Chk=     20 Scr=      1
 Normal termination of Gaussian 09 at Sun Oct  3 02:54:32 2021.
