 Entering Gaussian System, Link 0=g09
 Input=C9H12O2_df4c_conf_0.com
 Output=C9H12O2_df4c_conf_0.log
 Initial command:
 /sw/target/amd/app/gaussian/Gaussian09RevA.02_gcc-4.9.2/g09/l1.exe /home/jschleinitz/gaussian/Gau-3087102.inp -scrdir=/home/jschleinitz/gaussian/
 Entering Link 1 = /sw/target/amd/app/gaussian/Gaussian09RevA.02_gcc-4.9.2/g09/l1.exe PID=   3087105.
  
 Copyright (c) 1988,1990,1992,1993,1995,1998,2003,2009, Gaussian, Inc.
                  All Rights Reserved.
  
 This is part of the Gaussian(R) 09 program.  It is based on
 the Gaussian(R) 03 system (copyright 2003, Gaussian, Inc.),
 the Gaussian(R) 98 system (copyright 1998, Gaussian, Inc.),
 the Gaussian(R) 94 system (copyright 1995, Gaussian, Inc.),
 the Gaussian 92(TM) system (copyright 1992, Gaussian, Inc.),
 the Gaussian 90(TM) system (copyright 1990, Gaussian, Inc.),
 the Gaussian 88(TM) system (copyright 1988, Gaussian, Inc.),
 the Gaussian 86(TM) system (copyright 1986, Carnegie Mellon
 University), and the Gaussian 82(TM) system (copyright 1983,
 Carnegie Mellon University). Gaussian is a federally registered
 trademark of Gaussian, Inc.
  
 This software contains proprietary and confidential information,
 including trade secrets, belonging to Gaussian, Inc.
  
 This software is provided under written license and may be
 used, copied, transmitted, or stored only in accord with that
 written license.
  
 The following legend is applicable only to US Government
 contracts under FAR:
  
                    RESTRICTED RIGHTS LEGEND
  
 Use, reproduction and disclosure by the US Government is
 subject to restrictions as set forth in subparagraphs (a)
 and (c) of the Commercial Computer Software - Restricted
 Rights clause in FAR 52.227-19.
  
 Gaussian, Inc.
 340 Quinnipiac St., Bldg. 40, Wallingford CT 06492
  
  
 ---------------------------------------------------------------
 Warning -- This program may not be used in any manner that
 competes with the business of Gaussian, Inc. or will provide
 assistance to any competitor of Gaussian, Inc.  The licensee
 of this program is prohibited from giving any competitor of
 Gaussian, Inc. access to this program.  By using this program,
 the user acknowledges that Gaussian, Inc. is engaged in the
 business of creating and licensing software in the field of
 computational chemistry and represents and warrants to the
 licensee that it is not a competitor of Gaussian, Inc. and that
 it will not use this program in any manner prohibited above.
 ---------------------------------------------------------------
  

 Cite this work as:
 Gaussian 09, Revision A.02,
 M. J. Frisch, G. W. Trucks, H. B. Schlegel, G. E. Scuseria, 
 M. A. Robb, J. R. Cheeseman, G. Scalmani, V. Barone, B. Mennucci, 
 G. A. Petersson, H. Nakatsuji, M. Caricato, X. Li, H. P. Hratchian, 
 A. F. Izmaylov, J. Bloino, G. Zheng, J. L. Sonnenberg, M. Hada, 
 M. Ehara, K. Toyota, R. Fukuda, J. Hasegawa, M. Ishida, T. Nakajima, 
 Y. Honda, O. Kitao, H. Nakai, T. Vreven, J. A. Montgomery, Jr., 
 J. E. Peralta, F. Ogliaro, M. Bearpark, J. J. Heyd, E. Brothers, 
 K. N. Kudin, V. N. Staroverov, R. Kobayashi, J. Normand, 
 K. Raghavachari, A. Rendell, J. C. Burant, S. S. Iyengar, J. Tomasi, 
 M. Cossi, N. Rega, J. M. Millam, M. Klene, J. E. Knox, J. B. Cross, 
 V. Bakken, C. Adamo, J. Jaramillo, R. Gomperts, R. E. Stratmann, 
 O. Yazyev, A. J. Austin, R. Cammi, C. Pomelli, J. W. Ochterski, 
 R. L. Martin, K. Morokuma, V. G. Zakrzewski, G. A. Voth, 
 P. Salvador, J. J. Dannenberg, S. Dapprich, A. D. Daniels, 
 O. Farkas, J. B. Foresman, J. V. Ortiz, J. Cioslowski, 
 and D. J. Fox, Gaussian, Inc., Wallingford CT, 2009.
 
 ******************************************
 Gaussian 09:  AM64L-G09RevA.02 11-Jun-2009
                28-Sep-2021 
 ******************************************
 %nproc=3
 Will use up to    3 processors via shared memory.
 %mem=6gb
 %chk=C9H12O2_df4c_conf_0.chk
 -----------------------------------
 #p opt b3lyp/6-31G* scf=(xqc,tight)
 -----------------------------------
 1/14=-1,18=20,19=15,26=3,38=1/1,3;
 2/9=110,12=2,17=6,18=5,40=1/2;
 3/5=1,6=6,7=1,11=2,16=1,25=1,30=1,71=1,74=-5/1,2,3;
 4//1;
 5/5=2,8=3,13=1,32=2,38=5/2,8;
 6/7=2,8=2,9=2,10=2,28=1/1;
 7//1,2,3,16;
 1/14=-1,18=20,19=15/3(2);
 2/9=110/2;
 99//99;
 2/9=110/2;
 3/5=1,6=6,7=1,11=2,16=1,25=1,30=1,71=1,74=-5/1,2,3;
 4/5=5,16=3/1;
 5/5=2,8=3,13=1,32=2,38=5/2,8;
 7//1,2,3,16;
 1/14=-1,18=20,19=15/3(-5);
 2/9=110/2;
 6/7=2,8=2,9=2,10=2,19=2,28=1/1;
 99/9=1/99;
 Leave Link    1 at Tue Sep 28 14:14:19 2021, MaxMem=  805306368 cpu:       0.1
 (Enter /sw/target/amd/app/gaussian/Gaussian09RevA.02_gcc-4.9.2/g09/l101.exe)
 ----------------------
 OCCc1ccc(cc1)OC_conf_0
 ----------------------
 Symbolic Z-matrix:
 Charge =  0 Multiplicity = 1
 O                     0.95578  -0.68768  -0.407 
 C                     2.37609  -0.63837  -0.31643 
 C                     2.79181  -0.75162   1.14698 
 C                     4.28745  -0.69856   1.32656 
 C                     4.93992   0.52734   1.50544 
 C                     6.32994   0.58233   1.66096 
 C                     7.08553  -0.58994   1.6352 
 C                     6.43718  -1.81303   1.4523 
 C                     5.0499   -1.87102   1.29731 
 O                     8.44329  -0.67671   1.77636 
 C                     9.14942   0.54317   1.96394 
 H                     0.72827  -0.60006  -1.34867 
 H                     2.7162    0.3079   -0.75044 
 H                     2.78927  -1.46144  -0.90915 
 H                     2.39527  -1.68129   1.57544 
 H                     2.31654   0.04758   1.73054 
 H                     4.36834   1.45301   1.53164 
 H                     6.78835   1.55459   1.80342 
 H                     7.01891  -2.7316    1.43322 
 H                     4.57164  -2.83832   1.1604 
 H                     10.21099   0.30168   2.07475 
 H                     8.82748   1.05103   2.87903 
 H                     9.04574   1.19636   1.091 
 
 NAtoms=     23 NQM=     23 NQMF=      0 NMic=      0 NMicF=      0 NTot=     23.
                    Isotopes and Nuclear Properties:
 (Nuclear quadrupole moments (NQMom) in fm**2, nuclear magnetic moments (NMagM)
  in nuclear magnetons)

  Atom         1           2           3           4           5           6           7           8           9          10
 IAtWgt=          16          12          12          12          12          12          12          12          12          16
 AtmWgt=  15.9949146  12.0000000  12.0000000  12.0000000  12.0000000  12.0000000  12.0000000  12.0000000  12.0000000  15.9949146
 NucSpn=           0           0           0           0           0           0           0           0           0           0
 AtZEff=   0.0000000   0.0000000   0.0000000   0.0000000   0.0000000   0.0000000   0.0000000   0.0000000   0.0000000   0.0000000
 NQMom=    0.0000000   0.0000000   0.0000000   0.0000000   0.0000000   0.0000000   0.0000000   0.0000000   0.0000000   0.0000000
 NMagM=    0.0000000   0.0000000   0.0000000   0.0000000   0.0000000   0.0000000   0.0000000   0.0000000   0.0000000   0.0000000

  Atom        11          12          13          14          15          16          17          18          19          20
 IAtWgt=          12           1           1           1           1           1           1           1           1           1
 AtmWgt=  12.0000000   1.0078250   1.0078250   1.0078250   1.0078250   1.0078250   1.0078250   1.0078250   1.0078250   1.0078250
 NucSpn=           0           1           1           1           1           1           1           1           1           1
 AtZEff=   0.0000000   0.0000000   0.0000000   0.0000000   0.0000000   0.0000000   0.0000000   0.0000000   0.0000000   0.0000000
 NQMom=    0.0000000   0.0000000   0.0000000   0.0000000   0.0000000   0.0000000   0.0000000   0.0000000   0.0000000   0.0000000
 NMagM=    0.0000000   2.7928460   2.7928460   2.7928460   2.7928460   2.7928460   2.7928460   2.7928460   2.7928460   2.7928460

  Atom        21          22          23
 IAtWgt=           1           1           1
 AtmWgt=   1.0078250   1.0078250   1.0078250
 NucSpn=           1           1           1
 AtZEff=   0.0000000   0.0000000   0.0000000
 NQMom=    0.0000000   0.0000000   0.0000000
 NMagM=    2.7928460   2.7928460   2.7928460
 Leave Link  101 at Tue Sep 28 14:14:19 2021, MaxMem=  805306368 cpu:       0.2
 (Enter /sw/target/amd/app/gaussian/Gaussian09RevA.02_gcc-4.9.2/g09/l103.exe)

 GradGradGradGradGradGradGradGradGradGradGradGradGradGradGradGradGradGrad
 Berny optimization.
 Initialization pass.
                           ----------------------------
                           !    Initial Parameters    !
                           ! (Angstroms and Degrees)  !
 --------------------------                            --------------------------
 ! Name  Definition              Value          Derivative Info.                !
 --------------------------------------------------------------------------------
 ! R1    R(1,2)                  1.4241         estimate D2E/DX2                !
 ! R2    R(1,12)                 0.9727         estimate D2E/DX2                !
 ! R3    R(2,3)                  1.5255         estimate D2E/DX2                !
 ! R4    R(2,13)                 1.0952         estimate D2E/DX2                !
 ! R5    R(2,14)                 1.0952         estimate D2E/DX2                !
 ! R6    R(3,4)                  1.5073         estimate D2E/DX2                !
 ! R7    R(3,15)                 1.0978         estimate D2E/DX2                !
 ! R8    R(3,16)                 1.0978         estimate D2E/DX2                !
 ! R9    R(4,5)                  1.4002         estimate D2E/DX2                !
 ! R10   R(4,9)                  1.3989         estimate D2E/DX2                !
 ! R11   R(5,6)                  1.3998         estimate D2E/DX2                !
 ! R12   R(5,17)                 1.0882         estimate D2E/DX2                !
 ! R13   R(6,7)                  1.3949         estimate D2E/DX2                !
 ! R14   R(6,18)                 1.0843         estimate D2E/DX2                !
 ! R15   R(7,8)                  1.3963         estimate D2E/DX2                !
 ! R16   R(7,10)                 1.3678         estimate D2E/DX2                !
 ! R17   R(8,9)                  1.3971         estimate D2E/DX2                !
 ! R18   R(8,19)                 1.0874         estimate D2E/DX2                !
 ! R19   R(9,20)                 1.0877         estimate D2E/DX2                !
 ! R20   R(10,11)                1.4219         estimate D2E/DX2                !
 ! R21   R(11,21)                1.0943         estimate D2E/DX2                !
 ! R22   R(11,22)                1.095          estimate D2E/DX2                !
 ! R23   R(11,23)                1.0952         estimate D2E/DX2                !
 ! A1    A(2,1,12)             106.9612         estimate D2E/DX2                !
 ! A2    A(1,2,3)              109.2827         estimate D2E/DX2                !
 ! A3    A(1,2,13)             108.3276         estimate D2E/DX2                !
 ! A4    A(1,2,14)             108.4107         estimate D2E/DX2                !
 ! A5    A(3,2,13)             111.0797         estimate D2E/DX2                !
 ! A6    A(3,2,14)             111.1348         estimate D2E/DX2                !
 ! A7    A(13,2,14)            108.5238         estimate D2E/DX2                !
 ! A8    A(2,3,4)              112.4618         estimate D2E/DX2                !
 ! A9    A(2,3,15)             109.8063         estimate D2E/DX2                !
 ! A10   A(2,3,16)             109.7492         estimate D2E/DX2                !
 ! A11   A(4,3,15)             109.9827         estimate D2E/DX2                !
 ! A12   A(4,3,16)             109.915          estimate D2E/DX2                !
 ! A13   A(15,3,16)            104.6358         estimate D2E/DX2                !
 ! A14   A(3,4,5)              120.5583         estimate D2E/DX2                !
 ! A15   A(3,4,9)              120.5855         estimate D2E/DX2                !
 ! A16   A(5,4,9)              118.8493         estimate D2E/DX2                !
 ! A17   A(4,5,6)              120.7521         estimate D2E/DX2                !
 ! A18   A(4,5,17)             120.2025         estimate D2E/DX2                !
 ! A19   A(6,5,17)             119.0443         estimate D2E/DX2                !
 ! A20   A(5,6,7)              120.1877         estimate D2E/DX2                !
 ! A21   A(5,6,18)             118.0109         estimate D2E/DX2                !
 ! A22   A(7,6,18)             121.801          estimate D2E/DX2                !
 ! A23   A(6,7,8)              119.1453         estimate D2E/DX2                !
 ! A24   A(6,7,10)             126.0921         estimate D2E/DX2                !
 ! A25   A(8,7,10)             114.7625         estimate D2E/DX2                !
 ! A26   A(7,8,9)              120.7932         estimate D2E/DX2                !
 ! A27   A(7,8,19)             119.5909         estimate D2E/DX2                !
 ! A28   A(9,8,19)             119.6156         estimate D2E/DX2                !
 ! A29   A(4,9,8)              120.2713         estimate D2E/DX2                !
 ! A30   A(4,9,20)             120.5532         estimate D2E/DX2                !
 ! A31   A(8,9,20)             119.1743         estimate D2E/DX2                !
 ! A32   A(7,10,11)            116.8807         estimate D2E/DX2                !
 ! A33   A(10,11,21)           107.8048         estimate D2E/DX2                !
 ! A34   A(10,11,22)           111.2316         estimate D2E/DX2                !
 ! A35   A(10,11,23)           111.0705         estimate D2E/DX2                !
 ! A36   A(21,11,22)           107.6346         estimate D2E/DX2                !
 ! A37   A(21,11,23)           107.7076         estimate D2E/DX2                !
 ! A38   A(22,11,23)           111.2028         estimate D2E/DX2                !
 ! D1    D(12,1,2,3)           179.1952         estimate D2E/DX2                !
 ! D2    D(12,1,2,13)           58.0441         estimate D2E/DX2                !
 ! D3    D(12,1,2,14)          -59.5361         estimate D2E/DX2                !
 ! D4    D(1,2,3,4)           -179.6473         estimate D2E/DX2                !
 ! D5    D(1,2,3,15)            57.5371         estimate D2E/DX2                !
 ! D6    D(1,2,3,16)           -56.9599         estimate D2E/DX2                !
 ! D7    D(13,2,3,4)           -60.1826         estimate D2E/DX2                !
 ! D8    D(13,2,3,15)          177.0017         estimate D2E/DX2                !
 ! D9    D(13,2,3,16)           62.5048         estimate D2E/DX2                !
 ! D10   D(14,2,3,4)            60.751          estimate D2E/DX2                !
 ! D11   D(14,2,3,15)          -62.0647         estimate D2E/DX2                !
 ! D12   D(14,2,3,16)         -176.5616         estimate D2E/DX2                !
 ! D13   D(2,3,4,5)             89.3012         estimate D2E/DX2                !
 ! D14   D(2,3,4,9)            -89.7327         estimate D2E/DX2                !
 ! D15   D(15,3,4,5)          -147.9823         estimate D2E/DX2                !
 ! D16   D(15,3,4,9)            32.9838         estimate D2E/DX2                !
 ! D17   D(16,3,4,5)           -33.2928         estimate D2E/DX2                !
 ! D18   D(16,3,4,9)           147.6733         estimate D2E/DX2                !
 ! D19   D(3,4,5,6)           -179.4414         estimate D2E/DX2                !
 ! D20   D(3,4,5,17)             0.9495         estimate D2E/DX2                !
 ! D21   D(9,4,5,6)             -0.3909         estimate D2E/DX2                !
 ! D22   D(9,4,5,17)           179.9999         estimate D2E/DX2                !
 ! D23   D(3,4,9,8)            179.4157         estimate D2E/DX2                !
 ! D24   D(3,4,9,20)            -0.9804         estimate D2E/DX2                !
 ! D25   D(5,4,9,8)              0.3655         estimate D2E/DX2                !
 ! D26   D(5,4,9,20)           179.9694         estimate D2E/DX2                !
 ! D27   D(4,5,6,7)              0.1987         estimate D2E/DX2                !
 ! D28   D(4,5,6,18)          -179.5857         estimate D2E/DX2                !
 ! D29   D(17,5,6,7)           179.8123         estimate D2E/DX2                !
 ! D30   D(17,5,6,18)            0.0279         estimate D2E/DX2                !
 ! D31   D(5,6,7,8)              0.0234         estimate D2E/DX2                !
 ! D32   D(5,6,7,10)          -179.8902         estimate D2E/DX2                !
 ! D33   D(18,6,7,8)           179.7994         estimate D2E/DX2                !
 ! D34   D(18,6,7,10)           -0.1141         estimate D2E/DX2                !
 ! D35   D(6,7,8,9)             -0.0471         estimate D2E/DX2                !
 ! D36   D(6,7,8,19)          -179.8665         estimate D2E/DX2                !
 ! D37   D(10,7,8,9)           179.8759         estimate D2E/DX2                !
 ! D38   D(10,7,8,19)            0.0566         estimate D2E/DX2                !
 ! D39   D(6,7,10,11)           -0.1448         estimate D2E/DX2                !
 ! D40   D(8,7,10,11)          179.9384         estimate D2E/DX2                !
 ! D41   D(7,8,9,4)             -0.1504         estimate D2E/DX2                !
 ! D42   D(7,8,9,20)          -179.7597         estimate D2E/DX2                !
 ! D43   D(19,8,9,4)           179.6689         estimate D2E/DX2                !
 ! D44   D(19,8,9,20)            0.0596         estimate D2E/DX2                !
 ! D45   D(7,10,11,21)         179.1227         estimate D2E/DX2                !
 ! D46   D(7,10,11,22)          61.3395         estimate D2E/DX2                !
 ! D47   D(7,10,11,23)         -63.0969         estimate D2E/DX2                !
 --------------------------------------------------------------------------------
 Trust Radius=3.00D-01 FncErr=1.00D-07 GrdErr=1.00D-06
 Number of steps in this run= 118 maximum allowed number of steps= 138.
 GradGradGradGradGradGradGradGradGradGradGradGradGradGradGradGradGradGrad

 Leave Link  103 at Tue Sep 28 14:14:19 2021, MaxMem=  805306368 cpu:       0.0
 (Enter /sw/target/amd/app/gaussian/Gaussian09RevA.02_gcc-4.9.2/g09/l202.exe)
                          Input orientation:                          
 ---------------------------------------------------------------------
 Center     Atomic      Atomic             Coordinates (Angstroms)
 Number     Number       Type             X           Y           Z
 ---------------------------------------------------------------------
      1          8           0        0.955778   -0.687678   -0.406996
      2          6           0        2.376092   -0.638366   -0.316430
      3          6           0        2.791809   -0.751620    1.146982
      4          6           0        4.287454   -0.698559    1.326556
      5          6           0        4.939922    0.527341    1.505444
      6          6           0        6.329945    0.582328    1.660961
      7          6           0        7.085532   -0.589940    1.635205
      8          6           0        6.437179   -1.813034    1.452303
      9          6           0        5.049898   -1.871023    1.297306
     10          8           0        8.443289   -0.676705    1.776365
     11          6           0        9.149416    0.543170    1.963938
     12          1           0        0.728268   -0.600055   -1.348668
     13          1           0        2.716202    0.307896   -0.750439
     14          1           0        2.789268   -1.461438   -0.909152
     15          1           0        2.395270   -1.681293    1.575440
     16          1           0        2.316536    0.047584    1.730537
     17          1           0        4.368344    1.453013    1.531644
     18          1           0        6.788350    1.554585    1.803423
     19          1           0        7.018908   -2.731596    1.433225
     20          1           0        4.571639   -2.838320    1.160400
     21          1           0       10.210992    0.301678    2.074747
     22          1           0        8.827477    1.051028    2.879033
     23          1           0        9.045741    1.196361    1.091005
 ---------------------------------------------------------------------
                    Distance matrix (angstroms):
                    1          2          3          4          5
     1  O    0.000000
     2  C    1.424052   0.000000
     3  C    2.406230   1.525524   0.000000
     4  C    3.755713   2.521177   1.507320   0.000000
     5  C    4.583350   3.354299   2.525594   1.400196   0.000000
     6  C    5.896696   4.586189   3.816018   2.433982   1.399776
     7  C    6.461734   5.098044   4.324414   2.817144   2.422560
     8  C    5.896539   4.582652   3.809008   2.424703   2.778841
     9  C    4.589854   3.357503   2.524802   1.398874   2.409890
    10  O    7.799359   6.418111   5.686911   4.180164   3.714392
    11  C    8.618121   7.243896   6.539347   5.058342   4.234419
    12  H    0.972721   1.944815   3.241827   4.453575   5.211047
    13  H    2.051393   1.095195   2.174511   2.792077   3.175231
    14  H    2.052450   1.095209   2.175210   2.797309   3.796160
    15  H    2.643759   2.160380   1.097777   2.146641   3.370196
    16  H    2.638431   2.159664   1.097792   2.145797   2.676376
    17  H    4.470624   3.429039   2.737486   2.162837   1.088235
    18  H    6.628167   5.363846   4.660669   3.399786   2.135582
    19  H    6.657744   5.385039   4.676602   3.406678   3.866273
    20  H    4.489592   3.441112   2.742679   2.164935   3.403287
    21  H    9.633112   8.245427   7.550792   6.053806   5.306525
    22  H    8.705443   7.394959   6.532904   5.107157   4.156210
    23  H    8.440444   7.059130   6.550528   5.127134   4.180562
                    6          7          8          9         10
     6  C    0.000000
     7  C    1.394915   0.000000
     8  C    2.406823   1.396342   0.000000
     9  C    2.791003   2.428818   1.397118   0.000000
    10  O    2.462663   1.367830   2.328247   3.629187   0.000000
    11  C    2.835974   2.377315   3.629008   4.804038   1.421934
    12  H    6.467974   7.022706   6.473672   5.224272   8.324257
    13  H    4.353079   5.058502   4.816232   3.793031   6.336695
    14  H    4.828960   5.068643   4.359742   3.185383   6.308388
    15  H    4.540150   4.815930   4.045930   2.675893   6.134175
    16  H    4.049474   4.812363   4.529791   3.367493   6.169586
    17  H    2.150045   3.401102   3.866967   3.401271   4.604429
    18  H    1.084304   2.171544   3.404036   3.874683   2.778167
    19  H    3.392437   2.152190   1.087441   2.153151   2.523724
    20  H    3.878535   3.405922   2.148641   1.087721   4.476792
    21  H    3.913120   3.279738   4.370481   5.653489   2.042312
    22  H    2.817987   2.697084   3.993987   5.030940   2.085316
    23  H    2.842083   2.707295   3.998948   5.041644   2.083517
                   11         12         13         14         15
    11  C    0.000000
    12  H    9.121188   0.000000
    13  H    6.986375   2.265864   0.000000
    14  H    7.261170   2.276593   1.777940   0.000000
    15  H    7.121633   3.535305   3.077270   2.525227   0.000000
    16  H    6.854803   3.524704   2.526408   3.077106   1.737605
    17  H    4.886036   5.075573   3.041178   4.116429   3.703892
    18  H    2.573588   7.162594   4.965766   5.696237   5.460956
    19  H    3.942691   7.201010   5.702646   4.998988   4.743563
    20  H    5.747712   5.106540   4.122211   3.058708   2.499510
    21  H    1.094322  10.122003   8.009593   8.191106   8.078799
    22  H    1.094972   9.284220   7.146537   7.557963   7.109024
    23  H    1.095180   8.852089   6.651567   7.085759   7.262530
                   16         17         18         19         20
    16  H    0.000000
    17  H    2.494935   0.000000
    18  H    4.719479   2.437337   0.000000
    19  H    5.470332   4.954404   4.308311   0.000000
    20  H    3.706613   4.312155   4.962348   2.464741   0.000000
    21  H    7.906040   5.979721   3.654841   4.449910   6.519043
    22  H    6.687174   4.675567   2.359777   4.435034   6.016052
    23  H    6.856448   4.705112   2.394092   4.433284   6.025036
                   21         22         23
    21  H    0.000000
    22  H    1.767064   0.000000
    23  H    1.768054   1.807154   0.000000
 Stoichiometry    C9H12O2
 Framework group  C1[X(C9H12O2)]
 Deg. of freedom    63
 Full point group                 C1      NOp   1
 Largest Abelian subgroup         C1      NOp   1
 Largest concise Abelian subgroup C1      NOp   1
                         Standard orientation:                         
 ---------------------------------------------------------------------
 Center     Atomic      Atomic             Coordinates (Angstroms)
 Number     Number       Type             X           Y           Z
 ---------------------------------------------------------------------
      1          8           0       -4.515777   -0.244553    0.323409
      2          6           0       -3.126379   -0.159040    0.623720
      3          6           0       -2.339672    0.002823   -0.673244
      4          6           0       -0.853514    0.092312   -0.437995
      5          6           0       -0.066387   -1.065330   -0.408952
      6          6           0        1.312242   -0.987885   -0.179263
      7          6           0        1.920236    0.250235    0.028559
      8          6           0        1.136215    1.405443    0.004551
      9          6           0       -0.239925    1.331250   -0.224950
     10          8           0        3.250925    0.465655    0.260552
     11          6           0        4.091248   -0.680868    0.295725
     12          1           0       -4.982340   -0.359615    1.169143
     13          1           0       -2.831415   -1.071911    1.152033
     14          1           0       -2.968570    0.695311    1.290549
     15          1           0       -2.688652    0.893818   -1.211253
     16          1           0       -2.561656   -0.833688   -1.348611
     17          1           0       -0.520883   -2.040596   -0.571875
     18          1           0        1.880108   -1.911575   -0.172866
     19          1           0        1.603033    2.374638    0.163522
     20          1           0       -0.824828    2.248166   -0.242000
     21          1           0        5.115700   -0.339561    0.473343
     22          1           0        4.079537   -1.210631   -0.662491
     23          1           0        3.814392   -1.346816    1.119911
 ---------------------------------------------------------------------
 Rotational constants (GHZ):      3.7173628      0.4515792      0.4223841
 Leave Link  202 at Tue Sep 28 14:14:19 2021, MaxMem=  805306368 cpu:       0.0
 (Enter /sw/target/amd/app/gaussian/Gaussian09RevA.02_gcc-4.9.2/g09/l301.exe)
 Standard basis: 6-31G(d) (6D, 7F)
 Ernie: Thresh=  0.10000D-02 Tol=  0.10000D-05 Strict=F.
 There are   189 symmetry adapted basis functions of A   symmetry.
 Integral buffers will be    131072 words long.
 Raffenetti 2 integral format.
 Two-electron integral symmetry is turned on.
   189 basis functions,   356 primitive gaussians,   189 cartesian basis functions
    41 alpha electrons       41 beta electrons
       nuclear repulsion energy       581.4274259453 Hartrees.
 IExCor=  402 DFT=T Ex+Corr=B3LYP ExCW=0 ScaHFX=  0.200000
 ScaDFX=  0.800000  0.720000  1.000000  0.810000 ScalE2=  1.000000  1.000000
 IRadAn=      0 IRanWt=     -1 IRanGd=            0 ICorTp=0
 NAtoms=   23 NActive=   23 NUniq=   23 SFac= 7.50D-01 NAtFMM=   80 NAOKFM=F Big=F
 Leave Link  301 at Tue Sep 28 14:14:19 2021, MaxMem=  805306368 cpu:       0.1
 (Enter /sw/target/amd/app/gaussian/Gaussian09RevA.02_gcc-4.9.2/g09/l302.exe)
 NPDir=0 NMtPBC=     1 NCelOv=     1 NCel=       1 NClECP=     1 NCelD=      1
         NCelK=      1 NCelE2=     1 NClLst=     1 CellRange=     0.0.
 One-electron integrals computed using PRISM.
 NBasis=   189 RedAO= T  NBF=   189
 NBsUse=   189 1.00D-06 NBFU=   189
 Precomputing XC quadrature grid using
 IXCGrd= 2 IRadAn=           0 IRanWt=          -1 IRanGd=           0 AccXCQ= 1.00D-10.
 NRdTot=    1455 NPtTot=      185208 NUsed=      195705 NTot=      195737
 NSgBfM=   188   188   188   188   188 NAtAll=    23    23.
 Leave Link  302 at Tue Sep 28 14:14:19 2021, MaxMem=  805306368 cpu:       1.3
 (Enter /sw/target/amd/app/gaussian/Gaussian09RevA.02_gcc-4.9.2/g09/l303.exe)
 DipDrv:  MaxL=1.
 Leave Link  303 at Tue Sep 28 14:14:19 2021, MaxMem=  805306368 cpu:       0.1
 (Enter /sw/target/amd/app/gaussian/Gaussian09RevA.02_gcc-4.9.2/g09/l401.exe)
 Harris functional with IExCor=  402 diagonalized for initial guess.
 ExpMin= 1.61D-01 ExpMax= 5.48D+03 ExpMxC= 8.25D+02 IAcc=1 IRadAn=         1 AccDes= 0.00D+00
 HarFok:  IExCor=  402 AccDes= 0.00D+00 IRadAn=         1 IDoV= 1
 ScaDFX=  1.000000  1.000000  1.000000  1.000000
 FoFCou: FMM=F IPFlag=           0 FMFlag=      100000 FMFlg1=           0
         NFxFlg=           0 DoJE=T BraDBF=F KetDBF=T FulRan=T
         Omega=  0.000000  0.000000  1.000000  0.000000  0.000000 ICntrl=     500 IOpCl=  0
         NMat0=    1 NMatS0=    1 NMatT0=    0 NMatD0=    1 NMtDS0=    0 NMtDT0=    0
         I1Cent=           4 NGrid=           0.
 Petite list used in FoFCou.
 Harris En= -500.676848939633    
 Initial guess orbital symmetries:
       Occupied  (A) (A) (A) (A) (A) (A) (A) (A) (A) (A) (A) (A)
                 (A) (A) (A) (A) (A) (A) (A) (A) (A) (A) (A) (A)
                 (A) (A) (A) (A) (A) (A) (A) (A) (A) (A) (A) (A)
                 (A) (A) (A) (A) (A)
       Virtual   (A) (A) (A) (A) (A) (A) (A) (A) (A) (A) (A) (A)
                 (A) (A) (A) (A) (A) (A) (A) (A) (A) (A) (A) (A)
                 (A) (A) (A) (A) (A) (A) (A) (A) (A) (A) (A) (A)
                 (A) (A) (A) (A) (A) (A) (A) (A) (A) (A) (A) (A)
                 (A) (A) (A) (A) (A) (A) (A) (A) (A) (A) (A) (A)
                 (A) (A) (A) (A) (A) (A) (A) (A) (A) (A) (A) (A)
                 (A) (A) (A) (A) (A) (A) (A) (A) (A) (A) (A) (A)
                 (A) (A) (A) (A) (A) (A) (A) (A) (A) (A) (A) (A)
                 (A) (A) (A) (A) (A) (A) (A) (A) (A) (A) (A) (A)
                 (A) (A) (A) (A) (A) (A) (A) (A) (A) (A) (A) (A)
                 (A) (A) (A) (A) (A) (A) (A) (A) (A) (A) (A) (A)
                 (A) (A) (A) (A) (A) (A) (A) (A) (A) (A) (A) (A)
                 (A) (A) (A) (A)
 The electronic state of the initial guess is 1-A.
 Leave Link  401 at Tue Sep 28 14:14:21 2021, MaxMem=  805306368 cpu:       5.1
 (Enter /sw/target/amd/app/gaussian/Gaussian09RevA.02_gcc-4.9.2/g09/l502.exe)
 Closed shell SCF:
 Requested convergence on RMS density matrix=1.00D-08 within  64 cycles.
 Requested convergence on MAX density matrix=1.00D-06.
 Requested convergence on             energy=1.00D-06.
 No special actions if energy rises.
 Using DIIS extrapolation, IDIIS=  1040.
 Integral symmetry usage will be decided dynamically.
       195485 words used for storage of precomputed grid.
 Keep R1 ints in memory in canonical form, NReq=164940166.
 IEnd=      310757 IEndB=      310757 NGot=   805306368 MDV=   643835728
 LenX=   643835728 LenY=   643799566
 Symmetry not used in FoFDir.
 MinBra= 0 MaxBra= 2 Meth= 1.
 IRaf=       0 NMat=   1 IRICut=       1 DoRegI=T DoRafI=F ISym2E= 0 JSym2E=0.
 Integral accuracy reduced to 1.0D-05 until final iterations.

 Cycle   1  Pass 0  IDiag  1:
 E= -500.324446631954    
 DIIS: error= 4.04D-02 at cycle   1 NSaved=   1.
 NSaved= 1 IEnMin= 1 EnMin= -500.324446631954     IErMin= 1 ErrMin= 4.04D-02
 ErrMax= 4.04D-02 EMaxC= 1.00D-01 BMatC= 2.72D-01 BMatP= 2.72D-01
 IDIUse=3 WtCom= 5.96D-01 WtEn= 4.04D-01
 Coeff-Com:  0.100D+01
 Coeff-En:   0.100D+01
 Coeff:      0.100D+01
 Gap=     0.238 Goal=   None    Shift=    0.000
 GapD=    0.238 DampG=1.000 DampE=0.500 DampFc=0.5000 IDamp=-1.
 Damping current iteration by 5.00D-01
 RMSDP=6.35D-03 MaxDP=1.43D-01              OVMax= 1.85D-01

 Cycle   2  Pass 0  IDiag  1:
 E= -500.452056804613     Delta-E=       -0.127610172659 Rises=F Damp=T
 DIIS: error= 6.76D-03 at cycle   2 NSaved=   2.
 NSaved= 2 IEnMin= 2 EnMin= -500.452056804613     IErMin= 2 ErrMin= 6.76D-03
 ErrMax= 6.76D-03 EMaxC= 1.00D-01 BMatC= 1.46D-02 BMatP= 2.72D-01
 IDIUse=3 WtCom= 9.32D-01 WtEn= 6.76D-02
 Coeff-Com:  0.544D-01 0.946D+00
 Coeff-En:   0.721D-01 0.928D+00
 Coeff:      0.556D-01 0.944D+00
 Gap=     0.221 Goal=   None    Shift=    0.000
 RMSDP=1.46D-03 MaxDP=3.27D-02 DE=-1.28D-01 OVMax= 1.39D-01

 Cycle   3  Pass 0  IDiag  1:
 E= -500.595601980179     Delta-E=       -0.143545175566 Rises=F Damp=F
 DIIS: error= 6.78D-03 at cycle   3 NSaved=   3.
 NSaved= 3 IEnMin= 3 EnMin= -500.595601980179     IErMin= 2 ErrMin= 6.76D-03
 ErrMax= 6.78D-03 EMaxC= 1.00D-01 BMatC= 8.75D-03 BMatP= 1.46D-02
 IDIUse=3 WtCom= 9.32D-01 WtEn= 6.78D-02
 Coeff-Com: -0.116D-01 0.422D+00 0.590D+00
 Coeff-En:   0.000D+00 0.000D+00 0.100D+01
 Coeff:     -0.108D-01 0.393D+00 0.618D+00
 Gap=     0.216 Goal=   None    Shift=    0.000
 RMSDP=8.24D-04 MaxDP=2.46D-02 DE=-1.44D-01 OVMax= 6.23D-02

 Cycle   4  Pass 0  IDiag  1:
 E= -500.600401186667     Delta-E=       -0.004799206488 Rises=F Damp=F
 DIIS: error= 4.95D-03 at cycle   4 NSaved=   4.
 NSaved= 4 IEnMin= 4 EnMin= -500.600401186667     IErMin= 4 ErrMin= 4.95D-03
 ErrMax= 4.95D-03 EMaxC= 1.00D-01 BMatC= 3.44D-03 BMatP= 8.75D-03
 IDIUse=3 WtCom= 9.50D-01 WtEn= 4.95D-02
 Coeff-Com: -0.117D-01 0.983D-01 0.393D+00 0.520D+00
 Coeff-En:   0.000D+00 0.000D+00 0.331D+00 0.669D+00
 Coeff:     -0.112D-01 0.934D-01 0.390D+00 0.528D+00
 Gap=     0.213 Goal=   None    Shift=    0.000
 RMSDP=3.94D-04 MaxDP=1.04D-02 DE=-4.80D-03 OVMax= 2.89D-02

 Cycle   5  Pass 0  IDiag  1:
 E= -500.603853612896     Delta-E=       -0.003452426229 Rises=F Damp=F
 DIIS: error= 1.10D-03 at cycle   5 NSaved=   5.
 NSaved= 5 IEnMin= 5 EnMin= -500.603853612896     IErMin= 5 ErrMin= 1.10D-03
 ErrMax= 1.10D-03 EMaxC= 1.00D-01 BMatC= 2.32D-04 BMatP= 3.44D-03
 IDIUse=3 WtCom= 9.89D-01 WtEn= 1.10D-02
 Coeff-Com: -0.494D-02 0.268D-01 0.186D+00 0.306D+00 0.486D+00
 Coeff-En:   0.000D+00 0.000D+00 0.000D+00 0.000D+00 0.100D+01
 Coeff:     -0.488D-02 0.265D-01 0.184D+00 0.303D+00 0.492D+00
 Gap=     0.213 Goal=   None    Shift=    0.000
 RMSDP=1.00D-04 MaxDP=2.23D-03 DE=-3.45D-03 OVMax= 6.39D-03

 Cycle   6  Pass 0  IDiag  1:
 E= -500.604065028711     Delta-E=       -0.000211415815 Rises=F Damp=F
 DIIS: error= 3.22D-04 at cycle   6 NSaved=   6.
 NSaved= 6 IEnMin= 6 EnMin= -500.604065028711     IErMin= 6 ErrMin= 3.22D-04
 ErrMax= 3.22D-04 EMaxC= 1.00D-01 BMatC= 1.62D-05 BMatP= 2.32D-04
 IDIUse=3 WtCom= 9.97D-01 WtEn= 3.22D-03
 Coeff-Com: -0.952D-03 0.135D-02 0.443D-01 0.882D-01 0.259D+00 0.609D+00
 Coeff-En:   0.000D+00 0.000D+00 0.000D+00 0.000D+00 0.998D-02 0.990D+00
 Coeff:     -0.949D-03 0.135D-02 0.442D-01 0.879D-01 0.258D+00 0.610D+00
 Gap=     0.213 Goal=   None    Shift=    0.000
 RMSDP=2.39D-05 MaxDP=6.24D-04 DE=-2.11D-04 OVMax= 1.01D-03

 Cycle   7  Pass 0  IDiag  1:
 E= -500.604079204130     Delta-E=       -0.000014175419 Rises=F Damp=F
 DIIS: error= 3.26D-05 at cycle   7 NSaved=   7.
 NSaved= 7 IEnMin= 7 EnMin= -500.604079204130     IErMin= 7 ErrMin= 3.26D-05
 ErrMax= 3.26D-05 EMaxC= 1.00D-01 BMatC= 3.47D-07 BMatP= 1.62D-05
 IDIUse=1 WtCom= 1.00D+00 WtEn= 0.00D+00
 Coeff-Com: -0.239D-03-0.178D-03 0.147D-01 0.308D-01 0.101D+00 0.268D+00
 Coeff-Com:  0.585D+00
 Coeff:     -0.239D-03-0.178D-03 0.147D-01 0.308D-01 0.101D+00 0.268D+00
 Coeff:      0.585D+00
 Gap=     0.213 Goal=   None    Shift=    0.000
 RMSDP=4.52D-06 MaxDP=1.23D-04 DE=-1.42D-05 OVMax= 2.88D-04

 Initial convergence to 1.0D-05 achieved.  Increase integral accuracy.
 Cycle   8  Pass 1  IDiag  1:
 E= -500.604057570548     Delta-E=        0.000021633582 Rises=F Damp=F
 DIIS: error= 2.80D-05 at cycle   1 NSaved=   1.
 NSaved= 1 IEnMin= 1 EnMin= -500.604057570548     IErMin= 1 ErrMin= 2.80D-05
 ErrMax= 2.80D-05 EMaxC= 1.00D-01 BMatC= 1.27D-07 BMatP= 1.27D-07
 IDIUse=1 WtCom= 1.00D+00 WtEn= 0.00D+00
 Coeff-Com:  0.100D+01
 Coeff:      0.100D+01
 Gap=     0.213 Goal=   None    Shift=    0.000
 RMSDP=4.52D-06 MaxDP=1.23D-04 DE= 2.16D-05 OVMax= 3.25D-04

 Cycle   9  Pass 1  IDiag  1:
 E= -500.604057503570     Delta-E=        0.000000066979 Rises=F Damp=F
 DIIS: error= 3.23D-05 at cycle   2 NSaved=   2.
 NSaved= 2 IEnMin= 1 EnMin= -500.604057570548     IErMin= 1 ErrMin= 2.80D-05
 ErrMax= 3.23D-05 EMaxC= 1.00D-01 BMatC= 2.00D-07 BMatP= 1.27D-07
 IDIUse=1 WtCom= 1.00D+00 WtEn= 0.00D+00
 Coeff-Com:  0.567D+00 0.433D+00
 Coeff:      0.567D+00 0.433D+00
 Gap=     0.213 Goal=   None    Shift=    0.000
 RMSDP=3.26D-06 MaxDP=9.09D-05 DE= 6.70D-08 OVMax= 2.61D-04

 Cycle  10  Pass 1  IDiag  1:
 E= -500.604057716224     Delta-E=       -0.000000212655 Rises=F Damp=F
 DIIS: error= 1.07D-05 at cycle   3 NSaved=   3.
 NSaved= 3 IEnMin= 3 EnMin= -500.604057716224     IErMin= 3 ErrMin= 1.07D-05
 ErrMax= 1.07D-05 EMaxC= 1.00D-01 BMatC= 1.39D-08 BMatP= 1.27D-07
 IDIUse=1 WtCom= 1.00D+00 WtEn= 0.00D+00
 Coeff-Com:  0.516D-01 0.209D+00 0.739D+00
 Coeff:      0.516D-01 0.209D+00 0.739D+00
 Gap=     0.213 Goal=   None    Shift=    0.000
 RMSDP=9.09D-07 MaxDP=2.63D-05 DE=-2.13D-07 OVMax= 7.19D-05

 Cycle  11  Pass 1  IDiag  1:
 E= -500.604057729501     Delta-E=       -0.000000013276 Rises=F Damp=F
 DIIS: error= 3.48D-06 at cycle   4 NSaved=   4.
 NSaved= 4 IEnMin= 4 EnMin= -500.604057729501     IErMin= 4 ErrMin= 3.48D-06
 ErrMax= 3.48D-06 EMaxC= 1.00D-01 BMatC= 3.00D-09 BMatP= 1.39D-08
 IDIUse=1 WtCom= 1.00D+00 WtEn= 0.00D+00
 Coeff-Com: -0.148D-01 0.932D-01 0.449D+00 0.473D+00
 Coeff:     -0.148D-01 0.932D-01 0.449D+00 0.473D+00
 Gap=     0.213 Goal=   None    Shift=    0.000
 RMSDP=2.78D-07 MaxDP=9.06D-06 DE=-1.33D-08 OVMax= 1.74D-05

 Cycle  12  Pass 1  IDiag  1:
 E= -500.604057732300     Delta-E=       -0.000000002799 Rises=F Damp=F
 DIIS: error= 3.58D-07 at cycle   5 NSaved=   5.
 NSaved= 5 IEnMin= 5 EnMin= -500.604057732300     IErMin= 5 ErrMin= 3.58D-07
 ErrMax= 3.58D-07 EMaxC= 1.00D-01 BMatC= 4.25D-11 BMatP= 3.00D-09
 IDIUse=1 WtCom= 1.00D+00 WtEn= 0.00D+00
 Coeff-Com: -0.807D-02 0.363D-01 0.180D+00 0.212D+00 0.579D+00
 Coeff:     -0.807D-02 0.363D-01 0.180D+00 0.212D+00 0.579D+00
 Gap=     0.213 Goal=   None    Shift=    0.000
 RMSDP=4.94D-08 MaxDP=1.36D-06 DE=-2.80D-09 OVMax= 3.23D-06

 Cycle  13  Pass 1  IDiag  1:
 E= -500.604057732332     Delta-E=       -0.000000000032 Rises=F Damp=F
 DIIS: error= 2.16D-07 at cycle   6 NSaved=   6.
 NSaved= 6 IEnMin= 6 EnMin= -500.604057732332     IErMin= 6 ErrMin= 2.16D-07
 ErrMax= 2.16D-07 EMaxC= 1.00D-01 BMatC= 8.78D-12 BMatP= 4.25D-11
 IDIUse=1 WtCom= 1.00D+00 WtEn= 0.00D+00
 Coeff-Com: -0.328D-02 0.133D-01 0.662D-01 0.813D-01 0.348D+00 0.495D+00
 Coeff:     -0.328D-02 0.133D-01 0.662D-01 0.813D-01 0.348D+00 0.495D+00
 Gap=     0.213 Goal=   None    Shift=    0.000
 RMSDP=2.13D-08 MaxDP=5.81D-07 DE=-3.16D-11 OVMax= 1.75D-06

 Cycle  14  Pass 1  IDiag  1:
 E= -500.604057732326     Delta-E=        0.000000000005 Rises=F Damp=F
 DIIS: error= 5.78D-08 at cycle   7 NSaved=   7.
 NSaved= 7 IEnMin= 6 EnMin= -500.604057732332     IErMin= 7 ErrMin= 5.78D-08
 ErrMax= 5.78D-08 EMaxC= 1.00D-01 BMatC= 6.39D-13 BMatP= 8.78D-12
 IDIUse=1 WtCom= 1.00D+00 WtEn= 0.00D+00
 Coeff-Com: -0.747D-03 0.230D-02 0.113D-01 0.141D-01 0.107D+00 0.257D+00
 Coeff-Com:  0.610D+00
 Coeff:     -0.747D-03 0.230D-02 0.113D-01 0.141D-01 0.107D+00 0.257D+00
 Coeff:      0.610D+00
 Gap=     0.213 Goal=   None    Shift=    0.000
 RMSDP=5.54D-09 MaxDP=1.80D-07 DE= 5.46D-12 OVMax= 3.95D-07

 SCF Done:  E(RB3LYP) =  -500.604057732     A.U. after   14 cycles
             Convg  =    0.5540D-08             -V/T =  2.0093
 KE= 4.959978261179D+02 PE=-2.328179136973D+03 EE= 7.501498271777D+02
 Leave Link  502 at Tue Sep 28 14:14:58 2021, MaxMem=  805306368 cpu:      80.4
 (Enter /sw/target/amd/app/gaussian/Gaussian09RevA.02_gcc-4.9.2/g09/l508.exe)
 QCSCF skips out because SCF is already converged.
 Leave Link  508 at Tue Sep 28 14:14:58 2021, MaxMem=  805306368 cpu:       0.0
 (Enter /sw/target/amd/app/gaussian/Gaussian09RevA.02_gcc-4.9.2/g09/l601.exe)
 Copying SCF densities to generalized density rwf, IOpCl= 0 IROHF=0.

 **********************************************************************

            Population analysis using the SCF density.

 **********************************************************************

 Orbital symmetries:
       Occupied  (A) (A) (A) (A) (A) (A) (A) (A) (A) (A) (A) (A)
                 (A) (A) (A) (A) (A) (A) (A) (A) (A) (A) (A) (A)
                 (A) (A) (A) (A) (A) (A) (A) (A) (A) (A) (A) (A)
                 (A) (A) (A) (A) (A)
       Virtual   (A) (A) (A) (A) (A) (A) (A) (A) (A) (A) (A) (A)
                 (A) (A) (A) (A) (A) (A) (A) (A) (A) (A) (A) (A)
                 (A) (A) (A) (A) (A) (A) (A) (A) (A) (A) (A) (A)
                 (A) (A) (A) (A) (A) (A) (A) (A) (A) (A) (A) (A)
                 (A) (A) (A) (A) (A) (A) (A) (A) (A) (A) (A) (A)
                 (A) (A) (A) (A) (A) (A) (A) (A) (A) (A) (A) (A)
                 (A) (A) (A) (A) (A) (A) (A) (A) (A) (A) (A) (A)
                 (A) (A) (A) (A) (A) (A) (A) (A) (A) (A) (A) (A)
                 (A) (A) (A) (A) (A) (A) (A) (A) (A) (A) (A) (A)
                 (A) (A) (A) (A) (A) (A) (A) (A) (A) (A) (A) (A)
                 (A) (A) (A) (A) (A) (A) (A) (A) (A) (A) (A) (A)
                 (A) (A) (A) (A) (A) (A) (A) (A) (A) (A) (A) (A)
                 (A) (A) (A) (A)
 The electronic state is 1-A.
 Alpha  occ. eigenvalues --  -19.17521 -19.13463 -10.24230 -10.23918 -10.22565
 Alpha  occ. eigenvalues --  -10.18704 -10.18558 -10.18525 -10.18499 -10.18029
 Alpha  occ. eigenvalues --  -10.18005  -1.05991  -1.00780  -0.84983  -0.77933
 Alpha  occ. eigenvalues --   -0.74451  -0.72514  -0.68365  -0.61583  -0.60666
 Alpha  occ. eigenvalues --   -0.57041  -0.52920  -0.50589  -0.48625  -0.46846
 Alpha  occ. eigenvalues --   -0.45422  -0.45190  -0.43653  -0.41831  -0.41160
 Alpha  occ. eigenvalues --   -0.40896  -0.37072  -0.36672  -0.34527  -0.34203
 Alpha  occ. eigenvalues --   -0.32862  -0.32380  -0.30770  -0.25964  -0.24572
 Alpha  occ. eigenvalues --   -0.21223
 Alpha virt. eigenvalues --    0.00101   0.01649   0.07662   0.09150   0.10569
 Alpha virt. eigenvalues --    0.12779   0.13237   0.14421   0.15354   0.15478
 Alpha virt. eigenvalues --    0.16825   0.16915   0.17621   0.18906   0.19659
 Alpha virt. eigenvalues --    0.20939   0.21294   0.24900   0.26692   0.27852
 Alpha virt. eigenvalues --    0.33288   0.33967   0.34718   0.36894   0.48073
 Alpha virt. eigenvalues --    0.51202   0.51714   0.52043   0.53072   0.53876
 Alpha virt. eigenvalues --    0.54553   0.55962   0.56772   0.59635   0.60178
 Alpha virt. eigenvalues --    0.60415   0.60939   0.62010   0.64589   0.65521
 Alpha virt. eigenvalues --    0.67569   0.69256   0.69657   0.72802   0.75029
 Alpha virt. eigenvalues --    0.76229   0.78322   0.82645   0.83161   0.83971
 Alpha virt. eigenvalues --    0.84159   0.84515   0.86139   0.86513   0.87206
 Alpha virt. eigenvalues --    0.89795   0.91204   0.93104   0.93605   0.94829
 Alpha virt. eigenvalues --    0.95513   0.97008   0.99281   1.00807   1.01769
 Alpha virt. eigenvalues --    1.03105   1.05407   1.08012   1.14458   1.16437
 Alpha virt. eigenvalues --    1.18606   1.19539   1.23077   1.25697   1.28563
 Alpha virt. eigenvalues --    1.29438   1.36990   1.38317   1.42072   1.43527
 Alpha virt. eigenvalues --    1.45395   1.46000   1.46725   1.49453   1.51398
 Alpha virt. eigenvalues --    1.52731   1.59857   1.64436   1.68644   1.73041
 Alpha virt. eigenvalues --    1.75517   1.81439   1.82075   1.83891   1.85040
 Alpha virt. eigenvalues --    1.88074   1.92568   1.94110   1.95716   1.96742
 Alpha virt. eigenvalues --    1.98252   1.98582   2.02129   2.06191   2.08510
 Alpha virt. eigenvalues --    2.09718   2.10610   2.13048   2.15263   2.15680
 Alpha virt. eigenvalues --    2.19851   2.24263   2.24971   2.29269   2.30926
 Alpha virt. eigenvalues --    2.32982   2.35057   2.35963   2.38408   2.43587
 Alpha virt. eigenvalues --    2.46371   2.51218   2.53762   2.56572   2.61256
 Alpha virt. eigenvalues --    2.64501   2.65759   2.68170   2.71578   2.76817
 Alpha virt. eigenvalues --    2.81969   2.88185   2.92193   2.94282   2.99649
 Alpha virt. eigenvalues --    3.18449   3.43308   3.77927   4.05631   4.11662
 Alpha virt. eigenvalues --    4.12472   4.19618   4.24539   4.31480   4.35965
 Alpha virt. eigenvalues --    4.46834   4.51879   4.77256
          Condensed to atoms (all electrons):
              1          2          3          4          5          6
     1  O    8.281063   0.230067  -0.043298   0.002349   0.000014   0.000000
     2  C    0.230067   4.830829   0.362447  -0.038849  -0.003447  -0.000094
     3  C   -0.043298   0.362447   5.201982   0.321832  -0.056866   0.006992
     4  C    0.002349  -0.038849   0.321832   4.681741   0.551808  -0.022757
     5  C    0.000014  -0.003447  -0.056866   0.551808   4.969676   0.475589
     6  C    0.000000  -0.000094   0.006992  -0.022757   0.475589   5.119832
     7  C   -0.000000   0.000034   0.000355  -0.033619  -0.003388   0.470027
     8  C    0.000000  -0.000095   0.006482  -0.024420  -0.042998  -0.063992
     9  C    0.000006  -0.003117  -0.057804   0.541312  -0.035146  -0.045486
    10  O    0.000000   0.000000   0.000000   0.000153   0.003668  -0.062706
    11  C    0.000000  -0.000000  -0.000000  -0.000003   0.000326  -0.006591
    12  H    0.230333  -0.020644   0.006419  -0.000331  -0.000001  -0.000000
    13  H   -0.041217   0.363761  -0.043804   0.002714   0.003750  -0.000155
    14  H   -0.041416   0.363893  -0.043877   0.002731   0.000010  -0.000009
    15  H    0.003361  -0.035144   0.356169  -0.027961   0.003856  -0.000209
    16  H    0.003446  -0.035093   0.355879  -0.028020  -0.005469   0.000170
    17  H   -0.000026   0.000384  -0.008743  -0.041898   0.353874  -0.041772
    18  H   -0.000000  -0.000001  -0.000179   0.003675  -0.037294   0.350828
    19  H   -0.000000  -0.000001  -0.000159   0.004258   0.000285   0.007431
    20  H   -0.000023   0.000382  -0.008894  -0.044837   0.006158   0.000194
    21  H   -0.000000   0.000000  -0.000000  -0.000000   0.000001   0.000172
    22  H    0.000000  -0.000000  -0.000000  -0.000008  -0.000141   0.005152
    23  H   -0.000000   0.000000   0.000000  -0.000001  -0.000152   0.005004
              7          8          9         10         11         12
     1  O   -0.000000   0.000000   0.000006   0.000000   0.000000   0.230333
     2  C    0.000034  -0.000095  -0.003117   0.000000  -0.000000  -0.020644
     3  C    0.000355   0.006482  -0.057804   0.000000  -0.000000   0.006419
     4  C   -0.033619  -0.024420   0.541312   0.000153  -0.000003  -0.000331
     5  C   -0.003388  -0.042998  -0.035146   0.003668   0.000326  -0.000001
     6  C    0.470027  -0.063992  -0.045486  -0.062706  -0.006591  -0.000000
     7  C    4.506461   0.545163  -0.018546   0.280044  -0.043566  -0.000000
     8  C    0.545163   4.993806   0.511558  -0.055663   0.004345  -0.000000
     9  C   -0.018546   0.511558   4.957134   0.003178  -0.000133  -0.000000
    10  O    0.280044  -0.055663   0.003178   8.201714   0.249551  -0.000000
    11  C   -0.043566   0.004345  -0.000133   0.249551   4.894629   0.000000
    12  H   -0.000000  -0.000000  -0.000000  -0.000000   0.000000   0.405060
    13  H   -0.000003  -0.000009  -0.000010   0.000000   0.000000  -0.004613
    14  H   -0.000002  -0.000143   0.003593   0.000000   0.000000  -0.004236
    15  H    0.000011   0.000169  -0.005286  -0.000000   0.000000  -0.000127
    16  H    0.000012  -0.000206   0.003898  -0.000000   0.000000  -0.000117
    17  H    0.003152   0.000487   0.005869  -0.000046  -0.000008   0.000001
    18  H   -0.046546   0.004487   0.000810  -0.007313   0.005794   0.000000
    19  H   -0.036734   0.343132  -0.040361  -0.000327  -0.000177   0.000000
    20  H    0.004312  -0.042786   0.355787  -0.000059   0.000003   0.000001
    21  H    0.003200  -0.000110   0.000003  -0.031204   0.383901   0.000000
    22  H   -0.004977   0.000066   0.000002  -0.035850   0.363668  -0.000000
    23  H   -0.004493   0.000066  -0.000002  -0.036442   0.364204   0.000000
             13         14         15         16         17         18
     1  O   -0.041217  -0.041416   0.003361   0.003446  -0.000026  -0.000000
     2  C    0.363761   0.363893  -0.035144  -0.035093   0.000384  -0.000001
     3  C   -0.043804  -0.043877   0.356169   0.355879  -0.008743  -0.000179
     4  C    0.002714   0.002731  -0.027961  -0.028020  -0.041898   0.003675
     5  C    0.003750   0.000010   0.003856  -0.005469   0.353874  -0.037294
     6  C   -0.000155  -0.000009  -0.000209   0.000170  -0.041772   0.350828
     7  C   -0.000003  -0.000002   0.000011   0.000012   0.003152  -0.046546
     8  C   -0.000009  -0.000143   0.000169  -0.000206   0.000487   0.004487
     9  C   -0.000010   0.003593  -0.005286   0.003898   0.005869   0.000810
    10  O    0.000000   0.000000  -0.000000  -0.000000  -0.000046  -0.007313
    11  C    0.000000   0.000000   0.000000   0.000000  -0.000008   0.005794
    12  H   -0.004613  -0.004236  -0.000127  -0.000117   0.000001   0.000000
    13  H    0.654558  -0.056278   0.006542  -0.007524   0.000809   0.000002
    14  H   -0.056278   0.653287  -0.007551   0.006549   0.000023   0.000000
    15  H    0.006542  -0.007551   0.587101  -0.038842   0.000046   0.000003
    16  H   -0.007524   0.006549  -0.038842   0.587947   0.004875  -0.000008
    17  H    0.000809   0.000023   0.000046   0.004875   0.601728  -0.005672
    18  H    0.000002   0.000000   0.000003  -0.000008  -0.005672   0.598938
    19  H    0.000000   0.000001  -0.000007   0.000003   0.000016  -0.000168
    20  H    0.000023   0.000766   0.004830   0.000047  -0.000183   0.000017
    21  H    0.000000  -0.000000   0.000000  -0.000000  -0.000000  -0.000115
    22  H    0.000000   0.000000   0.000000   0.000000   0.000003   0.001840
    23  H   -0.000000  -0.000000  -0.000000  -0.000000   0.000001   0.001681
             19         20         21         22         23
     1  O   -0.000000  -0.000023  -0.000000   0.000000  -0.000000
     2  C   -0.000001   0.000382   0.000000  -0.000000   0.000000
     3  C   -0.000159  -0.008894  -0.000000  -0.000000   0.000000
     4  C    0.004258  -0.044837  -0.000000  -0.000008  -0.000001
     5  C    0.000285   0.006158   0.000001  -0.000141  -0.000152
     6  C    0.007431   0.000194   0.000172   0.005152   0.005004
     7  C   -0.036734   0.004312   0.003200  -0.004977  -0.004493
     8  C    0.343132  -0.042786  -0.000110   0.000066   0.000066
     9  C   -0.040361   0.355787   0.000003   0.000002  -0.000002
    10  O   -0.000327  -0.000059  -0.031204  -0.035850  -0.036442
    11  C   -0.000177   0.000003   0.383901   0.363668   0.364204
    12  H    0.000000   0.000001   0.000000  -0.000000   0.000000
    13  H    0.000000   0.000023   0.000000   0.000000  -0.000000
    14  H    0.000001   0.000766  -0.000000   0.000000  -0.000000
    15  H   -0.000007   0.004830   0.000000   0.000000  -0.000000
    16  H    0.000003   0.000047  -0.000000   0.000000  -0.000000
    17  H    0.000016  -0.000183  -0.000000   0.000003   0.000001
    18  H   -0.000168   0.000017  -0.000115   0.001840   0.001681
    19  H    0.593635  -0.006295  -0.000027   0.000030   0.000028
    20  H   -0.006295   0.602867  -0.000000  -0.000000  -0.000000
    21  H   -0.000027  -0.000000   0.545107  -0.033961  -0.034293
    22  H    0.000030  -0.000000  -0.033961   0.598481  -0.046705
    23  H    0.000028  -0.000000  -0.034293  -0.046705   0.599484
 Mulliken atomic charges:
              1
     1  O   -0.624661
     2  C   -0.015312
     3  C   -0.354932
     4  C    0.150131
     5  C   -0.184111
     6  C   -0.197618
     7  C    0.379103
     8  C   -0.179338
     9  C   -0.177258
    10  O   -0.508699
    11  C   -0.215943
    12  H    0.388255
    13  H    0.121456
    14  H    0.122659
    15  H    0.153039
    16  H    0.152453
    17  H    0.127079
    18  H    0.129223
    19  H    0.135438
    20  H    0.127691
    21  H    0.167326
    22  H    0.152400
    23  H    0.151618
 Sum of Mulliken atomic charges =  -0.00000
 Mulliken charges with hydrogens summed into heavy atoms:
              1
     1  O   -0.236405
     2  C    0.228803
     3  C   -0.049439
     4  C    0.150131
     5  C   -0.057032
     6  C   -0.068395
     7  C    0.379103
     8  C   -0.043900
     9  C   -0.049567
    10  O   -0.508699
    11  C    0.255402
 Sum of Mulliken charges with hydrogens summed into heavy atoms =  -0.00000
 Electronic spatial extent (au):  <R**2>=           2603.3111
 Charge=             -0.0000 electrons
 Dipole moment (field-independent basis, Debye):
    X=              1.0980    Y=             -1.2765    Z=              1.4170  Tot=              2.2007
 Quadrupole moment (field-independent basis, Debye-Ang):
   XX=            -61.2587   YY=            -61.4039   ZZ=            -65.0671
   XY=             -4.6713   XZ=             -6.5941   YZ=             -0.5301
 Traceless Quadrupole moment (field-independent basis, Debye-Ang):
   XX=              1.3178   YY=              1.1727   ZZ=             -2.4905
   XY=             -4.6713   XZ=             -6.5941   YZ=             -0.5301
 Octapole moment (field-independent basis, Debye-Ang**2):
  XXX=             41.3030  YYY=              2.2265  ZZZ=              8.0635  XYY=             -0.7803
  XXY=            -22.0837  XXZ=             42.0548  XZZ=            -15.9090  YZZ=             -2.2322
  YYZ=              0.6674  XYZ=              2.1257
 Hexadecapole moment (field-independent basis, Debye-Ang**3):
 XXXX=          -2561.0611 YYYY=           -352.3067 ZZZZ=           -154.7766 XXXY=            -43.3982
 XXXZ=           -189.2469 YYYX=              8.1332 YYYZ=              2.5016 ZZZX=            -19.5381
 ZZZY=             -1.8460 XXYY=           -515.8567 XXZZ=           -423.2928 YYZZ=            -91.0995
 XXYZ=            -20.7705 YYXZ=             -0.6369 ZZXY=              5.0459
 N-N= 5.814274259453D+02 E-N=-2.328179139141D+03  KE= 4.959978261179D+02
 No NMR shielding tensors so no spin-rotation constants.
 Leave Link  601 at Tue Sep 28 14:14:58 2021, MaxMem=  805306368 cpu:       0.5
 (Enter /sw/target/amd/app/gaussian/Gaussian09RevA.02_gcc-4.9.2/g09/l701.exe)
 Compute integral first derivatives.
 ... and contract with generalized density number  0.
 Leave Link  701 at Tue Sep 28 14:14:58 2021, MaxMem=  805306368 cpu:       0.5
 (Enter /sw/target/amd/app/gaussian/Gaussian09RevA.02_gcc-4.9.2/g09/l702.exe)
 L702 exits ... SP integral derivatives will be done elsewhere.
 Leave Link  702 at Tue Sep 28 14:14:58 2021, MaxMem=  805306368 cpu:       0.0
 (Enter /sw/target/amd/app/gaussian/Gaussian09RevA.02_gcc-4.9.2/g09/l703.exe)
 Compute integral first derivatives, UseDBF=F ICtDFT=           0.
 Integral derivatives from FoFDir, PRISM(SPDF).
 Calling FoFJK, ICntrl=      2127 FMM=F ISym2X=0 I1Cent= 0 IOpClX= 0 NMat=1 NMatS=1 NMatT=0.
 FoFCou: FMM=F IPFlag=           0 FMFlag=      100000 FMFlg1=         800
         NFxFlg=           0 DoJE=F BraDBF=F KetDBF=F FulRan=T
         Omega=  0.000000  0.000000  1.000000  0.000000  0.000000 ICntrl=    2127 IOpCl=  0
         NMat0=    1 NMatS0=    1 NMatT0=    0 NMatD0=    1 NMtDS0=    0 NMtDT0=    0
         I1Cent=           0 NGrid=           0.
 Symmetry not used in FoFCou.
 Leave Link  703 at Tue Sep 28 14:15:09 2021, MaxMem=  805306368 cpu:      30.0
 (Enter /sw/target/amd/app/gaussian/Gaussian09RevA.02_gcc-4.9.2/g09/l716.exe)
 Dipole        = 4.31977217D-01-5.02202600D-01 5.57502037D-01
 ***** Axes restored to original set *****
 -------------------------------------------------------------------
 Center     Atomic                   Forces (Hartrees/Bohr)
 Number     Number              X              Y              Z
 -------------------------------------------------------------------
      1        8          -0.006752878   -0.000340247    0.000911841
      2        6          -0.010421671    0.000029994   -0.004104878
      3        6          -0.003680192   -0.000311110    0.005167942
      4        6          -0.005141971    0.004058849   -0.000236221
      5        6           0.005142974   -0.007683787   -0.000090201
      6        6          -0.002344684    0.008498446    0.000165733
      7        6           0.001461161   -0.005799455   -0.000562784
      8        6          -0.009523234   -0.009763756   -0.002242013
      9        6           0.011955081    0.003907188    0.001638518
     10        8           0.003433003    0.006636354    0.001350226
     11        6           0.004341673   -0.003415770    0.000065497
     12        1          -0.000107683   -0.000512032    0.004022462
     13        1           0.007990012    0.002314564    0.000839193
     14        1           0.008059632   -0.001772279    0.000441664
     15        1          -0.000334828   -0.001368588   -0.004021012
     16        1          -0.000632429    0.001996780   -0.003806640
     17        1          -0.000129326   -0.001041540    0.000178348
     18        1           0.002236767   -0.000604337    0.000162907
     19        1           0.001813193    0.002360251    0.000476945
     20        1          -0.000729179    0.000849267    0.000233781
     21        1          -0.001955066   -0.004319713   -0.000693913
     22        1          -0.002284431    0.003094171   -0.000508739
     23        1          -0.002395924    0.003186751    0.000611346
 -------------------------------------------------------------------
 Cartesian Forces:  Max     0.011955081 RMS     0.004096030
 Leave Link  716 at Tue Sep 28 14:15:09 2021, MaxMem=  805306368 cpu:       0.0
 (Enter /sw/target/amd/app/gaussian/Gaussian09RevA.02_gcc-4.9.2/g09/l103.exe)

 GradGradGradGradGradGradGradGradGradGradGradGradGradGradGradGradGradGrad
 Berny optimization.
 Internal  Forces:  Max     0.007220127 RMS     0.002672871
 Search for a local minimum.
 Step number   1 out of a maximum of  118
 All quantities printed in internal units (Hartrees-Bohrs-Radians)
 RMS Force = .26729D-02 SwitMx=.10000D-02 MixMth= 1
 Mixed Optimization -- RFO/linear search
 Second derivative matrix not updated -- first step.
     Eigenvalues ---    0.00428   0.00669   0.01374   0.01402   0.01517
     Eigenvalues ---    0.02089   0.02095   0.02115   0.02116   0.02117
     Eigenvalues ---    0.02124   0.02132   0.02136   0.02146   0.04059
     Eigenvalues ---    0.05197   0.05413   0.05684   0.09435   0.09985
     Eigenvalues ---    0.10540   0.11452   0.12891   0.13738   0.16000
     Eigenvalues ---    0.16000   0.16000   0.16000   0.16000   0.16000
     Eigenvalues ---    0.16000   0.16000   0.21858   0.22000   0.22006
     Eigenvalues ---    0.22972   0.23999   0.24996   0.25000   0.25000
     Eigenvalues ---    0.29841   0.31621   0.33927   0.33929   0.34218
     Eigenvalues ---    0.34219   0.34221   0.34244   0.34318   0.35017
     Eigenvalues ---    0.35077   0.35110   0.35479   0.41599   0.41856
     Eigenvalues ---    0.42170   0.42199   0.45676   0.45902   0.46046
     Eigenvalues ---    0.46321   0.51396   0.528251000.000001000.00000
     Eigenvalues --- 1000.000001000.000001000.000001000.000001000.00000
     Eigenvalues --- 1000.000001000.000001000.000001000.000001000.00000
     Eigenvalues --- 1000.000001000.000001000.000001000.000001000.00000
     Eigenvalues --- 1000.000001000.000001000.000001000.000001000.00000
     Eigenvalues --- 1000.000001000.000001000.000001000.000001000.00000
     Eigenvalues --- 1000.000001000.000001000.000001000.000001000.00000
     Eigenvalues --- 1000.000001000.000001000.000001000.000001000.00000
     Eigenvalues --- 1000.000001000.000001000.000001000.000001000.00000
     Eigenvalues --- 1000.000001000.000001000.00000
 RFO step:  Lambda=-4.33272647D-03 EMin= 4.28313906D-03
 Linear search not attempted -- first point.
 Iteration  1 RMS(Cart)=  0.02462772 RMS(Int)=  0.00061758
 Iteration  2 RMS(Cart)=  0.00053410 RMS(Int)=  0.00038973
 Iteration  3 RMS(Cart)=  0.00000040 RMS(Int)=  0.00038973
 Variable       Old X    -DE/DX   Delta X   Delta X   Delta X     New X
                                 (Linear)    (Quad)   (Total)
    R1        2.69107   0.00656   0.00000   0.01552   0.01552   2.70658
    R2        1.83818  -0.00392   0.00000  -0.00736  -0.00736   1.83082
    R3        2.88282  -0.00172   0.00000  -0.00568  -0.00568   2.87714
    R4        2.06962   0.00415   0.00000   0.01197   0.01197   2.08159
    R5        2.06964   0.00413   0.00000   0.01192   0.01192   2.08157
    R6        2.84842   0.00590   0.00000   0.01841   0.01841   2.86684
    R7        2.07450  -0.00029   0.00000  -0.00084  -0.00084   2.07366
    R8        2.07453  -0.00030   0.00000  -0.00086  -0.00086   2.07366
    R9        2.64599  -0.00173   0.00000  -0.00421  -0.00419   2.64180
   R10        2.64349   0.00364   0.00000   0.00738   0.00739   2.65088
   R11        2.64519  -0.00067   0.00000  -0.00142  -0.00141   2.64378
   R12        2.05647  -0.00081   0.00000  -0.00230  -0.00230   2.05417
   R13        2.63601   0.00243   0.00000   0.00567   0.00565   2.64166
   R14        2.04904   0.00042   0.00000   0.00118   0.00118   2.05022
   R15        2.63870   0.00405   0.00000   0.00912   0.00910   2.64780
   R16        2.58482   0.00089   0.00000   0.00171   0.00171   2.58653
   R17        2.64017  -0.00465   0.00000  -0.01003  -0.01004   2.63013
   R18        2.05497  -0.00103   0.00000  -0.00290  -0.00290   2.05206
   R19        2.05549  -0.00046   0.00000  -0.00131  -0.00131   2.05419
   R20        2.68707  -0.00245   0.00000  -0.00576  -0.00576   2.68131
   R21        2.06797  -0.00101   0.00000  -0.00292  -0.00292   2.06505
   R22        2.06920   0.00168   0.00000   0.00485   0.00485   2.07404
   R23        2.06959   0.00164   0.00000   0.00474   0.00474   2.07433
    A1        1.86683   0.00195   0.00000   0.01186   0.01186   1.87869
    A2        1.90734  -0.00722   0.00000  -0.02461  -0.02417   1.88318
    A3        1.89067   0.00704   0.00000   0.05987   0.05929   1.94997
    A4        1.89212   0.00690   0.00000   0.05763   0.05702   1.94914
    A5        1.93871  -0.00290   0.00000  -0.03497  -0.03527   1.90344
    A6        1.93967  -0.00289   0.00000  -0.03567  -0.03597   1.90369
    A7        1.89410  -0.00036   0.00000  -0.01729  -0.02031   1.87378
    A8        1.96283   0.00140   0.00000   0.00104   0.00109   1.96392
    A9        1.91648  -0.00297   0.00000  -0.02763  -0.02767   1.88881
   A10        1.91548  -0.00302   0.00000  -0.02679  -0.02681   1.88867
   A11        1.91956   0.00100   0.00000   0.01122   0.01106   1.93062
   A12        1.91838   0.00122   0.00000   0.01436   0.01422   1.93260
   A13        1.82624   0.00240   0.00000   0.02951   0.02897   1.85521
   A14        2.10414   0.00242   0.00000   0.01053   0.01050   2.11464
   A15        2.10461   0.00259   0.00000   0.01119   0.01116   2.11577
   A16        2.07431  -0.00501   0.00000  -0.02188  -0.02185   2.05247
   A17        2.10752   0.00459   0.00000   0.01915   0.01918   2.12671
   A18        2.09793  -0.00294   0.00000  -0.01349  -0.01350   2.08443
   A19        2.07771  -0.00165   0.00000  -0.00566  -0.00567   2.07204
   A20        2.09767  -0.00230   0.00000  -0.00956  -0.00957   2.08810
   A21        2.05968   0.00349   0.00000   0.01901   0.01901   2.07869
   A22        2.12583  -0.00119   0.00000  -0.00945  -0.00945   2.11638
   A23        2.07948   0.00025   0.00000   0.00238   0.00233   2.08181
   A24        2.20072  -0.00514   0.00000  -0.02092  -0.02090   2.17982
   A25        2.00298   0.00489   0.00000   0.01854   0.01856   2.02155
   A26        2.10824  -0.00211   0.00000  -0.00893  -0.00896   2.09928
   A27        2.08725  -0.00186   0.00000  -0.01325  -0.01324   2.07402
   A28        2.08769   0.00396   0.00000   0.02217   0.02219   2.10987
   A29        2.09913   0.00457   0.00000   0.01887   0.01888   2.11801
   A30        2.10405  -0.00333   0.00000  -0.01579  -0.01580   2.08825
   A31        2.07998  -0.00124   0.00000  -0.00306  -0.00307   2.07692
   A32        2.03995   0.00366   0.00000   0.01437   0.01437   2.05432
   A33        1.88155  -0.00633   0.00000  -0.03592  -0.03584   1.84571
   A34        1.94136   0.00144   0.00000   0.00733   0.00738   1.94873
   A35        1.93855   0.00181   0.00000   0.00970   0.00976   1.94830
   A36        1.87858   0.00339   0.00000   0.02316   0.02323   1.90180
   A37        1.87985   0.00330   0.00000   0.02280   0.02289   1.90274
   A38        1.94086  -0.00358   0.00000  -0.02640  -0.02637   1.91449
    D1        3.12755   0.00008   0.00000   0.00367   0.00368   3.13122
    D2        1.01306   0.00364   0.00000   0.02450   0.02600   1.03906
    D3       -1.03910  -0.00357   0.00000  -0.01937  -0.02088  -1.05998
    D4       -3.13544  -0.00017   0.00000  -0.00533  -0.00531  -3.14075
    D5        1.00421  -0.00028   0.00000  -0.00049  -0.00043   1.00378
    D6       -0.99414   0.00019   0.00000  -0.00550  -0.00554  -0.99968
    D7       -1.05039   0.00213   0.00000   0.03135   0.03093  -1.01946
    D8        3.08926   0.00202   0.00000   0.03620   0.03581   3.12508
    D9        1.09091   0.00249   0.00000   0.03119   0.03069   1.12161
   D10        1.06030  -0.00227   0.00000  -0.03874  -0.03831   1.02200
   D11       -1.08323  -0.00238   0.00000  -0.03390  -0.03342  -1.11666
   D12       -3.08158  -0.00192   0.00000  -0.03891  -0.03854  -3.12012
   D13        1.55860  -0.00005   0.00000  -0.00084  -0.00090   1.55770
   D14       -1.56613   0.00018   0.00000   0.00970   0.00976  -1.55637
   D15       -2.58278  -0.00217   0.00000  -0.02755  -0.02777  -2.61055
   D16        0.57568  -0.00194   0.00000  -0.01700  -0.01711   0.55857
   D17       -0.58107   0.00198   0.00000   0.02250   0.02260  -0.55847
   D18        2.57739   0.00222   0.00000   0.03305   0.03327   2.61065
   D19       -3.13184   0.00036   0.00000   0.01604   0.01600  -3.11584
   D20        0.01657   0.00031   0.00000   0.01429   0.01424   0.03081
   D21       -0.00682   0.00020   0.00000   0.00599   0.00601  -0.00081
   D22        3.14159   0.00015   0.00000   0.00424   0.00425  -3.13735
   D23        3.13139  -0.00035   0.00000  -0.01558  -0.01553   3.11586
   D24       -0.01711  -0.00029   0.00000  -0.01347  -0.01342  -0.03054
   D25        0.00638  -0.00018   0.00000  -0.00551  -0.00553   0.00085
   D26        3.14106  -0.00012   0.00000  -0.00340  -0.00342   3.13764
   D27        0.00347  -0.00009   0.00000  -0.00332  -0.00337   0.00009
   D28       -3.13436  -0.00005   0.00000  -0.00178  -0.00182  -3.13618
   D29        3.13832  -0.00005   0.00000  -0.00162  -0.00165   3.13666
   D30        0.00049  -0.00000   0.00000  -0.00008  -0.00010   0.00039
   D31        0.00041   0.00000   0.00000   0.00023   0.00020   0.00061
   D32       -3.13968   0.00006   0.00000   0.00249   0.00246  -3.13721
   D33        3.13809  -0.00003   0.00000  -0.00130  -0.00133   3.13676
   D34       -0.00199   0.00002   0.00000   0.00096   0.00093  -0.00106
   D35       -0.00082   0.00001   0.00000   0.00023   0.00026  -0.00057
   D36       -3.13926   0.00006   0.00000   0.00232   0.00234  -3.13692
   D37        3.13943  -0.00005   0.00000  -0.00181  -0.00184   3.13759
   D38        0.00099   0.00000   0.00000   0.00027   0.00025   0.00123
   D39       -0.00253   0.00011   0.00000   0.00423   0.00422   0.00170
   D40        3.14052   0.00017   0.00000   0.00642   0.00643  -3.13624
   D41       -0.00262   0.00007   0.00000   0.00241   0.00245  -0.00017
   D42       -3.13740   0.00002   0.00000   0.00038   0.00041  -3.13699
   D43        3.13581   0.00001   0.00000   0.00025   0.00026   3.13607
   D44        0.00104  -0.00004   0.00000  -0.00178  -0.00179  -0.00075
   D45        3.12628   0.00012   0.00000   0.00831   0.00832   3.13460
   D46        1.07058  -0.00096   0.00000  -0.00211  -0.00207   1.06850
   D47       -1.10125   0.00131   0.00000   0.01970   0.01965  -1.08160
         Item               Value     Threshold  Converged?
 Maximum Force            0.007220     0.000450     NO 
 RMS     Force            0.002673     0.000300     NO 
 Maximum Displacement     0.090910     0.001800     NO 
 RMS     Displacement     0.024549     0.001200     NO 
 Predicted change in Energy=-2.241289D-03
 GradGradGradGradGradGradGradGradGradGradGradGradGradGradGradGradGradGrad

 Leave Link  103 at Tue Sep 28 14:15:09 2021, MaxMem=  805306368 cpu:       0.5
 (Enter /sw/target/amd/app/gaussian/Gaussian09RevA.02_gcc-4.9.2/g09/l202.exe)
                          Input orientation:                          
 ---------------------------------------------------------------------
 Center     Atomic      Atomic             Coordinates (Angstroms)
 Number     Number       Type             X           Y           Z
 ---------------------------------------------------------------------
      1          8           0        0.942062   -0.690057   -0.393411
      2          6           0        2.371711   -0.636414   -0.325572
      3          6           0        2.775131   -0.746425    1.138397
      4          6           0        4.279070   -0.699382    1.331894
      5          6           0        4.947561    0.515112    1.512075
      6          6           0        6.337173    0.577898    1.661454
      7          6           0        7.089617   -0.599839    1.631393
      8          6           0        6.436167   -1.826069    1.450833
      9          6           0        5.052814   -1.869145    1.303862
     10          8           0        8.449702   -0.663849    1.771072
     11          6           0        9.151191    0.554502    1.962847
     12          1           0        0.689143   -0.610257   -1.325232
     13          1           0        2.764310    0.306983   -0.736951
     14          1           0        2.837022   -1.459948   -0.890035
     15          1           0        2.363152   -1.681483    1.538500
     16          1           0        2.286841    0.066383    1.690717
     17          1           0        4.376650    1.439638    1.542458
     18          1           0        6.809429    1.544219    1.803831
     19          1           0        7.027267   -2.736824    1.433033
     20          1           0        4.566900   -2.832168    1.169295
     21          1           0       10.204426    0.278764    2.056801
     22          1           0        8.832851    1.064955    2.880826
     23          1           0        9.033117    1.228764    1.104739
 ---------------------------------------------------------------------
                    Distance matrix (angstroms):
                    1          2          3          4          5
     1  O    0.000000
     2  C    1.432262   0.000000
     3  C    2.389510   1.522516   0.000000
     4  C    3.756646   2.527683   1.517065   0.000000
     5  C    4.596448   3.367190   2.539796   1.397978   0.000000
     6  C    5.910787   4.598665   3.836087   2.444554   1.399027
     7  C    6.473052   5.107807   4.345034   2.828212   2.417800
     8  C    5.905671   4.592461   3.829678   2.436521   2.775036
     9  C    4.601007   3.370905   2.544743   1.402787   2.395645
    10  O    7.813471   6.429513   5.710328   4.193841   3.704324
    11  C    8.630798   7.253723   6.559441   5.070294   4.227913
    12  H    0.968827   1.957304   3.231000   4.467196   5.239361
    13  H    2.105397   1.101529   2.150980   2.754522   3.141341
    14  H    2.104814   1.101517   2.151158   2.755890   3.758374
    15  H    2.595131   2.137056   1.097335   2.162857   3.391888
    16  H    2.593111   2.136949   1.097335   2.164285   2.704201
    17  H    4.481026   3.437923   2.739891   2.151574   1.087019
    18  H    6.651756   5.383573   4.686727   3.414555   2.147262
    19  H    6.674944   5.401724   4.704164   3.422570   3.860895
    20  H    4.491118   3.445986   2.749857   2.158254   3.386249
    21  H    9.629825   8.238002   7.555719   6.049140   5.290294
    22  H    8.721539   7.410937   6.558439   5.123377   4.155873
    23  H    8.449349   7.063923   6.562384   5.135203   4.167371
                    6          7          8          9         10
     6  C    0.000000
     7  C    1.397907   0.000000
     8  C    2.415206   1.401156   0.000000
     9  C    2.786659   2.422185   1.391805   0.000000
    10  O    2.452902   1.368735   2.346834   3.634538   0.000000
    11  C    2.830209   2.385886   3.647003   4.806768   1.418888
    12  H    6.498635   7.050377   6.497156   5.247720   8.355612
    13  H    4.311738   5.013947   4.776908   3.760014   6.289386
    14  H    4.786853   5.018162   4.309008   3.144894   6.262382
    15  H    4.573048   4.849542   4.076524   2.706392   6.175415
    16  H    4.082609   4.849127   4.566818   3.398019   6.206492
    17  H    2.144855   3.395228   3.861975   3.385583   4.589844
    18  H    1.084930   2.169154   3.409219   3.871268   2.750842
    19  H    3.393492   2.147076   1.085906   2.160559   2.536694
    20  H    3.873582   3.400136   2.141415   1.087030   4.487749
    21  H    3.898900   3.264192   4.358588   5.632009   2.012267
    22  H    2.820018   2.715048   4.018332   5.038297   2.089765
    23  H    2.828722   2.719990   4.024417   5.047722   2.089583
                   11         12         13         14         15
    11  C    0.000000
    12  H    9.152835   0.000000
    13  H    6.938474   2.343870   0.000000
    14  H    7.215654   2.350480   1.775041   0.000000
    15  H    7.159411   3.485799   3.048377   2.484233   0.000000
    16  H    6.887061   3.479430   2.485847   3.048388   1.756141
    17  H    4.874057   5.101317   3.013014   4.085961   3.714242
    18  H    2.547288   7.203520   4.934502   5.662327   5.499539
    19  H    3.952794   7.232022   5.669779   4.958348   4.783183
    20  H    5.754562   5.118257   4.091133   3.019322   2.513343
    21  H    1.092778  10.137510   7.947400   8.123152   8.099184
    22  H    1.097537   9.317577   7.105633   7.519607   7.155541
    23  H    1.097688   8.883055   6.598442   7.042719   7.290139
                   16         17         18         19         20
    16  H    0.000000
    17  H    2.505018   0.000000
    18  H    4.759264   2.449013   0.000000
    19  H    5.513258   4.947786   4.302589   0.000000
    20  H    3.724534   4.292293   4.958259   2.476299   0.000000
    21  H    7.928888   5.964490   3.631993   4.424612   6.499789
    22  H    6.727834   4.667906   2.341762   4.450816   6.026213
    23  H    6.870716   4.681746   2.352239   4.456131   6.036756
                   21         22         23
    21  H    0.000000
    22  H    1.782786   0.000000
    23  H    1.783504   1.794832   0.000000
 Stoichiometry    C9H12O2
 Framework group  C1[X(C9H12O2)]
 Deg. of freedom    63
 Full point group                 C1      NOp   1
 Largest Abelian subgroup         C1      NOp   1
 Largest concise Abelian subgroup C1      NOp   1
                         Standard orientation:                         
 ---------------------------------------------------------------------
 Center     Atomic      Atomic             Coordinates (Angstroms)
 Number     Number       Type             X           Y           Z
 ---------------------------------------------------------------------
      1          8           0       -4.523806   -0.246606    0.315130
      2          6           0       -3.130762   -0.163629    0.637495
      3          6           0       -2.357736   -0.006023   -0.664674
      4          6           0       -0.860076    0.091423   -0.443298
      5          6           0       -0.057474   -1.052788   -0.412394
      6          6           0        1.320166   -0.982177   -0.179163
      7          6           0        1.922987    0.261538    0.030415
      8          6           0        1.133597    1.418857    0.003715
      9          6           0       -0.235556    1.329237   -0.229758
     10          8           0        3.257879    0.455495    0.262537
     11          6           0        4.095596   -0.689340    0.291280
     12          1           0       -5.011230   -0.356289    1.145198
     13          1           0       -2.778110   -1.068144    1.157933
     14          1           0       -2.914820    0.696639    1.290678
     15          1           0       -2.731233    0.888272   -1.179339
     16          1           0       -2.599984   -0.857881   -1.312592
     17          1           0       -0.509920   -2.027183   -0.578100
     18          1           0        1.901364   -1.898252   -0.169753
     19          1           0        1.610080    2.381547    0.163037
     20          1           0       -0.827415    2.240783   -0.250316
     21          1           0        5.104366   -0.314096    0.480326
     22          1           0        4.087062   -1.221627   -0.668503
     23          1           0        3.812809   -1.377468    1.098392
 ---------------------------------------------------------------------
 Rotational constants (GHZ):      3.7204242      0.4499529      0.4208952
 Leave Link  202 at Tue Sep 28 14:15:09 2021, MaxMem=  805306368 cpu:       0.0
 (Enter /sw/target/amd/app/gaussian/Gaussian09RevA.02_gcc-4.9.2/g09/l301.exe)
 Standard basis: 6-31G(d) (6D, 7F)
 Ernie: Thresh=  0.10000D-02 Tol=  0.10000D-05 Strict=F.
 There are   189 symmetry adapted basis functions of A   symmetry.
 Integral buffers will be    131072 words long.
 Raffenetti 2 integral format.
 Two-electron integral symmetry is turned on.
   189 basis functions,   356 primitive gaussians,   189 cartesian basis functions
    41 alpha electrons       41 beta electrons
       nuclear repulsion energy       580.8564782404 Hartrees.
 IExCor=  402 DFT=T Ex+Corr=B3LYP ExCW=0 ScaHFX=  0.200000
 ScaDFX=  0.800000  0.720000  1.000000  0.810000 ScalE2=  1.000000  1.000000
 IRadAn=      0 IRanWt=     -1 IRanGd=            0 ICorTp=0
 NAtoms=   23 NActive=   23 NUniq=   23 SFac= 7.50D-01 NAtFMM=   80 NAOKFM=F Big=F
 Leave Link  301 at Tue Sep 28 14:15:09 2021, MaxMem=  805306368 cpu:       0.1
 (Enter /sw/target/amd/app/gaussian/Gaussian09RevA.02_gcc-4.9.2/g09/l302.exe)
 NPDir=0 NMtPBC=     1 NCelOv=     1 NCel=       1 NClECP=     1 NCelD=      1
         NCelK=      1 NCelE2=     1 NClLst=     1 CellRange=     0.0.
 One-electron integrals computed using PRISM.
 NBasis=   189 RedAO= T  NBF=   189
 NBsUse=   189 1.00D-06 NBFU=   189
 Precomputing XC quadrature grid using
 IXCGrd= 2 IRadAn=           0 IRanWt=          -1 IRanGd=           0 AccXCQ= 1.00D-10.
 NRdTot=    1456 NPtTot=      185208 NUsed=      195712 NTot=      195744
 NSgBfM=   188   188   188   188   188 NAtAll=    23    23.
 Leave Link  302 at Tue Sep 28 14:15:09 2021, MaxMem=  805306368 cpu:       1.1
 (Enter /sw/target/amd/app/gaussian/Gaussian09RevA.02_gcc-4.9.2/g09/l303.exe)
 DipDrv:  MaxL=1.
 Leave Link  303 at Tue Sep 28 14:15:10 2021, MaxMem=  805306368 cpu:       0.1
 (Enter /sw/target/amd/app/gaussian/Gaussian09RevA.02_gcc-4.9.2/g09/l401.exe)
 Initial guess read from the read-write file.
 B after Tr=     0.000000    0.000000    0.000000
         Rot=    1.000000    0.000000    0.000000    0.000000 Ang=   0.00 deg.
 Guess basis will be translated and rotated to current coordinates.
 Initial guess orbital symmetries:
       Occupied  (A) (A) (A) (A) (A) (A) (A) (A) (A) (A) (A) (A)
                 (A) (A) (A) (A) (A) (A) (A) (A) (A) (A) (A) (A)
                 (A) (A) (A) (A) (A) (A) (A) (A) (A) (A) (A) (A)
                 (A) (A) (A) (A) (A)
       Virtual   (A) (A) (A) (A) (A) (A) (A) (A) (A) (A) (A) (A)
                 (A) (A) (A) (A) (A) (A) (A) (A) (A) (A) (A) (A)
                 (A) (A) (A) (A) (A) (A) (A) (A) (A) (A) (A) (A)
                 (A) (A) (A) (A) (A) (A) (A) (A) (A) (A) (A) (A)
[...]
    10  O   -0.001227  -0.000061  -0.033059  -0.031009  -0.031007
    11  C   -0.000174   0.000003   0.384338   0.363245   0.362641
    12  H    0.000000   0.000001   0.000000   0.000000  -0.000000
    13  H    0.000000   0.000027   0.000000   0.000000  -0.000000
    14  H    0.000001   0.001036  -0.000000  -0.000000   0.000000
    15  H   -0.000006   0.004824   0.000000   0.000000  -0.000000
    16  H    0.000002   0.000049  -0.000000  -0.000000   0.000000
    17  H    0.000017  -0.000209  -0.000000   0.000001   0.000003
    18  H   -0.000186   0.000017  -0.000013   0.001253   0.001408
    19  H    0.604975  -0.006899  -0.000024   0.000024   0.000022
    20  H   -0.006899   0.617743  -0.000000  -0.000000  -0.000000
    21  H   -0.000024  -0.000000   0.529946  -0.031019  -0.030914
    22  H    0.000024  -0.000000  -0.031019   0.569031  -0.043801
    23  H    0.000022  -0.000000  -0.030914  -0.043801   0.570254
 Mulliken atomic charges:
              1
     1  O   -0.617760
     2  C   -0.022518
     3  C   -0.353297
     4  C    0.181164
     5  C   -0.220464
     6  C   -0.197531
     7  C    0.351616
     8  C   -0.188717
     9  C   -0.212186
    10  O   -0.446984
    11  C   -0.226400
    12  H    0.391744
    13  H    0.125224
    14  H    0.127181
    15  H    0.158670
    16  H    0.156096
    17  H    0.114934
    18  H    0.119555
    19  H    0.124653
    20  H    0.114470
    21  H    0.177516
    22  H    0.171961
    23  H    0.171071
 Sum of Mulliken atomic charges =  -0.00000
 Mulliken charges with hydrogens summed into heavy atoms:
              1
     1  O   -0.226016
     2  C    0.229887
     3  C   -0.038531
     4  C    0.181164
     5  C   -0.105530
     6  C   -0.077976
     7  C    0.351616
     8  C   -0.064064
     9  C   -0.097715
    10  O   -0.446984
    11  C    0.294149
 Sum of Mulliken charges with hydrogens summed into heavy atoms =  -0.00000
 Electronic spatial extent (au):  <R**2>=           2603.4238
 Charge=              0.0000 electrons
 Dipole moment (field-independent basis, Debye):
    X=              1.9896    Y=             -1.4119    Z=              1.6750  Tot=              2.9593
 Quadrupole moment (field-independent basis, Debye-Ang):
   XX=            -54.0285   YY=            -63.4965   ZZ=            -65.3520
   XY=             -5.3157   XZ=             -6.0121   YZ=             -0.5211
 Traceless Quadrupole moment (field-independent basis, Debye-Ang):
   XX=              6.9305   YY=             -2.5375   ZZ=             -4.3930
   XY=             -5.3157   XZ=             -6.0121   YZ=             -0.5211
 Octapole moment (field-independent basis, Debye-Ang**2):
  XXX=             53.8598  YYY=              0.2178  ZZZ=              8.9036  XYY=              0.5921
  XXY=            -20.5326  XXZ=             44.3083  XZZ=            -14.9597  YZZ=             -2.2205
  YYZ=              1.0893  XYZ=              1.1150
 Hexadecapole moment (field-independent basis, Debye-Ang**3):
 XXXX=          -2417.1549 YYYY=           -360.2716 ZZZZ=           -157.4812 XXXY=            -59.3649
 XXXZ=           -183.2448 YYYX=              4.2456 YYYZ=              2.1257 ZZZX=            -18.8068
 ZZZY=             -2.0134 XXYY=           -513.9664 XXZZ=           -420.3777 YYZZ=            -93.0490
 XXYZ=            -16.2094 YYXZ=              0.6236 ZZXY=              3.0367
 N-N= 5.811095724186D+02 E-N=-2.327393373184D+03  KE= 4.961342876927D+02
 No NMR shielding tensors so no spin-rotation constants.
 Leave Link  601 at Tue Sep 28 14:38:38 2021, MaxMem=  805306368 cpu:       0.6
 (Enter /sw/target/amd/app/gaussian/Gaussian09RevA.02_gcc-4.9.2/g09/l604.exe)
 Evaluate density.
 Using the total density.
 Monte-Carlo method of calculating molar volume:
 based on  0.001 e/bohr**3 density envelope.
 Number of points per bohr**3 =   20 CutOff= 1.00D-04
 Using the CI density.
 There are       393 points.  Will hold       393 in memory.
 LenV=   805194609 MDV=   805306368.
 Box volume = 7637.001 fraction occupied=0.221
 Integrated density= 1.2171359371831477D+02 error= 3.9713593718314769D+01
 Molar volume = 1690.634 bohr**3/mol (150.870 cm**3/mol)
 Recommended a0 for SCRF calculation =  4.80 angstrom (  9.08 bohr)
 Leave Link  604 at Tue Sep 28 14:38:38 2021, MaxMem=  805306368 cpu:       0.2
 (Enter /sw/target/amd/app/gaussian/Gaussian09RevA.02_gcc-4.9.2/g09/l607.exe)
 ******************************Gaussian NBO Version 3.1******************************
             N A T U R A L   A T O M I C   O R B I T A L   A N D
          N A T U R A L   B O N D   O R B I T A L   A N A L Y S I S
 ******************************Gaussian NBO Version 3.1******************************
       /RESON  / : Allow strongly delocalized NBO set

 Analyzing the CI density

 Job title: OCCc1ccc(cc1)OC_conf_0                                          

 Storage needed:    108962 in NPA ( 805303493 available)


 NATURAL POPULATIONS:  Natural atomic orbital occupancies 
                                                          
   NAO  Atom  No  lang   Type(AO)    Occupancy
 --------------------------------------------
     1    O    1  S      Cor( 1S)     1.99983
     2    O    1  S      Val( 2S)     1.69178
     3    O    1  S      Ryd( 3S)     0.00145
     4    O    1  S      Ryd( 4S)     0.00001
     5    O    1  px     Val( 2p)     1.42831
     6    O    1  px     Ryd( 3p)     0.00185
     7    O    1  py     Val( 2p)     1.95761
     8    O    1  py     Ryd( 3p)     0.00204
     9    O    1  pz     Val( 2p)     1.66399
    10    O    1  pz     Ryd( 3p)     0.00103
    11    O    1  dxy    Ryd( 3d)     0.00028
    12    O    1  dxz    Ryd( 3d)     0.00170
    13    O    1  dyz    Ryd( 3d)     0.00168
    14    O    1  dx2y2  Ryd( 3d)     0.00056
    15    O    1  dz2    Ryd( 3d)     0.00191

    16    C    2  S      Cor( 1S)     1.99926
    17    C    2  S      Val( 2S)     1.02638
    18    C    2  S      Ryd( 3S)     0.00282
    19    C    2  S      Ryd( 4S)     0.00005
    20    C    2  px     Val( 2p)     0.73835
    21    C    2  px     Ryd( 3p)     0.00287
    22    C    2  py     Val( 2p)     1.21342
    23    C    2  py     Ryd( 3p)     0.00161
    24    C    2  pz     Val( 2p)     1.08758
    25    C    2  pz     Ryd( 3p)     0.00147
    26    C    2  dxy    Ryd( 3d)     0.00167
    27    C    2  dxz    Ryd( 3d)     0.00145
    28    C    2  dyz    Ryd( 3d)     0.00140
    29    C    2  dx2y2  Ryd( 3d)     0.00174
    30    C    2  dz2    Ryd( 3d)     0.00073

    31    C    3  S      Cor( 1S)     1.99926
    32    C    3  S      Val( 2S)     1.04154
    33    C    3  S      Ryd( 3S)     0.00082
    34    C    3  S      Ryd( 4S)     0.00002
    35    C    3  px     Val( 2p)     1.05795
    36    C    3  px     Ryd( 3p)     0.00351
    37    C    3  py     Val( 2p)     1.26190
    38    C    3  py     Ryd( 3p)     0.00602
    39    C    3  pz     Val( 2p)     1.12428
    40    C    3  pz     Ryd( 3p)     0.00103
    41    C    3  dxy    Ryd( 3d)     0.00046
    42    C    3  dxz    Ryd( 3d)     0.00068
    43    C    3  dyz    Ryd( 3d)     0.00110
    44    C    3  dx2y2  Ryd( 3d)     0.00084
    45    C    3  dz2    Ryd( 3d)     0.00041

    46    C    4  S      Cor( 1S)     1.99903
    47    C    4  S      Val( 2S)     0.89129
    48    C    4  S      Ryd( 3S)     0.00094
    49    C    4  S      Ryd( 4S)     0.00005
    50    C    4  px     Val( 2p)     1.05304
    51    C    4  px     Ryd( 3p)     0.00491
    52    C    4  py     Val( 2p)     1.08489
    53    C    4  py     Ryd( 3p)     0.00473
    54    C    4  pz     Val( 2p)     0.91945
    55    C    4  pz     Ryd( 3p)     0.00360
    56    C    4  dxy    Ryd( 3d)     0.00087
    57    C    4  dxz    Ryd( 3d)     0.00054
    58    C    4  dyz    Ryd( 3d)     0.00107
    59    C    4  dx2y2  Ryd( 3d)     0.00073
    60    C    4  dz2    Ryd( 3d)     0.00036

    61    C    5  S      Cor( 1S)     1.99907
    62    C    5  S      Val( 2S)     0.94698
    63    C    5  S      Ryd( 3S)     0.00074
    64    C    5  S      Ryd( 4S)     0.00005
    65    C    5  px     Val( 2p)     1.07148
    66    C    5  px     Ryd( 3p)     0.00444
    67    C    5  py     Val( 2p)     1.16321
    68    C    5  py     Ryd( 3p)     0.00513
    69    C    5  pz     Val( 2p)     1.08316
    70    C    5  pz     Ryd( 3p)     0.00598
    71    C    5  dxy    Ryd( 3d)     0.00073
    72    C    5  dxz    Ryd( 3d)     0.00058
    73    C    5  dyz    Ryd( 3d)     0.00040
    74    C    5  dx2y2  Ryd( 3d)     0.00073
    75    C    5  dz2    Ryd( 3d)     0.00044

    76    C    6  S      Cor( 1S)     1.99905
    77    C    6  S      Val( 2S)     0.95731
    78    C    6  S      Ryd( 3S)     0.00065
    79    C    6  S      Ryd( 4S)     0.00005
    80    C    6  px     Val( 2p)     1.11238
    81    C    6  px     Ryd( 3p)     0.00402
    82    C    6  py     Val( 2p)     1.14396
    83    C    6  py     Ryd( 3p)     0.00410
    84    C    6  pz     Val( 2p)     1.10575
    85    C    6  pz     Ryd( 3p)     0.00588
    86    C    6  dxy    Ryd( 3d)     0.00083
    87    C    6  dxz    Ryd( 3d)     0.00058
    88    C    6  dyz    Ryd( 3d)     0.00045
    89    C    6  dx2y2  Ryd( 3d)     0.00054
    90    C    6  dz2    Ryd( 3d)     0.00049

    91    C    7  S      Cor( 1S)     1.99879
    92    C    7  S      Val( 2S)     0.84317
    93    C    7  S      Ryd( 3S)     0.00157
    94    C    7  S      Ryd( 4S)     0.00013
    95    C    7  px     Val( 2p)     0.75100
    96    C    7  px     Ryd( 3p)     0.00648
    97    C    7  py     Val( 2p)     1.08776
    98    C    7  py     Ryd( 3p)     0.00621
    99    C    7  pz     Val( 2p)     0.96663
   100    C    7  pz     Ryd( 3p)     0.00204
   101    C    7  dxy    Ryd( 3d)     0.00137
   102    C    7  dxz    Ryd( 3d)     0.00160
   103    C    7  dyz    Ryd( 3d)     0.00137
   104    C    7  dx2y2  Ryd( 3d)     0.00175
   105    C    7  dz2    Ryd( 3d)     0.00058

   106    C    8  S      Cor( 1S)     1.99906
   107    C    8  S      Val( 2S)     0.95789
   108    C    8  S      Ryd( 3S)     0.00087
   109    C    8  S      Ryd( 4S)     0.00004
   110    C    8  px     Val( 2p)     1.08586
   111    C    8  px     Ryd( 3p)     0.00557
   112    C    8  py     Val( 2p)     1.15167
   113    C    8  py     Ryd( 3p)     0.00457
   114    C    8  pz     Val( 2p)     1.09876
   115    C    8  pz     Ryd( 3p)     0.00688
   116    C    8  dxy    Ryd( 3d)     0.00083
   117    C    8  dxz    Ryd( 3d)     0.00061
   118    C    8  dyz    Ryd( 3d)     0.00042
   119    C    8  dx2y2  Ryd( 3d)     0.00054
   120    C    8  dz2    Ryd( 3d)     0.00047

   121    C    9  S      Cor( 1S)     1.99906
   122    C    9  S      Val( 2S)     0.94866
   123    C    9  S      Ryd( 3S)     0.00062
   124    C    9  S      Ryd( 4S)     0.00005
   125    C    9  px     Val( 2p)     1.09751
   126    C    9  px     Ryd( 3p)     0.00434
   127    C    9  py     Val( 2p)     1.14313
   128    C    9  py     Ryd( 3p)     0.00486
   129    C    9  pz     Val( 2p)     1.08014
   130    C    9  pz     Ryd( 3p)     0.00560
   131    C    9  dxy    Ryd( 3d)     0.00079
   132    C    9  dxz    Ryd( 3d)     0.00060
   133    C    9  dyz    Ryd( 3d)     0.00039
   134    C    9  dx2y2  Ryd( 3d)     0.00067
   135    C    9  dz2    Ryd( 3d)     0.00047

   136    O   10  S      Cor( 1S)     1.99975
   137    O   10  S      Val( 2S)     1.59838
   138    O   10  S      Ryd( 3S)     0.00077
   139    O   10  S      Ryd( 4S)     0.00007
   140    O   10  px     Val( 2p)     1.43840
   141    O   10  px     Ryd( 3p)     0.00110
   142    O   10  py     Val( 2p)     1.67603
   143    O   10  py     Ryd( 3p)     0.00207
   144    O   10  pz     Val( 2p)     1.70331
   145    O   10  pz     Ryd( 3p)     0.00220
   146    O   10  dxy    Ryd( 3d)     0.00134
   147    O   10  dxz    Ryd( 3d)     0.00065
   148    O   10  dyz    Ryd( 3d)     0.00139
   149    O   10  dx2y2  Ryd( 3d)     0.00131
   150    O   10  dz2    Ryd( 3d)     0.00080

   151    C   11  S      Cor( 1S)     1.99942
   152    C   11  S      Val( 2S)     1.10377
   153    C   11  S      Ryd( 3S)     0.00149
   154    C   11  S      Ryd( 4S)     0.00003
   155    C   11  px     Val( 2p)     1.04471
   156    C   11  px     Ryd( 3p)     0.00230
   157    C   11  py     Val( 2p)     0.93024
   158    C   11  py     Ryd( 3p)     0.00341
   159    C   11  pz     Val( 2p)     1.23299
   160    C   11  pz     Ryd( 3p)     0.00038
   161    C   11  dxy    Ryd( 3d)     0.00176
   162    C   11  dxz    Ryd( 3d)     0.00065
   163    C   11  dyz    Ryd( 3d)     0.00170
   164    C   11  dx2y2  Ryd( 3d)     0.00133
   165    C   11  dz2    Ryd( 3d)     0.00107

   166    H   12  S      Val( 1S)     0.52617
   167    H   12  S      Ryd( 2S)     0.00152

   168    H   13  S      Val( 1S)     0.80168
   169    H   13  S      Ryd( 2S)     0.00233

   170    H   14  S      Val( 1S)     0.80063
   171    H   14  S      Ryd( 2S)     0.00232

   172    H   15  S      Val( 1S)     0.74720
   173    H   15  S      Ryd( 2S)     0.00259

   174    H   16  S      Val( 1S)     0.74968
   175    H   16  S      Ryd( 2S)     0.00248

   176    H   17  S      Val( 1S)     0.77312
   177    H   17  S      Ryd( 2S)     0.00106

   178    H   18  S      Val( 1S)     0.77267
   179    H   18  S      Ryd( 2S)     0.00100

   180    H   19  S      Val( 1S)     0.76267
   181    H   19  S      Ryd( 2S)     0.00126

   182    H   20  S      Val( 1S)     0.77249
   183    H   20  S      Ryd( 2S)     0.00101

   184    H   21  S      Val( 1S)     0.76808
   185    H   21  S      Ryd( 2S)     0.00054

   186    H   22  S      Val( 1S)     0.78076
   187    H   22  S      Ryd( 2S)     0.00202

   188    H   23  S      Val( 1S)     0.78115
   189    H   23  S      Ryd( 2S)     0.00207

 WARNING:  1 low occupancy (<1.9990e) core orbital  found on  C    7


 Summary of Natural Population Analysis:                  
                                                          
                                       Natural Population 
                Natural  -----------------------------------------------
    Atom  No    Charge         Core      Valence    Rydberg      Total
 -----------------------------------------------------------------------
      O    1   -0.75404      1.99983     6.74170    0.01251     8.75404
      C    2   -0.08079      1.99926     4.06572    0.01581     6.08079
      C    3   -0.49984      1.99926     4.48567    0.01491     6.49984
      C    4    0.03450      1.99903     3.94868    0.01779     5.96550
      C    5   -0.28312      1.99907     4.26483    0.01922     6.28312
      C    6   -0.33602      1.99905     4.31939    0.01758     6.33602
      C    7    0.32954      1.99879     3.64856    0.02311     5.67046
      C    8   -0.31406      1.99906     4.29419    0.02081     6.31406
      C    9   -0.28687      1.99906     4.26944    0.01836     6.28687
      O   10   -0.42756      1.99975     6.41612    0.01169     8.42756
      C   11   -0.32524      1.99942     4.31171    0.01411     6.32524
      H   12    0.47231      0.00000     0.52617    0.00152     0.52769
      H   13    0.19599      0.00000     0.80168    0.00233     0.80401
      H   14    0.19705      0.00000     0.80063    0.00232     0.80295
      H   15    0.25021      0.00000     0.74720    0.00259     0.74979
      H   16    0.24785      0.00000     0.74968    0.00248     0.75215
      H   17    0.22582      0.00000     0.77312    0.00106     0.77418
      H   18    0.22633      0.00000     0.77267    0.00100     0.77367
      H   19    0.23608      0.00000     0.76267    0.00126     0.76392
      H   20    0.22649      0.00000     0.77249    0.00101     0.77351
      H   21    0.23138      0.00000     0.76808    0.00054     0.76862
      H   22    0.21723      0.00000     0.78076    0.00202     0.78277
      H   23    0.21678      0.00000     0.78115    0.00207     0.78322
 =======================================================================
   * Total *    0.00000     21.99159    59.80231    0.20610    82.00000

                                 Natural Population      
 --------------------------------------------------------
   Core                      21.99159 ( 99.9618% of  22)
   Valence                   59.80231 ( 99.6705% of  60)
   Natural Minimal Basis     81.79390 ( 99.7487% of  82)
   Natural Rydberg Basis      0.20610 (  0.2513% of  82)
 --------------------------------------------------------

    Atom  No          Natural Electron Configuration
 ----------------------------------------------------------------------------
      O    1      [core]2S( 1.69)2p( 5.05)3d( 0.01)
      C    2      [core]2S( 1.03)2p( 3.04)3p( 0.01)3d( 0.01)
      C    3      [core]2S( 1.04)2p( 3.44)3p( 0.01)
      C    4      [core]2S( 0.89)2p( 3.06)3p( 0.01)
      C    5      [core]2S( 0.95)2p( 3.32)3p( 0.02)
      C    6      [core]2S( 0.96)2p( 3.36)3p( 0.01)
      C    7      [core]2S( 0.84)2p( 2.81)3p( 0.01)3d( 0.01)
      C    8      [core]2S( 0.96)2p( 3.34)3p( 0.02)
      C    9      [core]2S( 0.95)2p( 3.32)3p( 0.01)
      O   10      [core]2S( 1.60)2p( 4.82)3p( 0.01)3d( 0.01)
      C   11      [core]2S( 1.10)2p( 3.21)3p( 0.01)3d( 0.01)
      H   12            1S( 0.53)
      H   13            1S( 0.80)
      H   14            1S( 0.80)
      H   15            1S( 0.75)
      H   16            1S( 0.75)
      H   17            1S( 0.77)
      H   18            1S( 0.77)
      H   19            1S( 0.76)
      H   20            1S( 0.77)
      H   21            1S( 0.77)
      H   22            1S( 0.78)
      H   23            1S( 0.78)


 NBO analysis skipped by request.
 Leave Link  607 at Tue Sep 28 14:38:41 2021, MaxMem=  805306368 cpu:       6.9
 (Enter /sw/target/amd/app/gaussian/Gaussian09RevA.02_gcc-4.9.2/g09/l9999.exe)
 1\1\GINC-HERMITE\SP\RTD-B3LYP-FC\6-31G(d)\C9H12O2\JSCHLEINITZ\28-Sep-2
 021\0\\#p TD(NStates=10, Root=1) b3lyp/6-31G* volume pop=NPA density=c
 urrent Geom=AllCheck Guess=Read\\OCCc1ccc(cc1)OC_conf_0\\0,1\O,0,0.953
 7267066,-0.708481285,-0.399052188\C,0,2.3747804,-0.6548640582,-0.33102
 68617\C,0,2.7746582583,-0.7265013859,1.1445699523\C,0,4.2741012515,-0.
 6823507123,1.3394902371\C,0,4.9460738564,0.5265371091,1.5378809595\C,0
 ,6.335608365,0.5848492685,1.6829610291\C,0,7.0843655673,-0.5954702025,
 1.6288100118\C,0,6.4283883987,-1.8192879757,1.4323271172\C,0,5.0470214
 844,-1.8542999177,1.2909201063\O,0,8.443440732,-0.6642161774,1.7597514
 122\C,0,9.1575765023,0.5436084852,1.9605611206\H,0,0.6986387293,-0.665
 6987734,-1.3328738058\H,0,2.764069992,0.2771982812,-0.7723297282\H,0,2
 .8356945079,-1.493148412,-0.8785354589\H,0,2.3571212775,-1.6496327864,
 1.5645459751\H,0,2.2923913444,0.1072184514,1.6685732879\H,0,4.37582464
 68,1.4519282495,1.588066576\H,0,6.8140556098,1.5447857655,1.8415192607
 \H,0,7.022949085,-2.7271690103,1.3999126136\H,0,4.5542202165,-2.813471
 2313,1.1458182568\H,0,10.2097248995,0.2617030751,2.0336326636\H,0,8.85
 24682137,1.0454787023,2.8887417236\H,0,9.026408621,1.2366431819,1.1185
 622507\\Version=AM64L-G09RevA.02\State=1-A\HF=-500.6062462\RMSD=9.345e
 -09\Dipole=0.8682253,0.6578078,-0.4111332\Quadrupole=1.3661058,-1.0802
 063,-0.2858995,4.1368019,5.9812522,1.3002112\PG=C01 [X(C9H12O2)]\\@


      HUMANKIND PERIODICALLY GOES THROUGH A SPEEDUP OF ITS AFFAIRS, 
      THEREBY EXPERIENCING THE RACE BETWEEN THE RENEWABLE VITALITY
      OF THE LIVING, AND THE BECKONING VITIATION OF DECADENCE.
      IN THIS PERIODIC RACE, ANY PAUSE BECOMES A LUXURY.
      ONLY THEN CAN ONE REFLECT THAT ALL IS PERMITTED;
      ALL IS POSSIBLE.

                              -- THE APOCRYPHA OF MUAD'DIB
                                 CHILDREN OF DUNE, BY FRANK HERBERT
 Job cpu time:  0 days  0 hours 31 minutes 20.6 seconds.
 File lengths (MBytes):  RWF=    125 Int=      0 D2E=      0 Chk=     17 Scr=      1
 Normal termination of Gaussian 09 at Tue Sep 28 14:38:42 2021.
