 Entering Gaussian System, Link 0=g09
 Input=C9H19BO2_43bd_conf_0.com
 Output=C9H19BO2_43bd_conf_0.log
 Initial command:
 /sw/target/amd/app/gaussian/Gaussian09RevA.02_gcc-4.9.2/g09/l1.exe /home/jschleinitz/gaussian/Gau-3056.inp -scrdir=/home/jschleinitz/gaussian/
 Entering Link 1 = /sw/target/amd/app/gaussian/Gaussian09RevA.02_gcc-4.9.2/g09/l1.exe PID=      3085.
  
 Copyright (c) 1988,1990,1992,1993,1995,1998,2003,2009, Gaussian, Inc.
                  All Rights Reserved.
  
 This is part of the Gaussian(R) 09 program.  It is based on
 the Gaussian(R) 03 system (copyright 2003, Gaussian, Inc.),
 the Gaussian(R) 98 system (copyright 1998, Gaussian, Inc.),
 the Gaussian(R) 94 system (copyright 1995, Gaussian, Inc.),
 the Gaussian 92(TM) system (copyright 1992, Gaussian, Inc.),
 the Gaussian 90(TM) system (copyright 1990, Gaussian, Inc.),
 the Gaussian 88(TM) system (copyright 1988, Gaussian, Inc.),
 the Gaussian 86(TM) system (copyright 1986, Carnegie Mellon
 University), and the Gaussian 82(TM) system (copyright 1983,
 Carnegie Mellon University). Gaussian is a federally registered
 trademark of Gaussian, Inc.
  
 This software contains proprietary and confidential information,
 including trade secrets, belonging to Gaussian, Inc.
  
 This software is provided under written license and may be
 used, copied, transmitted, or stored only in accord with that
 written license.
  
 The following legend is applicable only to US Government
 contracts under FAR:
  
                    RESTRICTED RIGHTS LEGEND
  
 Use, reproduction and disclosure by the US Government is
 subject to restrictions as set forth in subparagraphs (a)
 and (c) of the Commercial Computer Software - Restricted
 Rights clause in FAR 52.227-19.
  
 Gaussian, Inc.
 340 Quinnipiac St., Bldg. 40, Wallingford CT 06492
  
  
 ---------------------------------------------------------------
 Warning -- This program may not be used in any manner that
 competes with the business of Gaussian, Inc. or will provide
 assistance to any competitor of Gaussian, Inc.  The licensee
 of this program is prohibited from giving any competitor of
 Gaussian, Inc. access to this program.  By using this program,
 the user acknowledges that Gaussian, Inc. is engaged in the
 business of creating and licensing software in the field of
 computational chemistry and represents and warrants to the
 licensee that it is not a competitor of Gaussian, Inc. and that
 it will not use this program in any manner prohibited above.
 ---------------------------------------------------------------
  

 Cite this work as:
 Gaussian 09, Revision A.02,
 M. J. Frisch, G. W. Trucks, H. B. Schlegel, G. E. Scuseria, 
 M. A. Robb, J. R. Cheeseman, G. Scalmani, V. Barone, B. Mennucci, 
 G. A. Petersson, H. Nakatsuji, M. Caricato, X. Li, H. P. Hratchian, 
 A. F. Izmaylov, J. Bloino, G. Zheng, J. L. Sonnenberg, M. Hada, 
 M. Ehara, K. Toyota, R. Fukuda, J. Hasegawa, M. Ishida, T. Nakajima, 
 Y. Honda, O. Kitao, H. Nakai, T. Vreven, J. A. Montgomery, Jr., 
 J. E. Peralta, F. Ogliaro, M. Bearpark, J. J. Heyd, E. Brothers, 
 K. N. Kudin, V. N. Staroverov, R. Kobayashi, J. Normand, 
 K. Raghavachari, A. Rendell, J. C. Burant, S. S. Iyengar, J. Tomasi, 
 M. Cossi, N. Rega, J. M. Millam, M. Klene, J. E. Knox, J. B. Cross, 
 V. Bakken, C. Adamo, J. Jaramillo, R. Gomperts, R. E. Stratmann, 
 O. Yazyev, A. J. Austin, R. Cammi, C. Pomelli, J. W. Ochterski, 
 R. L. Martin, K. Morokuma, V. G. Zakrzewski, G. A. Voth, 
 P. Salvador, J. J. Dannenberg, S. Dapprich, A. D. Daniels, 
 O. Farkas, J. B. Foresman, J. V. Ortiz, J. Cioslowski, 
 and D. J. Fox, Gaussian, Inc., Wallingford CT, 2009.
 
 ******************************************
 Gaussian 09:  AM64L-G09RevA.02 11-Jun-2009
                 5-Oct-2021 
 ******************************************
 %nproc=5
 Will use up to    5 processors via shared memory.
 %mem=10gb
 %chk=C9H19BO2_43bd_conf_0.chk
 -----------------------------------
 #p opt b3lyp/6-31G* scf=(xqc,tight)
 -----------------------------------
 1/14=-1,18=20,19=15,26=3,38=1/1,3;
 2/9=110,12=2,17=6,18=5,40=1/2;
 3/5=1,6=6,7=1,11=2,16=1,25=1,30=1,71=1,74=-5/1,2,3;
 4//1;
 5/5=2,8=3,13=1,32=2,38=5/2,8;
 6/7=2,8=2,9=2,10=2,28=1/1;
 7//1,2,3,16;
 1/14=-1,18=20,19=15/3(2);
 2/9=110/2;
 99//99;
 2/9=110/2;
 3/5=1,6=6,7=1,11=2,16=1,25=1,30=1,71=1,74=-5/1,2,3;
 4/5=5,16=3/1;
 5/5=2,8=3,13=1,32=2,38=5/2,8;
 7//1,2,3,16;
 1/14=-1,18=20,19=15/3(-5);
 2/9=110/2;
 6/7=2,8=2,9=2,10=2,19=2,28=1/1;
 99/9=1/99;
 Leave Link    1 at Tue Oct  5 16:43:30 2021, MaxMem= 1342177280 cpu:       0.1
 (Enter /sw/target/amd/app/gaussian/Gaussian09RevA.02_gcc-4.9.2/g09/l101.exe)
 -------------------------
 CCCCB1OCC(CO1)(C)C_conf_0
 -------------------------
 Symbolic Z-matrix:
 Charge =  0 Multiplicity = 1
 C                     8.13164   0.2639    1.11502 
 C                     6.76346   0.16415   0.44636 
 C                     6.36619   1.49379  -0.20713 
 C                     4.98727   1.3838   -0.8673 
 B                     4.56187   2.76003  -1.55044 
 O                     4.31049   2.83992  -3.00455 
 C                     5.19242   3.80258  -3.55499 
 C                     5.07328   5.18315  -2.84738 
 C                     5.36934   4.94951  -1.33841 
 O                     4.48282   4.00667  -0.76108 
 C                     3.65311   5.75942  -3.02991 
 C                     6.09783   6.16702  -3.43973 
 H                     8.3914   -0.71184   1.57724 
 H                     8.11736   1.0406    1.90914 
 H                     8.91027   0.52127   0.36572 
 H                     6.00956  -0.11471   1.21438 
 H                     6.79884  -0.635    -0.32605 
 H                     7.12521   1.76711  -0.9738 
 H                     6.34127   2.28845   0.57215 
 H                     4.22507   1.1225   -0.10282 
 H                     5.00504   0.59143  -1.64606 
 H                     4.94988   3.92235  -4.63318 
 H                     6.23945   3.4188   -3.51167 
 H                     5.26265   5.91046  -0.79048 
 H                     6.42424   4.61859  -1.18287 
 H                     2.88301   5.07575  -2.61409 
 H                     3.43151   5.9139   -4.10787 
 H                     3.5616    6.73772  -2.51093 
 H                     7.13075   5.77427  -3.32192 
 H                     6.03775   7.15029  -2.92535 
 H                     5.90638   6.32428  -4.52324 
 
 NAtoms=     31 NQM=     31 NQMF=      0 NMic=      0 NMicF=      0 NTot=     31.
                    Isotopes and Nuclear Properties:
 (Nuclear quadrupole moments (NQMom) in fm**2, nuclear magnetic moments (NMagM)
  in nuclear magnetons)

  Atom         1           2           3           4           5           6           7           8           9          10
 IAtWgt=          12          12          12          12          11          16          12          12          12          16
 AtmWgt=  12.0000000  12.0000000  12.0000000  12.0000000  11.0093053  15.9949146  12.0000000  12.0000000  12.0000000  15.9949146
 NucSpn=           0           0           0           0           3           0           0           0           0           0
 AtZEff=   0.0000000   0.0000000   0.0000000   0.0000000   0.0000000   0.0000000   0.0000000   0.0000000   0.0000000   0.0000000
 NQMom=    0.0000000   0.0000000   0.0000000   0.0000000   4.0590000   0.0000000   0.0000000   0.0000000   0.0000000   0.0000000
 NMagM=    0.0000000   0.0000000   0.0000000   0.0000000   2.6886370   0.0000000   0.0000000   0.0000000   0.0000000   0.0000000

  Atom        11          12          13          14          15          16          17          18          19          20
 IAtWgt=          12          12           1           1           1           1           1           1           1           1
 AtmWgt=  12.0000000  12.0000000   1.0078250   1.0078250   1.0078250   1.0078250   1.0078250   1.0078250   1.0078250   1.0078250
 NucSpn=           0           0           1           1           1           1           1           1           1           1
 AtZEff=   0.0000000   0.0000000   0.0000000   0.0000000   0.0000000   0.0000000   0.0000000   0.0000000   0.0000000   0.0000000
 NQMom=    0.0000000   0.0000000   0.0000000   0.0000000   0.0000000   0.0000000   0.0000000   0.0000000   0.0000000   0.0000000
 NMagM=    0.0000000   0.0000000   2.7928460   2.7928460   2.7928460   2.7928460   2.7928460   2.7928460   2.7928460   2.7928460

  Atom        21          22          23          24          25          26          27          28          29          30
 IAtWgt=           1           1           1           1           1           1           1           1           1           1
 AtmWgt=   1.0078250   1.0078250   1.0078250   1.0078250   1.0078250   1.0078250   1.0078250   1.0078250   1.0078250   1.0078250
 NucSpn=           1           1           1           1           1           1           1           1           1           1
 AtZEff=   0.0000000   0.0000000   0.0000000   0.0000000   0.0000000   0.0000000   0.0000000   0.0000000   0.0000000   0.0000000
 NQMom=    0.0000000   0.0000000   0.0000000   0.0000000   0.0000000   0.0000000   0.0000000   0.0000000   0.0000000   0.0000000
 NMagM=    2.7928460   2.7928460   2.7928460   2.7928460   2.7928460   2.7928460   2.7928460   2.7928460   2.7928460   2.7928460

  Atom        31
 IAtWgt=           1
 AtmWgt=   1.0078250
 NucSpn=           1
 AtZEff=   0.0000000
 NQMom=    0.0000000
 NMagM=    2.7928460
 Leave Link  101 at Tue Oct  5 16:43:30 2021, MaxMem= 1342177280 cpu:       0.2
 (Enter /sw/target/amd/app/gaussian/Gaussian09RevA.02_gcc-4.9.2/g09/l103.exe)

 GradGradGradGradGradGradGradGradGradGradGradGradGradGradGradGradGradGrad
 Berny optimization.
 Initialization pass.
                           ----------------------------
                           !    Initial Parameters    !
                           ! (Angstroms and Degrees)  !
 --------------------------                            --------------------------
 ! Name  Definition              Value          Derivative Info.                !
 --------------------------------------------------------------------------------
 ! R1    R(1,2)                  1.5261         estimate D2E/DX2                !
 ! R2    R(1,13)                 1.1105         estimate D2E/DX2                !
 ! R3    R(1,14)                 1.1109         estimate D2E/DX2                !
 ! R4    R(1,15)                 1.1108         estimate D2E/DX2                !
 ! R5    R(2,3)                  1.5339         estimate D2E/DX2                !
 ! R6    R(2,16)                 1.1117         estimate D2E/DX2                !
 ! R7    R(2,17)                 1.112          estimate D2E/DX2                !
 ! R8    R(3,4)                  1.5328         estimate D2E/DX2                !
 ! R9    R(3,18)                 1.1129         estimate D2E/DX2                !
 ! R10   R(3,19)                 1.1133         estimate D2E/DX2                !
 ! R11   R(4,5)                  1.5943         estimate D2E/DX2                !
 ! R12   R(4,20)                 1.1107         estimate D2E/DX2                !
 ! R13   R(4,21)                 1.1111         estimate D2E/DX2                !
 ! R14   R(5,6)                  1.4778         estimate D2E/DX2                !
 ! R15   R(5,10)                 1.4776         estimate D2E/DX2                !
 ! R16   R(6,7)                  1.4169         estimate D2E/DX2                !
 ! R17   R(7,8)                  1.5559         estimate D2E/DX2                !
 ! R18   R(7,22)                 1.1116         estimate D2E/DX2                !
 ! R19   R(7,23)                 1.116          estimate D2E/DX2                !
 ! R20   R(8,9)                  1.5554         estimate D2E/DX2                !
 ! R21   R(8,11)                 1.5435         estimate D2E/DX2                !
 ! R22   R(8,12)                 1.539          estimate D2E/DX2                !
 ! R23   R(9,10)                 1.4171         estimate D2E/DX2                !
 ! R24   R(9,24)                 1.1113         estimate D2E/DX2                !
 ! R25   R(9,25)                 1.1165         estimate D2E/DX2                !
 ! R26   R(11,26)                1.1106         estimate D2E/DX2                !
 ! R27   R(11,27)                1.1113         estimate D2E/DX2                !
 ! R28   R(11,28)                1.1112         estimate D2E/DX2                !
 ! R29   R(12,29)                1.1113         estimate D2E/DX2                !
 ! R30   R(12,30)                1.1113         estimate D2E/DX2                !
 ! R31   R(12,31)                1.1115         estimate D2E/DX2                !
 ! A1    A(2,1,13)             109.5515         estimate D2E/DX2                !
 ! A2    A(2,1,14)             110.3274         estimate D2E/DX2                !
 ! A3    A(2,1,15)             110.3653         estimate D2E/DX2                !
 ! A4    A(13,1,14)            108.6506         estimate D2E/DX2                !
 ! A5    A(13,1,15)            108.6853         estimate D2E/DX2                !
 ! A6    A(14,1,15)            109.2209         estimate D2E/DX2                !
 ! A7    A(1,2,3)              111.2356         estimate D2E/DX2                !
 ! A8    A(1,2,16)             108.7633         estimate D2E/DX2                !
 ! A9    A(1,2,17)             108.8319         estimate D2E/DX2                !
 ! A10   A(3,2,16)             109.6411         estimate D2E/DX2                !
 ! A11   A(3,2,17)             109.5892         estimate D2E/DX2                !
 ! A12   A(16,2,17)            108.734          estimate D2E/DX2                !
 ! A13   A(2,3,4)              110.7497         estimate D2E/DX2                !
 ! A14   A(2,3,18)             109.2532         estimate D2E/DX2                !
 ! A15   A(2,3,19)             109.0459         estimate D2E/DX2                !
 ! A16   A(4,3,18)             109.5408         estimate D2E/DX2                !
 ! A17   A(4,3,19)             109.4251         estimate D2E/DX2                !
 ! A18   A(18,3,19)            108.7945         estimate D2E/DX2                !
 ! A19   A(3,4,5)              111.2636         estimate D2E/DX2                !
 ! A20   A(3,4,20)             109.7425         estimate D2E/DX2                !
 ! A21   A(3,4,21)             109.7951         estimate D2E/DX2                !
 ! A22   A(5,4,20)             108.3549         estimate D2E/DX2                !
 ! A23   A(5,4,21)             108.6346         estimate D2E/DX2                !
 ! A24   A(20,4,21)            109.0027         estimate D2E/DX2                !
 ! A25   A(4,5,6)              120.909          estimate D2E/DX2                !
 ! A26   A(4,5,10)             120.9077         estimate D2E/DX2                !
 ! A27   A(6,5,10)             118.0936         estimate D2E/DX2                !
 ! A28   A(5,6,7)              108.2467         estimate D2E/DX2                !
 ! A29   A(6,7,8)              112.2418         estimate D2E/DX2                !
 ! A30   A(6,7,22)             108.3135         estimate D2E/DX2                !
 ! A31   A(6,7,23)             109.588          estimate D2E/DX2                !
 ! A32   A(8,7,22)             109.1967         estimate D2E/DX2                !
 ! A33   A(8,7,23)             111.0582         estimate D2E/DX2                !
 ! A34   A(22,7,23)            106.2249         estimate D2E/DX2                !
 ! A35   A(7,8,9)              107.059          estimate D2E/DX2                !
 ! A36   A(7,8,11)             110.3619         estimate D2E/DX2                !
 ! A37   A(7,8,12)             109.9515         estimate D2E/DX2                !
 ! A38   A(9,8,11)             110.2403         estimate D2E/DX2                !
 ! A39   A(9,8,12)             110.0424         estimate D2E/DX2                !
 ! A40   A(11,8,12)            109.1677         estimate D2E/DX2                !
 ! A41   A(8,9,10)             112.0927         estimate D2E/DX2                !
 ! A42   A(8,9,24)             109.2786         estimate D2E/DX2                !
 ! A43   A(8,9,25)             111.0711         estimate D2E/DX2                !
 ! A44   A(10,9,24)            108.3237         estimate D2E/DX2                !
 ! A45   A(10,9,25)            109.7021         estimate D2E/DX2                !
 ! A46   A(24,9,25)            106.1595         estimate D2E/DX2                !
 ! A47   A(5,10,9)             108.0721         estimate D2E/DX2                !
 ! A48   A(8,11,26)            111.3406         estimate D2E/DX2                !
 ! A49   A(8,11,27)            110.4936         estimate D2E/DX2                !
 ! A50   A(8,11,28)            110.4411         estimate D2E/DX2                !
 ! A51   A(26,11,27)           108.0886         estimate D2E/DX2                !
 ! A52   A(26,11,28)           108.0589         estimate D2E/DX2                !
 ! A53   A(27,11,28)           108.3143         estimate D2E/DX2                !
 ! A54   A(8,12,29)            110.6111         estimate D2E/DX2                !
 ! A55   A(8,12,30)            110.5787         estimate D2E/DX2                !
 ! A56   A(8,12,31)            110.5477         estimate D2E/DX2                !
 ! A57   A(29,12,30)           108.2926         estimate D2E/DX2                !
 ! A58   A(29,12,31)           108.2658         estimate D2E/DX2                !
 ! A59   A(30,12,31)           108.4644         estimate D2E/DX2                !
 ! D1    D(13,1,2,3)          -179.9513         estimate D2E/DX2                !
 ! D2    D(13,1,2,16)           59.194          estimate D2E/DX2                !
 ! D3    D(13,1,2,17)          -59.1162         estimate D2E/DX2                !
 ! D4    D(14,1,2,3)            60.4804         estimate D2E/DX2                !
 ! D5    D(14,1,2,16)          -60.3743         estimate D2E/DX2                !
 ! D6    D(14,1,2,17)         -178.6845         estimate D2E/DX2                !
 ! D7    D(15,1,2,3)           -60.3167         estimate D2E/DX2                !
 ! D8    D(15,1,2,16)          178.8286         estimate D2E/DX2                !
 ! D9    D(15,1,2,17)           60.5184         estimate D2E/DX2                !
 ! D10   D(1,2,3,4)           -179.6411         estimate D2E/DX2                !
 ! D11   D(1,2,3,18)            59.6154         estimate D2E/DX2                !
 ! D12   D(1,2,3,19)           -59.1748         estimate D2E/DX2                !
 ! D13   D(16,2,3,4)           -59.3034         estimate D2E/DX2                !
 ! D14   D(16,2,3,18)          179.9531         estimate D2E/DX2                !
 ! D15   D(16,2,3,19)           61.1629         estimate D2E/DX2                !
 ! D16   D(17,2,3,4)            59.9698         estimate D2E/DX2                !
 ! D17   D(17,2,3,18)          -60.7737         estimate D2E/DX2                !
 ! D18   D(17,2,3,19)         -179.5639         estimate D2E/DX2                !
 ! D19   D(2,3,4,5)            179.9852         estimate D2E/DX2                !
 ! D20   D(2,3,4,20)            60.0731         estimate D2E/DX2                !
 ! D21   D(2,3,4,21)           -59.7184         estimate D2E/DX2                !
 ! D22   D(18,3,4,5)           -59.4421         estimate D2E/DX2                !
 ! D23   D(18,3,4,20)         -179.3542         estimate D2E/DX2                !
 ! D24   D(18,3,4,21)           60.8542         estimate D2E/DX2                !
 ! D25   D(19,3,4,5)            59.7449         estimate D2E/DX2                !
 ! D26   D(19,3,4,20)          -60.1672         estimate D2E/DX2                !
 ! D27   D(19,3,4,21)         -179.9587         estimate D2E/DX2                !
 ! D28   D(3,4,5,6)            118.9188         estimate D2E/DX2                !
 ! D29   D(3,4,5,10)           -57.571          estimate D2E/DX2                !
 ! D30   D(20,4,5,6)          -120.3499         estimate D2E/DX2                !
 ! D31   D(20,4,5,10)           63.1603         estimate D2E/DX2                !
 ! D32   D(21,4,5,6)            -2.0605         estimate D2E/DX2                !
 ! D33   D(21,4,5,10)         -178.5502         estimate D2E/DX2                !
 ! D34   D(4,5,6,7)           -121.525          estimate D2E/DX2                !
 ! D35   D(10,5,6,7)            55.0612         estimate D2E/DX2                !
 ! D36   D(4,5,10,9)           121.2084         estimate D2E/DX2                !
 ! D37   D(6,5,10,9)           -55.3778         estimate D2E/DX2                !
 ! D38   D(5,6,7,8)            -54.9358         estimate D2E/DX2                !
 ! D39   D(5,6,7,22)          -175.5695         estimate D2E/DX2                !
 ! D40   D(5,6,7,23)            68.952          estimate D2E/DX2                !
 ! D41   D(6,7,8,9)             57.8003         estimate D2E/DX2                !
 ! D42   D(6,7,8,11)           -62.1922         estimate D2E/DX2                !
 ! D43   D(6,7,8,12)           177.3231         estimate D2E/DX2                !
 ! D44   D(22,7,8,9)           177.9224         estimate D2E/DX2                !
 ! D45   D(22,7,8,11)           57.93           estimate D2E/DX2                !
 ! D46   D(22,7,8,12)          -62.5548         estimate D2E/DX2                !
 ! D47   D(23,7,8,9)           -65.264          estimate D2E/DX2                !
 ! D48   D(23,7,8,11)          174.7436         estimate D2E/DX2                !
 ! D49   D(23,7,8,12)           54.2588         estimate D2E/DX2                !
 ! D50   D(7,8,9,10)           -58.1454         estimate D2E/DX2                !
 ! D51   D(7,8,9,24)          -178.2401         estimate D2E/DX2                !
 ! D52   D(7,8,9,25)            64.9688         estimate D2E/DX2                !
 ! D53   D(11,8,9,10)           61.925          estimate D2E/DX2                !
 ! D54   D(11,8,9,24)          -58.1698         estimate D2E/DX2                !
 ! D55   D(11,8,9,25)         -174.9609         estimate D2E/DX2                !
 ! D56   D(12,8,9,10)         -177.6097         estimate D2E/DX2                !
 ! D57   D(12,8,9,24)           62.2955         estimate D2E/DX2                !
 ! D58   D(12,8,9,25)          -54.4956         estimate D2E/DX2                !
 ! D59   D(7,8,11,26)           59.0211         estimate D2E/DX2                !
 ! D60   D(7,8,11,27)          -61.1042         estimate D2E/DX2                !
 ! D61   D(7,8,11,28)          179.0738         estimate D2E/DX2                !
 ! D62   D(9,8,11,26)          -59.0361         estimate D2E/DX2                !
 ! D63   D(9,8,11,27)         -179.1613         estimate D2E/DX2                !
 ! D64   D(9,8,11,28)           61.0167         estimate D2E/DX2                !
 ! D65   D(12,8,11,26)         179.9744         estimate D2E/DX2                !
 ! D66   D(12,8,11,27)          59.8492         estimate D2E/DX2                !
 ! D67   D(12,8,11,28)         -59.9728         estimate D2E/DX2                !
 ! D68   D(7,8,12,29)          -58.7326         estimate D2E/DX2                !
 ! D69   D(7,8,12,30)         -178.6926         estimate D2E/DX2                !
 ! D70   D(7,8,12,31)           61.1737         estimate D2E/DX2                !
 ! D71   D(9,8,12,29)           58.954          estimate D2E/DX2                !
 ! D72   D(9,8,12,30)          -61.006          estimate D2E/DX2                !
 ! D73   D(9,8,12,31)          178.8603         estimate D2E/DX2                !
 ! D74   D(11,8,12,29)        -179.9359         estimate D2E/DX2                !
 ! D75   D(11,8,12,30)          60.104          estimate D2E/DX2                !
 ! D76   D(11,8,12,31)         -60.0297         estimate D2E/DX2                !
 ! D77   D(8,9,10,5)            55.572          estimate D2E/DX2                !
 ! D78   D(24,9,10,5)          176.2215         estimate D2E/DX2                !
 ! D79   D(25,9,10,5)          -68.3109         estimate D2E/DX2                !
 --------------------------------------------------------------------------------
 Trust Radius=3.00D-01 FncErr=1.00D-07 GrdErr=1.00D-06
 Number of steps in this run= 179 maximum allowed number of steps= 186.
 GradGradGradGradGradGradGradGradGradGradGradGradGradGradGradGradGradGrad

 Leave Link  103 at Tue Oct  5 16:43:30 2021, MaxMem= 1342177280 cpu:       0.0
 (Enter /sw/target/amd/app/gaussian/Gaussian09RevA.02_gcc-4.9.2/g09/l202.exe)
                          Input orientation:                          
 ---------------------------------------------------------------------
 Center     Atomic      Atomic             Coordinates (Angstroms)
 Number     Number       Type             X           Y           Z
 ---------------------------------------------------------------------
      1          6           0        8.131635    0.263900    1.115023
      2          6           0        6.763455    0.164154    0.446364
      3          6           0        6.366191    1.493793   -0.207134
      4          6           0        4.987273    1.383796   -0.867300
      5          5           0        4.561871    2.760030   -1.550442
      6          8           0        4.310489    2.839921   -3.004549
      7          6           0        5.192415    3.802578   -3.554994
      8          6           0        5.073282    5.183151   -2.847379
      9          6           0        5.369342    4.949509   -1.338411
     10          8           0        4.482817    4.006669   -0.761084
     11          6           0        3.653114    5.759419   -3.029915
     12          6           0        6.097828    6.167021   -3.439725
     13          1           0        8.391403   -0.711841    1.577235
     14          1           0        8.117357    1.040600    1.909145
     15          1           0        8.910266    0.521269    0.365721
     16          1           0        6.009564   -0.114712    1.214378
     17          1           0        6.798842   -0.634995   -0.326052
     18          1           0        7.125207    1.767113   -0.973797
     19          1           0        6.341267    2.288447    0.572148
     20          1           0        4.225069    1.122499   -0.102816
     21          1           0        5.005042    0.591432   -1.646062
     22          1           0        4.949883    3.922346   -4.633183
     23          1           0        6.239446    3.418797   -3.511667
     24          1           0        5.262654    5.910464   -0.790485
     25          1           0        6.424240    4.618589   -1.182872
     26          1           0        2.883015    5.075746   -2.614092
     27          1           0        3.431506    5.913899   -4.107872
     28          1           0        3.561601    6.737721   -2.510929
     29          1           0        7.130753    5.774271   -3.321924
     30          1           0        6.037751    7.150286   -2.925352
     31          1           0        5.906384    6.324276   -4.523236
 ---------------------------------------------------------------------
                    Distance matrix (angstroms):
                    1          2          3          4          5
     1  C    0.000000
     2  C    1.526097   0.000000
     3  C    2.525376   1.533889   0.000000
     4  C    3.882111   2.523502   1.532754   0.000000
     5  B    5.106720   3.946236   2.581358   1.594262   0.000000
     6  O    6.181255   5.008550   3.723373   2.673232   1.477836
     7  C    6.555174   5.631799   4.232778   3.621642   2.345788
     8  C    7.018061   6.236646   4.717401   4.285232   2.795550
     9  C    5.966953   5.294204   3.770341   3.616937   2.343242
    10  O    5.553554   4.628624   3.188810   2.673055   1.477649
    11  C    8.212087   7.284622   5.790030   5.059936   3.465690
    12  C    7.728450   7.181863   5.688649   5.543460   4.187618
    13  H    1.110491   2.167130   3.485724   4.685675   6.041653
    14  H    1.110899   2.177369   2.783990   4.198078   5.250397
    15  H    1.110836   2.177804   2.783214   4.201687   5.252835
    16  H    2.157870   1.111739   2.176044   2.761157   4.243134
    17  H    2.158946   1.111989   2.175561   2.765908   4.246100
    18  H    2.763280   2.171912   1.112916   2.174635   2.808753
    19  H    2.756614   2.169489   1.113273   2.173409   2.809632
    20  H    4.181098   2.768290   2.175579   1.110705   2.211462
    21  H    4.184071   2.766375   2.176579   1.111138   2.215482
    22  H    7.519949   6.573800   5.243444   4.541752   3.317351
    23  H    5.911008   5.151048   3.826440   3.563965   2.663576
    24  H    6.614053   6.066488   4.589671   4.535688   3.315701
    25  H    5.211414   4.755152   3.274109   3.553639   2.656646
    26  H    8.037921   6.967635   5.545841   4.594527   3.051630
    27  H    9.016226   8.056210   6.585247   5.783040   4.214862
    28  H    8.714533   7.887282   6.377459   5.779149   4.212493
    29  H    7.145100   6.768184   5.348736   5.467720   4.338543
    30  H    8.254168   7.791094   6.284306   6.212205   4.831454
    31  H    8.571456   7.961068   6.494131   6.214417   4.832087
                    6          7          8          9         10
     6  O    0.000000
     7  C    1.416860   0.000000
     8  C    2.469267   1.555922   0.000000
     9  C    2.889211   2.501998   1.555385   0.000000
    10  O    2.534587   2.889830   2.466858   1.417103   0.000000
    11  C    2.992699   2.544481   1.543464   2.542159   2.984649
    12  C    3.801783   2.534492   1.539016   2.535459   3.801382
    13  H    7.089542   7.546739   8.083196   7.048739   6.558133
    14  H    6.471026   6.785324   7.003687   5.777350   5.397923
    15  H    6.155714   6.321504   6.839561   5.920432   5.746303
    16  H    5.423657   6.225737   6.741057   5.707272   4.818629
    17  H    5.043936   5.718280   6.571565   5.852779   5.205600
    18  H    3.632837   3.813316   4.403410   3.652896   3.470314
    19  H    4.149812   4.543760   4.656206   3.417035   2.860705
    20  H    3.372964   4.476172   4.974031   4.181155   2.969543
    21  H    2.717277   3.740400   4.746757   4.384085   3.566476
    22  H    2.057405   1.111601   2.189510   3.476569   3.901079
    23  H    2.076810   1.115992   2.216791   2.796999   3.316180
    24  H    3.903451   3.477158   2.189900   1.111324   2.057534
    25  H    3.309094   2.794678   2.216844   1.116472   2.078816
    26  H    2.681240   2.799926   2.205274   2.797341   2.671316
    27  H    3.382199   2.804309   2.195055   3.514992   3.992965
    28  H    3.999666   3.516346   2.194326   2.800076   3.371830
    29  H    4.082282   2.774716   2.192671   2.777972   4.085816
    30  H    4.644238   3.509728   2.192236   2.794382   4.121190
    31  H    4.122380   2.793959   2.191968   3.510201   4.642374
                   11         12         13         14         15
    11  C    0.000000
    12  C    2.512113   0.000000
    13  H    9.249563   8.817546   0.000000
    14  H    8.160332   7.679134   1.804526   0.000000
    15  H    8.161262   7.366528   1.804867   1.811232   0.000000
    16  H    7.620518   7.818481   2.482213   2.502046   3.088488
    17  H    7.622008   7.513575   2.482873   3.089046   2.504717
    18  H    5.676403   5.147378   3.775742   3.134252   2.555948
    19  H    5.678791   5.585492   3.770276   2.549349   3.124945
    20  H    5.513262   6.331618   4.852392   4.382305   4.746796
    21  H    5.518229   5.958071   4.853412   4.746341   4.393514
    22  H    2.761687   2.789388   8.478740   7.819169   7.227793
    23  H    3.521322   2.752811   6.898551   6.210280   5.528389
    24  H    2.761970   2.789591   7.697408   6.257229   6.609486
    25  H    3.520255   2.756369   6.316756   5.022870   5.036516
    26  H    1.110572   3.493935   9.022512   8.008771   8.120979
    27  H    1.111291   2.760393  10.040988   9.050455   8.894397
    28  H    1.111214   2.760581   9.774254   8.529311   8.690661
    29  H    3.489909   1.111334   8.225609   7.123561   6.660287
    30  H    2.762596   1.111305   9.360877   8.063832   7.938915
    31  H    2.761575   1.111474   9.638361   8.612848   8.160888
                   16         17         18         19         20
    16  H    0.000000
    17  H    1.807368   0.000000
    18  H    3.094194   2.509226   0.000000
    19  H    2.509514   3.092354   1.810054   0.000000
    20  H    2.539708   3.124569   3.095955   2.508646   0.000000
    21  H    3.112848   2.542492   2.515804   3.096097   1.808868
    22  H    7.184339   6.537536   4.771600   5.630368   5.374823
    23  H    5.905424   5.185971   3.154903   4.238585   4.577222
    24  H    6.393755   6.739333   4.546434   4.017360   4.947128
    25  H    5.321927   5.336161   2.943804   2.918312   4.269136
    26  H    7.167520   7.292557   5.624394   5.466321   4.871937
    27  H    8.444932   8.278232   6.376652   6.596454   6.295056
    28  H    8.174734   8.343282   6.306267   6.085059   6.145723
    29  H    7.517661   7.082663   4.644464   5.285646   6.359610
    30  H    8.361720   8.242950   5.828351   5.996841   6.898314
    31  H    8.625047   8.175836   5.903540   6.514597   7.030321
                   21         22         23         24         25
    21  H    0.000000
    22  H    4.474474   0.000000
    23  H    3.605306   1.781665   0.000000
    24  H    5.393560   4.337830   3.816722   0.000000
    25  H    4.294958   3.816166   2.626202   1.781065   0.000000
    26  H    5.054617   3.111110   3.849254   3.112070   3.846772
    27  H    6.071670   2.558848   3.803357   3.789218   4.380629
    28  H    6.372471   3.789146   4.380364   2.556924   3.801204
    29  H    5.847135   3.147256   2.525607   3.149053   2.531858
    30  H    6.761778   3.810478   3.782652   2.587584   3.097596
    31  H    6.477349   2.587712   3.094513   3.810388   3.786235
                   26         27         28         29         30
    26  H    0.000000
    27  H    1.798534   0.000000
    28  H    1.798133   1.801620   0.000000
    29  H    4.362597   3.784395   3.784811   0.000000
    30  H    3.788530   3.117614   2.544263   1.801483   0.000000
    31  H    3.787403   2.542825   3.117422   1.801315   1.803547
                   31
    31  H    0.000000
 Stoichiometry    C9H19BO2
 Framework group  C1[X(C9H19BO2)]
 Deg. of freedom    87
 Full point group                 C1      NOp   1
 Largest Abelian subgroup         C1      NOp   1
 Largest concise Abelian subgroup C1      NOp   1
                         Standard orientation:                         
 ---------------------------------------------------------------------
 Center     Atomic      Atomic             Coordinates (Angstroms)
 Number     Number       Type             X           Y           Z
 ---------------------------------------------------------------------
      1          6           0        4.650549    1.184077   -0.165402
      2          6           0        3.887436   -0.137009   -0.128510
      3          6           0        2.380199    0.096389    0.034521
      4          6           0        1.625886   -1.237162    0.079141
      5          5           0        0.057227   -1.008725    0.248832
      6          8           0       -0.893980   -1.478300   -0.780102
      7          6           0       -1.627110   -0.360483   -1.249670
      8          6           0       -2.324748    0.413777   -0.094371
      9          6           0       -1.211140    0.850994    0.899582
     10          8           0       -0.479761   -0.254595    1.400517
     11          6           0       -3.350051   -0.493747    0.617974
     12          6           0       -3.048279    1.651643   -0.653618
     13          1           0        5.736135    0.982967   -0.284768
     14          1           0        4.495215    1.746008    0.780220
     15          1           0        4.307521    1.804917   -1.020298
     16          1           0        4.265618   -0.744804    0.722093
     17          1           0        4.079058   -0.688765   -1.074747
     18          1           0        2.008731    0.705785   -0.819428
     19          1           0        2.199374    0.655855    0.979866
     20          1           0        1.985926   -1.843333    0.937392
     21          1           0        1.802808   -1.801221   -0.861690
     22          1           0       -2.397610   -0.723215   -1.964102
     23          1           0       -0.952863    0.311073   -1.832630
     24          1           0       -1.674241    1.381896    1.759071
     25          1           0       -0.512259    1.580252    0.423914
     26          1           0       -2.864888   -1.401026    1.036103
     27          1           0       -4.139608   -0.820948   -0.092312
     28          1           0       -3.837131    0.052728    1.453985
     29          1           0       -2.330860    2.322427   -1.173639
     30          1           0       -3.530905    2.225695    0.166465
     31          1           0       -3.832676    1.349626   -1.380862
 ---------------------------------------------------------------------
 Rotational constants (GHZ):      1.8664534      0.4114399      0.3916851
 Leave Link  202 at Tue Oct  5 16:43:30 2021, MaxMem= 1342177280 cpu:       0.0
 (Enter /sw/target/amd/app/gaussian/Gaussian09RevA.02_gcc-4.9.2/g09/l301.exe)
 Standard basis: 6-31G(d) (6D, 7F)
 Ernie: Thresh=  0.10000D-02 Tol=  0.10000D-05 Strict=F.
 There are   218 symmetry adapted basis functions of A   symmetry.
 Integral buffers will be    131072 words long.
 Raffenetti 2 integral format.
 Two-electron integral symmetry is turned on.
   218 basis functions,   412 primitive gaussians,   218 cartesian basis functions
    47 alpha electrons       47 beta electrons
       nuclear repulsion energy       735.4058165200 Hartrees.
 IExCor=  402 DFT=T Ex+Corr=B3LYP ExCW=0 ScaHFX=  0.200000
 ScaDFX=  0.800000  0.720000  1.000000  0.810000 ScalE2=  1.000000  1.000000
 IRadAn=      0 IRanWt=     -1 IRanGd=            0 ICorTp=0
 NAtoms=   31 NActive=   31 NUniq=   31 SFac= 7.50D-01 NAtFMM=   80 NAOKFM=F Big=F
 Leave Link  301 at Tue Oct  5 16:43:30 2021, MaxMem= 1342177280 cpu:       0.1
 (Enter /sw/target/amd/app/gaussian/Gaussian09RevA.02_gcc-4.9.2/g09/l302.exe)
 NPDir=0 NMtPBC=     1 NCelOv=     1 NCel=       1 NClECP=     1 NCelD=      1
         NCelK=      1 NCelE2=     1 NClLst=     1 CellRange=     0.0.
 One-electron integrals computed using PRISM.
 NBasis=   218 RedAO= T  NBF=   218
 NBsUse=   218 1.00D-06 NBFU=   218
 Precomputing XC quadrature grid using
 IXCGrd= 2 IRadAn=           0 IRanWt=          -1 IRanGd=           0 AccXCQ= 1.00D-10.
 NRdTot=    1963 NPtTot=      250284 NUsed=      264441 NTot=      264473
 NSgBfM=   216   216   216   216   216 NAtAll=    31    31.
 Leave Link  302 at Tue Oct  5 16:43:31 2021, MaxMem= 1342177280 cpu:       2.3
 (Enter /sw/target/amd/app/gaussian/Gaussian09RevA.02_gcc-4.9.2/g09/l303.exe)
 DipDrv:  MaxL=1.
 Leave Link  303 at Tue Oct  5 16:43:31 2021, MaxMem= 1342177280 cpu:       0.1
 (Enter /sw/target/amd/app/gaussian/Gaussian09RevA.02_gcc-4.9.2/g09/l401.exe)
 Harris functional with IExCor=  402 diagonalized for initial guess.
 ExpMin= 1.27D-01 ExpMax= 5.48D+03 ExpMxC= 8.25D+02 IAcc=1 IRadAn=         1 AccDes= 0.00D+00
 HarFok:  IExCor=  402 AccDes= 0.00D+00 IRadAn=         1 IDoV= 1
 ScaDFX=  1.000000  1.000000  1.000000  1.000000
 FoFCou: FMM=F IPFlag=           0 FMFlag=      100000 FMFlg1=           0
         NFxFlg=           0 DoJE=T BraDBF=F KetDBF=T FulRan=T
         Omega=  0.000000  0.000000  1.000000  0.000000  0.000000 ICntrl=     500 IOpCl=  0
         NMat0=    1 NMatS0=    1 NMatT0=    0 NMatD0=    1 NMtDS0=    0 NMtDT0=    0
         I1Cent=           4 NGrid=           0.
 Petite list used in FoFCou.
 Harris En= -529.885778577846    
 Initial guess orbital symmetries:
       Occupied  (A) (A) (A) (A) (A) (A) (A) (A) (A) (A) (A) (A)
                 (A) (A) (A) (A) (A) (A) (A) (A) (A) (A) (A) (A)
                 (A) (A) (A) (A) (A) (A) (A) (A) (A) (A) (A) (A)
                 (A) (A) (A) (A) (A) (A) (A) (A) (A) (A) (A)
       Virtual   (A) (A) (A) (A) (A) (A) (A) (A) (A) (A) (A) (A)
                 (A) (A) (A) (A) (A) (A) (A) (A) (A) (A) (A) (A)
                 (A) (A) (A) (A) (A) (A) (A) (A) (A) (A) (A) (A)
                 (A) (A) (A) (A) (A) (A) (A) (A) (A) (A) (A) (A)
                 (A) (A) (A) (A) (A) (A) (A) (A) (A) (A) (A) (A)
                 (A) (A) (A) (A) (A) (A) (A) (A) (A) (A) (A) (A)
                 (A) (A) (A) (A) (A) (A) (A) (A) (A) (A) (A) (A)
                 (A) (A) (A) (A) (A) (A) (A) (A) (A) (A) (A) (A)
                 (A) (A) (A) (A) (A) (A) (A) (A) (A) (A) (A) (A)
                 (A) (A) (A) (A) (A) (A) (A) (A) (A) (A) (A) (A)
                 (A) (A) (A) (A) (A) (A) (A) (A) (A) (A) (A) (A)
                 (A) (A) (A) (A) (A) (A) (A) (A) (A) (A) (A) (A)
                 (A) (A) (A) (A) (A) (A) (A) (A) (A) (A) (A) (A)
                 (A) (A) (A) (A) (A) (A) (A) (A) (A) (A) (A) (A)
                 (A) (A) (A)
 The electronic state of the initial guess is 1-A.
 Leave Link  401 at Tue Oct  5 16:43:33 2021, MaxMem= 1342177280 cpu:       8.6
 (Enter /sw/target/amd/app/gaussian/Gaussian09RevA.02_gcc-4.9.2/g09/l502.exe)
 Closed shell SCF:
 Requested convergence on RMS density matrix=1.00D-08 within  64 cycles.
 Requested convergence on MAX density matrix=1.00D-06.
 Requested convergence on             energy=1.00D-06.
 No special actions if energy rises.
 Using DIIS extrapolation, IDIIS=  1040.
 Integral symmetry usage will be decided dynamically.
       264149 words used for storage of precomputed grid.
 Keep R1 ints in memory in canonical form, NReq=290591131.
 IEnd=      415241 IEndB=      415241 NGot=  1342177280 MDV=  1056889722
 LenX=  1056889722 LenY=  1056841757
 Symmetry not used in FoFDir.
 MinBra= 0 MaxBra= 2 Meth= 1.
 IRaf=       0 NMat=   1 IRICut=       1 DoRegI=T DoRafI=F ISym2E= 0 JSym2E=0.
 Integral accuracy reduced to 1.0D-05 until final iterations.

 Cycle   1  Pass 0  IDiag  1:
 E= -529.345047394395    
 DIIS: error= 4.56D-02 at cycle   1 NSaved=   1.
 NSaved= 1 IEnMin= 1 EnMin= -529.345047394395     IErMin= 1 ErrMin= 4.56D-02
 ErrMax= 4.56D-02 EMaxC= 1.00D-01 BMatC= 4.16D-01 BMatP= 4.16D-01
 IDIUse=3 WtCom= 5.44D-01 WtEn= 4.56D-01
 Coeff-Com:  0.100D+01
 Coeff-En:   0.100D+01
 Coeff:      0.100D+01
 Gap=     0.167 Goal=   None    Shift=    0.000
 GapD=    0.167 DampG=1.000 DampE=0.500 DampFc=0.5000 IDamp=-1.
 Damping current iteration by 5.00D-01
 RMSDP=6.63D-03 MaxDP=1.40D-01              OVMax= 1.99D-01

 Cycle   2  Pass 0  IDiag  1:
 E= -529.523750455390     Delta-E=       -0.178703060994 Rises=F Damp=T
 DIIS: error= 7.46D-03 at cycle   2 NSaved=   2.
 NSaved= 2 IEnMin= 2 EnMin= -529.523750455390     IErMin= 2 ErrMin= 7.46D-03
 ErrMax= 7.46D-03 EMaxC= 1.00D-01 BMatC= 2.23D-02 BMatP= 4.16D-01
 IDIUse=3 WtCom= 9.25D-01 WtEn= 7.46D-02
 Coeff-Com:  0.113D+00 0.887D+00
 Coeff-En:   0.179D+00 0.821D+00
 Coeff:      0.118D+00 0.882D+00
 Gap=     0.259 Goal=   None    Shift=    0.000
 RMSDP=1.08D-03 MaxDP=2.43D-02 DE=-1.79D-01 OVMax= 1.44D-01

 Cycle   3  Pass 0  IDiag  1:
 E= -529.767139588393     Delta-E=       -0.243389133003 Rises=F Damp=F
 DIIS: error= 3.52D-03 at cycle   3 NSaved=   3.
 NSaved= 3 IEnMin= 3 EnMin= -529.767139588393     IErMin= 3 ErrMin= 3.52D-03
 ErrMax= 3.52D-03 EMaxC= 1.00D-01 BMatC= 6.91D-03 BMatP= 2.23D-02
 IDIUse=3 WtCom= 9.65D-01 WtEn= 3.52D-02
 Coeff-Com:  0.207D-01 0.334D+00 0.646D+00
 Coeff-En:   0.000D+00 0.000D+00 0.100D+01
 Coeff:      0.200D-01 0.322D+00 0.658D+00
 Gap=     0.244 Goal=   None    Shift=    0.000
 RMSDP=4.72D-04 MaxDP=1.49D-02 DE=-2.43D-01 OVMax= 2.42D-02

 Cycle   4  Pass 0  IDiag  1:
 E= -529.770793207315     Delta-E=       -0.003653618922 Rises=F Damp=F
 DIIS: error= 2.30D-03 at cycle   4 NSaved=   4.
 NSaved= 4 IEnMin= 4 EnMin= -529.770793207315     IErMin= 4 ErrMin= 2.30D-03
 ErrMax= 2.30D-03 EMaxC= 1.00D-01 BMatC= 2.63D-03 BMatP= 6.91D-03
 IDIUse=3 WtCom= 9.77D-01 WtEn= 2.30D-02
 Coeff-Com: -0.123D-02 0.615D-01 0.385D+00 0.554D+00
 Coeff-En:   0.000D+00 0.000D+00 0.279D+00 0.721D+00
 Coeff:     -0.120D-02 0.600D-01 0.383D+00 0.558D+00
 Gap=     0.250 Goal=   None    Shift=    0.000
 RMSDP=2.15D-04 MaxDP=7.04D-03 DE=-3.65D-03 OVMax= 9.00D-03

 Cycle   5  Pass 0  IDiag  1:
 E= -529.772826937599     Delta-E=       -0.002033730284 Rises=F Damp=F
 DIIS: error= 4.31D-04 at cycle   5 NSaved=   5.
 NSaved= 5 IEnMin= 5 EnMin= -529.772826937599     IErMin= 5 ErrMin= 4.31D-04
 ErrMax= 4.31D-04 EMaxC= 1.00D-01 BMatC= 9.86D-05 BMatP= 2.63D-03
 IDIUse=3 WtCom= 9.96D-01 WtEn= 4.31D-03
 Coeff-Com: -0.145D-02 0.819D-02 0.134D+00 0.257D+00 0.602D+00
 Coeff-En:   0.000D+00 0.000D+00 0.000D+00 0.000D+00 0.100D+01
 Coeff:     -0.145D-02 0.815D-02 0.133D+00 0.256D+00 0.604D+00
 Gap=     0.250 Goal=   None    Shift=    0.000
 RMSDP=6.02D-05 MaxDP=2.00D-03 DE=-2.03D-03 OVMax= 1.96D-03

 Cycle   6  Pass 0  IDiag  1:
 E= -529.772908055026     Delta-E=       -0.000081117427 Rises=F Damp=F
 DIIS: error= 1.77D-04 at cycle   6 NSaved=   6.
 NSaved= 6 IEnMin= 6 EnMin= -529.772908055026     IErMin= 6 ErrMin= 1.77D-04
 ErrMax= 1.77D-04 EMaxC= 1.00D-01 BMatC= 8.54D-06 BMatP= 9.86D-05
 IDIUse=3 WtCom= 9.98D-01 WtEn= 1.77D-03
 Coeff-Com: -0.537D-03-0.785D-04 0.426D-01 0.949D-01 0.312D+00 0.551D+00
 Coeff-En:   0.000D+00 0.000D+00 0.000D+00 0.000D+00 0.000D+00 0.100D+01
 Coeff:     -0.536D-03-0.784D-04 0.426D-01 0.947D-01 0.311D+00 0.552D+00
 Gap=     0.250 Goal=   None    Shift=    0.000
 RMSDP=1.33D-05 MaxDP=4.30D-04 DE=-8.11D-05 OVMax= 4.59D-04

 Cycle   7  Pass 0  IDiag  1:
 E= -529.772915969717     Delta-E=       -0.000007914691 Rises=F Damp=F
 DIIS: error= 1.96D-05 at cycle   7 NSaved=   7.
 NSaved= 7 IEnMin= 7 EnMin= -529.772915969717     IErMin= 7 ErrMin= 1.96D-05
 ErrMax= 1.96D-05 EMaxC= 1.00D-01 BMatC= 1.21D-07 BMatP= 8.54D-06
 IDIUse=1 WtCom= 1.00D+00 WtEn= 0.00D+00
 Coeff-Com: -0.118D-03-0.385D-03 0.937D-02 0.231D-01 0.860D-01 0.190D+00
 Coeff-Com:  0.692D+00
 Coeff:     -0.118D-03-0.385D-03 0.937D-02 0.231D-01 0.860D-01 0.190D+00
 Coeff:      0.692D+00
 Gap=     0.250 Goal=   None    Shift=    0.000
 RMSDP=2.39D-06 MaxDP=6.80D-05 DE=-7.91D-06 OVMax= 7.10D-05

 Initial convergence to 1.0D-05 achieved.  Increase integral accuracy.
 Cycle   8  Pass 1  IDiag  1:
 E= -529.772996892337     Delta-E=       -0.000080922620 Rises=F Damp=F
 DIIS: error= 2.72D-05 at cycle   1 NSaved=   1.
 NSaved= 1 IEnMin= 1 EnMin= -529.772996892337     IErMin= 1 ErrMin= 2.72D-05
 ErrMax= 2.72D-05 EMaxC= 1.00D-01 BMatC= 2.66D-07 BMatP= 2.66D-07
 IDIUse=1 WtCom= 1.00D+00 WtEn= 0.00D+00
 Coeff-Com:  0.100D+01
 Coeff:      0.100D+01
 Gap=     0.250 Goal=   None    Shift=    0.000
 RMSDP=2.39D-06 MaxDP=6.80D-05 DE=-8.09D-05 OVMax= 1.77D-04

 Cycle   9  Pass 1  IDiag  1:
 E= -529.772997226437     Delta-E=       -0.000000334100 Rises=F Damp=F
 DIIS: error= 6.98D-06 at cycle   2 NSaved=   2.
 NSaved= 2 IEnMin= 2 EnMin= -529.772997226437     IErMin= 2 ErrMin= 6.98D-06
 ErrMax= 6.98D-06 EMaxC= 1.00D-01 BMatC= 3.30D-08 BMatP= 2.66D-07
 IDIUse=1 WtCom= 1.00D+00 WtEn= 0.00D+00
 Coeff-Com:  0.138D+00 0.862D+00
 Coeff:      0.138D+00 0.862D+00
 Gap=     0.250 Goal=   None    Shift=    0.000
 RMSDP=1.72D-06 MaxDP=4.65D-05 DE=-3.34D-07 OVMax= 6.31D-05

 Cycle  10  Pass 1  IDiag  1:
 E= -529.772997223915     Delta-E=        0.000000002522 Rises=F Damp=F
 DIIS: error= 7.83D-06 at cycle   3 NSaved=   3.
 NSaved= 3 IEnMin= 2 EnMin= -529.772997226437     IErMin= 2 ErrMin= 6.98D-06
 ErrMax= 7.83D-06 EMaxC= 1.00D-01 BMatC= 4.02D-08 BMatP= 3.30D-08
 IDIUse=1 WtCom= 1.00D+00 WtEn= 0.00D+00
 Coeff-Com: -0.158D-01 0.530D+00 0.486D+00
 Coeff:     -0.158D-01 0.530D+00 0.486D+00
 Gap=     0.250 Goal=   None    Shift=    0.000
 RMSDP=8.66D-07 MaxDP=3.49D-05 DE= 2.52D-09 OVMax= 4.01D-05

 Cycle  11  Pass 1  IDiag  1:
 E= -529.772997255570     Delta-E=       -0.000000031655 Rises=F Damp=F
 DIIS: error= 2.53D-06 at cycle   4 NSaved=   4.
 NSaved= 4 IEnMin= 4 EnMin= -529.772997255570     IErMin= 4 ErrMin= 2.53D-06
 ErrMax= 2.53D-06 EMaxC= 1.00D-01 BMatC= 1.92D-09 BMatP= 3.30D-08
 IDIUse=1 WtCom= 1.00D+00 WtEn= 0.00D+00
 Coeff-Com: -0.150D-01 0.266D+00 0.280D+00 0.468D+00
 Coeff:     -0.150D-01 0.266D+00 0.280D+00 0.468D+00
 Gap=     0.250 Goal=   None    Shift=    0.000
 RMSDP=2.03D-07 MaxDP=7.41D-06 DE=-3.17D-08 OVMax= 8.76D-06

 Cycle  12  Pass 1  IDiag  1:
 E= -529.772997257093     Delta-E=       -0.000000001523 Rises=F Damp=F
 DIIS: error= 2.36D-07 at cycle   5 NSaved=   5.
 NSaved= 5 IEnMin= 5 EnMin= -529.772997257093     IErMin= 5 ErrMin= 2.36D-07
 ErrMax= 2.36D-07 EMaxC= 1.00D-01 BMatC= 3.37D-11 BMatP= 1.92D-09
 IDIUse=1 WtCom= 1.00D+00 WtEn= 0.00D+00
 Coeff-Com: -0.483D-02 0.748D-01 0.813D-01 0.181D+00 0.668D+00
 Coeff:     -0.483D-02 0.748D-01 0.813D-01 0.181D+00 0.668D+00
 Gap=     0.250 Goal=   None    Shift=    0.000
 RMSDP=3.23D-08 MaxDP=1.08D-06 DE=-1.52D-09 OVMax= 1.25D-06

 Cycle  13  Pass 1  IDiag  1:
 E= -529.772997257129     Delta-E=       -0.000000000035 Rises=F Damp=F
 DIIS: error= 1.14D-07 at cycle   6 NSaved=   6.
 NSaved= 6 IEnMin= 6 EnMin= -529.772997257129     IErMin= 6 ErrMin= 1.14D-07
 ErrMax= 1.14D-07 EMaxC= 1.00D-01 BMatC= 6.45D-12 BMatP= 3.37D-11
 IDIUse=1 WtCom= 1.00D+00 WtEn= 0.00D+00
 Coeff-Com: -0.839D-03 0.895D-02 0.105D-01 0.407D-01 0.344D+00 0.596D+00
 Coeff:     -0.839D-03 0.895D-02 0.105D-01 0.407D-01 0.344D+00 0.596D+00
 Gap=     0.250 Goal=   None    Shift=    0.000
 RMSDP=1.37D-08 MaxDP=5.01D-07 DE=-3.55D-11 OVMax= 4.83D-07

 Cycle  14  Pass 1  IDiag  1:
 E= -529.772997257139     Delta-E=       -0.000000000010 Rises=F Damp=F
 DIIS: error= 2.96D-08 at cycle   7 NSaved=   7.
 NSaved= 7 IEnMin= 7 EnMin= -529.772997257139     IErMin= 7 ErrMin= 2.96D-08
 ErrMax= 2.96D-08 EMaxC= 1.00D-01 BMatC= 4.18D-13 BMatP= 6.45D-12
 IDIUse=1 WtCom= 1.00D+00 WtEn= 0.00D+00
 Coeff-Com: -0.617D-04-0.126D-02-0.109D-02 0.483D-02 0.106D+00 0.277D+00
 Coeff-Com:  0.614D+00
 Coeff:     -0.617D-04-0.126D-02-0.109D-02 0.483D-02 0.106D+00 0.277D+00
 Coeff:      0.614D+00
 Gap=     0.250 Goal=   None    Shift=    0.000
 RMSDP=3.62D-09 MaxDP=1.48D-07 DE=-9.78D-12 OVMax= 1.42D-07

 SCF Done:  E(RB3LYP) =  -529.772997257     A.U. after   14 cycles
             Convg  =    0.3619D-08             -V/T =  2.0107
 KE= 5.241716670252D+02 PE=-2.701433578705D+03 EE= 9.120830979027D+02
 Leave Link  502 at Tue Oct  5 16:44:31 2021, MaxMem= 1342177280 cpu:     162.7
 (Enter /sw/target/amd/app/gaussian/Gaussian09RevA.02_gcc-4.9.2/g09/l508.exe)
 QCSCF skips out because SCF is already converged.
 Leave Link  508 at Tue Oct  5 16:44:31 2021, MaxMem= 1342177280 cpu:       0.0
 (Enter /sw/target/amd/app/gaussian/Gaussian09RevA.02_gcc-4.9.2/g09/l601.exe)
 Copying SCF densities to generalized density rwf, IOpCl= 0 IROHF=0.

 **********************************************************************

            Population analysis using the SCF density.

 **********************************************************************

 Orbital symmetries:
       Occupied  (A) (A) (A) (A) (A) (A) (A) (A) (A) (A) (A) (A)
                 (A) (A) (A) (A) (A) (A) (A) (A) (A) (A) (A) (A)
                 (A) (A) (A) (A) (A) (A) (A) (A) (A) (A) (A) (A)
                 (A) (A) (A) (A) (A) (A) (A) (A) (A) (A) (A)
       Virtual   (A) (A) (A) (A) (A) (A) (A) (A) (A) (A) (A) (A)
                 (A) (A) (A) (A) (A) (A) (A) (A) (A) (A) (A) (A)
                 (A) (A) (A) (A) (A) (A) (A) (A) (A) (A) (A) (A)
                 (A) (A) (A) (A) (A) (A) (A) (A) (A) (A) (A) (A)
                 (A) (A) (A) (A) (A) (A) (A) (A) (A) (A) (A) (A)
                 (A) (A) (A) (A) (A) (A) (A) (A) (A) (A) (A) (A)
                 (A) (A) (A) (A) (A) (A) (A) (A) (A) (A) (A) (A)
                 (A) (A) (A) (A) (A) (A) (A) (A) (A) (A) (A) (A)
                 (A) (A) (A) (A) (A) (A) (A) (A) (A) (A) (A) (A)
                 (A) (A) (A) (A) (A) (A) (A) (A) (A) (A) (A) (A)
                 (A) (A) (A) (A) (A) (A) (A) (A) (A) (A) (A) (A)
                 (A) (A) (A) (A) (A) (A) (A) (A) (A) (A) (A) (A)
                 (A) (A) (A) (A) (A) (A) (A) (A) (A) (A) (A) (A)
                 (A) (A) (A) (A) (A) (A) (A) (A) (A) (A) (A) (A)
                 (A) (A) (A)
 The electronic state is 1-A.
 Alpha  occ. eigenvalues --  -19.14597 -19.14502 -10.23738 -10.23728 -10.20123
 Alpha  occ. eigenvalues --  -10.18734 -10.18706 -10.18143 -10.17596 -10.17547
 Alpha  occ. eigenvalues --  -10.16681  -6.81327  -1.02591  -0.99249  -0.80971
 Alpha  occ. eigenvalues --   -0.79328  -0.72158  -0.68174  -0.67246  -0.66362
 Alpha  occ. eigenvalues --   -0.62254  -0.57308  -0.56124  -0.50377  -0.47950
 Alpha  occ. eigenvalues --   -0.46815  -0.46619  -0.45969  -0.43472  -0.42154
 Alpha  occ. eigenvalues --   -0.41320  -0.41032  -0.40139  -0.39792  -0.38410
 Alpha  occ. eigenvalues --   -0.36831  -0.36421  -0.36390  -0.35041  -0.33860
 Alpha  occ. eigenvalues --   -0.33299  -0.32722  -0.32391  -0.31086  -0.29803
 Alpha  occ. eigenvalues --   -0.26691  -0.25523
 Alpha virt. eigenvalues --   -0.00542   0.07582   0.08811   0.10005   0.11332
 Alpha virt. eigenvalues --    0.12445   0.12656   0.12757   0.13410   0.14541
 Alpha virt. eigenvalues --    0.15569   0.15820   0.16209   0.17527   0.17870
 Alpha virt. eigenvalues --    0.18110   0.18967   0.19427   0.20400   0.20813
 Alpha virt. eigenvalues --    0.21353   0.21662   0.22562   0.23158   0.24252
 Alpha virt. eigenvalues --    0.25103   0.25569   0.26160   0.27752   0.28508
 Alpha virt. eigenvalues --    0.33488   0.36864   0.47375   0.47894   0.50338
 Alpha virt. eigenvalues --    0.51204   0.51818   0.52251   0.52977   0.53968
 Alpha virt. eigenvalues --    0.55581   0.56350   0.58529   0.58809   0.59284
 Alpha virt. eigenvalues --    0.60604   0.62573   0.64710   0.64933   0.66556
 Alpha virt. eigenvalues --    0.69935   0.72394   0.72581   0.74913   0.75239
 Alpha virt. eigenvalues --    0.75755   0.78604   0.79825   0.81322   0.82657
 Alpha virt. eigenvalues --    0.83657   0.84160   0.84945   0.85872   0.86786
 Alpha virt. eigenvalues --    0.88221   0.89227   0.89453   0.89936   0.90515
 Alpha virt. eigenvalues --    0.90788   0.92324   0.92885   0.93637   0.94023
 Alpha virt. eigenvalues --    0.94705   0.95468   0.95501   0.96547   0.97987
 Alpha virt. eigenvalues --    0.99063   1.03683   1.07418   1.10460   1.10805
 Alpha virt. eigenvalues --    1.16846   1.18482   1.23566   1.24677   1.26815
 Alpha virt. eigenvalues --    1.33330   1.34384   1.37892   1.42473   1.43703
 Alpha virt. eigenvalues --    1.47572   1.48128   1.50463   1.51338   1.53207
 Alpha virt. eigenvalues --    1.55197   1.56715   1.57488   1.60939   1.65090
 Alpha virt. eigenvalues --    1.65343   1.70866   1.73442   1.74438   1.76355
 Alpha virt. eigenvalues --    1.78361   1.81281   1.83628   1.86917   1.88463
 Alpha virt. eigenvalues --    1.90384   1.91919   1.93918   1.96149   1.96724
 Alpha virt. eigenvalues --    1.98891   2.00630   2.03013   2.05362   2.06277
 Alpha virt. eigenvalues --    2.06749   2.08297   2.12435   2.13317   2.16570
 Alpha virt. eigenvalues --    2.19090   2.20593   2.20990   2.22830   2.23664
 Alpha virt. eigenvalues --    2.24084   2.24847   2.30340   2.31076   2.34498
 Alpha virt. eigenvalues --    2.35638   2.38309   2.41249   2.42586   2.44933
 Alpha virt. eigenvalues --    2.48158   2.54387   2.57229   2.58390   2.61709
 Alpha virt. eigenvalues --    2.68211   2.69670   2.71830   2.73681   2.77034
 Alpha virt. eigenvalues --    2.80561   2.83450   2.94685   2.98520   3.65115
 Alpha virt. eigenvalues --    3.97420   4.15263   4.17643   4.18202   4.28157
 Alpha virt. eigenvalues --    4.30065   4.37591   4.40582   4.42498   4.54906
 Alpha virt. eigenvalues --    4.72105
          Condensed to atoms (all electrons):
              1          2          3          4          5          6
     1  C    5.079257   0.364158  -0.048696   0.004699  -0.000162   0.000000
     2  C    0.364158   4.977880   0.384941  -0.047172   0.003204  -0.000017
     3  C   -0.048696   0.384941   4.985389   0.372267  -0.012263  -0.000574
     4  C    0.004699  -0.047172   0.372267   5.143603   0.389377  -0.044613
     5  B   -0.000162   0.003204  -0.012263   0.389377   3.359613   0.366408
     6  O    0.000000  -0.000017  -0.000574  -0.044613   0.366408   8.068072
     7  C   -0.000000   0.000006  -0.000535   0.001875  -0.020650   0.246151
     8  C   -0.000000  -0.000001   0.000017  -0.000600  -0.024151  -0.042611
     9  C   -0.000001   0.000039  -0.000544   0.001138  -0.020900  -0.007666
    10  O    0.000001   0.000076  -0.002385  -0.041831   0.353588  -0.028883
    11  C    0.000000   0.000000   0.000001   0.000045   0.001984   0.000365
    12  C   -0.000000  -0.000000  -0.000000   0.000009   0.001620   0.002606
    13  H    0.368281  -0.029482   0.004692  -0.000182   0.000004  -0.000000
    14  H    0.375816  -0.036031  -0.004825   0.000049  -0.000002   0.000000
    15  H    0.375427  -0.035745  -0.005440   0.000058  -0.000000  -0.000000
    16  H   -0.039422   0.377185  -0.040634  -0.002850   0.000072  -0.000000
    17  H   -0.039721   0.375272  -0.039170  -0.003118  -0.000075  -0.000001
    18  H   -0.002539  -0.041726   0.371922  -0.042895  -0.001896   0.000234
    19  H   -0.002827  -0.039338   0.372619  -0.039420  -0.003547   0.000018
    20  H    0.000159  -0.007102  -0.032627   0.349909  -0.014504   0.001218
    21  H    0.000106  -0.004998  -0.038889   0.359690  -0.024465   0.001325
    22  H    0.000000  -0.000000  -0.000002  -0.000118   0.002703  -0.035916
    23  H   -0.000000   0.000005   0.000522   0.001292  -0.007098  -0.042447
    24  H    0.000000  -0.000000   0.000009  -0.000127   0.002703  -0.000180
    25  H   -0.000000  -0.000050   0.000903   0.001361  -0.006466  -0.000654
    26  H   -0.000000  -0.000000   0.000001   0.000041   0.004291   0.004882
    27  H    0.000000  -0.000000  -0.000000   0.000000  -0.000234  -0.000132
    28  H   -0.000000  -0.000000   0.000000  -0.000000  -0.000222   0.000069
    29  H    0.000000   0.000000  -0.000001   0.000004   0.000050   0.000005
    30  H    0.000000  -0.000000   0.000000  -0.000000  -0.000046  -0.000061
    31  H    0.000000  -0.000000  -0.000000  -0.000000  -0.000046   0.000005
              7          8          9         10         11         12
     1  C   -0.000000  -0.000000  -0.000001   0.000001   0.000000  -0.000000
     2  C    0.000006  -0.000001   0.000039   0.000076   0.000000  -0.000000
     3  C   -0.000535   0.000017  -0.000544  -0.002385   0.000001  -0.000000
     4  C    0.001875  -0.000600   0.001138  -0.041831   0.000045   0.000009
     5  B   -0.020650  -0.024151  -0.020900   0.353588   0.001984   0.001620
     6  O    0.246151  -0.042611  -0.007666  -0.028883   0.000365   0.002606
     7  C    4.926491   0.353706  -0.047478  -0.007125  -0.057105  -0.045202
     8  C    0.353706   4.989066   0.356861  -0.042838   0.354696   0.335893
     9  C   -0.047478   0.356861   4.928267   0.247906  -0.057259  -0.045600
    10  O   -0.007125  -0.042838   0.247906   8.082445   0.000259   0.002615
    11  C   -0.057105   0.354696  -0.057259   0.000259   5.159490  -0.055734
    12  C   -0.045202   0.335893  -0.045600   0.002615  -0.055734   5.175201
    13  H    0.000000   0.000000   0.000000   0.000000  -0.000000   0.000000
    14  H    0.000000  -0.000000  -0.000000  -0.000001  -0.000000   0.000000
    15  H   -0.000000   0.000000  -0.000000   0.000000  -0.000000   0.000000
    16  H   -0.000000  -0.000000  -0.000001   0.000005  -0.000000  -0.000000
    17  H    0.000000   0.000000  -0.000000  -0.000001  -0.000000   0.000000
    18  H    0.000098  -0.000038  -0.000098  -0.000217   0.000001  -0.000003
    19  H    0.000011   0.000077  -0.000230   0.005061  -0.000000  -0.000002
    20  H    0.000017   0.000005   0.000031   0.000151  -0.000000  -0.000000
    21  H   -0.000032   0.000053  -0.000112   0.001338  -0.000000  -0.000001
    22  H    0.366223  -0.033884   0.005557  -0.000185  -0.009056  -0.002742
    23  H    0.356529  -0.049428  -0.008845  -0.000636   0.006761  -0.001102
    24  H    0.005563  -0.033731   0.365720  -0.035949  -0.009110  -0.002738
    25  H   -0.009076  -0.048927   0.355211  -0.042509   0.006721  -0.000989
    26  H   -0.006021  -0.028712  -0.006134   0.005087   0.369900   0.005417
    27  H   -0.004778  -0.030496   0.004899   0.000074   0.365674  -0.004796
    28  H    0.004906  -0.030585  -0.004796  -0.000132   0.365688  -0.004786
    29  H   -0.005311  -0.031519  -0.005244   0.000004   0.006003   0.362361
    30  H    0.004254  -0.026841  -0.004513   0.000005  -0.005046   0.365421
    31  H   -0.004478  -0.026866   0.004266  -0.000062  -0.005103   0.365480
             13         14         15         16         17         18
     1  C    0.368281   0.375816   0.375427  -0.039422  -0.039721  -0.002539
     2  C   -0.029482  -0.036031  -0.035745   0.377185   0.375272  -0.041726
     3  C    0.004692  -0.004825  -0.005440  -0.040634  -0.039170   0.371922
     4  C   -0.000182   0.000049   0.000058  -0.002850  -0.003118  -0.042895
     5  B    0.000004  -0.000002  -0.000000   0.000072  -0.000075  -0.001896
     6  O   -0.000000   0.000000  -0.000000  -0.000000  -0.000001   0.000234
     7  C    0.000000   0.000000  -0.000000  -0.000000   0.000000   0.000098
     8  C    0.000000  -0.000000   0.000000  -0.000000   0.000000  -0.000038
     9  C    0.000000  -0.000000  -0.000000  -0.000001  -0.000000  -0.000098
    10  O    0.000000  -0.000001   0.000000   0.000005  -0.000001  -0.000217
    11  C   -0.000000  -0.000000  -0.000000  -0.000000  -0.000000   0.000001
    12  C    0.000000   0.000000   0.000000  -0.000000   0.000000  -0.000003
    13  H    0.581978  -0.029387  -0.029362  -0.002936  -0.002943  -0.000056
    14  H   -0.029387   0.579578  -0.030417  -0.004497   0.005310  -0.000358
    15  H   -0.029362  -0.030417   0.582461   0.005279  -0.004432   0.005181
    16  H   -0.002936  -0.004497   0.005279   0.604878  -0.034650   0.005537
    17  H   -0.002943   0.005310  -0.004432  -0.034650   0.608279  -0.005034
    18  H   -0.000056  -0.000358   0.005181   0.005537  -0.005034   0.620475
    19  H   -0.000027   0.005089  -0.000334  -0.004763   0.005349  -0.035625
    20  H   -0.000003   0.000003   0.000008   0.005265  -0.000422   0.005488
    21  H   -0.000000   0.000006   0.000004  -0.000297   0.004979  -0.004452
    22  H   -0.000000   0.000000   0.000000   0.000000  -0.000000   0.000004
    23  H    0.000000  -0.000000   0.000000   0.000000  -0.000000   0.000543
    24  H   -0.000000   0.000000   0.000000   0.000000   0.000000  -0.000005
    25  H   -0.000000   0.000002   0.000000   0.000000   0.000001   0.001275
    26  H    0.000000   0.000000  -0.000000  -0.000000   0.000000  -0.000000
    27  H   -0.000000   0.000000   0.000000   0.000000   0.000000  -0.000000
    28  H    0.000000   0.000000   0.000000   0.000000   0.000000  -0.000000
    29  H   -0.000000  -0.000000  -0.000000  -0.000000  -0.000000   0.000000
    30  H   -0.000000   0.000000   0.000000   0.000000  -0.000000  -0.000000
    31  H   -0.000000  -0.000000   0.000000   0.000000  -0.000000   0.000000
             19         20         21         22         23         24
     1  C   -0.002827   0.000159   0.000106   0.000000  -0.000000   0.000000
     2  C   -0.039338  -0.007102  -0.004998  -0.000000   0.000005  -0.000000
     3  C    0.372619  -0.032627  -0.038889  -0.000002   0.000522   0.000009
     4  C   -0.039420   0.349909   0.359690  -0.000118   0.001292  -0.000127
     5  B   -0.003547  -0.014504  -0.024465   0.002703  -0.007098   0.002703
     6  O    0.000018   0.001218   0.001325  -0.035916  -0.042447  -0.000180
     7  C    0.000011   0.000017  -0.000032   0.366223   0.356529   0.005563
     8  C    0.000077   0.000005   0.000053  -0.033884  -0.049428  -0.033731
     9  C   -0.000230   0.000031  -0.000112   0.005557  -0.008845   0.365720
    10  O    0.005061   0.000151   0.001338  -0.000185  -0.000636  -0.035949
    11  C   -0.000000  -0.000000  -0.000000  -0.009056   0.006761  -0.009110
    12  C   -0.000002  -0.000000  -0.000001  -0.002742  -0.001102  -0.002738
    13  H   -0.000027  -0.000003  -0.000000  -0.000000   0.000000  -0.000000
    14  H    0.005089   0.000003   0.000006   0.000000  -0.000000   0.000000
    15  H   -0.000334   0.000008   0.000004   0.000000   0.000000   0.000000
    16  H   -0.004763   0.005265  -0.000297   0.000000   0.000000   0.000000
    17  H    0.005349  -0.000422   0.004979  -0.000000  -0.000000   0.000000
    18  H   -0.035625   0.005488  -0.004452   0.000004   0.000543  -0.000005
    19  H    0.591298  -0.004435   0.005498  -0.000000  -0.000003   0.000025
    20  H   -0.004435   0.581455  -0.029535   0.000003  -0.000038  -0.000001
    21  H    0.005498  -0.029535   0.587424  -0.000025   0.000032   0.000004
    22  H   -0.000000   0.000003  -0.000025   0.609685  -0.047023  -0.000168
    23  H   -0.000003  -0.000038   0.000032  -0.047023   0.660068  -0.000223
    24  H    0.000025  -0.000001   0.000004  -0.000168  -0.000223   0.609752
    25  H   -0.000215   0.000010  -0.000050  -0.000216   0.004551  -0.046681
    26  H   -0.000000  -0.000003  -0.000001  -0.000285   0.000142  -0.000292
    27  H   -0.000000   0.000000  -0.000000   0.004650  -0.000079  -0.000079
    28  H   -0.000000  -0.000000   0.000000  -0.000079  -0.000142   0.004682
    29  H   -0.000001  -0.000000  -0.000000  -0.000359   0.005465  -0.000364
    30  H    0.000000   0.000000   0.000000  -0.000216  -0.000203   0.004891
    31  H    0.000000   0.000000   0.000000   0.004879  -0.000345  -0.000214
             25         26         27         28         29         30
     1  C   -0.000000  -0.000000   0.000000  -0.000000   0.000000   0.000000
     2  C   -0.000050  -0.000000  -0.000000  -0.000000   0.000000  -0.000000
     3  C    0.000903   0.000001  -0.000000   0.000000  -0.000001   0.000000
     4  C    0.001361   0.000041   0.000000  -0.000000   0.000004  -0.000000
     5  B   -0.006466   0.004291  -0.000234  -0.000222   0.000050  -0.000046
     6  O   -0.000654   0.004882  -0.000132   0.000069   0.000005  -0.000061
     7  C   -0.009076  -0.006021  -0.004778   0.004906  -0.005311   0.004254
     8  C   -0.048927  -0.028712  -0.030496  -0.030585  -0.031519  -0.026841
     9  C    0.355211  -0.006134   0.004899  -0.004796  -0.005244  -0.004513
    10  O   -0.042509   0.005087   0.000074  -0.000132   0.000004   0.000005
    11  C    0.006721   0.369900   0.365674   0.365688   0.006003  -0.005046
    12  C   -0.000989   0.005417  -0.004796  -0.004786   0.362361   0.365421
    13  H   -0.000000   0.000000  -0.000000   0.000000  -0.000000  -0.000000
    14  H    0.000002   0.000000   0.000000   0.000000  -0.000000   0.000000
    15  H    0.000000  -0.000000   0.000000   0.000000  -0.000000   0.000000
    16  H    0.000000  -0.000000   0.000000   0.000000  -0.000000   0.000000
    17  H    0.000001   0.000000   0.000000   0.000000  -0.000000  -0.000000
    18  H    0.001275  -0.000000  -0.000000  -0.000000   0.000000  -0.000000
    19  H   -0.000215  -0.000000  -0.000000  -0.000000  -0.000001   0.000000
    20  H    0.000010  -0.000003   0.000000  -0.000000  -0.000000   0.000000
    21  H   -0.000050  -0.000001  -0.000000   0.000000  -0.000000   0.000000
    22  H   -0.000216  -0.000285   0.004650  -0.000079  -0.000359  -0.000216
    23  H    0.004551   0.000142  -0.000079  -0.000142   0.005465  -0.000203
    24  H   -0.046681  -0.000292  -0.000079   0.004682  -0.000364   0.004891
    25  H    0.657341   0.000147  -0.000139  -0.000077   0.005381  -0.000335
    26  H    0.000147   0.535950  -0.027448  -0.027516  -0.000175  -0.000050
    27  H   -0.000139  -0.027448   0.583035  -0.030056  -0.000030  -0.000174
    28  H   -0.000077  -0.027516  -0.030056   0.583258  -0.000031   0.004155
    29  H    0.005381  -0.000175  -0.000030  -0.000031   0.584713  -0.029375
    30  H   -0.000335  -0.000050  -0.000174   0.004155  -0.029375   0.570881
    31  H   -0.000204  -0.000049   0.004170  -0.000175  -0.029404  -0.028778
             31
     1  C    0.000000
     2  C   -0.000000
     3  C   -0.000000
     4  C   -0.000000
     5  B   -0.000046
     6  O    0.000005
     7  C   -0.004478
     8  C   -0.026866
     9  C    0.004266
    10  O   -0.000062
    11  C   -0.005103
    12  C    0.365480
    13  H   -0.000000
    14  H   -0.000000
    15  H    0.000000
    16  H    0.000000
    17  H   -0.000000
    18  H    0.000000
    19  H    0.000000
    20  H    0.000000
    21  H    0.000000
    22  H    0.004879
    23  H   -0.000345
    24  H   -0.000214
    25  H   -0.000204
    26  H   -0.000049
    27  H    0.004170
    28  H   -0.000175
    29  H   -0.029404
    30  H   -0.028778
    31  H    0.570793
 Mulliken atomic charges:
              1
     1  C   -0.434534
     2  C   -0.241106
     3  C   -0.266696
     4  C   -0.402491
     5  B    0.651111
     6  O   -0.487600
     7  C   -0.058038
     8  C    0.060857
     9  C   -0.060475
    10  O   -0.495859
    11  C   -0.439174
    12  C   -0.452928
    13  H    0.139424
    14  H    0.139665
    15  H    0.137311
    16  H    0.131829
    17  H    0.130377
    18  H    0.124188
    19  H    0.145722
    20  H    0.144952
    21  H    0.142399
    22  H    0.136572
    23  H    0.121703
    24  H    0.136511
    25  H    0.123682
    26  H    0.170831
    27  H    0.135939
    28  H    0.135839
    29  H    0.137828
    30  H    0.146030
    31  H    0.146132
 Sum of Mulliken atomic charges =  -0.00000
 Mulliken charges with hydrogens summed into heavy atoms:
              1
     1  C   -0.018134
     2  C    0.021099
     3  C    0.003213
     4  C   -0.115140
     5  B    0.651111
     6  O   -0.487600
     7  C    0.200237
     8  C    0.060857
     9  C    0.199718
    10  O   -0.495859
    11  C    0.003435
    12  C   -0.022938
 Sum of Mulliken charges with hydrogens summed into heavy atoms =  -0.00000
 Electronic spatial extent (au):  <R**2>=           3127.0194
 Charge=              0.0000 electrons
 Dipole moment (field-independent basis, Debye):
    X=             -0.1111    Y=              1.5562    Z=             -0.7285  Tot=              1.7219
 Quadrupole moment (field-independent basis, Debye-Ang):
   XX=            -72.7288   YY=            -77.8060   ZZ=            -77.3900
   XY=             -3.1431   XZ=              0.7869   YZ=             -0.9928
 Traceless Quadrupole moment (field-independent basis, Debye-Ang):
   XX=              3.2461   YY=             -1.8311   ZZ=             -1.4151
   XY=             -3.1431   XZ=              0.7869   YZ=             -0.9928
 Octapole moment (field-independent basis, Debye-Ang**2):
  XXX=            -14.4740  YYY=             -2.4403  ZZZ=             -3.3950  XYY=             -0.9822
  XXY=             -3.5778  XXZ=             -0.0138  XZZ=             -2.4866  YZZ=              1.3696
  YYZ=              7.3429  XYZ=             -2.3631
 Hexadecapole moment (field-independent basis, Debye-Ang**3):
 XXXX=          -3354.3042 YYYY=           -571.0940 ZZZZ=           -372.1627 XXXY=            -17.6146
 XXXZ=             15.0744 YYYX=             -4.2674 YYYZ=             -3.8865 ZZZX=              3.7497
 ZZZY=              8.5022 XXYY=           -672.0986 XXZZ=           -603.7817 YYZZ=           -151.4400
 XXYZ=             11.7335 YYXZ=             -5.2125 ZZXY=             -1.8402
 N-N= 7.354058165200D+02 E-N=-2.701433577058D+03  KE= 5.241716670252D+02
 No NMR shielding tensors so no spin-rotation constants.
 Leave Link  601 at Tue Oct  5 16:44:32 2021, MaxMem= 1342177280 cpu:       0.9
 (Enter /sw/target/amd/app/gaussian/Gaussian09RevA.02_gcc-4.9.2/g09/l701.exe)
 Compute integral first derivatives.
 ... and contract with generalized density number  0.
 Leave Link  701 at Tue Oct  5 16:44:32 2021, MaxMem= 1342177280 cpu:       1.0
 (Enter /sw/target/amd/app/gaussian/Gaussian09RevA.02_gcc-4.9.2/g09/l702.exe)
 L702 exits ... SP integral derivatives will be done elsewhere.
 Leave Link  702 at Tue Oct  5 16:44:32 2021, MaxMem= 1342177280 cpu:       0.1
 (Enter /sw/target/amd/app/gaussian/Gaussian09RevA.02_gcc-4.9.2/g09/l703.exe)
 Compute integral first derivatives, UseDBF=F ICtDFT=           0.
 Integral derivatives from FoFDir, PRISM(SPDF).
 Calling FoFJK, ICntrl=      2127 FMM=F ISym2X=0 I1Cent= 0 IOpClX= 0 NMat=1 NMatS=1 NMatT=0.
 FoFCou: FMM=F IPFlag=           0 FMFlag=      100000 FMFlg1=         800
         NFxFlg=           0 DoJE=F BraDBF=F KetDBF=F FulRan=T
         Omega=  0.000000  0.000000  1.000000  0.000000  0.000000 ICntrl=    2127 IOpCl=  0
         NMat0=    1 NMatS0=    1 NMatT0=    0 NMatD0=    1 NMtDS0=    0 NMtDT0=    0
         I1Cent=           0 NGrid=           0.
 Symmetry not used in FoFCou.
 Leave Link  703 at Tue Oct  5 16:44:43 2021, MaxMem= 1342177280 cpu:      54.1
 (Enter /sw/target/amd/app/gaussian/Gaussian09RevA.02_gcc-4.9.2/g09/l716.exe)
 Dipole        =-4.37122220D-02 6.12260955D-01-2.86608902D-01
 ***** Axes restored to original set *****
 -------------------------------------------------------------------
 Center     Atomic                   Forces (Hartrees/Bohr)
 Number     Number              X              Y              Z
 -------------------------------------------------------------------
      1        6           0.005570546   -0.004918985    0.004653895
      2        6           0.003374494   -0.000548357    0.000206104
      3        6          -0.000782553   -0.000121257    0.004400019
      4        6          -0.019302363    0.009992810   -0.013001300
      5        5          -0.020574496    0.025716483   -0.014209048
      6        8           0.017361097   -0.007986034    0.060386822
      7        6           0.003244645    0.015781294   -0.017334829
      8        6           0.003269057   -0.000872140    0.000123800
      9        6           0.005389779    0.022623819   -0.003403498
     10        8           0.010048412   -0.055578732   -0.028446396
     11        6          -0.007610631   -0.001697829    0.001359339
     12        6           0.005585683   -0.000362791   -0.000256502
     13        1           0.001794177    0.009460443   -0.002343540
     14        1           0.003129293   -0.006529219   -0.006430830
     15        1          -0.004322736   -0.001594821    0.008398017
     16        1           0.003490483    0.000409630   -0.008716818
     17        1          -0.004008717    0.005057171    0.006891645
     18        1          -0.003915068   -0.000272226    0.008135913
     19        1           0.002636182   -0.005110356   -0.008793949
     20        1           0.005918201   -0.001919574   -0.004032735
     21        1          -0.002908513    0.004598913    0.008439278
     22        1           0.000461899   -0.002281924    0.008208742
     23        1          -0.006394842    0.005444807    0.000338824
     24        1          -0.000694558   -0.007848338   -0.002759954
     25        1          -0.007205055    0.003236918   -0.003742522
     26        1           0.007582070    0.007159578   -0.004362607
     27        1           0.001675207   -0.000705754    0.009126937
     28        1           0.000504130   -0.007830485   -0.004852283
     29        1          -0.006952474    0.005026939   -0.002049158
     30        1           0.001217466   -0.007977618   -0.005441098
     31        1           0.002419186   -0.000352365    0.009507733
 -------------------------------------------------------------------
 Cartesian Forces:  Max     0.060386822 RMS     0.011792366
 Leave Link  716 at Tue Oct  5 16:44:43 2021, MaxMem= 1342177280 cpu:       0.0
 (Enter /sw/target/amd/app/gaussian/Gaussian09RevA.02_gcc-4.9.2/g09/l103.exe)

 GradGradGradGradGradGradGradGradGradGradGradGradGradGradGradGradGradGrad
 Berny optimization.
 Internal  Forces:  Max     0.047126939 RMS     0.007111177
 Search for a local minimum.
 Step number   1 out of a maximum of  179
 All quantities printed in internal units (Hartrees-Bohrs-Radians)
 RMS Force = .71112D-02 SwitMx=.10000D-02 MixMth= 1
 Mixed Optimization -- RFO/linear search
 Second derivative matrix not updated -- first step.
     Eigenvalues ---    0.00230   0.00230   0.00250   0.00318   0.00333
     Eigenvalues ---    0.00421   0.00568   0.00761   0.01182   0.02551
     Eigenvalues ---    0.03748   0.03761   0.04192   0.04203   0.04428
     Eigenvalues ---    0.04578   0.04871   0.04910   0.04925   0.05361
     Eigenvalues ---    0.05432   0.05520   0.05521   0.05526   0.05591
     Eigenvalues ---    0.05669   0.05785   0.05901   0.07178   0.07928
     Eigenvalues ---    0.08033   0.09017   0.09349   0.11100   0.11691
     Eigenvalues ---    0.11758   0.11902   0.11974   0.12595   0.13726
     Eigenvalues ---    0.15417   0.16000   0.16000   0.16000   0.16000
     Eigenvalues ---    0.16000   0.16000   0.16000   0.16000   0.16000
     Eigenvalues ---    0.16469   0.21952   0.21962   0.22003   0.22222
     Eigenvalues ---    0.24206   0.24977   0.26456   0.26557   0.28214
     Eigenvalues ---    0.28606   0.29067   0.29171   0.29787   0.31924
     Eigenvalues ---    0.31974   0.32256   0.32293   0.32390   0.32417
     Eigenvalues ---    0.32431   0.32444   0.32459   0.32460   0.32462
     Eigenvalues ---    0.32464   0.32472   0.32480   0.32505   0.32512
     Eigenvalues ---    0.32525   0.32540   0.32548   0.33356   0.34182
     Eigenvalues ---    0.40582   0.429181000.000001000.000001000.00000
     Eigenvalues --- 1000.000001000.000001000.000001000.000001000.00000
     Eigenvalues --- 1000.000001000.000001000.000001000.000001000.00000
     Eigenvalues --- 1000.000001000.000001000.000001000.000001000.00000
     Eigenvalues --- 1000.000001000.000001000.000001000.000001000.00000
     Eigenvalues --- 1000.000001000.000001000.000001000.000001000.00000
     Eigenvalues --- 1000.000001000.000001000.000001000.000001000.00000
     Eigenvalues --- 1000.000001000.000001000.000001000.000001000.00000
     Eigenvalues --- 1000.000001000.000001000.000001000.000001000.00000
     Eigenvalues --- 1000.000001000.000001000.000001000.000001000.00000
     Eigenvalues --- 1000.000001000.000001000.000001000.000001000.00000
     Eigenvalues --- 1000.000001000.000001000.000001000.000001000.00000
     Eigenvalues --- 1000.000001000.000001000.000001000.000001000.00000
     Eigenvalues --- 1000.000001000.000001000.000001000.000001000.00000
     Eigenvalues --- 1000.000001000.000001000.000001000.000001000.00000
     Eigenvalues --- 1000.000001000.000001000.000001000.000001000.00000
     Eigenvalues --- 1000.000001000.000001000.000001000.00000
 RFO step:  Lambda=-3.15464843D-02 EMin= 2.30000000D-03
 Linear search not attempted -- first point.
 Maximum step size (   0.300) exceeded in Quadratic search.
    -- Step size scaled by   0.658
 Iteration  1 RMS(Cart)=  0.09634892 RMS(Int)=  0.00193974
 Iteration  2 RMS(Cart)=  0.00368700 RMS(Int)=  0.00026168
 Iteration  3 RMS(Cart)=  0.00000263 RMS(Int)=  0.00026167
 Iteration  4 RMS(Cart)=  0.00000000 RMS(Int)=  0.00026167
 Variable       Old X    -DE/DX   Delta X   Delta X   Delta X     New X
                                 (Linear)    (Quad)   (Total)
    R1        2.88390   0.00719   0.00000   0.01436   0.01436   2.89827
    R2        2.09852  -0.00887   0.00000  -0.01635  -0.01635   2.08218
    R3        2.09929  -0.00921   0.00000  -0.01699  -0.01699   2.08231
    R4        2.09918  -0.00906   0.00000  -0.01671  -0.01671   2.08247
    R5        2.89863   0.00231   0.00000   0.00471   0.00471   2.90334
    R6        2.10088  -0.00850   0.00000  -0.01572  -0.01572   2.08517
    R7        2.10135  -0.00855   0.00000  -0.01583  -0.01583   2.08552
    R8        2.89649   0.00877   0.00000   0.01785   0.01785   2.91433
    R9        2.10311  -0.00834   0.00000  -0.01548  -0.01548   2.08763
   R10        2.10378  -0.00986   0.00000  -0.01833  -0.01833   2.08545
   R11        3.01272  -0.01077   0.00000  -0.02591  -0.02591   2.98681
[...]
 Quadrupole moment (field-independent basis, Debye-Ang):
   XX=            -67.3690   YY=            -74.1899   ZZ=            -77.1185
   XY=             -0.3537   XZ=              0.8993   YZ=             -0.4884
 Traceless Quadrupole moment (field-independent basis, Debye-Ang):
   XX=              5.5235   YY=             -1.2974   ZZ=             -4.2261
   XY=             -0.3537   XZ=              0.8993   YZ=             -0.4884
 Octapole moment (field-independent basis, Debye-Ang**2):
  XXX=             79.1136  YYY=             -5.6254  ZZZ=              2.8037  XYY=             18.2545
  XXY=              4.6458  XXZ=              1.2558  XZZ=              5.7325  YZZ=             -1.0964
  YYZ=              0.3795  XYZ=              0.6932
 Hexadecapole moment (field-independent basis, Debye-Ang**3):
 XXXX=          -3961.9061 YYYY=           -436.4324 ZZZZ=           -309.9469 XXXY=            -10.7717
 XXXZ=              9.6586 YYYX=             -0.1156 YYYZ=             -7.1029 ZZZX=              7.2977
 ZZZY=             -0.8355 XXYY=           -718.1718 XXZZ=           -710.9432 YYZZ=           -126.9094
 XXYZ=             -5.1657 YYXZ=              4.5345 ZZXY=              2.8877
 N-N= 7.307421859579D+02 E-N=-2.691852470490D+03  KE= 5.248708372116D+02
 No NMR shielding tensors so no spin-rotation constants.
 Leave Link  601 at Tue Oct  5 17:26:23 2021, MaxMem= 1342177280 cpu:       0.9
 (Enter /sw/target/amd/app/gaussian/Gaussian09RevA.02_gcc-4.9.2/g09/l604.exe)
 Evaluate density.
 Using the total density.
 Monte-Carlo method of calculating molar volume:
 based on  0.001 e/bohr**3 density envelope.
 Number of points per bohr**3 =   20 CutOff= 1.00D-04
 Using the CI density.
 There are       417 points.  Will hold       417 in memory.
 LenV=  1342036964 MDV=  1342177280.
 Box volume = 9067.589 fraction occupied=0.173
 Integrated density= 4.9826688753029849D+01 error=-4.4173311246970151D+01
 Molar volume = 1565.627 bohr**3/mol (139.715 cm**3/mol)
 Recommended a0 for SCRF calculation =  4.70 angstrom (  8.87 bohr)
 Leave Link  604 at Tue Oct  5 17:26:23 2021, MaxMem= 1342177280 cpu:       0.2
 (Enter /sw/target/amd/app/gaussian/Gaussian09RevA.02_gcc-4.9.2/g09/l607.exe)
 ******************************Gaussian NBO Version 3.1******************************
             N A T U R A L   A T O M I C   O R B I T A L   A N D
          N A T U R A L   B O N D   O R B I T A L   A N A L Y S I S
 ******************************Gaussian NBO Version 3.1******************************
       /RESON  / : Allow strongly delocalized NBO set

 Analyzing the CI density

 Job title: CCCCB1OCC(CO1)(C)C_conf_0                                       

 Storage needed:    145704 in NPA (1342172165 available)


 NATURAL POPULATIONS:  Natural atomic orbital occupancies 
                                                          
   NAO  Atom  No  lang   Type(AO)    Occupancy
 --------------------------------------------
     1    C    1  S      Cor( 1S)     1.99946
     2    C    1  S      Val( 2S)     1.10105
     3    C    1  S      Ryd( 3S)     0.00029
     4    C    1  S      Ryd( 4S)     0.00001
     5    C    1  px     Val( 2p)     1.16917
     6    C    1  px     Ryd( 3p)     0.00160
     7    C    1  py     Val( 2p)     1.16423
     8    C    1  py     Ryd( 3p)     0.00090
     9    C    1  pz     Val( 2p)     1.23009
    10    C    1  pz     Ryd( 3p)     0.00096
    11    C    1  dxy    Ryd( 3d)     0.00055
    12    C    1  dxz    Ryd( 3d)     0.00021
    13    C    1  dyz    Ryd( 3d)     0.00082
    14    C    1  dx2y2  Ryd( 3d)     0.00086
    15    C    1  dz2    Ryd( 3d)     0.00089

    16    C    2  S      Cor( 1S)     1.99935
    17    C    2  S      Val( 2S)     1.03578
    18    C    2  S      Ryd( 3S)     0.00087
    19    C    2  S      Ryd( 4S)     0.00002
    20    C    2  px     Val( 2p)     1.04060
    21    C    2  px     Ryd( 3p)     0.00164
    22    C    2  py     Val( 2p)     1.14167
    23    C    2  py     Ryd( 3p)     0.00145
    24    C    2  pz     Val( 2p)     1.22098
    25    C    2  pz     Ryd( 3p)     0.00240
    26    C    2  dxy    Ryd( 3d)     0.00070
    27    C    2  dxz    Ryd( 3d)     0.00035
    28    C    2  dyz    Ryd( 3d)     0.00084
    29    C    2  dx2y2  Ryd( 3d)     0.00072
    30    C    2  dz2    Ryd( 3d)     0.00094

    31    C    3  S      Cor( 1S)     1.99935
    32    C    3  S      Val( 2S)     1.02774
    33    C    3  S      Ryd( 3S)     0.00098
    34    C    3  S      Ryd( 4S)     0.00003
    35    C    3  px     Val( 2p)     1.03145
    36    C    3  px     Ryd( 3p)     0.00224
    37    C    3  py     Val( 2p)     1.14785
    38    C    3  py     Ryd( 3p)     0.00184
    39    C    3  pz     Val( 2p)     1.22102
    40    C    3  pz     Ryd( 3p)     0.00271
    41    C    3  dxy    Ryd( 3d)     0.00062
    42    C    3  dxz    Ryd( 3d)     0.00034
    43    C    3  dyz    Ryd( 3d)     0.00091
    44    C    3  dx2y2  Ryd( 3d)     0.00087
    45    C    3  dz2    Ryd( 3d)     0.00091

    46    C    4  S      Cor( 1S)     1.99923
    47    C    4  S      Val( 2S)     1.09311
    48    C    4  S      Ryd( 3S)     0.00129
    49    C    4  S      Ryd( 4S)     0.00001
    50    C    4  px     Val( 2p)     1.26480
    51    C    4  px     Ryd( 3p)     0.00311
    52    C    4  py     Val( 2p)     1.17670
    53    C    4  py     Ryd( 3p)     0.00217
    54    C    4  pz     Val( 2p)     1.23300
    55    C    4  pz     Ryd( 3p)     0.00182
    56    C    4  dxy    Ryd( 3d)     0.00041
    57    C    4  dxz    Ryd( 3d)     0.00058
    58    C    4  dyz    Ryd( 3d)     0.00086
    59    C    4  dx2y2  Ryd( 3d)     0.00054
    60    C    4  dz2    Ryd( 3d)     0.00090

    61    B    5  S      Cor( 1S)     1.99914
    62    B    5  S      Val( 2S)     0.48508
    63    B    5  S      Ryd( 3S)     0.00193
    64    B    5  S      Ryd( 4S)     0.00045
    65    B    5  px     Val( 2p)     0.57244
    66    B    5  px     Ryd( 3p)     0.00241
    67    B    5  py     Val( 2p)     0.37954
    68    B    5  py     Ryd( 3p)     0.00793
    69    B    5  pz     Val( 2p)     0.90926
    70    B    5  pz     Ryd( 3p)     0.00878
    71    B    5  dxy    Ryd( 3d)     0.00267
    72    B    5  dxz    Ryd( 3d)     0.00114
    73    B    5  dyz    Ryd( 3d)     0.00157
    74    B    5  dx2y2  Ryd( 3d)     0.00199
    75    B    5  dz2    Ryd( 3d)     0.00076

    76    O    6  S      Cor( 1S)     1.99968
    77    O    6  S      Val( 2S)     1.60672
    78    O    6  S      Ryd( 3S)     0.00032
    79    O    6  S      Ryd( 4S)     0.00006
    80    O    6  px     Val( 2p)     1.47199
    81    O    6  px     Ryd( 3p)     0.00058
    82    O    6  py     Val( 2p)     1.53270
    83    O    6  py     Ryd( 3p)     0.00172
    84    O    6  pz     Val( 2p)     1.87847
    85    O    6  pz     Ryd( 3p)     0.00226
    86    O    6  dxy    Ryd( 3d)     0.00090
    87    O    6  dxz    Ryd( 3d)     0.00061
    88    O    6  dyz    Ryd( 3d)     0.00104
    89    O    6  dx2y2  Ryd( 3d)     0.00088
    90    O    6  dz2    Ryd( 3d)     0.00059

    91    C    7  S      Cor( 1S)     1.99905
    92    C    7  S      Val( 2S)     1.02461
    93    C    7  S      Ryd( 3S)     0.00208
    94    C    7  S      Ryd( 4S)     0.00005
    95    C    7  px     Val( 2p)     0.79318
    96    C    7  px     Ryd( 3p)     0.00390
    97    C    7  py     Val( 2p)     1.03074
    98    C    7  py     Ryd( 3p)     0.00496
    99    C    7  pz     Val( 2p)     1.22093
   100    C    7  pz     Ryd( 3p)     0.00339
   101    C    7  dxy    Ryd( 3d)     0.00157
   102    C    7  dxz    Ryd( 3d)     0.00162
   103    C    7  dyz    Ryd( 3d)     0.00068
   104    C    7  dx2y2  Ryd( 3d)     0.00142
   105    C    7  dz2    Ryd( 3d)     0.00163

   106    C    8  S      Cor( 1S)     1.99910
   107    C    8  S      Val( 2S)     0.95334
   108    C    8  S      Ryd( 3S)     0.00037
   109    C    8  S      Ryd( 4S)     0.00004
   110    C    8  px     Val( 2p)     1.06981
   111    C    8  px     Ryd( 3p)     0.00307
   112    C    8  py     Val( 2p)     0.95807
   113    C    8  py     Ryd( 3p)     0.00188
   114    C    8  pz     Val( 2p)     1.08184
   115    C    8  pz     Ryd( 3p)     0.00300
   116    C    8  dxy    Ryd( 3d)     0.00078
   117    C    8  dxz    Ryd( 3d)     0.00080
   118    C    8  dyz    Ryd( 3d)     0.00071
   119    C    8  dx2y2  Ryd( 3d)     0.00070
   120    C    8  dz2    Ryd( 3d)     0.00094

   121    C    9  S      Cor( 1S)     1.99905
   122    C    9  S      Val( 2S)     1.02303
   123    C    9  S      Ryd( 3S)     0.00202
   124    C    9  S      Ryd( 4S)     0.00005
   125    C    9  px     Val( 2p)     0.73289
   126    C    9  px     Ryd( 3p)     0.00550
   127    C    9  py     Val( 2p)     1.08466
   128    C    9  py     Ryd( 3p)     0.00318
   129    C    9  pz     Val( 2p)     1.22815
   130    C    9  pz     Ryd( 3p)     0.00359
   131    C    9  dxy    Ryd( 3d)     0.00123
   132    C    9  dxz    Ryd( 3d)     0.00152
   133    C    9  dyz    Ryd( 3d)     0.00086
   134    C    9  dx2y2  Ryd( 3d)     0.00171
   135    C    9  dz2    Ryd( 3d)     0.00159

   136    O   10  S      Cor( 1S)     1.99969
   137    O   10  S      Val( 2S)     1.61046
   138    O   10  S      Ryd( 3S)     0.00032
   139    O   10  S      Ryd( 4S)     0.00005
   140    O   10  px     Val( 2p)     1.46357
   141    O   10  px     Ryd( 3p)     0.00077
   142    O   10  py     Val( 2p)     1.54367
   143    O   10  py     Ryd( 3p)     0.00146
   144    O   10  pz     Val( 2p)     1.88194
   145    O   10  pz     Ryd( 3p)     0.00200
   146    O   10  dxy    Ryd( 3d)     0.00094
   147    O   10  dxz    Ryd( 3d)     0.00097
   148    O   10  dyz    Ryd( 3d)     0.00077
   149    O   10  dx2y2  Ryd( 3d)     0.00090
   150    O   10  dz2    Ryd( 3d)     0.00060

   151    C   11  S      Cor( 1S)     1.99936
   152    C   11  S      Val( 2S)     1.09359
   153    C   11  S      Ryd( 3S)     0.00105
   154    C   11  S      Ryd( 4S)     0.00002
   155    C   11  px     Val( 2p)     1.27069
   156    C   11  px     Ryd( 3p)     0.00315
   157    C   11  py     Val( 2p)     1.24846
   158    C   11  py     Ryd( 3p)     0.00301
   159    C   11  pz     Val( 2p)     1.06068
   160    C   11  pz     Ryd( 3p)     0.00267
   161    C   11  dxy    Ryd( 3d)     0.00076
   162    C   11  dxz    Ryd( 3d)     0.00056
   163    C   11  dyz    Ryd( 3d)     0.00053
   164    C   11  dx2y2  Ryd( 3d)     0.00066
   165    C   11  dz2    Ryd( 3d)     0.00075

   166    C   12  S      Cor( 1S)     1.99935
   167    C   12  S      Val( 2S)     1.09296
   168    C   12  S      Ryd( 3S)     0.00058
   169    C   12  S      Ryd( 4S)     0.00002
   170    C   12  px     Val( 2p)     1.09736
   171    C   12  px     Ryd( 3p)     0.00233
   172    C   12  py     Val( 2p)     1.23941
   173    C   12  py     Ryd( 3p)     0.00202
   174    C   12  pz     Val( 2p)     1.24407
   175    C   12  pz     Ryd( 3p)     0.00241
   176    C   12  dxy    Ryd( 3d)     0.00077
   177    C   12  dxz    Ryd( 3d)     0.00038
   178    C   12  dyz    Ryd( 3d)     0.00040
   179    C   12  dx2y2  Ryd( 3d)     0.00056
   180    C   12  dz2    Ryd( 3d)     0.00113

   181    H   13  S      Val( 1S)     0.77422
   182    H   13  S      Ryd( 2S)     0.00095

   183    H   14  S      Val( 1S)     0.77933
   184    H   14  S      Ryd( 2S)     0.00121

   185    H   15  S      Val( 1S)     0.77838
   186    H   15  S      Ryd( 2S)     0.00117

   187    H   16  S      Val( 1S)     0.77625
   188    H   16  S      Ryd( 2S)     0.00222

   189    H   17  S      Val( 1S)     0.77584
   190    H   17  S      Ryd( 2S)     0.00171

   191    H   18  S      Val( 1S)     0.77822
   192    H   18  S      Ryd( 2S)     0.00369

   193    H   19  S      Val( 1S)     0.78123
   194    H   19  S      Ryd( 2S)     0.00177

   195    H   20  S      Val( 1S)     0.79981
   196    H   20  S      Ryd( 2S)     0.00751

   197    H   21  S      Val( 1S)     0.77260
   198    H   21  S      Ryd( 2S)     0.00252

   199    H   22  S      Val( 1S)     0.73839
   200    H   22  S      Ryd( 2S)     0.00154

   201    H   23  S      Val( 1S)     0.79415
   202    H   23  S      Ryd( 2S)     0.02035

   203    H   24  S      Val( 1S)     0.73714
   204    H   24  S      Ryd( 2S)     0.00150

   205    H   25  S      Val( 1S)     0.79639
   206    H   25  S      Ryd( 2S)     0.02105

   207    H   26  S      Val( 1S)     0.73557
   208    H   26  S      Ryd( 2S)     0.00077

   209    H   27  S      Val( 1S)     0.75685
   210    H   27  S      Ryd( 2S)     0.00100

   211    H   28  S      Val( 1S)     0.75633
   212    H   28  S      Ryd( 2S)     0.00098

   213    H   29  S      Val( 1S)     0.75601
   214    H   29  S      Ryd( 2S)     0.00688

   215    H   30  S      Val( 1S)     0.74601
   216    H   30  S      Ryd( 2S)     0.00100

   217    H   31  S      Val( 1S)     0.74686
   218    H   31  S      Ryd( 2S)     0.00100


 Summary of Natural Population Analysis:                  
                                                          
                                       Natural Population 
                Natural  -----------------------------------------------
    Atom  No    Charge         Core      Valence    Rydberg      Total
 -----------------------------------------------------------------------
      C    1   -0.67113      1.99946     4.66454    0.00712     6.67113
      C    2   -0.44832      1.99935     4.43902    0.00995     6.44832
      C    3   -0.43886      1.99935     4.42806    0.01145     6.43886
      C    4   -0.77854      1.99923     4.76761    0.01170     6.77854
      B    5    0.62490      1.99914     2.34633    0.02963     4.37510
      O    6   -0.49853      1.99968     6.48988    0.00897     8.49853
      C    7   -0.08982      1.99905     4.06946    0.02131     6.08982
      C    8   -0.07446      1.99910     4.06306    0.01230     6.07446
      C    9   -0.08904      1.99905     4.06872    0.02126     6.08904
      O   10   -0.50812      1.99969     6.49964    0.00879     8.50812
      C   11   -0.68595      1.99936     4.67343    0.01316     6.68595
      C   12   -0.68374      1.99935     4.67379    0.01060     6.68374
      H   13    0.22483      0.00000     0.77422    0.00095     0.77517
      H   14    0.21946      0.00000     0.77933    0.00121     0.78054
      H   15    0.22045      0.00000     0.77838    0.00117     0.77955
      H   16    0.22153      0.00000     0.77625    0.00222     0.77847
      H   17    0.22245      0.00000     0.77584    0.00171     0.77755
      H   18    0.21808      0.00000     0.77822    0.00369     0.78192
      H   19    0.21700      0.00000     0.78123    0.00177     0.78300
      H   20    0.19268      0.00000     0.79981    0.00751     0.80732
      H   21    0.22489      0.00000     0.77260    0.00252     0.77511
      H   22    0.26006      0.00000     0.73839    0.00154     0.73994
      H   23    0.18550      0.00000     0.79415    0.02035     0.81450
      H   24    0.26136      0.00000     0.73714    0.00150     0.73864
      H   25    0.18255      0.00000     0.79639    0.02105     0.81745
      H   26    0.26367      0.00000     0.73557    0.00077     0.73633
      H   27    0.24215      0.00000     0.75685    0.00100     0.75785
      H   28    0.24269      0.00000     0.75633    0.00098     0.75731
      H   29    0.23711      0.00000     0.75601    0.00688     0.76289
      H   30    0.25299      0.00000     0.74601    0.00100     0.74701
      H   31    0.25214      0.00000     0.74686    0.00100     0.74786
 =======================================================================
   * Total *   -0.00000     23.99181    69.76311    0.24508    94.00000

                                 Natural Population      
 --------------------------------------------------------
   Core                      23.99181 ( 99.9659% of  24)
   Valence                   69.76311 ( 99.6616% of  70)
   Natural Minimal Basis     93.75492 ( 99.7393% of  94)
   Natural Rydberg Basis      0.24508 (  0.2607% of  94)
 --------------------------------------------------------

    Atom  No          Natural Electron Configuration
 ----------------------------------------------------------------------------
      C    1      [core]2S( 1.10)2p( 3.56)
      C    2      [core]2S( 1.04)2p( 3.40)3p( 0.01)
      C    3      [core]2S( 1.03)2p( 3.40)3p( 0.01)
      C    4      [core]2S( 1.09)2p( 3.67)3p( 0.01)
      B    5      [core]2S( 0.49)2p( 1.86)3p( 0.02)3d( 0.01)
      O    6      [core]2S( 1.61)2p( 4.88)
      C    7      [core]2S( 1.02)2p( 3.04)3p( 0.01)3d( 0.01)
      C    8      [core]2S( 0.95)2p( 3.11)3p( 0.01)
      C    9      [core]2S( 1.02)2p( 3.05)3p( 0.01)3d( 0.01)
      O   10      [core]2S( 1.61)2p( 4.89)
      C   11      [core]2S( 1.09)2p( 3.58)3p( 0.01)
      C   12      [core]2S( 1.09)2p( 3.58)3p( 0.01)
      H   13            1S( 0.77)
      H   14            1S( 0.78)
      H   15            1S( 0.78)
      H   16            1S( 0.78)
      H   17            1S( 0.78)
      H   18            1S( 0.78)
      H   19            1S( 0.78)
      H   20            1S( 0.80)2S( 0.01)
      H   21            1S( 0.77)
      H   22            1S( 0.74)
      H   23            1S( 0.79)2S( 0.02)
      H   24            1S( 0.74)
      H   25            1S( 0.80)2S( 0.02)
      H   26            1S( 0.74)
      H   27            1S( 0.76)
      H   28            1S( 0.76)
      H   29            1S( 0.76)2S( 0.01)
      H   30            1S( 0.75)
      H   31            1S( 0.75)


 NBO analysis skipped by request.
 Leave Link  607 at Tue Oct  5 17:26:26 2021, MaxMem= 1342177280 cpu:      12.6
 (Enter /sw/target/amd/app/gaussian/Gaussian09RevA.02_gcc-4.9.2/g09/l9999.exe)
 1\1\GINC-HERMITE\SP\RTD-B3LYP-FC\6-31G(d)\C9H19B1O2\JSCHLEINITZ\05-Oct
 -2021\0\\#p TD(NStates=10, Root=1) b3lyp/6-31G* volume pop=NPA density
 =current Geom=AllCheck Guess=Read\\CCCCB1OCC(CO1)(C)C_conf_0\\0,1\C,0,
 7.3992337593,-0.2221244583,1.8675854458\C,0,6.4945173714,-0.0900600278
 ,0.6381182625\C,0,6.5810635457,1.2858298796,-0.0349116738\C,0,5.678419
 324,1.4228684604,-1.2720138036\B,0,5.6922975069,2.83570222,-1.98198304
 13\O,0,5.2242320845,2.927085136,-3.2689874482\C,0,5.2010954073,4.18444
 85733,-3.9450312837\C,0,5.0565263717,5.3789662762,-2.9854551405\C,0,6.
 148498011,5.2224552566,-1.9128150608\O,0,6.1363337375,3.9355416091,-1.
 2933543324\C,0,3.6593245925,5.3875111537,-2.3374918699\C,0,5.282919543
 5,6.686241895,-3.759657131\H,0,7.3148161458,-1.2146517013,2.3255268911
 \H,0,7.1394474446,0.5207832231,2.6320568727\H,0,8.4525416954,-0.066418
 3441,1.6026052318\H,0,5.4515347116,-0.2850443266,0.9276670735\H,0,6.75
 4462744,-0.868709834,-0.0936889985\H,0,7.6256395932,1.4821653304,-0.31
 74644508\H,0,6.3226348863,2.0653695281,0.6944398122\H,0,4.6362329327,1
 .2001461992,-0.9873000791\H,0,5.9306177774,0.6524648613,-2.0153675333\
 H,0,4.3639480272,4.1561634307,-4.652612666\H,0,6.1267415549,4.28255788
 66,-4.5301190657\H,0,6.0176334114,5.9650982666,-1.1169016243\H,0,7.139
 8680248,5.3851015018,-2.3590051414\H,0,3.4620863438,4.4711905464,-1.77
 30295677\H,0,2.8790752558,5.4832224921,-3.1018166178\H,0,3.5591444786,
 6.2329494606,-1.6465247964\H,0,6.2723179707,6.7102131515,-4.2322114706
 \H,0,5.207074588,7.5539357465,-3.0935297303\H,0,4.5306847502,6.8091432
 688,-4.5479856386\\Version=AM64L-G09RevA.02\State=1-A\HF=-529.8170575\
 RMSD=2.738e-09\Dipole=-0.6966001,2.3158521,-1.0337613\Quadrupole=-2.32
 69013,2.3297465,-0.0028451,-1.598126,1.6545266,-1.9413011\PG=C01 [X(C9
 H19B1O2)]\\@


 QUHEN THE CAUSS IS TAKEN AWAY THE EFFECT WANISHETH.
 -- PROVERBS AND REASONS OF THE YEAR 1585
           AS REPRINTED IN PAISLEY MAGAZINE 1828.
 Job cpu time:  0 days  0 hours 57 minutes 40.0 seconds.
 File lengths (MBytes):  RWF=    166 Int=      0 D2E=      0 Chk=     23 Scr=      1
 Normal termination of Gaussian 09 at Tue Oct  5 17:26:27 2021.
