 Entering Gaussian System, Link 0=g09
 Input=C9H12O_c006_conf_0.com
 Output=C9H12O_c006_conf_0.log
 Initial command:
 /sw/target/amd/app/gaussian/Gaussian09RevA.02_gcc-4.9.2/g09/l1.exe /home/jschleinitz/gaussian/Gau-3659026.inp -scrdir=/home/jschleinitz/gaussian/
 Entering Link 1 = /sw/target/amd/app/gaussian/Gaussian09RevA.02_gcc-4.9.2/g09/l1.exe PID=   3659108.
  
 Copyright (c) 1988,1990,1992,1993,1995,1998,2003,2009, Gaussian, Inc.
                  All Rights Reserved.
  
 This is part of the Gaussian(R) 09 program.  It is based on
 the Gaussian(R) 03 system (copyright 2003, Gaussian, Inc.),
 the Gaussian(R) 98 system (copyright 1998, Gaussian, Inc.),
 the Gaussian(R) 94 system (copyright 1995, Gaussian, Inc.),
 the Gaussian 92(TM) system (copyright 1992, Gaussian, Inc.),
 the Gaussian 90(TM) system (copyright 1990, Gaussian, Inc.),
 the Gaussian 88(TM) system (copyright 1988, Gaussian, Inc.),
 the Gaussian 86(TM) system (copyright 1986, Carnegie Mellon
 University), and the Gaussian 82(TM) system (copyright 1983,
 Carnegie Mellon University). Gaussian is a federally registered
 trademark of Gaussian, Inc.
  
 This software contains proprietary and confidential information,
 including trade secrets, belonging to Gaussian, Inc.
  
 This software is provided under written license and may be
 used, copied, transmitted, or stored only in accord with that
 written license.
  
 The following legend is applicable only to US Government
 contracts under FAR:
  
                    RESTRICTED RIGHTS LEGEND
  
 Use, reproduction and disclosure by the US Government is
 subject to restrictions as set forth in subparagraphs (a)
 and (c) of the Commercial Computer Software - Restricted
 Rights clause in FAR 52.227-19.
  
 Gaussian, Inc.
 340 Quinnipiac St., Bldg. 40, Wallingford CT 06492
  
  
 ---------------------------------------------------------------
 Warning -- This program may not be used in any manner that
 competes with the business of Gaussian, Inc. or will provide
 assistance to any competitor of Gaussian, Inc.  The licensee
 of this program is prohibited from giving any competitor of
 Gaussian, Inc. access to this program.  By using this program,
 the user acknowledges that Gaussian, Inc. is engaged in the
 business of creating and licensing software in the field of
 computational chemistry and represents and warrants to the
 licensee that it is not a competitor of Gaussian, Inc. and that
 it will not use this program in any manner prohibited above.
 ---------------------------------------------------------------
  

 Cite this work as:
 Gaussian 09, Revision A.02,
 M. J. Frisch, G. W. Trucks, H. B. Schlegel, G. E. Scuseria, 
 M. A. Robb, J. R. Cheeseman, G. Scalmani, V. Barone, B. Mennucci, 
 G. A. Petersson, H. Nakatsuji, M. Caricato, X. Li, H. P. Hratchian, 
 A. F. Izmaylov, J. Bloino, G. Zheng, J. L. Sonnenberg, M. Hada, 
 M. Ehara, K. Toyota, R. Fukuda, J. Hasegawa, M. Ishida, T. Nakajima, 
 Y. Honda, O. Kitao, H. Nakai, T. Vreven, J. A. Montgomery, Jr., 
 J. E. Peralta, F. Ogliaro, M. Bearpark, J. J. Heyd, E. Brothers, 
 K. N. Kudin, V. N. Staroverov, R. Kobayashi, J. Normand, 
 K. Raghavachari, A. Rendell, J. C. Burant, S. S. Iyengar, J. Tomasi, 
 M. Cossi, N. Rega, J. M. Millam, M. Klene, J. E. Knox, J. B. Cross, 
 V. Bakken, C. Adamo, J. Jaramillo, R. Gomperts, R. E. Stratmann, 
 O. Yazyev, A. J. Austin, R. Cammi, C. Pomelli, J. W. Ochterski, 
 R. L. Martin, K. Morokuma, V. G. Zakrzewski, G. A. Voth, 
 P. Salvador, J. J. Dannenberg, S. Dapprich, A. D. Daniels, 
 O. Farkas, J. B. Foresman, J. V. Ortiz, J. Cioslowski, 
 and D. J. Fox, Gaussian, Inc., Wallingford CT, 2009.
 
 ******************************************
 Gaussian 09:  AM64L-G09RevA.02 11-Jun-2009
                28-Sep-2021 
 ******************************************
 %nproc=3
 Will use up to    3 processors via shared memory.
 %mem=6gb
 %chk=C9H12O_c006_conf_0.chk
 -----------------------------------
 #p opt b3lyp/6-31G* scf=(xqc,tight)
 -----------------------------------
 1/14=-1,18=20,19=15,26=3,38=1/1,3;
 2/9=110,12=2,17=6,18=5,40=1/2;
 3/5=1,6=6,7=1,11=2,16=1,25=1,30=1,71=1,74=-5/1,2,3;
 4//1;
 5/5=2,8=3,13=1,32=2,38=5/2,8;
 6/7=2,8=2,9=2,10=2,28=1/1;
 7//1,2,3,16;
 1/14=-1,18=20,19=15/3(2);
 2/9=110/2;
 99//99;
 2/9=110/2;
 3/5=1,6=6,7=1,11=2,16=1,25=1,30=1,71=1,74=-5/1,2,3;
 4/5=5,16=3/1;
 5/5=2,8=3,13=1,32=2,38=5/2,8;
 7//1,2,3,16;
 1/14=-1,18=20,19=15/3(-5);
 2/9=110/2;
 6/7=2,8=2,9=2,10=2,19=2,28=1/1;
 99/9=1/99;
 Leave Link    1 at Tue Sep 28 16:41:04 2021, MaxMem=  805306368 cpu:       0.1
 (Enter /sw/target/amd/app/gaussian/Gaussian09RevA.02_gcc-4.9.2/g09/l101.exe)
 ---------------------
 CCc1ccc(cc1)OC_conf_0
 ---------------------
 Symbolic Z-matrix:
 Charge =  0 Multiplicity = 1
 C                     0.98263   0.42526   0.199 
 C                     2.43111  -0.03507   0.23769 
 C                     2.95344  -0.40353  -1.12737 
 C                     3.56045   0.56239  -1.94048 
 C                     4.06771   0.22022  -3.20003 
 C                     3.97194  -1.091    -3.66262 
 C                     3.34308  -2.05002  -2.86553 
 C                     2.83512  -1.71142  -1.60834 
 O                     4.44351  -1.55841  -4.85876 
 C                     5.17536  -0.64008  -5.66127 
 H                     0.64723   0.69743   1.205 
 H                     0.32412  -0.36572  -0.17522 
 H                     0.85968   1.30056  -0.44766 
 H                     2.52777  -0.89495   0.91201 
 H                     3.05786   0.75599   0.66753 
 H                     3.64927   1.58949  -1.59541 
 H                     4.5328    1.00266  -3.78915 
 H                     3.25564  -3.07297  -3.22324 
 H                     2.35516  -2.47926  -1.00614 
 H                     5.54641  -1.18205  -6.53659 
 H                     6.0443   -0.24427  -5.12476 
 H                     4.52862   0.1681   -6.01791 
 
 NAtoms=     22 NQM=     22 NQMF=      0 NMic=      0 NMicF=      0 NTot=     22.
                    Isotopes and Nuclear Properties:
 (Nuclear quadrupole moments (NQMom) in fm**2, nuclear magnetic moments (NMagM)
  in nuclear magnetons)

  Atom         1           2           3           4           5           6           7           8           9          10
 IAtWgt=          12          12          12          12          12          12          12          12          16          12
 AtmWgt=  12.0000000  12.0000000  12.0000000  12.0000000  12.0000000  12.0000000  12.0000000  12.0000000  15.9949146  12.0000000
 NucSpn=           0           0           0           0           0           0           0           0           0           0
 AtZEff=   0.0000000   0.0000000   0.0000000   0.0000000   0.0000000   0.0000000   0.0000000   0.0000000   0.0000000   0.0000000
 NQMom=    0.0000000   0.0000000   0.0000000   0.0000000   0.0000000   0.0000000   0.0000000   0.0000000   0.0000000   0.0000000
 NMagM=    0.0000000   0.0000000   0.0000000   0.0000000   0.0000000   0.0000000   0.0000000   0.0000000   0.0000000   0.0000000

  Atom        11          12          13          14          15          16          17          18          19          20
 IAtWgt=           1           1           1           1           1           1           1           1           1           1
 AtmWgt=   1.0078250   1.0078250   1.0078250   1.0078250   1.0078250   1.0078250   1.0078250   1.0078250   1.0078250   1.0078250
 NucSpn=           1           1           1           1           1           1           1           1           1           1
 AtZEff=   0.0000000   0.0000000   0.0000000   0.0000000   0.0000000   0.0000000   0.0000000   0.0000000   0.0000000   0.0000000
 NQMom=    0.0000000   0.0000000   0.0000000   0.0000000   0.0000000   0.0000000   0.0000000   0.0000000   0.0000000   0.0000000
 NMagM=    2.7928460   2.7928460   2.7928460   2.7928460   2.7928460   2.7928460   2.7928460   2.7928460   2.7928460   2.7928460

  Atom        21          22
 IAtWgt=           1           1
 AtmWgt=   1.0078250   1.0078250
 NucSpn=           1           1
 AtZEff=   0.0000000   0.0000000
 NQMom=    0.0000000   0.0000000
 NMagM=    2.7928460   2.7928460
 Leave Link  101 at Tue Sep 28 16:41:05 2021, MaxMem=  805306368 cpu:       0.2
 (Enter /sw/target/amd/app/gaussian/Gaussian09RevA.02_gcc-4.9.2/g09/l103.exe)

 GradGradGradGradGradGradGradGradGradGradGradGradGradGradGradGradGradGrad
 Berny optimization.
 Initialization pass.
                           ----------------------------
                           !    Initial Parameters    !
                           ! (Angstroms and Degrees)  !
 --------------------------                            --------------------------
 ! Name  Definition              Value          Derivative Info.                !
 --------------------------------------------------------------------------------
 ! R1    R(1,2)                  1.5204         estimate D2E/DX2                !
 ! R2    R(1,11)                 1.0948         estimate D2E/DX2                !
 ! R3    R(1,12)                 1.0951         estimate D2E/DX2                !
 ! R4    R(1,13)                 1.0952         estimate D2E/DX2                !
 ! R5    R(2,3)                  1.5073         estimate D2E/DX2                !
 ! R6    R(2,14)                 1.097          estimate D2E/DX2                !
 ! R7    R(2,15)                 1.097          estimate D2E/DX2                !
 ! R8    R(3,4)                  1.4009         estimate D2E/DX2                !
 ! R9    R(3,8)                  1.3985         estimate D2E/DX2                !
 ! R10   R(4,5)                  1.4003         estimate D2E/DX2                !
 ! R11   R(4,16)                 1.0872         estimate D2E/DX2                !
 ! R12   R(5,6)                  1.3937         estimate D2E/DX2                !
 ! R13   R(5,17)                 1.0842         estimate D2E/DX2                !
 ! R14   R(6,7)                  1.3966         estimate D2E/DX2                !
 ! R15   R(6,9)                  1.3681         estimate D2E/DX2                !
 ! R16   R(7,8)                  1.3976         estimate D2E/DX2                !
 ! R17   R(7,18)                 1.0872         estimate D2E/DX2                !
 ! R18   R(8,19)                 1.0875         estimate D2E/DX2                !
 ! R19   R(9,10)                 1.4223         estimate D2E/DX2                !
 ! R20   R(10,20)                1.0943         estimate D2E/DX2                !
 ! R21   R(10,21)                1.0952         estimate D2E/DX2                !
 ! R22   R(10,22)                1.0948         estimate D2E/DX2                !
 ! A1    A(2,1,11)             110.1064         estimate D2E/DX2                !
 ! A2    A(2,1,12)             111.2772         estimate D2E/DX2                !
 ! A3    A(2,1,13)             111.3447         estimate D2E/DX2                !
 ! A4    A(11,1,12)            108.0188         estimate D2E/DX2                !
 ! A5    A(11,1,13)            108.0274         estimate D2E/DX2                !
 ! A6    A(12,1,13)            107.9377         estimate D2E/DX2                !
 ! A7    A(1,2,3)              112.4028         estimate D2E/DX2                !
 ! A8    A(1,2,14)             109.689          estimate D2E/DX2                !
 ! A9    A(1,2,15)             109.6305         estimate D2E/DX2                !
 ! A10   A(3,2,14)             109.5449         estimate D2E/DX2                !
 ! A11   A(3,2,15)             109.4605         estimate D2E/DX2                !
 ! A12   A(14,2,15)            105.9047         estimate D2E/DX2                !
 ! A13   A(2,3,4)              120.4802         estimate D2E/DX2                !
 ! A14   A(2,3,8)              120.7131         estimate D2E/DX2                !
 ! A15   A(4,3,8)              118.8058         estimate D2E/DX2                !
 ! A16   A(3,4,5)              120.7005         estimate D2E/DX2                !
 ! A17   A(3,4,16)             120.1707         estimate D2E/DX2                !
 ! A18   A(5,4,16)             119.1275         estimate D2E/DX2                !
 ! A19   A(4,5,6)              120.2344         estimate D2E/DX2                !
 ! A20   A(4,5,17)             117.8904         estimate D2E/DX2                !
 ! A21   A(6,5,17)             121.8749         estimate D2E/DX2                !
 ! A22   A(5,6,7)              119.1791         estimate D2E/DX2                !
 ! A23   A(5,6,9)              126.0115         estimate D2E/DX2                !
 ! A24   A(7,6,9)              114.8093         estimate D2E/DX2                !
 ! A25   A(6,7,8)              120.7096         estimate D2E/DX2                !
 ! A26   A(6,7,18)             119.6385         estimate D2E/DX2                !
 ! A27   A(8,7,18)             119.6496         estimate D2E/DX2                !
 ! A28   A(3,8,7)              120.3441         estimate D2E/DX2                !
 ! A29   A(3,8,19)             120.4785         estimate D2E/DX2                !
 ! A30   A(7,8,19)             119.1752         estimate D2E/DX2                !
 ! A31   A(6,9,10)             116.7496         estimate D2E/DX2                !
 ! A32   A(9,10,20)            107.8186         estimate D2E/DX2                !
 ! A33   A(9,10,21)            111.4189         estimate D2E/DX2                !
 ! A34   A(9,10,22)            110.8831         estimate D2E/DX2                !
 ! A35   A(20,10,21)           107.5651         estimate D2E/DX2                !
 ! A36   A(20,10,22)           107.777          estimate D2E/DX2                !
 ! A37   A(21,10,22)           111.1903         estimate D2E/DX2                !
 ! D1    D(11,1,2,3)          -179.1293         estimate D2E/DX2                !
 ! D2    D(11,1,2,14)           58.7412         estimate D2E/DX2                !
 ! D3    D(11,1,2,15)          -57.1491         estimate D2E/DX2                !
 ! D4    D(12,1,2,3)            61.131          estimate D2E/DX2                !
 ! D5    D(12,1,2,14)          -60.9985         estimate D2E/DX2                !
 ! D6    D(12,1,2,15)         -176.8888         estimate D2E/DX2                !
 ! D7    D(13,1,2,3)           -59.3354         estimate D2E/DX2                !
 ! D8    D(13,1,2,14)          178.5351         estimate D2E/DX2                !
 ! D9    D(13,1,2,15)           62.6448         estimate D2E/DX2                !
 ! D10   D(1,2,3,4)             89.7093         estimate D2E/DX2                !
 ! D11   D(1,2,3,8)            -89.9388         estimate D2E/DX2                !
 ! D12   D(14,2,3,4)          -148.0795         estimate D2E/DX2                !
 ! D13   D(14,2,3,8)            32.2724         estimate D2E/DX2                !
 ! D14   D(15,2,3,4)           -32.3674         estimate D2E/DX2                !
 ! D15   D(15,2,3,8)           147.9845         estimate D2E/DX2                !
 ! D16   D(2,3,4,5)            178.9067         estimate D2E/DX2                !
 ! D17   D(2,3,4,16)            -0.665          estimate D2E/DX2                !
 ! D18   D(8,3,4,5)             -1.4386         estimate D2E/DX2                !
 ! D19   D(8,3,4,16)           178.9897         estimate D2E/DX2                !
 ! D20   D(2,3,8,7)           -178.874          estimate D2E/DX2                !
 ! D21   D(2,3,8,19)             0.5828         estimate D2E/DX2                !
 ! D22   D(4,3,8,7)              1.4721         estimate D2E/DX2                !
 ! D23   D(4,3,8,19)          -179.0712         estimate D2E/DX2                !
 ! D24   D(3,4,5,6)              0.118          estimate D2E/DX2                !
 ! D25   D(3,4,5,17)          -179.6903         estimate D2E/DX2                !
 ! D26   D(16,4,5,6)           179.6941         estimate D2E/DX2                !
 ! D27   D(16,4,5,17)           -0.1143         estimate D2E/DX2                !
 ! D28   D(4,5,6,7)              1.1725         estimate D2E/DX2                !
 ! D29   D(4,5,6,9)           -178.9108         estimate D2E/DX2                !
 ! D30   D(17,5,6,7)          -179.0269         estimate D2E/DX2                !
 ! D31   D(17,5,6,9)             0.8897         estimate D2E/DX2                !
 ! D32   D(5,6,7,8)             -1.1392         estimate D2E/DX2                !
 ! D33   D(5,6,7,18)           179.4071         estimate D2E/DX2                !
 ! D34   D(9,6,7,8)            178.935          estimate D2E/DX2                !
 ! D35   D(9,6,7,18)            -0.5187         estimate D2E/DX2                !
 ! D36   D(5,6,9,10)             4.4487         estimate D2E/DX2                !
 ! D37   D(7,6,9,10)          -175.6315         estimate D2E/DX2                !
 ! D38   D(6,7,8,3)             -0.1933         estimate D2E/DX2                !
 ! D39   D(6,7,8,19)          -179.6571         estimate D2E/DX2                !
 ! D40   D(18,7,8,3)           179.2603         estimate D2E/DX2                !
 ! D41   D(18,7,8,19)           -0.2035         estimate D2E/DX2                !
 ! D42   D(6,9,10,20)          175.6409         estimate D2E/DX2                !
 ! D43   D(6,9,10,21)           57.8272         estimate D2E/DX2                !
 ! D44   D(6,9,10,22)          -66.5921         estimate D2E/DX2                !
 --------------------------------------------------------------------------------
 Trust Radius=3.00D-01 FncErr=1.00D-07 GrdErr=1.00D-06
 Number of steps in this run= 113 maximum allowed number of steps= 132.
 GradGradGradGradGradGradGradGradGradGradGradGradGradGradGradGradGradGrad

 Leave Link  103 at Tue Sep 28 16:41:05 2021, MaxMem=  805306368 cpu:       0.0
 (Enter /sw/target/amd/app/gaussian/Gaussian09RevA.02_gcc-4.9.2/g09/l202.exe)
                          Input orientation:                          
 ---------------------------------------------------------------------
 Center     Atomic      Atomic             Coordinates (Angstroms)
 Number     Number       Type             X           Y           Z
 ---------------------------------------------------------------------
      1          6           0        0.982634    0.425261    0.198996
      2          6           0        2.431112   -0.035074    0.237686
      3          6           0        2.953440   -0.403529   -1.127368
      4          6           0        3.560452    0.562387   -1.940477
      5          6           0        4.067706    0.220223   -3.200035
      6          6           0        3.971940   -1.090997   -3.662619
      7          6           0        3.343079   -2.050023   -2.865532
      8          6           0        2.835121   -1.711420   -1.608339
      9          8           0        4.443509   -1.558411   -4.858755
     10          6           0        5.175364   -0.640083   -5.661265
     11          1           0        0.647228    0.697435    1.204995
     12          1           0        0.324123   -0.365725   -0.175219
     13          1           0        0.859675    1.300561   -0.447663
     14          1           0        2.527769   -0.894945    0.912012
     15          1           0        3.057861    0.755994    0.667534
     16          1           0        3.649272    1.589491   -1.595414
     17          1           0        4.532802    1.002664   -3.789149
     18          1           0        3.255641   -3.072966   -3.223237
     19          1           0        2.355162   -2.479265   -1.006142
     20          1           0        5.546405   -1.182054   -6.536588
     21          1           0        6.044302   -0.244275   -5.124764
     22          1           0        4.528624    0.168104   -6.017912
 ---------------------------------------------------------------------
                    Distance matrix (angstroms):
                    1          2          3          4          5
     1  C    0.000000
     2  C    1.520360   0.000000
     3  C    2.515992   1.507302   0.000000
     4  C    3.352804   2.525225   1.400929   0.000000
     5  C    4.594902   3.815958   2.434461   1.400310   0.000000
     6  C    5.113420   4.324523   2.817348   2.422556   1.393719
     7  C    4.592392   3.810730   2.425690   2.779867   2.406447
     8  C    3.356125   2.526097   1.398539   2.409692   2.789982
     9  O    6.441542   5.687179   4.180587   3.714017   2.460918
    10  C    7.283997   6.534109   5.054614   4.230619   2.832788
    11  H    1.094810   2.157429   3.459864   4.289418   5.597472
    12  H    1.095140   2.172378   2.796664   3.801493   4.848428
    13  H    1.095188   2.173255   2.783842   3.172946   4.362813
    14  H    2.153782   1.097012   2.140504   3.365552   4.530335
    15  H    2.153017   1.096983   2.139409   2.663043   4.032980
    16  H    3.418523   2.735577   2.162262   1.087152   2.150533
    17  H    5.370511   4.659334   3.399535   2.134689   1.084244
    18  H    5.395909   4.678314   3.407328   3.867063   3.391914
    19  H    3.431102   2.743528   2.163634   3.402551   3.877268
    20  H    8.293345   7.543965   6.048903   5.302011   3.909670
    21  H    7.376394   6.469527   5.055488   4.118240   2.797726
    22  H    7.161712   6.601010   5.169660   4.209310   2.855800
                    6          7          8          9         10
     6  C    0.000000
     7  C    1.396619   0.000000
     8  C    2.428445   1.397572   0.000000
     9  O    1.368062   2.329285   3.629811   0.000000
    10  C    2.376160   3.627853   4.801115   1.422308   0.000000
    11  H    6.160022   5.602261   4.301664   7.501311   8.332977
    12  H    5.098485   4.380496   3.189019   6.350382   7.328473
    13  H    5.073627   4.820767   3.784387   6.362022   7.040803
    14  H    4.801179   4.033457   2.667071   6.116535   7.091029
    15  H    4.795533   4.520800   3.364125   6.149501   6.818104
    16  H    3.400363   3.866913   3.399856   4.603205   4.881711
    17  H    2.171173   3.404027   3.873538   2.776893   2.572221
    18  H    2.152752   1.087203   2.153727   2.525832   3.943125
    19  H    3.405603   2.148851   1.087469   4.477923   5.745111
    20  H    3.278251   4.368600   5.649683   2.042828   1.094347
    21  H    2.673853   3.957456   4.981626   2.088122   1.095240
    22  H    2.728120   4.032753   5.083787   2.081284   1.094822
                   11         12         13         14         15
    11  H    0.000000
    12  H    1.771919   0.000000
    13  H    1.772054   1.771313   0.000000
    14  H    2.481521   2.513604   3.074329   0.000000
    15  H    2.470516   3.072753   2.524329   1.751104   0.000000
    16  H    4.201229   4.110528   3.030291   3.703698   2.483026
    17  H    6.335008   5.713664   4.974548   5.451788   4.700885
    18  H    6.374087   5.021292   5.707206   4.730101   5.462430
    19  H    4.230554   3.046737   4.103104   2.493828   3.709700
    20  H    9.352354   8.270770   8.074888   8.042154   7.864366
    21  H    8.371444   7.565262   7.151374   7.016555   6.593184
    22  H    8.216801   7.218023   6.765450   7.290908   6.870512
                   16         17         18         19         20
    16  H    0.000000
    17  H    2.436691   0.000000
    18  H    4.954115   4.308382   0.000000
    19  H    4.310074   4.960955   2.465533   0.000000
    20  H    5.974594   3.653602   4.449881   6.515568   0.000000
    21  H    4.642755   2.371362   4.403854   5.963890   1.766516
    22  H    4.727799   2.379893   4.464888   6.070448   1.768568
                   21         22
    21  H    0.000000
    22  H    1.806945   0.000000
 Stoichiometry    C9H12O
 Framework group  C1[X(C9H12O)]
 Deg. of freedom    60
 Full point group                 C1      NOp   1
 Largest Abelian subgroup         C1      NOp   1
 Largest concise Abelian subgroup C1      NOp   1
                         Standard orientation:                         
 ---------------------------------------------------------------------
 Center     Atomic      Atomic             Coordinates (Angstroms)
 Number     Number       Type             X           Y           Z
 ---------------------------------------------------------------------
      1          6           0       -3.614028   -0.254147    0.784211
      2          6           0       -2.852284   -0.136555   -0.526290
      3          6           0       -1.366566    0.006639   -0.316297
      4          6           0       -0.545960   -1.126775   -0.248635
      5          6           0        0.837776   -0.998325   -0.076461
      6          6           0        1.417178    0.264553    0.032559
      7          6           0        0.598246    1.395174   -0.007337
      8          6           0       -0.783190    1.270178   -0.178267
      9          8           0        2.751493    0.527193    0.181621
     10          6           0        3.632965   -0.587901    0.131290
     11          1           0       -4.684678   -0.371647    0.587965
     12          1           0       -3.479180    0.638774    1.403760
     13          1           0       -3.278602   -1.120695    1.363885
     14          1           0       -3.226971    0.722963   -1.095741
     15          1           0       -3.050193   -1.018411   -1.148008
     16          1           0       -0.978286   -2.120378   -0.336658
     17          1           0        1.430142   -1.905518   -0.035372
     18          1           0        1.041290    2.383542    0.086752
     19          1           0       -1.396608    2.167516   -0.211309
     20          1           0        4.657609   -0.207550    0.186364
     21          1           0        3.533448   -1.134111   -0.812797
     22          1           0        3.475264   -1.249082    0.989547
 ---------------------------------------------------------------------
 Rotational constants (GHZ):      3.9610794      0.6792956      0.6113166
 Leave Link  202 at Tue Sep 28 16:41:05 2021, MaxMem=  805306368 cpu:       0.0
 (Enter /sw/target/amd/app/gaussian/Gaussian09RevA.02_gcc-4.9.2/g09/l301.exe)
 Standard basis: 6-31G(d) (6D, 7F)
 Ernie: Thresh=  0.10000D-02 Tol=  0.10000D-05 Strict=F.
 There are   174 symmetry adapted basis functions of A   symmetry.
 Integral buffers will be    131072 words long.
 Raffenetti 2 integral format.
 Two-electron integral symmetry is turned on.
   174 basis functions,   328 primitive gaussians,   174 cartesian basis functions
    37 alpha electrons       37 beta electrons
       nuclear repulsion energy       502.0156690664 Hartrees.
 IExCor=  402 DFT=T Ex+Corr=B3LYP ExCW=0 ScaHFX=  0.200000
 ScaDFX=  0.800000  0.720000  1.000000  0.810000 ScalE2=  1.000000  1.000000
 IRadAn=      0 IRanWt=     -1 IRanGd=            0 ICorTp=0
 NAtoms=   22 NActive=   22 NUniq=   22 SFac= 7.50D-01 NAtFMM=   80 NAOKFM=F Big=F
 Leave Link  301 at Tue Sep 28 16:41:06 2021, MaxMem=  805306368 cpu:       0.1
 (Enter /sw/target/amd/app/gaussian/Gaussian09RevA.02_gcc-4.9.2/g09/l302.exe)
 NPDir=0 NMtPBC=     1 NCelOv=     1 NCel=       1 NClECP=     1 NCelD=      1
         NCelK=      1 NCelE2=     1 NClLst=     1 CellRange=     0.0.
 One-electron integrals computed using PRISM.
 NBasis=   174 RedAO= T  NBF=   174
 NBsUse=   174 1.00D-06 NBFU=   174
 Precomputing XC quadrature grid using
 IXCGrd= 2 IRadAn=           0 IRanWt=          -1 IRanGd=           0 AccXCQ= 1.00D-10.
 NRdTot=    1389 NPtTot=      176870 NUsed=      186892 NTot=      186924
 NSgBfM=   173   173   173   173   173 NAtAll=    22    22.
 Leave Link  302 at Tue Sep 28 16:41:08 2021, MaxMem=  805306368 cpu:       1.4
 (Enter /sw/target/amd/app/gaussian/Gaussian09RevA.02_gcc-4.9.2/g09/l303.exe)
 DipDrv:  MaxL=1.
 Leave Link  303 at Tue Sep 28 16:41:08 2021, MaxMem=  805306368 cpu:       0.1
 (Enter /sw/target/amd/app/gaussian/Gaussian09RevA.02_gcc-4.9.2/g09/l401.exe)
 Harris functional with IExCor=  402 diagonalized for initial guess.
 ExpMin= 1.61D-01 ExpMax= 5.48D+03 ExpMxC= 8.25D+02 IAcc=1 IRadAn=         1 AccDes= 0.00D+00
 HarFok:  IExCor=  402 AccDes= 0.00D+00 IRadAn=         1 IDoV= 1
 ScaDFX=  1.000000  1.000000  1.000000  1.000000
 FoFCou: FMM=F IPFlag=           0 FMFlag=      100000 FMFlg1=           0
         NFxFlg=           0 DoJE=T BraDBF=F KetDBF=T FulRan=T
         Omega=  0.000000  0.000000  1.000000  0.000000  0.000000 ICntrl=     500 IOpCl=  0
         NMat0=    1 NMatS0=    1 NMatT0=    0 NMatD0=    1 NMtDS0=    0 NMtDT0=    0
         I1Cent=           4 NGrid=           0.
 Petite list used in FoFCou.
 Harris En= -425.478265260705    
 Initial guess orbital symmetries:
       Occupied  (A) (A) (A) (A) (A) (A) (A) (A) (A) (A) (A) (A)
                 (A) (A) (A) (A) (A) (A) (A) (A) (A) (A) (A) (A)
                 (A) (A) (A) (A) (A) (A) (A) (A) (A) (A) (A) (A)
                 (A)
       Virtual   (A) (A) (A) (A) (A) (A) (A) (A) (A) (A) (A) (A)
                 (A) (A) (A) (A) (A) (A) (A) (A) (A) (A) (A) (A)
                 (A) (A) (A) (A) (A) (A) (A) (A) (A) (A) (A) (A)
                 (A) (A) (A) (A) (A) (A) (A) (A) (A) (A) (A) (A)
                 (A) (A) (A) (A) (A) (A) (A) (A) (A) (A) (A) (A)
                 (A) (A) (A) (A) (A) (A) (A) (A) (A) (A) (A) (A)
                 (A) (A) (A) (A) (A) (A) (A) (A) (A) (A) (A) (A)
                 (A) (A) (A) (A) (A) (A) (A) (A) (A) (A) (A) (A)
                 (A) (A) (A) (A) (A) (A) (A) (A) (A) (A) (A) (A)
                 (A) (A) (A) (A) (A) (A) (A) (A) (A) (A) (A) (A)
                 (A) (A) (A) (A) (A) (A) (A) (A) (A) (A) (A) (A)
                 (A) (A) (A) (A) (A)
 The electronic state of the initial guess is 1-A.
 Leave Link  401 at Tue Sep 28 16:41:15 2021, MaxMem=  805306368 cpu:       5.9
 (Enter /sw/target/amd/app/gaussian/Gaussian09RevA.02_gcc-4.9.2/g09/l502.exe)
 Closed shell SCF:
 Requested convergence on RMS density matrix=1.00D-08 within  64 cycles.
 Requested convergence on MAX density matrix=1.00D-06.
 Requested convergence on             energy=1.00D-06.
 No special actions if energy rises.
 Using DIIS extrapolation, IDIIS=  1040.
 Integral symmetry usage will be decided dynamically.
       186681 words used for storage of precomputed grid.
 Keep R1 ints in memory in canonical form, NReq=118872956.
 IEnd=      285417 IEndB=      285417 NGot=   805306368 MDV=   689147673
 LenX=   689147673 LenY=   689116956
 Symmetry not used in FoFDir.
 MinBra= 0 MaxBra= 2 Meth= 1.
 IRaf=       0 NMat=   1 IRICut=       1 DoRegI=T DoRafI=F ISym2E= 0 JSym2E=0.
 Integral accuracy reduced to 1.0D-05 until final iterations.

 Cycle   1  Pass 0  IDiag  1:
 E= -425.119568779093    
 DIIS: error= 4.39D-02 at cycle   1 NSaved=   1.
 NSaved= 1 IEnMin= 1 EnMin= -425.119568779093     IErMin= 1 ErrMin= 4.39D-02
 ErrMax= 4.39D-02 EMaxC= 1.00D-01 BMatC= 2.55D-01 BMatP= 2.55D-01
 IDIUse=3 WtCom= 5.61D-01 WtEn= 4.39D-01
 Coeff-Com:  0.100D+01
 Coeff-En:   0.100D+01
 Coeff:      0.100D+01
 Gap=     0.236 Goal=   None    Shift=    0.000
 GapD=    0.236 DampG=1.000 DampE=0.500 DampFc=0.5000 IDamp=-1.
 Damping current iteration by 5.00D-01
 RMSDP=6.69D-03 MaxDP=1.42D-01              OVMax= 2.01D-01

 Cycle   2  Pass 0  IDiag  1:
 E= -425.249597356053     Delta-E=       -0.130028576960 Rises=F Damp=T
 DIIS: error= 7.61D-03 at cycle   2 NSaved=   2.
 NSaved= 2 IEnMin= 2 EnMin= -425.249597356053     IErMin= 2 ErrMin= 7.61D-03
 ErrMax= 7.61D-03 EMaxC= 1.00D-01 BMatC= 1.25D-02 BMatP= 2.55D-01
 IDIUse=3 WtCom= 9.24D-01 WtEn= 7.61D-02
 Coeff-Com:  0.356D-01 0.964D+00
 Coeff-En:   0.596D-01 0.940D+00
 Coeff:      0.374D-01 0.963D+00
 Gap=     0.222 Goal=   None    Shift=    0.000
 RMSDP=1.75D-03 MaxDP=3.61D-02 DE=-1.30D-01 OVMax= 1.58D-01

 Cycle   3  Pass 0  IDiag  1:
 E= -425.390626528303     Delta-E=       -0.141029172250 Rises=F Damp=F
 DIIS: error= 7.79D-03 at cycle   3 NSaved=   3.
 NSaved= 3 IEnMin= 3 EnMin= -425.390626528303     IErMin= 2 ErrMin= 7.61D-03
 ErrMax= 7.79D-03 EMaxC= 1.00D-01 BMatC= 9.16D-03 BMatP= 1.25D-02
 IDIUse=3 WtCom= 9.22D-01 WtEn= 7.79D-02
 Coeff-Com: -0.139D-01 0.454D+00 0.560D+00
 Coeff-En:   0.000D+00 0.000D+00 0.100D+01
 Coeff:     -0.129D-01 0.419D+00 0.594D+00
 Gap=     0.216 Goal=   None    Shift=    0.000
 RMSDP=1.05D-03 MaxDP=2.92D-02 DE=-1.41D-01 OVMax= 7.95D-02

 Cycle   4  Pass 0  IDiag  1:
 E= -425.395793907207     Delta-E=       -0.005167378905 Rises=F Damp=F
 DIIS: error= 5.95D-03 at cycle   4 NSaved=   4.
 NSaved= 4 IEnMin= 4 EnMin= -425.395793907207     IErMin= 4 ErrMin= 5.95D-03
 ErrMax= 5.95D-03 EMaxC= 1.00D-01 BMatC= 4.56D-03 BMatP= 9.16D-03
 IDIUse=3 WtCom= 9.40D-01 WtEn= 5.95D-02
 Coeff-Com: -0.125D-01 0.961D-01 0.412D+00 0.504D+00
 Coeff-En:   0.000D+00 0.000D+00 0.365D+00 0.635D+00
 Coeff:     -0.118D-01 0.904D-01 0.409D+00 0.512D+00
 Gap=     0.212 Goal=   None    Shift=    0.000
 RMSDP=4.65D-04 MaxDP=1.22D-02 DE=-5.17D-03 OVMax= 3.19D-02

 Cycle   5  Pass 0  IDiag  1:
 E= -425.400798549560     Delta-E=       -0.005004642352 Rises=F Damp=F
 DIIS: error= 5.84D-04 at cycle   5 NSaved=   5.
 NSaved= 5 IEnMin= 5 EnMin= -425.400798549560     IErMin= 5 ErrMin= 5.84D-04
 ErrMax= 5.84D-04 EMaxC= 1.00D-01 BMatC= 8.45D-05 BMatP= 4.56D-03
 IDIUse=3 WtCom= 9.94D-01 WtEn= 5.84D-03
 Coeff-Com: -0.328D-02 0.144D-01 0.143D+00 0.223D+00 0.624D+00
 Coeff-En:   0.000D+00 0.000D+00 0.000D+00 0.000D+00 0.100D+01
 Coeff:     -0.326D-02 0.143D-01 0.142D+00 0.221D+00 0.626D+00
 Gap=     0.212 Goal=   None    Shift=    0.000
 RMSDP=6.29D-05 MaxDP=1.67D-03 DE=-5.00D-03 OVMax= 4.48D-03

 Cycle   6  Pass 0  IDiag  1:
 E= -425.400871616678     Delta-E=       -0.000073067118 Rises=F Damp=F
 DIIS: error= 2.04D-04 at cycle   6 NSaved=   6.
 NSaved= 6 IEnMin= 6 EnMin= -425.400871616678     IErMin= 6 ErrMin= 2.04D-04
 ErrMax= 2.04D-04 EMaxC= 1.00D-01 BMatC= 1.13D-05 BMatP= 8.45D-05
 IDIUse=3 WtCom= 9.98D-01 WtEn= 2.04D-03
 Coeff-Com: -0.687D-03 0.232D-03 0.435D-01 0.779D-01 0.336D+00 0.543D+00
 Coeff-En:   0.000D+00 0.000D+00 0.000D+00 0.000D+00 0.485D-01 0.951D+00
 Coeff:     -0.686D-03 0.231D-03 0.434D-01 0.778D-01 0.335D+00 0.544D+00
 Gap=     0.212 Goal=   None    Shift=    0.000
 RMSDP=2.14D-05 MaxDP=6.55D-04 DE=-7.31D-05 OVMax= 1.20D-03

 Cycle   7  Pass 0  IDiag  1:
 E= -425.400882218508     Delta-E=       -0.000010601830 Rises=F Damp=F
 DIIS: error= 5.03D-05 at cycle   7 NSaved=   7.
 NSaved= 7 IEnMin= 7 EnMin= -425.400882218508     IErMin= 7 ErrMin= 5.03D-05
 ErrMax= 5.03D-05 EMaxC= 1.00D-01 BMatC= 4.54D-07 BMatP= 1.13D-05
 IDIUse=1 WtCom= 1.00D+00 WtEn= 0.00D+00
 Coeff-Com: -0.139D-03-0.566D-03 0.149D-01 0.278D-01 0.137D+00 0.267D+00
 Coeff-Com:  0.554D+00
 Coeff:     -0.139D-03-0.566D-03 0.149D-01 0.278D-01 0.137D+00 0.267D+00
 Coeff:      0.554D+00
 Gap=     0.212 Goal=   None    Shift=    0.000
 RMSDP=6.17D-06 MaxDP=1.49D-04 DE=-1.06D-05 OVMax= 4.36D-04

 Initial convergence to 1.0D-05 achieved.  Increase integral accuracy.
 Cycle   8  Pass 1  IDiag  1:
 E= -425.400843489815     Delta-E=        0.000038728693 Rises=F Damp=F
 DIIS: error= 2.45D-05 at cycle   1 NSaved=   1.
 NSaved= 1 IEnMin= 1 EnMin= -425.400843489815     IErMin= 1 ErrMin= 2.45D-05
 ErrMax= 2.45D-05 EMaxC= 1.00D-01 BMatC= 1.66D-07 BMatP= 1.66D-07
 IDIUse=1 WtCom= 1.00D+00 WtEn= 0.00D+00
 Coeff-Com:  0.100D+01
 Coeff:      0.100D+01
 Gap=     0.212 Goal=   None    Shift=    0.000
 RMSDP=6.17D-06 MaxDP=1.49D-04 DE= 3.87D-05 OVMax= 4.50D-04

 Cycle   9  Pass 1  IDiag  1:
 E= -425.400843297340     Delta-E=        0.000000192475 Rises=F Damp=F
 DIIS: error= 4.91D-05 at cycle   2 NSaved=   2.
 NSaved= 2 IEnMin= 1 EnMin= -425.400843489815     IErMin= 1 ErrMin= 2.45D-05
 ErrMax= 4.91D-05 EMaxC= 1.00D-01 BMatC= 3.45D-07 BMatP= 1.66D-07
 IDIUse=1 WtCom= 1.00D+00 WtEn= 0.00D+00
 Coeff-Com:  0.604D+00 0.396D+00
 Coeff:      0.604D+00 0.396D+00
 Gap=     0.212 Goal=   None    Shift=    0.000
 RMSDP=4.45D-06 MaxDP=1.09D-04 DE= 1.92D-07 OVMax= 3.39D-04

 Cycle  10  Pass 1  IDiag  1:
 E= -425.400843685198     Delta-E=       -0.000000387858 Rises=F Damp=F
 DIIS: error= 9.45D-06 at cycle   3 NSaved=   3.
 NSaved= 3 IEnMin= 3 EnMin= -425.400843685198     IErMin= 3 ErrMin= 9.45D-06
 ErrMax= 9.45D-06 EMaxC= 1.00D-01 BMatC= 1.18D-08 BMatP= 1.66D-07
 IDIUse=1 WtCom= 1.00D+00 WtEn= 0.00D+00
 Coeff-Com:  0.302D-01 0.155D+00 0.815D+00
 Coeff:      0.302D-01 0.155D+00 0.815D+00
 Gap=     0.212 Goal=   None    Shift=    0.000
 RMSDP=8.59D-07 MaxDP=2.14D-05 DE=-3.88D-07 OVMax= 5.86D-05

 Cycle  11  Pass 1  IDiag  1:
 E= -425.400843696579     Delta-E=       -0.000000011381 Rises=F Damp=F
 DIIS: error= 2.64D-06 at cycle   4 NSaved=   4.
 NSaved= 4 IEnMin= 4 EnMin= -425.400843696579     IErMin= 4 ErrMin= 2.64D-06
 ErrMax= 2.64D-06 EMaxC= 1.00D-01 BMatC= 2.07D-09 BMatP= 1.18D-08
 IDIUse=1 WtCom= 1.00D+00 WtEn= 0.00D+00
 Coeff-Com: -0.159D-01 0.666D-01 0.458D+00 0.491D+00
 Coeff:     -0.159D-01 0.666D-01 0.458D+00 0.491D+00
 Gap=     0.212 Goal=   None    Shift=    0.000
 RMSDP=2.58D-07 MaxDP=6.52D-06 DE=-1.14D-08 OVMax= 1.03D-05

 Cycle  12  Pass 1  IDiag  1:
 E= -425.400843698498     Delta-E=       -0.000000001919 Rises=F Damp=F
 DIIS: error= 4.35D-07 at cycle   5 NSaved=   5.
 NSaved= 5 IEnMin= 5 EnMin= -425.400843698498     IErMin= 5 ErrMin= 4.35D-07
 ErrMax= 4.35D-07 EMaxC= 1.00D-01 BMatC= 4.37D-11 BMatP= 2.07D-09
 IDIUse=1 WtCom= 1.00D+00 WtEn= 0.00D+00
 Coeff-Com: -0.856D-02 0.272D-01 0.193D+00 0.237D+00 0.551D+00
 Coeff:     -0.856D-02 0.272D-01 0.193D+00 0.237D+00 0.551D+00
 Gap=     0.212 Goal=   None    Shift=    0.000
 RMSDP=6.02D-08 MaxDP=1.40D-06 DE=-1.92D-09 OVMax= 3.86D-06

 Cycle  13  Pass 1  IDiag  1:
 E= -425.400843698527     Delta-E=       -0.000000000029 Rises=F Damp=F
 DIIS: error= 2.48D-07 at cycle   6 NSaved=   6.
 NSaved= 6 IEnMin= 6 EnMin= -425.400843698527     IErMin= 6 ErrMin= 2.48D-07
 ErrMax= 2.48D-07 EMaxC= 1.00D-01 BMatC= 1.08D-11 BMatP= 4.37D-11
 IDIUse=1 WtCom= 1.00D+00 WtEn= 0.00D+00
 Coeff-Com: -0.316D-02 0.791D-02 0.577D-01 0.797D-01 0.347D+00 0.511D+00
 Coeff:     -0.316D-02 0.791D-02 0.577D-01 0.797D-01 0.347D+00 0.511D+00
 Gap=     0.212 Goal=   None    Shift=    0.000
 RMSDP=2.48D-08 MaxDP=6.63D-07 DE=-2.91D-11 OVMax= 1.85D-06

 Cycle  14  Pass 1  IDiag  1:
 E= -425.400843698543     Delta-E=       -0.000000000016 Rises=F Damp=F
 DIIS: error= 5.83D-08 at cycle   7 NSaved=   7.
 NSaved= 7 IEnMin= 7 EnMin= -425.400843698543     IErMin= 7 ErrMin= 5.83D-08
 ErrMax= 5.83D-08 EMaxC= 1.00D-01 BMatC= 5.30D-13 BMatP= 1.08D-11
 IDIUse=1 WtCom= 1.00D+00 WtEn= 0.00D+00
 Coeff-Com: -0.398D-03 0.333D-03 0.290D-02 0.786D-02 0.914D-01 0.235D+00
 Coeff-Com:  0.662D+00
 Coeff:     -0.398D-03 0.333D-03 0.290D-02 0.786D-02 0.914D-01 0.235D+00
 Coeff:      0.662D+00
 Gap=     0.212 Goal=   None    Shift=    0.000
 RMSDP=5.47D-09 MaxDP=1.99D-07 DE=-1.61D-11 OVMax= 3.27D-07

 SCF Done:  E(RB3LYP) =  -425.400843699     A.U. after   14 cycles
             Convg  =    0.5471D-08             -V/T =  2.0096
 KE= 4.213758969608D+02 PE=-1.991385764801D+03 EE= 6.425933550756D+02
 Leave Link  502 at Tue Sep 28 16:43:37 2021, MaxMem=  805306368 cpu:     110.4
 (Enter /sw/target/amd/app/gaussian/Gaussian09RevA.02_gcc-4.9.2/g09/l508.exe)
 QCSCF skips out because SCF is already converged.
 Leave Link  508 at Tue Sep 28 16:43:38 2021, MaxMem=  805306368 cpu:       0.0
 (Enter /sw/target/amd/app/gaussian/Gaussian09RevA.02_gcc-4.9.2/g09/l601.exe)
 Copying SCF densities to generalized density rwf, IOpCl= 0 IROHF=0.

 **********************************************************************

            Population analysis using the SCF density.

 **********************************************************************

 Orbital symmetries:
       Occupied  (A) (A) (A) (A) (A) (A) (A) (A) (A) (A) (A) (A)
                 (A) (A) (A) (A) (A) (A) (A) (A) (A) (A) (A) (A)
                 (A) (A) (A) (A) (A) (A) (A) (A) (A) (A) (A) (A)
                 (A)
       Virtual   (A) (A) (A) (A) (A) (A) (A) (A) (A) (A) (A) (A)
                 (A) (A) (A) (A) (A) (A) (A) (A) (A) (A) (A) (A)
                 (A) (A) (A) (A) (A) (A) (A) (A) (A) (A) (A) (A)
                 (A) (A) (A) (A) (A) (A) (A) (A) (A) (A) (A) (A)
                 (A) (A) (A) (A) (A) (A) (A) (A) (A) (A) (A) (A)
                 (A) (A) (A) (A) (A) (A) (A) (A) (A) (A) (A) (A)
                 (A) (A) (A) (A) (A) (A) (A) (A) (A) (A) (A) (A)
                 (A) (A) (A) (A) (A) (A) (A) (A) (A) (A) (A) (A)
                 (A) (A) (A) (A) (A) (A) (A) (A) (A) (A) (A) (A)
                 (A) (A) (A) (A) (A) (A) (A) (A) (A) (A) (A) (A)
                 (A) (A) (A) (A) (A) (A) (A) (A) (A) (A) (A) (A)
                 (A) (A) (A) (A) (A)
 The electronic state is 1-A.
 Alpha  occ. eigenvalues --  -19.17241 -10.23892 -10.23711 -10.18364 -10.18234
 Alpha  occ. eigenvalues --  -10.18197 -10.18086 -10.17998 -10.17765 -10.17109
 Alpha  occ. eigenvalues --   -1.05712  -0.84693  -0.78105  -0.74206  -0.72736
 Alpha  occ. eigenvalues --   -0.68580  -0.61853  -0.60425  -0.56666  -0.52566
 Alpha  occ. eigenvalues --   -0.48176  -0.46636  -0.46302  -0.44057  -0.43333
 Alpha  occ. eigenvalues --   -0.41615  -0.40501  -0.39856  -0.37754  -0.36256
 Alpha  occ. eigenvalues --   -0.35758  -0.33410  -0.32768  -0.32087  -0.30484
 Alpha  occ. eigenvalues --   -0.24324  -0.20838
 Alpha virt. eigenvalues --    0.00376   0.02039   0.09230   0.10604   0.12055
 Alpha virt. eigenvalues --    0.13494   0.14270   0.15095   0.15533   0.16739
 Alpha virt. eigenvalues --    0.17146   0.17334   0.18170   0.18641   0.19409
 Alpha virt. eigenvalues --    0.21368   0.24198   0.26374   0.27018   0.33106
 Alpha virt. eigenvalues --    0.34194   0.34948   0.37234   0.48231   0.51048
 Alpha virt. eigenvalues --    0.51579   0.51664   0.53212   0.53763   0.54126
 Alpha virt. eigenvalues --    0.55794   0.56926   0.59190   0.59937   0.61187
 Alpha virt. eigenvalues --    0.61247   0.61876   0.63725   0.65584   0.66564
 Alpha virt. eigenvalues --    0.68788   0.69566   0.74938   0.75637   0.78542
 Alpha virt. eigenvalues --    0.82560   0.82897   0.83758   0.84231   0.84786
 Alpha virt. eigenvalues --    0.86488   0.87401   0.89114   0.89209   0.91273
 Alpha virt. eigenvalues --    0.92421   0.93828   0.95144   0.95913   0.97936
 Alpha virt. eigenvalues --    1.00074   1.01668   1.04310   1.05837   1.06509
 Alpha virt. eigenvalues --    1.09532   1.16904   1.18101   1.19737   1.26007
 Alpha virt. eigenvalues --    1.28323   1.29493   1.37590   1.39957   1.42110
 Alpha virt. eigenvalues --    1.45722   1.46508   1.47258   1.47473   1.51714
 Alpha virt. eigenvalues --    1.52999   1.59271   1.68119   1.72034   1.74294
 Alpha virt. eigenvalues --    1.80959   1.81760   1.84314   1.86275   1.89370
 Alpha virt. eigenvalues --    1.94322   1.95554   1.96741   1.98474   2.01142
 Alpha virt. eigenvalues --    2.04467   2.05103   2.07215   2.09227   2.11431
 Alpha virt. eigenvalues --    2.14786   2.15689   2.17193   2.24304   2.25256
 Alpha virt. eigenvalues --    2.26206   2.31360   2.32412   2.34033   2.34145
 Alpha virt. eigenvalues --    2.37116   2.40739   2.46006   2.53927   2.54641
 Alpha virt. eigenvalues --    2.62521   2.64343   2.66038   2.68272   2.71077
 Alpha virt. eigenvalues --    2.77627   2.82129   2.89848   2.93643   2.99631
 Alpha virt. eigenvalues --    3.18670   3.43519   4.05858   4.11815   4.12359
 Alpha virt. eigenvalues --    4.18135   4.24010   4.31546   4.35960   4.44206
 Alpha virt. eigenvalues --    4.51697   4.77444
          Condensed to atoms (all electrons):
              1          2          3          4          5          6
     1  C    5.088084   0.360595  -0.049075  -0.003303  -0.000118   0.000021
     2  C    0.360595   5.105744   0.366232  -0.058587   0.007249   0.000405
     3  C   -0.049075   0.366232   4.642055   0.553538  -0.022481  -0.032763
     4  C   -0.003303  -0.058587   0.553538   4.972433   0.474197  -0.003904
     5  C   -0.000118   0.007249  -0.022481   0.474197   5.121189   0.471156
     6  C    0.000021   0.000405  -0.032763  -0.003904   0.471156   4.507633
     7  C   -0.000114   0.006693  -0.023993  -0.043824  -0.063780   0.545787
     8  C   -0.002696  -0.059883   0.543327  -0.032317  -0.046455  -0.018910
     9  O   -0.000000   0.000000   0.000177   0.003653  -0.062739   0.278989
    10  C   -0.000000  -0.000000  -0.000004   0.000331  -0.006725  -0.043839
    11  H    0.359711  -0.028788   0.005191   0.000029   0.000004  -0.000000
    12  H    0.377849  -0.035558  -0.003419  -0.000089  -0.000003  -0.000005
    13  H    0.377657  -0.035864  -0.003476   0.003640  -0.000121  -0.000007
    14  H   -0.039741   0.365440  -0.032242   0.003951  -0.000219   0.000010
    15  H   -0.039795   0.365607  -0.032371  -0.005693   0.000166   0.000012
    16  H    0.000614  -0.009497  -0.042645   0.353888  -0.042691   0.003178
    17  H    0.000001  -0.000190   0.003595  -0.037321   0.350257  -0.046623
    18  H    0.000001  -0.000169   0.004161   0.000326   0.007419  -0.036794
    19  H    0.000577  -0.009616  -0.045657   0.006292   0.000189   0.004340
    20  H    0.000000  -0.000000  -0.000000   0.000001   0.000181   0.003221
    21  H   -0.000000  -0.000000  -0.000012  -0.000183   0.005931  -0.004788
    22  H    0.000000   0.000000   0.000001  -0.000123   0.004346  -0.004584
              7          8          9         10         11         12
     1  C   -0.000114  -0.002696  -0.000000  -0.000000   0.359711   0.377849
     2  C    0.006693  -0.059883   0.000000  -0.000000  -0.028788  -0.035558
     3  C   -0.023993   0.543327   0.000177  -0.000004   0.005191  -0.003419
     4  C   -0.043824  -0.032317   0.003653   0.000331   0.000029  -0.000089
     5  C   -0.063780  -0.046455  -0.062739  -0.006725   0.000004  -0.000003
     6  C    0.545787  -0.018910   0.278989  -0.043839  -0.000000  -0.000005
     7  C    4.995356   0.510019  -0.055551   0.004303   0.000003  -0.000108
     8  C    0.510019   4.959943   0.003156  -0.000130  -0.000004   0.003473
     9  O   -0.055551   0.003156   8.203297   0.250142   0.000000  -0.000000
    10  C    0.004303  -0.000130   0.250142   4.894390  -0.000000   0.000000
    11  H    0.000003  -0.000004   0.000000  -0.000000   0.590512  -0.029945
    12  H   -0.000108   0.003473  -0.000000   0.000000  -0.029945   0.569720
    13  H   -0.000004  -0.000095  -0.000000   0.000000  -0.029979  -0.030928
    14  H    0.000162  -0.005449  -0.000000   0.000000  -0.002820  -0.004583
    15  H   -0.000216   0.004014  -0.000000   0.000000  -0.003193   0.005506
    16  H    0.000483   0.006008  -0.000047  -0.000008  -0.000063   0.000027
    17  H    0.004473   0.000852  -0.007355   0.005770  -0.000000   0.000000
    18  H    0.342626  -0.040301  -0.000298  -0.000180  -0.000000   0.000003
    19  H   -0.043739   0.355703  -0.000060   0.000003  -0.000057   0.000589
    20  H   -0.000108   0.000004  -0.031304   0.383629  -0.000000  -0.000000
    21  H    0.000168  -0.000002  -0.035561   0.362143   0.000000   0.000000
    22  H   -0.000018   0.000001  -0.036859   0.365436  -0.000000  -0.000000
             13         14         15         16         17         18
     1  C    0.377657  -0.039741  -0.039795   0.000614   0.000001   0.000001
     2  C   -0.035864   0.365440   0.365607  -0.009497  -0.000190  -0.000169
     3  C   -0.003476  -0.032242  -0.032371  -0.042645   0.003595   0.004161
     4  C    0.003640   0.003951  -0.005693   0.353888  -0.037321   0.000326
     5  C   -0.000121  -0.000219   0.000166  -0.042691   0.350257   0.007419
     6  C   -0.000007   0.000010   0.000012   0.003178  -0.046623  -0.036794
     7  C   -0.000004   0.000162  -0.000216   0.000483   0.004473   0.342626
     8  C   -0.000095  -0.005449   0.004014   0.006008   0.000852  -0.040301
     9  O   -0.000000  -0.000000  -0.000000  -0.000047  -0.007355  -0.000298
    10  C    0.000000   0.000000   0.000000  -0.000008   0.005770  -0.000180
    11  H   -0.029979  -0.002820  -0.003193  -0.000063  -0.000000  -0.000000
    12  H   -0.030928  -0.004583   0.005506   0.000027   0.000000   0.000003
    13  H    0.570546   0.005496  -0.004296   0.000618   0.000003   0.000000
    14  H    0.005496   0.601829  -0.037060   0.000044   0.000003  -0.000007
    15  H   -0.004296  -0.037060   0.602612   0.005236  -0.000008   0.000003
    16  H    0.000618   0.000044   0.005236   0.607568  -0.005651   0.000017
    17  H    0.000003   0.000003  -0.000008  -0.005651   0.601266  -0.000169
    18  H    0.000000  -0.000007   0.000003   0.000017  -0.000169   0.595697
    19  H    0.000030   0.005154   0.000046  -0.000183   0.000017  -0.006265
    20  H    0.000000   0.000000  -0.000000  -0.000000  -0.000112  -0.000027
    21  H    0.000000   0.000000   0.000000   0.000003   0.001663   0.000031
    22  H   -0.000000  -0.000000  -0.000000   0.000001   0.001837   0.000028
             19         20         21         22
     1  C    0.000577   0.000000  -0.000000   0.000000
     2  C   -0.009616  -0.000000  -0.000000   0.000000
     3  C   -0.045657  -0.000000  -0.000012   0.000001
     4  C    0.006292   0.000001  -0.000183  -0.000123
     5  C    0.000189   0.000181   0.005931   0.004346
     6  C    0.004340   0.003221  -0.004788  -0.004584
     7  C   -0.043739  -0.000108   0.000168  -0.000018
     8  C    0.355703   0.000004  -0.000002   0.000001
     9  O   -0.000060  -0.031304  -0.035561  -0.036859
    10  C    0.000003   0.383629   0.362143   0.365436
    11  H   -0.000057  -0.000000   0.000000  -0.000000
    12  H    0.000589  -0.000000   0.000000  -0.000000
    13  H    0.000030   0.000000   0.000000  -0.000000
    14  H    0.005154   0.000000   0.000000  -0.000000
    15  H    0.000046  -0.000000   0.000000  -0.000000
    16  H   -0.000183  -0.000000   0.000003   0.000001
    17  H    0.000017  -0.000112   0.001663   0.001837
    18  H   -0.006265  -0.000027   0.000031   0.000028
    19  H    0.609075  -0.000000   0.000000  -0.000000
    20  H   -0.000000   0.546809  -0.033287  -0.035224
    21  H    0.000000  -0.033287   0.599008  -0.046858
    22  H   -0.000000  -0.035224  -0.046858   0.600922
 Mulliken atomic charges:
              1
     1  C   -0.430270
     2  C   -0.339814
     3  C    0.169861
     4  C   -0.186937
     5  C   -0.196951
     6  C    0.377468
     7  C   -0.178620
     8  C   -0.180256
     9  O   -0.509641
    10  C   -0.215263
    11  H    0.139401
    12  H    0.147471
    13  H    0.146779
    14  H    0.140031
    15  H    0.139429
    16  H    0.123102
    17  H    0.127690
    18  H    0.133901
    19  H    0.123563
    20  H    0.166218
    21  H    0.151743
    22  H    0.151095
 Sum of Mulliken atomic charges =  -0.00000
 Mulliken charges with hydrogens summed into heavy atoms:
              1
     1  C    0.003381
     2  C   -0.060354
     3  C    0.169861
     4  C   -0.063834
     5  C   -0.069261
     6  C    0.377468
     7  C   -0.044719
     8  C   -0.056693
     9  O   -0.509641
    10  C    0.253793
 Sum of Mulliken charges with hydrogens summed into heavy atoms =  -0.00000
 Electronic spatial extent (au):  <R**2>=           1911.0058
 Charge=             -0.0000 electrons
 Dipole moment (field-independent basis, Debye):
    X=              0.3864    Y=             -1.1777    Z=             -0.1274  Tot=              1.2460
 Quadrupole moment (field-independent basis, Debye-Ang):
   XX=            -52.9666   YY=            -56.6131   ZZ=            -62.9314
   XY=             -4.4453   XZ=              0.6569   YZ=             -0.0009
 Traceless Quadrupole moment (field-independent basis, Debye-Ang):
   XX=              4.5371   YY=              0.8906   ZZ=             -5.4277
   XY=             -4.4453   XZ=              0.6569   YZ=             -0.0009
 Octapole moment (field-independent basis, Debye-Ang**2):
  XXX=             38.9196  YYY=              3.0508  ZZZ=              1.9020  XYY=              2.6314
  XXY=            -12.7200  XXZ=             -1.9881  XZZ=              5.0983  YZZ=             -0.4121
  YYZ=              0.0388  XYZ=             -0.9149
 Hexadecapole moment (field-independent basis, Debye-Ang**3):
 XXXX=          -1898.7805 YYYY=           -345.4520 ZZZZ=           -139.1266 XXXY=            -41.0394
 XXXZ=             15.6283 YYYX=              2.8773 YYYZ=              1.6866 ZZZX=              3.3020
 ZZZY=              0.2210 XXYY=           -397.4842 XXZZ=           -368.4118 YYZZ=            -87.4450
 XXYZ=             -1.2037 YYXZ=              2.6240 ZZXY=             -0.8132
 N-N= 5.020156690664D+02 E-N=-1.991385768705D+03  KE= 4.213758969608D+02
 No NMR shielding tensors so no spin-rotation constants.
 Leave Link  601 at Tue Sep 28 16:43:39 2021, MaxMem=  805306368 cpu:       0.9
 (Enter /sw/target/amd/app/gaussian/Gaussian09RevA.02_gcc-4.9.2/g09/l701.exe)
 Compute integral first derivatives.
 ... and contract with generalized density number  0.
 Leave Link  701 at Tue Sep 28 16:43:41 2021, MaxMem=  805306368 cpu:       0.8
 (Enter /sw/target/amd/app/gaussian/Gaussian09RevA.02_gcc-4.9.2/g09/l702.exe)
 L702 exits ... SP integral derivatives will be done elsewhere.
 Leave Link  702 at Tue Sep 28 16:43:41 2021, MaxMem=  805306368 cpu:       0.1
 (Enter /sw/target/amd/app/gaussian/Gaussian09RevA.02_gcc-4.9.2/g09/l703.exe)
 Compute integral first derivatives, UseDBF=F ICtDFT=           0.
 Integral derivatives from FoFDir, PRISM(SPDF).
 Calling FoFJK, ICntrl=      2127 FMM=F ISym2X=0 I1Cent= 0 IOpClX= 0 NMat=1 NMatS=1 NMatT=0.
 FoFCou: FMM=F IPFlag=           0 FMFlag=      100000 FMFlg1=         800
         NFxFlg=           0 DoJE=F BraDBF=F KetDBF=F FulRan=T
         Omega=  0.000000  0.000000  1.000000  0.000000  0.000000 ICntrl=    2127 IOpCl=  0
         NMat0=    1 NMatS0=    1 NMatT0=    0 NMatD0=    1 NMtDS0=    0 NMtDT0=    0
         I1Cent=           0 NGrid=           0.
 Symmetry not used in FoFCou.
 Leave Link  703 at Tue Sep 28 16:44:34 2021, MaxMem=  805306368 cpu:      46.5
 (Enter /sw/target/amd/app/gaussian/Gaussian09RevA.02_gcc-4.9.2/g09/l716.exe)
 Dipole        = 1.52005507D-01-4.63342371D-01-5.01113446D-02
 ***** Axes restored to original set *****
 -------------------------------------------------------------------
 Center     Atomic                   Forces (Hartrees/Bohr)
 Number     Number              X              Y              Z
 -------------------------------------------------------------------
      1        6          -0.007097362    0.002632997    0.004120566
      2        6           0.005381828   -0.001308733    0.000627818
      3        6           0.002733171    0.005234230    0.003810848
      4        6          -0.000686731   -0.010622446   -0.003206378
      5        6           0.001230968    0.009870851    0.001291077
      6        6          -0.002074780   -0.006542945   -0.000295555
      7        6          -0.006979228   -0.005554518    0.010283079
      8        6           0.005700211    0.000355805   -0.011557146
      9        8           0.005094881    0.004949776   -0.004241243
     10        6          -0.000195609   -0.004658609   -0.003500381
     11        1          -0.002455775    0.000822079    0.000807156
     12        1          -0.000375018   -0.000056895   -0.000713944
     13        1          -0.000183389    0.000103407   -0.000616596
     14        1          -0.000643540   -0.000561030    0.000401928
     15        1          -0.000194644    0.000906604    0.000224068
     16        1           0.000383325   -0.000248077    0.000666916
     17        1           0.000878379   -0.001331007   -0.001982455
     18        1           0.001530447    0.001506403   -0.002069976
     19        1           0.000473000    0.000537157    0.000840543
     20        1          -0.002687152   -0.003335560    0.002127906
     21        1          -0.000696606    0.003355817    0.001604155
     22        1           0.000863625    0.003944694    0.001377613
 -------------------------------------------------------------------
 Cartesian Forces:  Max     0.011557146 RMS     0.003819726
 Leave Link  716 at Tue Sep 28 16:44:34 2021, MaxMem=  805306368 cpu:       0.1
 (Enter /sw/target/amd/app/gaussian/Gaussian09RevA.02_gcc-4.9.2/g09/l103.exe)

 GradGradGradGradGradGradGradGradGradGradGradGradGradGradGradGradGradGrad
 Berny optimization.
 Internal  Forces:  Max     0.010603786 RMS     0.002409563
 Search for a local minimum.
 Step number   1 out of a maximum of  113
 All quantities printed in internal units (Hartrees-Bohrs-Radians)
 RMS Force = .24096D-02 SwitMx=.10000D-02 MixMth= 1
 Mixed Optimization -- RFO/linear search
 Second derivative matrix not updated -- first step.
     Eigenvalues ---    0.00497   0.00669   0.01397   0.01515   0.02081
     Eigenvalues ---    0.02090   0.02114   0.02114   0.02115   0.02127
     Eigenvalues ---    0.02129   0.02139   0.02153   0.04152   0.05470
     Eigenvalues ---    0.05561   0.05693   0.09401   0.09982   0.10537
     Eigenvalues ---    0.12859   0.15999   0.16000   0.16000   0.16000
     Eigenvalues ---    0.16000   0.16000   0.16000   0.16000   0.16000
     Eigenvalues ---    0.16000   0.21907   0.21998   0.22969   0.24000
     Eigenvalues ---    0.25000   0.25000   0.25000   0.30332   0.31623
     Eigenvalues ---    0.34015   0.34018   0.34214   0.34220   0.34225
     Eigenvalues ---    0.34261   0.34263   0.34315   0.35107   0.35138
     Eigenvalues ---    0.35144   0.35486   0.41541   0.42115   0.42217
     Eigenvalues ---    0.45610   0.45820   0.46036   0.46445   0.51351
     Eigenvalues --- 1000.000001000.000001000.000001000.000001000.00000
     Eigenvalues --- 1000.000001000.000001000.000001000.000001000.00000
     Eigenvalues --- 1000.000001000.000001000.000001000.000001000.00000
     Eigenvalues --- 1000.000001000.000001000.000001000.000001000.00000
     Eigenvalues --- 1000.000001000.000001000.000001000.000001000.00000
     Eigenvalues --- 1000.000001000.000001000.000001000.000001000.00000
     Eigenvalues --- 1000.000001000.000001000.000001000.000001000.00000
     Eigenvalues --- 1000.000001000.000001000.000001000.000001000.00000
     Eigenvalues --- 1000.000001000.000001000.00000
 RFO step:  Lambda=-2.78884255D-03 EMin= 4.96619263D-03
 Linear search not attempted -- first point.
 Iteration  1 RMS(Cart)=  0.04221256 RMS(Int)=  0.00047153
 Iteration  2 RMS(Cart)=  0.00092560 RMS(Int)=  0.00008289
 Iteration  3 RMS(Cart)=  0.00000024 RMS(Int)=  0.00008289
 Variable       Old X    -DE/DX   Delta X   Delta X   Delta X     New X
                                 (Linear)    (Quad)   (Total)
    R1        2.87306   0.01060   0.00000   0.03464   0.03464   2.90771
    R2        2.06889   0.00170   0.00000   0.00492   0.00492   2.07381
    R3        2.06952   0.00051   0.00000   0.00147   0.00147   2.07099
    R4        2.06961   0.00047   0.00000   0.00136   0.00136   2.07097
    R5        2.84839   0.00694   0.00000   0.02177   0.02177   2.87015
    R6        2.07305   0.00063   0.00000   0.00183   0.00183   2.07489
    R7        2.07300   0.00063   0.00000   0.00184   0.00184   2.07484
    R8        2.64737  -0.00237   0.00000  -0.00568  -0.00566   2.64171
    R9        2.64286   0.00366   0.00000   0.00740   0.00741   2.65026
   R10        2.64620  -0.00092   0.00000  -0.00195  -0.00194   2.64426
   R11        2.05442   0.00001   0.00000   0.00002   0.00002   2.05444
   R12        2.63375   0.00322   0.00000   0.00739   0.00738   2.64113
   R13        2.04892   0.00049   0.00000   0.00138   0.00138   2.05030
   R14        2.63923   0.00366   0.00000   0.00837   0.00835   2.64758
   R15        2.58526   0.00167   0.00000   0.00324   0.00324   2.58850
   R16        2.64103  -0.00486   0.00000  -0.01055  -0.01056   2.63047
   R17        2.05452  -0.00086   0.00000  -0.00243  -0.00243   2.05209
   R18        2.05502  -0.00012   0.00000  -0.00035  -0.00035   2.05467
   R19        2.68777  -0.00276   0.00000  -0.00651  -0.00651   2.68126
   R20        2.06802  -0.00096   0.00000  -0.00277  -0.00277   2.06524
   R21        2.06970   0.00144   0.00000   0.00419   0.00419   2.07389
   R22        2.06891   0.00195   0.00000   0.00565   0.00565   2.07456
    A1        1.92172   0.00327   0.00000   0.02389   0.02385   1.94557
    A2        1.94215  -0.00035   0.00000  -0.00403  -0.00409   1.93806
    A3        1.94333  -0.00059   0.00000  -0.00560  -0.00565   1.93769
    A4        1.88528  -0.00109   0.00000  -0.00294  -0.00298   1.88231
    A5        1.88543  -0.00101   0.00000  -0.00272  -0.00274   1.88269
    A6        1.88387  -0.00033   0.00000  -0.00913  -0.00920   1.87467
    A7        1.96180   0.00394   0.00000   0.01851   0.01852   1.98032
    A8        1.91443  -0.00162   0.00000  -0.01039  -0.01041   1.90402
    A9        1.91341  -0.00152   0.00000  -0.00767  -0.00773   1.90568
   A10        1.91192  -0.00101   0.00000  -0.00317  -0.00311   1.90881
   A11        1.91045  -0.00083   0.00000   0.00033   0.00034   1.91079
   A12        1.84839   0.00085   0.00000   0.00133   0.00127   1.84966
   A13        2.10278   0.00284   0.00000   0.01234   0.01227   2.11505
   A14        2.10684   0.00226   0.00000   0.01004   0.00997   2.11682
   A15        2.07355  -0.00511   0.00000  -0.02250  -0.02258   2.05097
   A16        2.10662   0.00491   0.00000   0.02075   0.02071   2.12733
   A17        2.09737  -0.00292   0.00000  -0.01323  -0.01323   2.08414
   A18        2.07917  -0.00198   0.00000  -0.00745  -0.00746   2.07171
   A19        2.09849  -0.00242   0.00000  -0.00996  -0.01001   2.08847
   A20        2.05758   0.00376   0.00000   0.02063   0.02066   2.07824
   A21        2.12712  -0.00134   0.00000  -0.01067  -0.01064   2.11647
   A22        2.08007  -0.00011   0.00000   0.00118   0.00110   2.08116
   A23        2.19932  -0.00466   0.00000  -0.01925  -0.01921   2.18011
   A24        2.00380   0.00477   0.00000   0.01807   0.01811   2.02191
   A25        2.10678  -0.00182   0.00000  -0.00759  -0.00767   2.09911
   A26        2.08809  -0.00202   0.00000  -0.01419  -0.01415   2.07394
   A27        2.08828   0.00384   0.00000   0.02181   0.02185   2.11013
   A28        2.10040   0.00458   0.00000   0.01898   0.01891   2.11931
   A29        2.10275  -0.00321   0.00000  -0.01509  -0.01509   2.08766
   A30        2.08000  -0.00137   0.00000  -0.00379  -0.00378   2.07621
   A31        2.03766   0.00430   0.00000   0.01701   0.01701   2.05468
   A32        1.88179  -0.00631   0.00000  -0.03610  -0.03602   1.84577
   A33        1.94463   0.00056   0.00000   0.00195   0.00198   1.94661
   A34        1.93527   0.00269   0.00000   0.01522   0.01530   1.95057
   A35        1.87736   0.00374   0.00000   0.02542   0.02545   1.90282
   A36        1.88106   0.00293   0.00000   0.02098   0.02110   1.90217
   A37        1.94064  -0.00359   0.00000  -0.02680  -0.02676   1.91388
    D1       -3.12640  -0.00013   0.00000  -0.00856  -0.00856  -3.13496
    D2        1.02523  -0.00037   0.00000  -0.00973  -0.00969   1.01554
    D3       -0.99744   0.00040   0.00000  -0.00104  -0.00106  -0.99850
    D4        1.06694  -0.00069   0.00000  -0.01800  -0.01800   1.04894
    D5       -1.06462  -0.00093   0.00000  -0.01917  -0.01913  -1.08375
    D6       -3.08729  -0.00016   0.00000  -0.01047  -0.01050  -3.09779
    D7       -1.03560   0.00038   0.00000   0.00017   0.00016  -1.03544
    D8        3.11602   0.00014   0.00000  -0.00099  -0.00097   3.11505
    D9        1.09336   0.00090   0.00000   0.00770   0.00766   1.10102
   D10        1.56572  -0.00006   0.00000  -0.00332  -0.00347   1.56225
   D11       -1.56973   0.00035   0.00000   0.01960   0.01978  -1.54995
   D12       -2.58448  -0.00018   0.00000  -0.00627  -0.00643  -2.59090
   D13        0.56326   0.00023   0.00000   0.01665   0.01683   0.58008
   D14       -0.56492  -0.00020   0.00000  -0.00627  -0.00646  -0.57138
   D15        2.58282   0.00021   0.00000   0.01665   0.01679   2.59961
   D16        3.12251   0.00113   0.00000   0.05069   0.05060  -3.11008
   D17       -0.01161   0.00086   0.00000   0.03901   0.03886   0.02726
   D18       -0.02511   0.00076   0.00000   0.02831   0.02830   0.00319
   D19        3.12396   0.00048   0.00000   0.01664   0.01657   3.14053
   D20       -3.12194  -0.00111   0.00000  -0.04993  -0.04981   3.11143
   D21        0.01017  -0.00082   0.00000  -0.03802  -0.03787  -0.02770
   D22        0.02569  -0.00073   0.00000  -0.02751  -0.02750  -0.00181
   D23       -3.12538  -0.00045   0.00000  -0.01560  -0.01556  -3.14094
   D24        0.00206  -0.00016   0.00000  -0.00750  -0.00773  -0.00567
   D25       -3.13619  -0.00022   0.00000  -0.00972  -0.00990   3.13710
   D26        3.13625   0.00011   0.00000   0.00403   0.00390   3.14015
   D27       -0.00199   0.00005   0.00000   0.00181   0.00172  -0.00027
   D28        0.02046  -0.00033   0.00000  -0.01377  -0.01388   0.00659
   D29       -3.12258  -0.00037   0.00000  -0.01519  -0.01515  -3.13773
   D30       -3.12461  -0.00026   0.00000  -0.01139  -0.01159  -3.13620
   D31        0.01553  -0.00030   0.00000  -0.01281  -0.01286   0.00267
   D32       -0.01988   0.00035   0.00000   0.01453   0.01460  -0.00529
   D33        3.13124   0.00022   0.00000   0.00965   0.00985   3.14109
   D34        3.12301   0.00039   0.00000   0.01582   0.01578   3.13879
   D35       -0.00905   0.00026   0.00000   0.01094   0.01103   0.00198
   D36        0.07764  -0.00037   0.00000  -0.01580  -0.01586   0.06178
   D37       -3.06535  -0.00041   0.00000  -0.01717  -0.01711  -3.08245
   D38       -0.00337   0.00014   0.00000   0.00607   0.00630   0.00293
   D39       -3.13561  -0.00013   0.00000  -0.00562  -0.00550  -3.14111
   D40        3.12868   0.00024   0.00000   0.01076   0.01095   3.13964
   D41       -0.00355  -0.00003   0.00000  -0.00093  -0.00085  -0.00440
   D42        3.06551   0.00016   0.00000   0.01413   0.01421   3.07972
   D43        1.00927  -0.00084   0.00000   0.00424   0.00423   1.01351
   D44       -1.16225   0.00143   0.00000   0.02642   0.02635  -1.13590
         Item               Value     Threshold  Converged?
 Maximum Force            0.010604     0.000450     NO 
 RMS     Force            0.002410     0.000300     NO 
 Maximum Displacement     0.152470     0.001800     NO 
 RMS     Displacement     0.042027     0.001200     NO 
 Predicted change in Energy=-1.431206D-03
 GradGradGradGradGradGradGradGradGradGradGradGradGradGradGradGradGradGrad

 Leave Link  103 at Tue Sep 28 16:44:39 2021, MaxMem=  805306368 cpu:       2.3
 (Enter /sw/target/amd/app/gaussian/Gaussian09RevA.02_gcc-4.9.2/g09/l202.exe)
                          Input orientation:                          
 ---------------------------------------------------------------------
 Center     Atomic      Atomic             Coordinates (Angstroms)
 Number     Number       Type             X           Y           Z
 ---------------------------------------------------------------------
      1          6           0        0.949551    0.435943    0.189037
      2          6           0        2.415770   -0.026617    0.250772
      3          6           0        2.986176   -0.410974   -1.103377
      4          6           0        3.611729    0.535344   -1.920310
      5          6           0        4.109305    0.205768   -3.185931
      6          6           0        3.989950   -1.104935   -3.656218
      7          6           0        3.364675   -2.066479   -2.851626
      8          6           0        2.874420   -1.719325   -1.595938
      9          8           0        4.441127   -1.545653   -4.872150
     10          6           0        5.145736   -0.623563   -5.688511
     11          1           0        0.573102    0.711565    1.182331
     12          1           0        0.303538   -0.355683   -0.207241
     13          1           0        0.839572    1.307592   -0.466057
     14          1           0        2.494047   -0.881862    0.934873
     15          1           0        3.027452    0.770894    0.692738
     16          1           0        3.714120    1.559233   -1.569462
     17          1           0        4.582984    0.977519   -3.783589
     18          1           0        3.275160   -3.082674   -3.223858
     19          1           0        2.393369   -2.482607   -0.989157
     20          1           0        5.465722   -1.189318   -6.567097
     21          1           0        6.031606   -0.227113   -5.176189
     22          1           0        4.504110    0.206297   -6.012297
 ---------------------------------------------------------------------
                    Distance matrix (angstroms):
                    1          2          3          4          5
     1  C    0.000000
     2  C    1.538691   0.000000
     3  C    2.556451   1.518820   0.000000
     4  C    3.398002   2.541598   1.397932   0.000000
     5  C    4.628977   3.838358   2.445162   1.399284   0.000000
     6  C    5.138513   4.348032   2.829513   2.418045   1.397626
     7  C    4.619586   3.832275   2.437280   2.774503   2.414403
     8  C    3.396533   2.546755   1.402458   2.394238   2.785498
     9  O    6.460142   5.714357   4.196193   3.705645   2.453756
    10  C    7.299047   6.563851   5.072706   4.230316   2.832823
    11  H    1.097412   2.192747   3.508202   4.346342   5.642895
    12  H    1.095921   2.186226   2.828898   3.830491   4.865355
    13  H    1.095908   2.185946   2.822686   3.224295   4.393504
    14  H    2.162949   1.097982   2.149044   3.377834   4.557743
    15  H    2.164158   1.097958   2.150475   2.687914   4.066182
    16  H    3.463659   2.741147   2.151477   1.087165   2.144997
    17  H    5.410813   4.688409   3.414856   2.147245   1.084973
    18  H    5.425585   4.706494   3.423146   3.860384   3.392799
    19  H    3.462757   2.751329   2.157806   3.385184   3.872674
    20  H    8.287498   7.558930   6.050306   5.291916   3.901079
    21  H    7.419742   6.524291   5.088835   4.127698   2.800671
    22  H    7.151515   6.606167   5.175194   4.201067   2.853807
                    6          7          8          9         10
     6  C    0.000000
     7  C    1.401037   0.000000
     8  C    2.422114   1.391984   0.000000
     9  O    1.369775   2.347877   3.635698   0.000000
    10  C    2.387001   3.647204   4.807153   1.418861   0.000000
    11  H    6.195650   5.637661   4.350180   7.530829   8.360623
    12  H    5.103573   4.392056   3.224505   6.347995   7.318672
    13  H    5.091394   4.842669   3.818307   6.365993   7.038923
    14  H    4.833798   4.061882   2.692774   6.160622   7.139145
    15  H    4.833068   4.552682   3.385653   6.191352   6.866729
    16  H    3.395354   3.861586   3.384486   4.590927   4.876545
    17  H    2.168992   3.408629   3.870139   2.751633   2.551251
    18  H    2.146931   1.085920   2.160887   2.537476   3.952315
    19  H    3.400039   2.141352   1.087286   4.488745   5.754606
    20  H    3.264696   4.357584   5.631001   2.012365   1.092878
    21  H    2.692441   3.987402   5.001271   2.088207   1.097457
    22  H    2.744958   4.056311   5.086072   2.091226   1.097811
                   11         12         13         14         15
    11  H    0.000000
    12  H    1.772736   0.000000
    13  H    1.772974   1.766579   0.000000
    14  H    2.508042   2.525791   3.081169   0.000000
    15  H    2.503409   3.082020   2.533312   1.753497   0.000000
    16  H    4.261091   4.141813   3.089312   3.703946   2.492095
    17  H    6.388290   5.734226   5.012794   5.484965   4.743403
    18  H    6.411853   5.036565   5.728175   4.769565   5.500096
    19  H    4.269832   3.082627   4.129591   2.504877   3.717001
    20  H    9.359739   8.233520   8.053478   8.074957   7.905238
    21  H    8.432506   7.584044   7.176202   7.091410   6.668227
    22  H    8.214060   7.187440   6.738135   7.313522   6.888888
                   16         17         18         19         20
    16  H    0.000000
    17  H    2.448607   0.000000
    18  H    4.947425   4.302193   0.000000
    19  H    4.291574   4.957391   2.476191   0.000000
    20  H    5.966490   3.636251   4.422738   6.498104   0.000000
    21  H    4.644379   2.342857   4.423100   5.987925   1.783448
    22  H    4.710977   2.359691   4.483641   6.075965   1.783323
                   21         22
    21  H    0.000000
    22  H    1.794482   0.000000
 Stoichiometry    C9H12O
 Framework group  C1[X(C9H12O)]
 Deg. of freedom    60
 Full point group                 C1      NOp   1
 Largest Abelian subgroup         C1      NOp   1
 Largest concise Abelian subgroup C1      NOp   1
                         Standard orientation:                         
 ---------------------------------------------------------------------
 Center     Atomic      Atomic             Coordinates (Angstroms)
 Number     Number       Type             X           Y           Z
 ---------------------------------------------------------------------
      1          6           0       -3.624211   -0.264567    0.831319
      2          6           0       -2.874718   -0.141350   -0.506832
      3          6           0       -1.371737    0.007685   -0.346680
      4          6           0       -0.534243   -1.110685   -0.301201
      5          6           0        0.847787   -0.992193   -0.116953
      6          6           0        1.421117    0.275018    0.020253
      7          6           0        0.596968    1.407247   -0.021474
      8          6           0       -0.776090    1.269322   -0.203972
      9          8           0        2.757545    0.515482    0.200319
     10          6           0        3.637674   -0.597131    0.175184
     11          1           0       -4.704943   -0.377214    0.677560
     12          1           0       -3.464301    0.622261    1.455023
     13          1           0       -3.273111   -1.133081    1.400027
     14          1           0       -3.269029    0.720426   -1.061293
     15          1           0       -3.091504   -1.022921   -1.124365
     16          1           0       -0.963519   -2.103833   -0.407533
     17          1           0        1.454374   -1.891179   -0.084654
     18          1           0        1.049454    2.388503    0.086302
     19          1           0       -1.395571    2.162387   -0.233456
     20          1           0        4.643935   -0.181721    0.271397
     21          1           0        3.566302   -1.145849   -0.772563
     22          1           0        3.452265   -1.281718    1.013130
 ---------------------------------------------------------------------
 Rotational constants (GHZ):      3.9016024      0.6736641      0.6083473
 Leave Link  202 at Tue Sep 28 16:44:39 2021, MaxMem=  805306368 cpu:       0.0
 (Enter /sw/target/amd/app/gaussian/Gaussian09RevA.02_gcc-4.9.2/g09/l301.exe)
 Standard basis: 6-31G(d) (6D, 7F)
 Ernie: Thresh=  0.10000D-02 Tol=  0.10000D-05 Strict=F.
 There are   174 symmetry adapted basis functions of A   symmetry.
 Integral buffers will be    131072 words long.
 Raffenetti 2 integral format.
 Two-electron integral symmetry is turned on.
   174 basis functions,   328 primitive gaussians,   174 cartesian basis functions
    37 alpha electrons       37 beta electrons
       nuclear repulsion energy       500.6679439898 Hartrees.
 IExCor=  402 DFT=T Ex+Corr=B3LYP ExCW=0 ScaHFX=  0.200000
 ScaDFX=  0.800000  0.720000  1.000000  0.810000 ScalE2=  1.000000  1.000000
 IRadAn=      0 IRanWt=     -1 IRanGd=            0 ICorTp=0
 NAtoms=   22 NActive=   22 NUniq=   22 SFac= 7.50D-01 NAtFMM=   80 NAOKFM=F Big=F
 Leave Link  301 at Tue Sep 28 16:44:40 2021, MaxMem=  805306368 cpu:       0.1
 (Enter /sw/target/amd/app/gaussian/Gaussian09RevA.02_gcc-4.9.2/g09/l302.exe)
 NPDir=0 NMtPBC=     1 NCelOv=     1 NCel=       1 NClECP=     1 NCelD=      1
         NCelK=      1 NCelE2=     1 NClLst=     1 CellRange=     0.0.
 One-electron integrals computed using PRISM.
 NBasis=   174 RedAO= T  NBF=   174
 NBsUse=   174 1.00D-06 NBFU=   174
 Precomputing XC quadrature grid using
 IXCGrd= 2 IRadAn=           0 IRanWt=          -1 IRanGd=           0 AccXCQ= 1.00D-10.
 NRdTot=    1389 NPtTot=      176870 NUsed=      186892 NTot=      186924
 NSgBfM=   173   173   173   173   173 NAtAll=    22    22.
 Leave Link  302 at Tue Sep 28 16:44:42 2021, MaxMem=  805306368 cpu:       1.4
 (Enter /sw/target/amd/app/gaussian/Gaussian09RevA.02_gcc-4.9.2/g09/l303.exe)
 DipDrv:  MaxL=1.
 Leave Link  303 at Tue Sep 28 16:44:42 2021, MaxMem=  805306368 cpu:       0.1
 (Enter /sw/target/amd/app/gaussian/Gaussian09RevA.02_gcc-4.9.2/g09/l401.exe)
 Initial guess read from the read-write file.
 B after Tr=     0.000000    0.000000    0.000000
         Rot=    1.000000    0.000000    0.000000    0.000000 Ang=   0.00 deg.
 Guess basis will be translated and rotated to current coordinates.
 Initial guess orbital symmetries:
       Occupied  (A) (A) (A) (A) (A) (A) (A) (A) (A) (A) (A) (A)
                 (A) (A) (A) (A) (A) (A) (A) (A) (A) (A) (A) (A)
                 (A) (A) (A) (A) (A) (A) (A) (A) (A) (A) (A) (A)
                 (A)
       Virtual   (A) (A) (A) (A) (A) (A) (A) (A) (A) (A) (A) (A)
                 (A) (A) (A) (A) (A) (A) (A) (A) (A) (A) (A) (A)
                 (A) (A) (A) (A) (A) (A) (A) (A) (A) (A) (A) (A)
                 (A) (A) (A) (A) (A) (A) (A) (A) (A) (A) (A) (A)
                 (A) (A) (A) (A) (A) (A) (A) (A) (A) (A) (A) (A)
                 (A) (A) (A) (A) (A) (A) (A) (A) (A) (A) (A) (A)
                 (A) (A) (A) (A) (A) (A) (A) (A) (A) (A) (A) (A)
                 (A) (A) (A) (A) (A) (A) (A) (A) (A) (A) (A) (A)
                 (A) (A) (A) (A) (A) (A) (A) (A) (A) (A) (A) (A)
                 (A) (A) (A) (A) (A) (A) (A) (A) (A) (A) (A) (A)
                 (A) (A) (A) (A) (A) (A) (A) (A) (A) (A) (A) (A)
                 (A) (A) (A) (A) (A)
 The electronic state of the initial guess is 1-A.
 Generating alternative initial guess.
 Harris functional with IExCor=  402 diagonalized for initial guess.
 ExpMin= 1.61D-01 ExpMax= 5.48D+03 ExpMxC= 8.25D+02 IAcc=1 IRadAn=         1 AccDes= 0.00D+00
 HarFok:  IExCor=  402 AccDes= 0.00D+00 IRadAn=         1 IDoV= 1
 ScaDFX=  1.000000  1.000000  1.000000  1.000000
 FoFCou: FMM=F IPFlag=           0 FMFlag=      100000 FMFlg1=           0
         NFxFlg=           0 DoJE=T BraDBF=F KetDBF=T FulRan=T
         Omega=  0.000000  0.000000  1.000000  0.000000  0.000000 ICntrl=     500 IOpCl=  0
         NMat0=    1 NMatS0=    1 NMatT0=    0 NMatD0=    1 NMtDS0=    0 NMtDT0=    0
         I1Cent=           4 NGrid=           0.
 Petite list used in FoFCou.
 Harris En= -425.477199003043    
 Leave Link  401 at Tue Sep 28 16:44:50 2021, MaxMem=  805306368 cpu:       6.4
 (Enter /sw/target/amd/app/gaussian/Gaussian09RevA.02_gcc-4.9.2/g09/l502.exe)
 Closed shell SCF:
 Requested convergence on RMS density matrix=1.00D-08 within  64 cycles.
 Requested convergence on MAX density matrix=1.00D-06.
 Requested convergence on             energy=1.00D-06.
 No special actions if energy rises.
 Using DIIS extrapolation, IDIIS=  1040.
 Integral symmetry usage will be decided dynamically.
       186681 words used for storage of precomputed grid.
 Keep R1 ints in memory in canonical form, NReq=118872956.
 IEnd=      285417 IEndB=      285417 NGot=   805306368 MDV=   689147673
 LenX=   689147673 LenY=   689116956
 Symmetry not used in FoFDir.
 MinBra= 0 MaxBra= 2 Meth= 1.
 IRaf=       0 NMat=   1 IRICut=       1 DoRegI=T DoRafI=F ISym2E= 0 JSym2E=0.
 Integral accuracy reduced to 1.0D-05 until final iterations.

 Cycle   1  Pass 0  IDiag  1:
 E= -425.400334756809    
 DIIS: error= 1.83D-03 at cycle   1 NSaved=   1.
 NSaved= 1 IEnMin= 1 EnMin= -425.400334756809     IErMin= 1 ErrMin= 1.83D-03
 ErrMax= 1.83D-03 EMaxC= 1.00D-01 BMatC= 9.89D-04 BMatP= 9.89D-04
 IDIUse=3 WtCom= 9.82D-01 WtEn= 1.83D-02
 Coeff-Com:  0.100D+01
 Coeff-En:   0.100D+01
 Coeff:      0.100D+01
 Gap=     0.221 Goal=   None    Shift=    0.000
 GapD=    0.221 DampG=1.000 DampE=1.000 DampFc=1.0000 IDamp=-1.
 RMSDP=3.50D-04 MaxDP=5.20D-03              OVMax= 1.02D-02

 Cycle   2  Pass 0  IDiag  1:
 E= -425.402272245473     Delta-E=       -0.001937488663 Rises=F Damp=F
 DIIS: error= 2.78D-04 at cycle   2 NSaved=   2.
 NSaved= 2 IEnMin= 2 EnMin= -425.402272245473     IErMin= 2 ErrMin= 2.78D-04
[...]
    10  C    0.000000   0.000000   0.000000  -0.000007   0.006086  -0.000175
    11  H   -0.030450  -0.002840  -0.002443  -0.000039  -0.000000  -0.000000
    12  H   -0.031614  -0.004973   0.005428   0.000023   0.000000   0.000002
    13  H    0.566955   0.005537  -0.004921   0.000409   0.000002   0.000000
    14  H    0.005537   0.606261  -0.040268   0.000058   0.000003  -0.000006
    15  H   -0.004921  -0.040268   0.606327   0.006034  -0.000007   0.000003
    16  H    0.000409   0.000058   0.006034   0.621024  -0.006202   0.000017
    17  H    0.000002   0.000003  -0.000007  -0.006202   0.611033  -0.000188
    18  H    0.000000  -0.000006   0.000003   0.000017  -0.000188   0.606909
    19  H    0.000032   0.004998   0.000049  -0.000209   0.000017  -0.006917
    20  H    0.000000   0.000000  -0.000000  -0.000000  -0.000012  -0.000024
    21  H    0.000000   0.000000  -0.000000   0.000002   0.001269   0.000024
    22  H   -0.000000  -0.000000   0.000000   0.000003   0.001407   0.000022
             19         20         21         22
     1  C    0.000466   0.000000  -0.000000   0.000000
     2  C   -0.010048  -0.000000   0.000000  -0.000000
     3  C   -0.047534   0.000000   0.000004   0.000006
     4  C    0.006698   0.000002  -0.000215  -0.000196
     5  C    0.000290   0.000320   0.003688   0.003983
     6  C    0.004890   0.003024  -0.003001  -0.003188
     7  C   -0.044340  -0.000114  -0.000190  -0.000238
     8  C    0.356941   0.000004   0.000007   0.000010
     9  O   -0.000062  -0.033133  -0.031089  -0.031047
    10  C    0.000003   0.384266   0.363137   0.362681
    11  H   -0.000053  -0.000000  -0.000000   0.000000
    12  H    0.000759  -0.000000  -0.000000   0.000000
    13  H    0.000032   0.000000   0.000000  -0.000000
    14  H    0.004998   0.000000   0.000000  -0.000000
    15  H    0.000049  -0.000000  -0.000000   0.000000
    16  H   -0.000209  -0.000000   0.000002   0.000003
    17  H    0.000017  -0.000012   0.001269   0.001407
    18  H   -0.006917  -0.000024   0.000024   0.000022
    19  H    0.623200  -0.000000  -0.000000  -0.000000
    20  H   -0.000000   0.531078  -0.031213  -0.030919
    21  H   -0.000000  -0.031213   0.570534  -0.043942
    22  H   -0.000000  -0.030919  -0.043942   0.570547
 Mulliken atomic charges:
              1
     1  C   -0.432344
     2  C   -0.341284
     3  C    0.198530
     4  C   -0.221664
     5  C   -0.197396
     6  C    0.351178
     7  C   -0.188263
     8  C   -0.213112
     9  O   -0.447845
    10  C   -0.225788
    11  H    0.143506
    12  H    0.153322
    13  H    0.151477
    14  H    0.145139
    15  H    0.142219
    16  H    0.111399
    17  H    0.118226
    18  H    0.123303
    19  H    0.110820
    20  H    0.176722
    21  H    0.170985
    22  H    0.170870
 Sum of Mulliken atomic charges =  -0.00000
 Mulliken charges with hydrogens summed into heavy atoms:
              1
     1  C    0.015960
     2  C   -0.053926
     3  C    0.198530
     4  C   -0.110265
     5  C   -0.079170
     6  C    0.351178
     7  C   -0.064959
     8  C   -0.102291
     9  O   -0.447845
    10  C    0.292789
 Sum of Mulliken charges with hydrogens summed into heavy atoms =  -0.00000
 Electronic spatial extent (au):  <R**2>=           1916.3392
 Charge=              0.0000 electrons
 Dipole moment (field-independent basis, Debye):
    X=              1.4300    Y=             -1.3755    Z=              0.2130  Tot=              1.9956
 Quadrupole moment (field-independent basis, Debye-Ang):
   XX=            -47.6528   YY=            -58.6347   ZZ=            -63.0234
   XY=             -4.3169   XZ=              1.1849   YZ=             -0.0629
 Traceless Quadrupole moment (field-independent basis, Debye-Ang):
   XX=              8.7842   YY=             -2.1977   ZZ=             -6.5864
   XY=             -4.3169   XZ=              1.1849   YZ=             -0.0629
 Octapole moment (field-independent basis, Debye-Ang**2):
  XXX=             49.4207  YYY=              1.3540  ZZZ=              3.0886  XYY=              4.7828
  XXY=            -13.7368  XXZ=              1.6191  XZZ=              5.7785  YZZ=             -0.7810
  YYZ=              0.3830  XYZ=             -0.7976
 Hexadecapole moment (field-independent basis, Debye-Ang**3):
 XXXX=          -1823.4275 YYYY=           -353.7156 ZZZZ=           -148.2205 XXXY=            -40.5487
 XXXZ=             22.4000 YYYX=              1.0452 YYYZ=              1.9119 ZZZX=              3.5686
 ZZZY=             -0.5410 XXYY=           -394.8962 XXZZ=           -365.2696 YYZZ=            -90.1834
 XXYZ=             -1.5778 YYXZ=              2.4923 ZZXY=             -1.0812
 N-N= 5.010229202987D+02 E-N=-1.989225265185D+03  KE= 4.214906629936D+02
 No NMR shielding tensors so no spin-rotation constants.
 Leave Link  601 at Tue Sep 28 19:54:49 2021, MaxMem=  805306368 cpu:       0.9
 (Enter /sw/target/amd/app/gaussian/Gaussian09RevA.02_gcc-4.9.2/g09/l604.exe)
 Evaluate density.
 Using the total density.
 Monte-Carlo method of calculating molar volume:
 based on  0.001 e/bohr**3 density envelope.
 Number of points per bohr**3 =   20 CutOff= 1.00D-04
 Using the CI density.
 There are       389 points.  Will hold       389 in memory.
 LenV=   805206676 MDV=   805306368.
 Box volume = 7413.184 fraction occupied=0.172
 Integrated density= 5.9530244315563642D+01 error=-1.4469755684436358D+01
 Molar volume = 1276.821 bohr**3/mol (113.942 cm**3/mol)
 Recommended a0 for SCRF calculation =  4.42 angstrom (  8.35 bohr)
 Leave Link  604 at Tue Sep 28 19:54:50 2021, MaxMem=  805306368 cpu:       0.2
 (Enter /sw/target/amd/app/gaussian/Gaussian09RevA.02_gcc-4.9.2/g09/l607.exe)
 ******************************Gaussian NBO Version 3.1******************************
             N A T U R A L   A T O M I C   O R B I T A L   A N D
          N A T U R A L   B O N D   O R B I T A L   A N A L Y S I S
 ******************************Gaussian NBO Version 3.1******************************
       /RESON  / : Allow strongly delocalized NBO set

 Analyzing the CI density

 Job title: CCc1ccc(cc1)OC_conf_0                                           

 Storage needed:     92476 in NPA ( 805303728 available)


 NATURAL POPULATIONS:  Natural atomic orbital occupancies 
                                                          
   NAO  Atom  No  lang   Type(AO)    Occupancy
 --------------------------------------------
     1    C    1  S      Cor( 1S)     1.99944
     2    C    1  S      Val( 2S)     1.10866
     3    C    1  S      Ryd( 3S)     0.00034
     4    C    1  S      Ryd( 4S)     0.00001
     5    C    1  px     Val( 2p)     1.19533
     6    C    1  px     Ryd( 3p)     0.00140
     7    C    1  py     Val( 2p)     1.24531
     8    C    1  py     Ryd( 3p)     0.00108
     9    C    1  pz     Val( 2p)     1.10671
    10    C    1  pz     Ryd( 3p)     0.00085
    11    C    1  dxy    Ryd( 3d)     0.00024
    12    C    1  dxz    Ryd( 3d)     0.00042
    13    C    1  dyz    Ryd( 3d)     0.00113
    14    C    1  dx2y2  Ryd( 3d)     0.00106
    15    C    1  dz2    Ryd( 3d)     0.00049

    16    C    2  S      Cor( 1S)     1.99929
    17    C    2  S      Val( 2S)     1.03477
    18    C    2  S      Ryd( 3S)     0.00062
    19    C    2  S      Ryd( 4S)     0.00002
    20    C    2  px     Val( 2p)     1.06005
    21    C    2  px     Ryd( 3p)     0.00152
    22    C    2  py     Val( 2p)     1.25068
    23    C    2  py     Ryd( 3p)     0.00536
    24    C    2  pz     Val( 2p)     1.11933
    25    C    2  pz     Ryd( 3p)     0.00079
    26    C    2  dxy    Ryd( 3d)     0.00046
    27    C    2  dxz    Ryd( 3d)     0.00067
    28    C    2  dyz    Ryd( 3d)     0.00112
    29    C    2  dx2y2  Ryd( 3d)     0.00091
    30    C    2  dz2    Ryd( 3d)     0.00044

    31    C    3  S      Cor( 1S)     1.99904
    32    C    3  S      Val( 2S)     0.89256
    33    C    3  S      Ryd( 3S)     0.00099
    34    C    3  S      Ryd( 4S)     0.00005
    35    C    3  px     Val( 2p)     1.05694
    36    C    3  px     Ryd( 3p)     0.00492
    37    C    3  py     Val( 2p)     1.08394
    38    C    3  py     Ryd( 3p)     0.00461
    39    C    3  pz     Val( 2p)     0.90918
    40    C    3  pz     Ryd( 3p)     0.00356
    41    C    3  dxy    Ryd( 3d)     0.00088
    42    C    3  dxz    Ryd( 3d)     0.00056
    43    C    3  dyz    Ryd( 3d)     0.00107
    44    C    3  dx2y2  Ryd( 3d)     0.00071
    45    C    3  dz2    Ryd( 3d)     0.00035

    46    C    4  S      Cor( 1S)     1.99906
    47    C    4  S      Val( 2S)     0.94673
    48    C    4  S      Ryd( 3S)     0.00073
    49    C    4  S      Ryd( 4S)     0.00005
    50    C    4  px     Val( 2p)     1.06881
    51    C    4  px     Ryd( 3p)     0.00440
    52    C    4  py     Val( 2p)     1.16641
    53    C    4  py     Ryd( 3p)     0.00508
    54    C    4  pz     Val( 2p)     1.08380
    55    C    4  pz     Ryd( 3p)     0.00605
    56    C    4  dxy    Ryd( 3d)     0.00072
    57    C    4  dxz    Ryd( 3d)     0.00059
    58    C    4  dyz    Ryd( 3d)     0.00038
    59    C    4  dx2y2  Ryd( 3d)     0.00075
    60    C    4  dz2    Ryd( 3d)     0.00044

    61    C    5  S      Cor( 1S)     1.99905
    62    C    5  S      Val( 2S)     0.95704
    63    C    5  S      Ryd( 3S)     0.00064
    64    C    5  S      Ryd( 4S)     0.00005
    65    C    5  px     Val( 2p)     1.11582
    66    C    5  px     Ryd( 3p)     0.00397
    67    C    5  py     Val( 2p)     1.13985
    68    C    5  py     Ryd( 3p)     0.00412
    69    C    5  pz     Val( 2p)     1.10824
    70    C    5  pz     Ryd( 3p)     0.00592
    71    C    5  dxy    Ryd( 3d)     0.00082
    72    C    5  dxz    Ryd( 3d)     0.00058
    73    C    5  dyz    Ryd( 3d)     0.00045
    74    C    5  dx2y2  Ryd( 3d)     0.00055
    75    C    5  dz2    Ryd( 3d)     0.00048

    76    C    6  S      Cor( 1S)     1.99879
    77    C    6  S      Val( 2S)     0.84325
    78    C    6  S      Ryd( 3S)     0.00156
    79    C    6  S      Ryd( 4S)     0.00013
    80    C    6  px     Val( 2p)     0.75058
    81    C    6  px     Ryd( 3p)     0.00640
    82    C    6  py     Val( 2p)     1.08505
    83    C    6  py     Ryd( 3p)     0.00640
    84    C    6  pz     Val( 2p)     0.96909
    85    C    6  pz     Ryd( 3p)     0.00193
    86    C    6  dxy    Ryd( 3d)     0.00140
    87    C    6  dxz    Ryd( 3d)     0.00161
    88    C    6  dyz    Ryd( 3d)     0.00139
    89    C    6  dx2y2  Ryd( 3d)     0.00173
    90    C    6  dz2    Ryd( 3d)     0.00054

    91    C    7  S      Cor( 1S)     1.99907
    92    C    7  S      Val( 2S)     0.95767
    93    C    7  S      Ryd( 3S)     0.00087
    94    C    7  S      Ryd( 4S)     0.00004
    95    C    7  px     Val( 2p)     1.08262
    96    C    7  px     Ryd( 3p)     0.00558
    97    C    7  py     Val( 2p)     1.15590
    98    C    7  py     Ryd( 3p)     0.00452
    99    C    7  pz     Val( 2p)     1.09857
   100    C    7  pz     Ryd( 3p)     0.00691
   101    C    7  dxy    Ryd( 3d)     0.00084
   102    C    7  dxz    Ryd( 3d)     0.00062
   103    C    7  dyz    Ryd( 3d)     0.00041
   104    C    7  dx2y2  Ryd( 3d)     0.00053
   105    C    7  dz2    Ryd( 3d)     0.00047

   106    C    8  S      Cor( 1S)     1.99906
   107    C    8  S      Val( 2S)     0.94813
   108    C    8  S      Ryd( 3S)     0.00060
   109    C    8  S      Ryd( 4S)     0.00005
   110    C    8  px     Val( 2p)     1.10073
   111    C    8  px     Ryd( 3p)     0.00429
   112    C    8  py     Val( 2p)     1.13908
   113    C    8  py     Ryd( 3p)     0.00482
   114    C    8  pz     Val( 2p)     1.08396
   115    C    8  pz     Ryd( 3p)     0.00570
   116    C    8  dxy    Ryd( 3d)     0.00080
   117    C    8  dxz    Ryd( 3d)     0.00060
   118    C    8  dyz    Ryd( 3d)     0.00039
   119    C    8  dx2y2  Ryd( 3d)     0.00066
   120    C    8  dz2    Ryd( 3d)     0.00045

   121    O    9  S      Cor( 1S)     1.99975
   122    O    9  S      Val( 2S)     1.59859
   123    O    9  S      Ryd( 3S)     0.00078
   124    O    9  S      Ryd( 4S)     0.00007
   125    O    9  px     Val( 2p)     1.42819
   126    O    9  px     Ryd( 3p)     0.00105
   127    O    9  py     Val( 2p)     1.68439
   128    O    9  py     Ryd( 3p)     0.00211
   129    O    9  pz     Val( 2p)     1.70609
   130    O    9  pz     Ryd( 3p)     0.00220
   131    O    9  dxy    Ryd( 3d)     0.00134
   132    O    9  dxz    Ryd( 3d)     0.00061
   133    O    9  dyz    Ryd( 3d)     0.00143
   134    O    9  dx2y2  Ryd( 3d)     0.00132
   135    O    9  dz2    Ryd( 3d)     0.00078

   136    C   10  S      Cor( 1S)     1.99942
   137    C   10  S      Val( 2S)     1.10347
   138    C   10  S      Ryd( 3S)     0.00149
   139    C   10  S      Ryd( 4S)     0.00003
   140    C   10  px     Val( 2p)     1.02955
   141    C   10  px     Ryd( 3p)     0.00232
   142    C   10  py     Val( 2p)     0.94594
   143    C   10  py     Ryd( 3p)     0.00343
   144    C   10  pz     Val( 2p)     1.23249
   145    C   10  pz     Ryd( 3p)     0.00034
   146    C   10  dxy    Ryd( 3d)     0.00179
   147    C   10  dxz    Ryd( 3d)     0.00063
   148    C   10  dyz    Ryd( 3d)     0.00171
   149    C   10  dx2y2  Ryd( 3d)     0.00129
   150    C   10  dz2    Ryd( 3d)     0.00108

   151    H   11  S      Val( 1S)     0.76840
   152    H   11  S      Ryd( 2S)     0.00115

   153    H   12  S      Val( 1S)     0.76736
   154    H   12  S      Ryd( 2S)     0.00133

   155    H   13  S      Val( 1S)     0.76821
   156    H   13  S      Ryd( 2S)     0.00133

   157    H   14  S      Val( 1S)     0.75620
   158    H   14  S      Ryd( 2S)     0.00232

   159    H   15  S      Val( 1S)     0.75907
   160    H   15  S      Ryd( 2S)     0.00211

   161    H   16  S      Val( 1S)     0.77474
   162    H   16  S      Ryd( 2S)     0.00109

   163    H   17  S      Val( 1S)     0.77322
   164    H   17  S      Ryd( 2S)     0.00100

   165    H   18  S      Val( 1S)     0.76330
   166    H   18  S      Ryd( 2S)     0.00126

   167    H   19  S      Val( 1S)     0.77412
   168    H   19  S      Ryd( 2S)     0.00104

   169    H   20  S      Val( 1S)     0.76853
   170    H   20  S      Ryd( 2S)     0.00054

   171    H   21  S      Val( 1S)     0.78134
   172    H   21  S      Ryd( 2S)     0.00202

   173    H   22  S      Val( 1S)     0.78126
   174    H   22  S      Ryd( 2S)     0.00208

 WARNING:  1 low occupancy (<1.9990e) core orbital  found on  C    6


 Summary of Natural Population Analysis:                  
                                                          
                                       Natural Population 
                Natural  -----------------------------------------------
    Atom  No    Charge         Core      Valence    Rydberg      Total
 -----------------------------------------------------------------------
      C    1   -0.66247      1.99944     4.65601    0.00703     6.66247
      C    2   -0.47604      1.99929     4.46483    0.01192     6.47604
      C    3    0.04063      1.99904     3.94262    0.01771     5.95937
      C    4   -0.28400      1.99906     4.26575    0.01918     6.28400
      C    5   -0.33760      1.99905     4.32096    0.01759     6.33760
      C    6    0.33015      1.99879     3.64798    0.02308     5.66985
      C    7   -0.31463      1.99907     4.29476    0.02080     6.31463
      C    8   -0.28933      1.99906     4.27189    0.01837     6.28933
      O    9   -0.42870      1.99975     6.41726    0.01168     8.42870
      C   10   -0.32499      1.99942     4.31145    0.01412     6.32499
      H   11    0.23045      0.00000     0.76840    0.00115     0.76955
      H   12    0.23131      0.00000     0.76736    0.00133     0.76869
      H   13    0.23046      0.00000     0.76821    0.00133     0.76954
      H   14    0.24148      0.00000     0.75620    0.00232     0.75852
      H   15    0.23882      0.00000     0.75907    0.00211     0.76118
      H   16    0.22417      0.00000     0.77474    0.00109     0.77583
      H   17    0.22577      0.00000     0.77322    0.00100     0.77423
      H   18    0.23543      0.00000     0.76330    0.00126     0.76457
      H   19    0.22484      0.00000     0.77412    0.00104     0.77516
      H   20    0.23093      0.00000     0.76853    0.00054     0.76907
      H   21    0.21664      0.00000     0.78134    0.00202     0.78336
      H   22    0.21665      0.00000     0.78126    0.00208     0.78335
 =======================================================================
   * Total *   -0.00000     19.99197    53.82927    0.17876    74.00000

                                 Natural Population      
 --------------------------------------------------------
   Core                      19.99197 ( 99.9598% of  20)
   Valence                   53.82927 ( 99.6838% of  54)
   Natural Minimal Basis     73.82124 ( 99.7584% of  74)
   Natural Rydberg Basis      0.17876 (  0.2416% of  74)
 --------------------------------------------------------

    Atom  No          Natural Electron Configuration
 ----------------------------------------------------------------------------
      C    1      [core]2S( 1.11)2p( 3.55)
      C    2      [core]2S( 1.03)2p( 3.43)3p( 0.01)
      C    3      [core]2S( 0.89)2p( 3.05)3p( 0.01)
      C    4      [core]2S( 0.95)2p( 3.32)3p( 0.02)
      C    5      [core]2S( 0.96)2p( 3.36)3p( 0.01)
      C    6      [core]2S( 0.84)2p( 2.80)3p( 0.01)3d( 0.01)
      C    7      [core]2S( 0.96)2p( 3.34)3p( 0.02)
      C    8      [core]2S( 0.95)2p( 3.32)3p( 0.01)
      O    9      [core]2S( 1.60)2p( 4.82)3p( 0.01)3d( 0.01)
      C   10      [core]2S( 1.10)2p( 3.21)3p( 0.01)3d( 0.01)
      H   11            1S( 0.77)
      H   12            1S( 0.77)
      H   13            1S( 0.77)
      H   14            1S( 0.76)
      H   15            1S( 0.76)
      H   16            1S( 0.77)
      H   17            1S( 0.77)
      H   18            1S( 0.76)
      H   19            1S( 0.77)
      H   20            1S( 0.77)
      H   21            1S( 0.78)
      H   22            1S( 0.78)


 NBO analysis skipped by request.
 Leave Link  607 at Tue Sep 28 19:55:09 2021, MaxMem=  805306368 cpu:       9.9
 (Enter /sw/target/amd/app/gaussian/Gaussian09RevA.02_gcc-4.9.2/g09/l9999.exe)
 1\1\GINC-HERMITE\SP\RTD-B3LYP-FC\6-31G(d)\C9H12O1\JSCHLEINITZ\28-Sep-2
 021\0\\#p TD(NStates=10, Root=1) b3lyp/6-31G* volume pop=NPA density=c
 urrent Geom=AllCheck Guess=Read\\CCc1ccc(cc1)OC_conf_0\\0,1\C,0,0.9338
 944647,0.4042008877,0.170064224\C,0,2.4152000107,-0.0068657816,0.24742
 21335\C,0,2.995146186,-0.3948584958,-1.0967153329\C,0,3.6513359047,0.5
 382608865,-1.9029390538\C,0,4.1569044367,0.2023393866,-3.1629311019\C,
 0,4.0076430432,-1.1040995664,-3.6392611358\C,0,3.3549517269,-2.0567826
 ,-2.8437517546\C,0,2.8603420265,-1.7009305989,-1.595475917\O,0,4.46133
 93483,-1.5508900175,-4.849878839\C,0,5.1229061329,-0.6274185207,-5.697
 1406031\H,0,0.5478270933,0.6750786423,1.159932354\H,0,0.3191794455,-0.
 4141534339,-0.2219143649\H,0,0.8008099937,1.2650850159,-0.4949916453\H
 ,0,2.5177582136,-0.8458660416,0.9481453204\H,0,2.9963490361,0.82184363
 87,0.671794109\H,0,3.7789309727,1.557675165,-1.5438714245\H,0,4.663251
 0604,0.9588264189,-3.7519142151\H,0,3.2532976612,-3.0685274088,-3.2244
 90156\H,0,2.3606371455,-2.4549123827,-0.990431104\H,0,5.3893762,-1.183
 6834785,-6.5979928205\H,0,6.0368474856,-0.2330131333,-5.2325052605\H,0
 ,4.469292831,0.212043656,-5.9704103056\\Version=AM64L-G09RevA.02\State
 =1-A\HF=-425.4023993\RMSD=7.007e-09\Dipole=0.3419817,0.4404456,-0.5527
 092\Quadrupole=-1.8721432,-2.6208776,4.4930208,1.361809,-5.2185983,-1.
 166348\PG=C01 [X(C9H12O1)]\\@


 SOME PEOPLE TRY TO PULL THE WOOL OVER YOUR EYES
 USING THE WRONG YARN.
 Job cpu time:  0 days  1 hours 25 minutes 41.5 seconds.
 File lengths (MBytes):  RWF=    105 Int=      0 D2E=      0 Chk=     15 Scr=      1
 Normal termination of Gaussian 09 at Tue Sep 28 19:55:13 2021.
