 Entering Gaussian System, Link 0=g09
 Input=C9H13NO_7ff1_conf_0.com
 Output=C9H13NO_7ff1_conf_0.log
 Initial command:
 /sw/target/amd/app/gaussian/Gaussian09RevA.02_gcc-4.9.2/g09/l1.exe /home/jschleinitz/gaussian/Gau-3275750.inp -scrdir=/home/jschleinitz/gaussian/
 Entering Link 1 = /sw/target/amd/app/gaussian/Gaussian09RevA.02_gcc-4.9.2/g09/l1.exe PID=   3275752.
  
 Copyright (c) 1988,1990,1992,1993,1995,1998,2003,2009, Gaussian, Inc.
                  All Rights Reserved.
  
 This is part of the Gaussian(R) 09 program.  It is based on
 the Gaussian(R) 03 system (copyright 2003, Gaussian, Inc.),
 the Gaussian(R) 98 system (copyright 1998, Gaussian, Inc.),
 the Gaussian(R) 94 system (copyright 1995, Gaussian, Inc.),
 the Gaussian 92(TM) system (copyright 1992, Gaussian, Inc.),
 the Gaussian 90(TM) system (copyright 1990, Gaussian, Inc.),
 the Gaussian 88(TM) system (copyright 1988, Gaussian, Inc.),
 the Gaussian 86(TM) system (copyright 1986, Carnegie Mellon
 University), and the Gaussian 82(TM) system (copyright 1983,
 Carnegie Mellon University). Gaussian is a federally registered
 trademark of Gaussian, Inc.
  
 This software contains proprietary and confidential information,
 including trade secrets, belonging to Gaussian, Inc.
  
 This software is provided under written license and may be
 used, copied, transmitted, or stored only in accord with that
 written license.
  
 The following legend is applicable only to US Government
 contracts under FAR:
  
                    RESTRICTED RIGHTS LEGEND
  
 Use, reproduction and disclosure by the US Government is
 subject to restrictions as set forth in subparagraphs (a)
 and (c) of the Commercial Computer Software - Restricted
 Rights clause in FAR 52.227-19.
  
 Gaussian, Inc.
 340 Quinnipiac St., Bldg. 40, Wallingford CT 06492
  
  
 ---------------------------------------------------------------
 Warning -- This program may not be used in any manner that
 competes with the business of Gaussian, Inc. or will provide
 assistance to any competitor of Gaussian, Inc.  The licensee
 of this program is prohibited from giving any competitor of
 Gaussian, Inc. access to this program.  By using this program,
 the user acknowledges that Gaussian, Inc. is engaged in the
 business of creating and licensing software in the field of
 computational chemistry and represents and warrants to the
 licensee that it is not a competitor of Gaussian, Inc. and that
 it will not use this program in any manner prohibited above.
 ---------------------------------------------------------------
  

 Cite this work as:
 Gaussian 09, Revision A.02,
 M. J. Frisch, G. W. Trucks, H. B. Schlegel, G. E. Scuseria, 
 M. A. Robb, J. R. Cheeseman, G. Scalmani, V. Barone, B. Mennucci, 
 G. A. Petersson, H. Nakatsuji, M. Caricato, X. Li, H. P. Hratchian, 
 A. F. Izmaylov, J. Bloino, G. Zheng, J. L. Sonnenberg, M. Hada, 
 M. Ehara, K. Toyota, R. Fukuda, J. Hasegawa, M. Ishida, T. Nakajima, 
 Y. Honda, O. Kitao, H. Nakai, T. Vreven, J. A. Montgomery, Jr., 
 J. E. Peralta, F. Ogliaro, M. Bearpark, J. J. Heyd, E. Brothers, 
 K. N. Kudin, V. N. Staroverov, R. Kobayashi, J. Normand, 
 K. Raghavachari, A. Rendell, J. C. Burant, S. S. Iyengar, J. Tomasi, 
 M. Cossi, N. Rega, J. M. Millam, M. Klene, J. E. Knox, J. B. Cross, 
 V. Bakken, C. Adamo, J. Jaramillo, R. Gomperts, R. E. Stratmann, 
 O. Yazyev, A. J. Austin, R. Cammi, C. Pomelli, J. W. Ochterski, 
 R. L. Martin, K. Morokuma, V. G. Zakrzewski, G. A. Voth, 
 P. Salvador, J. J. Dannenberg, S. Dapprich, A. D. Daniels, 
 O. Farkas, J. B. Foresman, J. V. Ortiz, J. Cioslowski, 
 and D. J. Fox, Gaussian, Inc., Wallingford CT, 2009.
 
 ******************************************
 Gaussian 09:  AM64L-G09RevA.02 11-Jun-2009
                30-Sep-2021 
 ******************************************
 %nproc=4
 Will use up to    4 processors via shared memory.
 %mem=8gb
 %chk=C9H13NO_7ff1_conf_0.chk
 -----------------------------------
 #p opt b3lyp/6-31G* scf=(xqc,tight)
 -----------------------------------
 1/14=-1,18=20,19=15,26=3,38=1/1,3;
 2/9=110,12=2,17=6,18=5,40=1/2;
 3/5=1,6=6,7=1,11=2,16=1,25=1,30=1,71=1,74=-5/1,2,3;
 4//1;
 5/5=2,8=3,13=1,32=2,38=5/2,8;
 6/7=2,8=2,9=2,10=2,28=1/1;
 7//1,2,3,16;
 1/14=-1,18=20,19=15/3(2);
 2/9=110/2;
 99//99;
 2/9=110/2;
 3/5=1,6=6,7=1,11=2,16=1,25=1,30=1,71=1,74=-5/1,2,3;
 4/5=5,16=3/1;
 5/5=2,8=3,13=1,32=2,38=5/2,8;
 7//1,2,3,16;
 1/14=-1,18=20,19=15/3(-5);
 2/9=110/2;
 6/7=2,8=2,9=2,10=2,19=2,28=1/1;
 99/9=1/99;
 Leave Link    1 at Thu Sep 30 12:40:53 2021, MaxMem= 1073741824 cpu:       0.1
 (Enter /sw/target/amd/app/gaussian/Gaussian09RevA.02_gcc-4.9.2/g09/l101.exe)
 ----------------------
 NCCc1ccc(cc1)OC_conf_0
 ----------------------
 Symbolic Z-matrix:
 Charge =  0 Multiplicity = 1
 N                     1.12496   1.27197   1.63453 
 C                     2.57033   1.05349   1.69325 
 C                     2.92386  -0.39044   1.32316 
 C                     4.40889  -0.64834   1.40478 
 C                     4.9963   -1.05643   2.60883 
 C                     6.37309  -1.29614   2.68775 
 C                     7.18034  -1.1267    1.56328 
 C                     6.59858  -0.70845   0.36477 
 C                     5.22492  -0.4674    0.28292 
 O                     8.53109  -1.33338   1.50289 
 C                     9.1673   -1.77397   2.69566 
 H                     0.92135   2.2346    1.90248 
 H                     0.66114   0.68132   2.32385 
 H                     2.92707   1.28935   2.70248 
 H                     3.06116   1.75021   1.00443 
 H                     2.57045  -0.6182    0.30889 
 H                     2.4017   -1.09233   1.98699 
 H                     4.3837   -1.1972    3.49689 
 H                     6.77997  -1.61598   3.6408 
 H                     7.22146  -0.5715   -0.51598 
 H                     4.79815  -0.14369  -0.66374 
 H                     10.23119  -1.90844   2.47741 
 H                     8.77081  -2.74096   3.0229 
 H                     9.08204  -1.02259   3.48757 
 
 NAtoms=     24 NQM=     24 NQMF=      0 NMic=      0 NMicF=      0 NTot=     24.
                    Isotopes and Nuclear Properties:
 (Nuclear quadrupole moments (NQMom) in fm**2, nuclear magnetic moments (NMagM)
  in nuclear magnetons)

  Atom         1           2           3           4           5           6           7           8           9          10
 IAtWgt=          14          12          12          12          12          12          12          12          12          16
 AtmWgt=  14.0030740  12.0000000  12.0000000  12.0000000  12.0000000  12.0000000  12.0000000  12.0000000  12.0000000  15.9949146
 NucSpn=           2           0           0           0           0           0           0           0           0           0
 AtZEff=   0.0000000   0.0000000   0.0000000   0.0000000   0.0000000   0.0000000   0.0000000   0.0000000   0.0000000   0.0000000
 NQMom=    2.0440000   0.0000000   0.0000000   0.0000000   0.0000000   0.0000000   0.0000000   0.0000000   0.0000000   0.0000000
 NMagM=    0.4037610   0.0000000   0.0000000   0.0000000   0.0000000   0.0000000   0.0000000   0.0000000   0.0000000   0.0000000

  Atom        11          12          13          14          15          16          17          18          19          20
 IAtWgt=          12           1           1           1           1           1           1           1           1           1
 AtmWgt=  12.0000000   1.0078250   1.0078250   1.0078250   1.0078250   1.0078250   1.0078250   1.0078250   1.0078250   1.0078250
 NucSpn=           0           1           1           1           1           1           1           1           1           1
 AtZEff=   0.0000000   0.0000000   0.0000000   0.0000000   0.0000000   0.0000000   0.0000000   0.0000000   0.0000000   0.0000000
 NQMom=    0.0000000   0.0000000   0.0000000   0.0000000   0.0000000   0.0000000   0.0000000   0.0000000   0.0000000   0.0000000
 NMagM=    0.0000000   2.7928460   2.7928460   2.7928460   2.7928460   2.7928460   2.7928460   2.7928460   2.7928460   2.7928460

  Atom        21          22          23          24
 IAtWgt=           1           1           1           1
 AtmWgt=   1.0078250   1.0078250   1.0078250   1.0078250
 NucSpn=           1           1           1           1
 AtZEff=   0.0000000   0.0000000   0.0000000   0.0000000
 NQMom=    0.0000000   0.0000000   0.0000000   0.0000000
 NMagM=    2.7928460   2.7928460   2.7928460   2.7928460
 Leave Link  101 at Thu Sep 30 12:40:54 2021, MaxMem= 1073741824 cpu:       0.2
 (Enter /sw/target/amd/app/gaussian/Gaussian09RevA.02_gcc-4.9.2/g09/l103.exe)

 GradGradGradGradGradGradGradGradGradGradGradGradGradGradGradGradGradGrad
 Berny optimization.
 Initialization pass.
                           ----------------------------
                           !    Initial Parameters    !
                           ! (Angstroms and Degrees)  !
 --------------------------                            --------------------------
 ! Name  Definition              Value          Derivative Info.                !
 --------------------------------------------------------------------------------
 ! R1    R(1,2)                  1.463          estimate D2E/DX2                !
 ! R2    R(1,12)                 1.0198         estimate D2E/DX2                !
 ! R3    R(1,13)                 1.0194         estimate D2E/DX2                !
 ! R4    R(2,3)                  1.532          estimate D2E/DX2                !
 ! R5    R(2,14)                 1.0961         estimate D2E/DX2                !
 ! R6    R(2,15)                 1.0958         estimate D2E/DX2                !
 ! R7    R(3,4)                  1.5095         estimate D2E/DX2                !
 ! R8    R(3,16)                 1.098          estimate D2E/DX2                !
 ! R9    R(3,17)                 1.0982         estimate D2E/DX2                !
 ! R10   R(4,5)                  1.4005         estimate D2E/DX2                !
 ! R11   R(4,9)                  1.399          estimate D2E/DX2                !
 ! R12   R(5,6)                  1.3997         estimate D2E/DX2                !
 ! R13   R(5,18)                 1.088          estimate D2E/DX2                !
 ! R14   R(6,7)                  1.3946         estimate D2E/DX2                !
 ! R15   R(6,19)                 1.0845         estimate D2E/DX2                !
 ! R16   R(7,8)                  1.3964         estimate D2E/DX2                !
 ! R17   R(7,10)                 1.3678         estimate D2E/DX2                !
 ! R18   R(8,9)                  1.397          estimate D2E/DX2                !
 ! R19   R(8,20)                 1.0874         estimate D2E/DX2                !
 ! R20   R(9,21)                 1.0877         estimate D2E/DX2                !
 ! R21   R(10,11)                1.4218         estimate D2E/DX2                !
 ! R22   R(11,22)                1.0943         estimate D2E/DX2                !
 ! R23   R(11,23)                1.0952         estimate D2E/DX2                !
 ! R24   R(11,24)                1.095          estimate D2E/DX2                !
 ! A1    A(2,1,12)             109.1283         estimate D2E/DX2                !
 ! A2    A(2,1,13)             109.6244         estimate D2E/DX2                !
 ! A3    A(12,1,13)            106.1663         estimate D2E/DX2                !
 ! A4    A(1,2,3)              111.0421         estimate D2E/DX2                !
 ! A5    A(1,2,14)             109.0488         estimate D2E/DX2                !
 ! A6    A(1,2,15)             108.8049         estimate D2E/DX2                !
 ! A7    A(3,2,14)             110.496          estimate D2E/DX2                !
 ! A8    A(3,2,15)             110.1234         estimate D2E/DX2                !
 ! A9    A(14,2,15)            107.2288         estimate D2E/DX2                !
 ! A10   A(2,3,4)              112.0252         estimate D2E/DX2                !
 ! A11   A(2,3,16)             110.1455         estimate D2E/DX2                !
 ! A12   A(2,3,17)             110.2829         estimate D2E/DX2                !
 ! A13   A(4,3,16)             109.3402         estimate D2E/DX2                !
 ! A14   A(4,3,17)             109.0202         estimate D2E/DX2                !
 ! A15   A(16,3,17)            105.8296         estimate D2E/DX2                !
 ! A16   A(3,4,5)              120.5919         estimate D2E/DX2                !
 ! A17   A(3,4,9)              120.557          estimate D2E/DX2                !
 ! A18   A(5,4,9)              118.8462         estimate D2E/DX2                !
 ! A19   A(4,5,6)              120.7267         estimate D2E/DX2                !
 ! A20   A(4,5,18)             120.2178         estimate D2E/DX2                !
 ! A21   A(6,5,18)             119.0545         estimate D2E/DX2                !
 ! A22   A(5,6,7)              120.205          estimate D2E/DX2                !
 ! A23   A(5,6,19)             117.9748         estimate D2E/DX2                !
 ! A24   A(7,6,19)             121.82           estimate D2E/DX2                !
 ! A25   A(6,7,8)              119.1635         estimate D2E/DX2                !
 ! A26   A(6,7,10)             126.0777         estimate D2E/DX2                !
 ! A27   A(8,7,10)             114.7588         estimate D2E/DX2                !
 ! A28   A(7,8,9)              120.7722         estimate D2E/DX2                !
 ! A29   A(7,8,20)             119.621          estimate D2E/DX2                !
 ! A30   A(9,8,20)             119.6065         estimate D2E/DX2                !
 ! A31   A(4,9,8)              120.2803         estimate D2E/DX2                !
 ! A32   A(4,9,21)             120.5008         estimate D2E/DX2                !
 ! A33   A(8,9,21)             119.2179         estimate D2E/DX2                !
 ! A34   A(7,10,11)            116.8502         estimate D2E/DX2                !
 ! A35   A(10,11,22)           107.8047         estimate D2E/DX2                !
 ! A36   A(10,11,23)           111.2406         estimate D2E/DX2                !
 ! A37   A(10,11,24)           111.0534         estimate D2E/DX2                !
 ! A38   A(22,11,23)           107.6412         estimate D2E/DX2                !
 ! A39   A(22,11,24)           107.7137         estimate D2E/DX2                !
 ! A40   A(23,11,24)           111.199          estimate D2E/DX2                !
 ! D1    D(12,1,2,3)           178.9387         estimate D2E/DX2                !
 ! D2    D(12,1,2,14)           56.9518         estimate D2E/DX2                !
 ! D3    D(12,1,2,15)          -59.7016         estimate D2E/DX2                !
 ! D4    D(13,1,2,3)            63.0554         estimate D2E/DX2                !
 ! D5    D(13,1,2,14)          -58.9314         estimate D2E/DX2                !
 ! D6    D(13,1,2,15)         -175.5848         estimate D2E/DX2                !
 ! D7    D(1,2,3,4)           -178.799          estimate D2E/DX2                !
 ! D8    D(1,2,3,16)            59.2675         estimate D2E/DX2                !
 ! D9    D(1,2,3,17)           -57.1775         estimate D2E/DX2                !
 ! D10   D(14,2,3,4)           -57.659          estimate D2E/DX2                !
 ! D11   D(14,2,3,16)         -179.5925         estimate D2E/DX2                !
 ! D12   D(14,2,3,17)           63.9625         estimate D2E/DX2                !
 ! D13   D(15,2,3,4)            60.6176         estimate D2E/DX2                !
 ! D14   D(15,2,3,16)          -61.3159         estimate D2E/DX2                !
 ! D15   D(15,2,3,17)         -177.7609         estimate D2E/DX2                !
 ! D16   D(2,3,4,5)             88.0533         estimate D2E/DX2                !
 ! D17   D(2,3,4,9)            -91.1318         estimate D2E/DX2                !
 ! D18   D(16,3,4,5)          -149.5537         estimate D2E/DX2                !
 ! D19   D(16,3,4,9)            31.2613         estimate D2E/DX2                !
 ! D20   D(17,3,4,5)           -34.2903         estimate D2E/DX2                !
 ! D21   D(17,3,4,9)           146.5246         estimate D2E/DX2                !
 ! D22   D(3,4,5,6)           -179.9886         estimate D2E/DX2                !
 ! D23   D(3,4,5,18)             0.3733         estimate D2E/DX2                !
 ! D24   D(9,4,5,6)             -0.7898         estimate D2E/DX2                !
 ! D25   D(9,4,5,18)           179.5721         estimate D2E/DX2                !
 ! D26   D(3,4,9,8)           -179.9668         estimate D2E/DX2                !
 ! D27   D(3,4,9,21)            -0.3342         estimate D2E/DX2                !
 ! D28   D(5,4,9,8)              0.834          estimate D2E/DX2                !
 ! D29   D(5,4,9,21)          -179.5333         estimate D2E/DX2                !
 ! D30   D(4,5,6,7)              0.185          estimate D2E/DX2                !
 ! D31   D(4,5,6,19)          -179.6529         estimate D2E/DX2                !
 ! D32   D(18,5,6,7)           179.8272         estimate D2E/DX2                !
 ! D33   D(18,5,6,19)           -0.0107         estimate D2E/DX2                !
 ! D34   D(5,6,7,8)              0.38           estimate D2E/DX2                !
 ! D35   D(5,6,7,10)          -179.6041         estimate D2E/DX2                !
 ! D36   D(19,6,7,8)          -179.7884         estimate D2E/DX2                !
 ! D37   D(19,6,7,10)            0.2274         estimate D2E/DX2                !
 ! D38   D(6,7,8,9)             -0.334          estimate D2E/DX2                !
 ! D39   D(6,7,8,20)           179.8443         estimate D2E/DX2                !
 ! D40   D(10,7,8,9)           179.6518         estimate D2E/DX2                !
 ! D41   D(10,7,8,20)           -0.1699         estimate D2E/DX2                !
 ! D42   D(6,7,10,11)            0.626          estimate D2E/DX2                !
 ! D43   D(8,7,10,11)         -179.3587         estimate D2E/DX2                !
 ! D44   D(7,8,9,4)             -0.2795         estimate D2E/DX2                !
 ! D45   D(7,8,9,21)          -179.9168         estimate D2E/DX2                !
 ! D46   D(20,8,9,4)           179.5422         estimate D2E/DX2                !
 ! D47   D(20,8,9,21)           -0.0951         estimate D2E/DX2                !
 ! D48   D(7,10,11,22)         178.972          estimate D2E/DX2                !
 ! D49   D(7,10,11,23)          61.1757         estimate D2E/DX2                !
 ! D50   D(7,10,11,24)         -63.2498         estimate D2E/DX2                !
 --------------------------------------------------------------------------------
 Trust Radius=3.00D-01 FncErr=1.00D-07 GrdErr=1.00D-06
 Number of steps in this run= 124 maximum allowed number of steps= 144.
 GradGradGradGradGradGradGradGradGradGradGradGradGradGradGradGradGradGrad

 Leave Link  103 at Thu Sep 30 12:40:55 2021, MaxMem= 1073741824 cpu:       0.0
 (Enter /sw/target/amd/app/gaussian/Gaussian09RevA.02_gcc-4.9.2/g09/l202.exe)
                          Input orientation:                          
 ---------------------------------------------------------------------
 Center     Atomic      Atomic             Coordinates (Angstroms)
 Number     Number       Type             X           Y           Z
 ---------------------------------------------------------------------
      1          7           0        1.124957    1.271967    1.634528
      2          6           0        2.570333    1.053493    1.693253
      3          6           0        2.923865   -0.390440    1.323159
      4          6           0        4.408887   -0.648344    1.404775
      5          6           0        4.996297   -1.056429    2.608826
      6          6           0        6.373092   -1.296138    2.687753
      7          6           0        7.180341   -1.126704    1.563278
      8          6           0        6.598576   -0.708450    0.364771
      9          6           0        5.224921   -0.467397    0.282919
     10          8           0        8.531095   -1.333380    1.502885
     11          6           0        9.167300   -1.773965    2.695661
     12          1           0        0.921348    2.234597    1.902476
     13          1           0        0.661138    0.681320    2.323852
     14          1           0        2.927071    1.289350    2.702476
     15          1           0        3.061163    1.750210    1.004427
     16          1           0        2.570451   -0.618201    0.308893
     17          1           0        2.401700   -1.092327    1.986991
     18          1           0        4.383695   -1.197204    3.496887
     19          1           0        6.779970   -1.615979    3.640804
     20          1           0        7.221463   -0.571498   -0.515977
     21          1           0        4.798154   -0.143695   -0.663740
     22          1           0       10.231192   -1.908438    2.477407
     23          1           0        8.770812   -2.740964    3.022902
     24          1           0        9.082037   -1.022589    3.487570
 ---------------------------------------------------------------------
                    Distance matrix (angstroms):
                    1          2          3          4          5
     1  N    0.000000
     2  C    1.462973   0.000000
     3  C    2.469133   1.531959   0.000000
     4  C    3.811113   2.521855   1.509459   0.000000
     5  C    4.621468   3.342956   2.528133   1.400472   0.000000
     6  C    5.936949   4.579386   3.818320   2.433879   1.399733
     7  C    6.513553   5.101209   4.326353   2.816896   2.422428
     8  C    5.957754   4.593044   3.810924   2.424862   2.779239
     9  C    4.654239   3.368826   2.526436   1.399005   2.410201
    10  O    7.852136   6.423713   5.688802   4.179892   3.714108
    11  C    8.665044   7.247021   6.540518   5.057262   4.233162
    12  H    1.019759   2.039100   3.352089   4.552140   5.285356
    13  H    1.019392   2.044797   2.696292   4.081462   4.679165
    14  H    2.094859   1.096095   2.173527   2.763053   3.129400
    15  H    2.091563   1.095814   2.168600   2.780234   3.767767
    16  H    2.723875   2.170487   1.097959   2.140494   3.371419
    17  H    2.710017   2.172387   1.098168   2.136562   2.668314
    18  H    4.492723   3.406908   2.739902   2.163056   1.088003
    19  H    6.659170   5.351643   4.662936   3.399732   2.135313
    20  H    6.722382   5.399473   4.678093   3.406725   3.866641
    21  H    4.558345   3.457147   2.742556   2.164476   3.403239
    22  H    9.682404   8.250861   7.552062   6.052901   5.305405
    23  H    8.745874   7.389981   6.526935   5.101351   4.154044
    24  H    8.486099   7.066257   6.558001   5.129953   4.179307
                    6          7          8          9         10
     6  C    0.000000
     7  C    1.394561   0.000000
     8  C    2.406754   1.396355   0.000000
     9  C    2.790758   2.428513   1.397045   0.000000
    10  O    2.462169   1.367808   2.328191   3.628916   0.000000
    11  C    2.834780   2.376814   3.628596   4.803207   1.421824
    12  H    6.542496   7.112551   6.577003   5.333336   8.414177
    13  H    6.055508   6.807895   6.404891   5.129627   8.165123
    14  H    4.308134   5.022488   4.789156   3.771012   6.302603
    15  H    4.804446   5.055351   4.355165   3.181227   6.298980
    16  H    4.536370   4.804492   4.029523   2.658877   6.120978
    17  H    4.037890   4.797512   4.515830   3.356333   6.153206
    18  H    2.149926   3.400741   3.867134   3.401451   4.603858
    19  H    1.084507   2.171590   3.404248   3.874637   2.777948
    20  H    3.392451   2.152498   1.087411   2.152964   2.524165
    21  H    3.878281   3.405985   2.149024   1.087693   4.477105
    22  H    3.912045   3.279395   4.370252   5.652887   2.042233
    23  H    2.819382   2.695540   3.989409   5.024934   2.085475
    24  H    2.837767   2.707432   4.002267   5.045332   2.083051
                   11         12         13         14         15
    11  C    0.000000
    12  H    9.202903   0.000000
    13  H    8.861233   1.630318   0.000000
    14  H    6.951575   2.357205   2.376449   0.000000
    15  H    7.250172   2.370639   2.939988   1.764581   0.000000
    16  H    7.109913   3.660260   3.065011   3.081423   2.516731
    17  H    6.836679   3.642390   2.507759   2.541716   3.079016
    18  H    4.884413   5.129059   4.331547   2.989280   4.080282
    19  H    2.572470   7.223030   6.667237   4.915915   5.666678
    20  H    3.942947   7.308524   7.257551   5.680052   5.001005
    21  H    5.747416   5.222199   5.169261   4.109256   3.063788
    22  H    1.094342  10.206296   9.915461   7.976634   8.183196
    23  H    1.095161   9.360857   8.829922   7.106012   7.539562
    24  H    1.094968   8.928529   8.670011   6.621559   7.078513
                   16         17         18         19         20
    16  H    0.000000
    17  H    1.751938   0.000000
    18  H    3.713005   2.493810   0.000000
    19  H    5.460517   4.709412   2.436846   0.000000
    20  H    4.723822   5.455843   4.954544   4.308676   0.000000
    21  H    2.476657   3.697198   4.311899   4.962290   2.465213
    22  H    8.065614   7.887173   5.978161   3.653760   4.450420
    23  H    7.093409   6.660083   4.674896   2.368723   4.430659
    24  H    7.257291   6.847153   4.701595   2.382248   4.437749
                   21         22         23         24
    21  H    0.000000
    22  H    6.519128   0.000000
    23  H    6.009921   1.767307   0.000000
    24  H    6.029717   1.767969   1.807095   0.000000
 Stoichiometry    C9H13NO
 Framework group  C1[X(C9H13NO)]
 Deg. of freedom    66
 Full point group                 C1      NOp   1
 Largest Abelian subgroup         C1      NOp   1
 Largest concise Abelian subgroup C1      NOp   1
                         Standard orientation:                         
 ---------------------------------------------------------------------
 Center     Atomic      Atomic             Coordinates (Angstroms)
 Number     Number       Type             X           Y           Z
 ---------------------------------------------------------------------
      1          7           0       -4.558704   -0.220965    0.359456
      2          6           0       -3.122976   -0.129666    0.625239
      3          6           0       -2.333585    0.054897   -0.674644
      4          6           0       -0.845844    0.122689   -0.428677
      5          6           0       -0.074763   -1.045955   -0.396605
      6          6           0        1.304976   -0.986390   -0.168513
      7          6           0        1.930118    0.243601    0.034271
      8          6           0        1.161326    1.409094    0.014479
      9          6           0       -0.216111    1.352999   -0.211916
     10          8           0        3.264789    0.441495    0.258744
     11          6           0        4.091825   -0.714950    0.273947
     12          1           0       -5.053356   -0.360748    1.240188
     13          1           0       -4.750111   -1.046146   -0.207640
     14          1           0       -2.797238   -1.037189    1.146508
     15          1           0       -2.941582    0.714801    1.299613
     16          1           0       -2.659247    0.969030   -1.188276
     17          1           0       -2.544421   -0.769833   -1.368432
     18          1           0       -0.542713   -2.015274   -0.555332
     19          1           0        1.859659   -1.918261   -0.158576
     20          1           0        1.640723    2.371956    0.174279
     21          1           0       -0.790342    2.276690   -0.223367
     22          1           0        5.121890   -0.387456    0.445118
     23          1           0        4.064630   -1.234873   -0.689546
     24          1           0        3.814926   -1.385818    1.093837
 ---------------------------------------------------------------------
 Rotational constants (GHZ):      3.6787044      0.4561478      0.4257559
 Leave Link  202 at Thu Sep 30 12:40:55 2021, MaxMem= 1073741824 cpu:       0.0
 (Enter /sw/target/amd/app/gaussian/Gaussian09RevA.02_gcc-4.9.2/g09/l301.exe)
 Standard basis: 6-31G(d) (6D, 7F)
 Ernie: Thresh=  0.10000D-02 Tol=  0.10000D-05 Strict=F.
 There are   191 symmetry adapted basis functions of A   symmetry.
 Integral buffers will be    131072 words long.
 Raffenetti 2 integral format.
 Two-electron integral symmetry is turned on.
   191 basis functions,   360 primitive gaussians,   191 cartesian basis functions
    41 alpha electrons       41 beta electrons
       nuclear repulsion energy       582.0889041532 Hartrees.
 IExCor=  402 DFT=T Ex+Corr=B3LYP ExCW=0 ScaHFX=  0.200000
 ScaDFX=  0.800000  0.720000  1.000000  0.810000 ScalE2=  1.000000  1.000000
 IRadAn=      0 IRanWt=     -1 IRanGd=            0 ICorTp=0
 NAtoms=   24 NActive=   24 NUniq=   24 SFac= 7.50D-01 NAtFMM=   80 NAOKFM=F Big=F
 Leave Link  301 at Thu Sep 30 12:40:55 2021, MaxMem= 1073741824 cpu:       0.1
 (Enter /sw/target/amd/app/gaussian/Gaussian09RevA.02_gcc-4.9.2/g09/l302.exe)
 NPDir=0 NMtPBC=     1 NCelOv=     1 NCel=       1 NClECP=     1 NCelD=      1
         NCelK=      1 NCelE2=     1 NClLst=     1 CellRange=     0.0.
 One-electron integrals computed using PRISM.
 NBasis=   191 RedAO= T  NBF=   191
 NBsUse=   191 1.00D-06 NBFU=   191
 Precomputing XC quadrature grid using
 IXCGrd= 2 IRadAn=           0 IRanWt=          -1 IRanGd=           0 AccXCQ= 1.00D-10.
 NRdTot=    1519 NPtTot=      193230 NUsed=      204188 NTot=      204220
 NSgBfM=   190   190   190   190   190 NAtAll=    24    24.
 Leave Link  302 at Thu Sep 30 12:40:58 2021, MaxMem= 1073741824 cpu:       1.7
 (Enter /sw/target/amd/app/gaussian/Gaussian09RevA.02_gcc-4.9.2/g09/l303.exe)
 DipDrv:  MaxL=1.
 Leave Link  303 at Thu Sep 30 12:40:59 2021, MaxMem= 1073741824 cpu:       0.2
 (Enter /sw/target/amd/app/gaussian/Gaussian09RevA.02_gcc-4.9.2/g09/l401.exe)
 Harris functional with IExCor=  402 diagonalized for initial guess.
 ExpMin= 1.61D-01 ExpMax= 5.48D+03 ExpMxC= 8.25D+02 IAcc=1 IRadAn=         1 AccDes= 0.00D+00
 HarFok:  IExCor=  402 AccDes= 0.00D+00 IRadAn=         1 IDoV= 1
 ScaDFX=  1.000000  1.000000  1.000000  1.000000
 FoFCou: FMM=F IPFlag=           0 FMFlag=      100000 FMFlg1=           0
         NFxFlg=           0 DoJE=T BraDBF=F KetDBF=T FulRan=T
         Omega=  0.000000  0.000000  1.000000  0.000000  0.000000 ICntrl=     500 IOpCl=  0
         NMat0=    1 NMatS0=    1 NMatT0=    0 NMatD0=    1 NMtDS0=    0 NMtDT0=    0
         I1Cent=           4 NGrid=           0.
 Petite list used in FoFCou.
 Harris En= -480.822378692396    
 Initial guess orbital symmetries:
       Occupied  (A) (A) (A) (A) (A) (A) (A) (A) (A) (A) (A) (A)
                 (A) (A) (A) (A) (A) (A) (A) (A) (A) (A) (A) (A)
                 (A) (A) (A) (A) (A) (A) (A) (A) (A) (A) (A) (A)
                 (A) (A) (A) (A) (A)
       Virtual   (A) (A) (A) (A) (A) (A) (A) (A) (A) (A) (A) (A)
                 (A) (A) (A) (A) (A) (A) (A) (A) (A) (A) (A) (A)
                 (A) (A) (A) (A) (A) (A) (A) (A) (A) (A) (A) (A)
                 (A) (A) (A) (A) (A) (A) (A) (A) (A) (A) (A) (A)
                 (A) (A) (A) (A) (A) (A) (A) (A) (A) (A) (A) (A)
                 (A) (A) (A) (A) (A) (A) (A) (A) (A) (A) (A) (A)
                 (A) (A) (A) (A) (A) (A) (A) (A) (A) (A) (A) (A)
                 (A) (A) (A) (A) (A) (A) (A) (A) (A) (A) (A) (A)
                 (A) (A) (A) (A) (A) (A) (A) (A) (A) (A) (A) (A)
                 (A) (A) (A) (A) (A) (A) (A) (A) (A) (A) (A) (A)
                 (A) (A) (A) (A) (A) (A) (A) (A) (A) (A) (A) (A)
                 (A) (A) (A) (A) (A) (A) (A) (A) (A) (A) (A) (A)
                 (A) (A) (A) (A) (A) (A)
 The electronic state of the initial guess is 1-A.
 Leave Link  401 at Thu Sep 30 12:41:08 2021, MaxMem= 1073741824 cpu:       7.0
 (Enter /sw/target/amd/app/gaussian/Gaussian09RevA.02_gcc-4.9.2/g09/l502.exe)
 Closed shell SCF:
 Requested convergence on RMS density matrix=1.00D-08 within  64 cycles.
 Requested convergence on MAX density matrix=1.00D-06.
 Requested convergence on             energy=1.00D-06.
 No special actions if energy rises.
 Using DIIS extrapolation, IDIIS=  1040.
 Integral symmetry usage will be decided dynamically.
       203959 words used for storage of precomputed grid.
 Keep R1 ints in memory in canonical form, NReq=171974019.
 IEnd=      321541 IEndB=      321541 NGot=  1073741824 MDV=   905347536
 LenX=   905347536 LenY=   905310614
 Symmetry not used in FoFDir.
 MinBra= 0 MaxBra= 2 Meth= 1.
 IRaf=       0 NMat=   1 IRICut=       1 DoRegI=T DoRafI=F ISym2E= 0 JSym2E=0.
 Integral accuracy reduced to 1.0D-05 until final iterations.

 Cycle   1  Pass 0  IDiag  1:
 E= -480.432753925571    
 DIIS: error= 3.34D-02 at cycle   1 NSaved=   1.
 NSaved= 1 IEnMin= 1 EnMin= -480.432753925571     IErMin= 1 ErrMin= 3.34D-02
 ErrMax= 3.34D-02 EMaxC= 1.00D-01 BMatC= 2.89D-01 BMatP= 2.89D-01
 IDIUse=3 WtCom= 6.66D-01 WtEn= 3.34D-01
 Coeff-Com:  0.100D+01
 Coeff-En:   0.100D+01
 Coeff:      0.100D+01
 Gap=     0.237 Goal=   None    Shift=    0.000
 GapD=    0.237 DampG=1.000 DampE=0.500 DampFc=0.5000 IDamp=-1.
 Damping current iteration by 5.00D-01
 RMSDP=6.54D-03 MaxDP=1.65D-01              OVMax= 1.92D-01

 Cycle   2  Pass 0  IDiag  1:
 E= -480.571946278213     Delta-E=       -0.139192352642 Rises=F Damp=T
 DIIS: error= 6.84D-03 at cycle   2 NSaved=   2.
 NSaved= 2 IEnMin= 2 EnMin= -480.571946278213     IErMin= 2 ErrMin= 6.84D-03
 ErrMax= 6.84D-03 EMaxC= 1.00D-01 BMatC= 1.46D-02 BMatP= 2.89D-01
 IDIUse=3 WtCom= 9.32D-01 WtEn= 6.84D-02
 Coeff-Com:  0.558D-01 0.944D+00
 Coeff-En:   0.867D-01 0.913D+00
 Coeff:      0.579D-01 0.942D+00
 Gap=     0.246 Goal=   None    Shift=    0.000
 RMSDP=1.49D-03 MaxDP=3.36D-02 DE=-1.39D-01 OVMax= 1.47D-01

 Cycle   3  Pass 0  IDiag  1:
 E= -480.731422930147     Delta-E=       -0.159476651934 Rises=F Damp=F
 DIIS: error= 5.35D-03 at cycle   3 NSaved=   3.
 NSaved= 3 IEnMin= 3 EnMin= -480.731422930147     IErMin= 3 ErrMin= 5.35D-03
 ErrMax= 5.35D-03 EMaxC= 1.00D-01 BMatC= 7.98D-03 BMatP= 1.46D-02
 IDIUse=3 WtCom= 9.46D-01 WtEn= 5.35D-02
 Coeff-Com: -0.695D-02 0.406D+00 0.601D+00
 Coeff-En:   0.000D+00 0.000D+00 0.100D+01
 Coeff:     -0.658D-02 0.384D+00 0.622D+00
 Gap=     0.216 Goal=   None    Shift=    0.000
 RMSDP=8.51D-04 MaxDP=2.61D-02 DE=-1.59D-01 OVMax= 6.67D-02

 Cycle   4  Pass 0  IDiag  1:
 E= -480.735767698532     Delta-E=       -0.004344768385 Rises=F Damp=F
 DIIS: error= 4.36D-03 at cycle   4 NSaved=   4.
 NSaved= 4 IEnMin= 4 EnMin= -480.735767698532     IErMin= 4 ErrMin= 4.36D-03
 ErrMax= 4.36D-03 EMaxC= 1.00D-01 BMatC= 3.74D-03 BMatP= 7.98D-03
 IDIUse=3 WtCom= 9.56D-01 WtEn= 4.36D-02
 Coeff-Com: -0.104D-01 0.100D+00 0.410D+00 0.501D+00
 Coeff-En:   0.000D+00 0.000D+00 0.356D+00 0.644D+00
 Coeff:     -0.994D-02 0.957D-01 0.407D+00 0.507D+00
 Gap=     0.213 Goal=   None    Shift=    0.000
 RMSDP=4.08D-04 MaxDP=1.12D-02 DE=-4.34D-03 OVMax= 3.07D-02

 Cycle   5  Pass 0  IDiag  1:
 E= -480.739715798042     Delta-E=       -0.003948099510 Rises=F Damp=F
 DIIS: error= 7.60D-04 at cycle   5 NSaved=   5.
 NSaved= 5 IEnMin= 5 EnMin= -480.739715798042     IErMin= 5 ErrMin= 7.60D-04
 ErrMax= 7.60D-04 EMaxC= 1.00D-01 BMatC= 2.05D-04 BMatP= 3.74D-03
 IDIUse=3 WtCom= 9.92D-01 WtEn= 7.60D-03
 Coeff-Com: -0.409D-02 0.221D-01 0.177D+00 0.280D+00 0.525D+00
 Coeff-En:   0.000D+00 0.000D+00 0.000D+00 0.000D+00 0.100D+01
 Coeff:     -0.406D-02 0.219D-01 0.176D+00 0.278D+00 0.529D+00
 Gap=     0.213 Goal=   None    Shift=    0.000
 RMSDP=9.40D-05 MaxDP=2.47D-03 DE=-3.95D-03 OVMax= 5.64D-03

 Cycle   6  Pass 0  IDiag  1:
 E= -480.739907904969     Delta-E=       -0.000192106927 Rises=F Damp=F
 DIIS: error= 1.61D-04 at cycle   6 NSaved=   6.
 NSaved= 6 IEnMin= 6 EnMin= -480.739907904969     IErMin= 6 ErrMin= 1.61D-04
 ErrMax= 1.61D-04 EMaxC= 1.00D-01 BMatC= 1.21D-05 BMatP= 2.05D-04
 IDIUse=3 WtCom= 9.98D-01 WtEn= 1.61D-03
 Coeff-Com: -0.779D-03 0.723D-03 0.428D-01 0.805D-01 0.257D+00 0.619D+00
 Coeff-En:   0.000D+00 0.000D+00 0.000D+00 0.000D+00 0.000D+00 0.100D+01
 Coeff:     -0.778D-03 0.722D-03 0.427D-01 0.804D-01 0.257D+00 0.620D+00
 Gap=     0.213 Goal=   None    Shift=    0.000
 RMSDP=2.24D-05 MaxDP=5.25D-04 DE=-1.92D-04 OVMax= 9.20D-04

 Cycle   7  Pass 0  IDiag  1:
 E= -480.739919072537     Delta-E=       -0.000011167567 Rises=F Damp=F
 DIIS: error= 4.23D-05 at cycle   7 NSaved=   7.
 NSaved= 7 IEnMin= 7 EnMin= -480.739919072537     IErMin= 7 ErrMin= 4.23D-05
 ErrMax= 4.23D-05 EMaxC= 1.00D-01 BMatC= 3.76D-07 BMatP= 1.21D-05
 IDIUse=1 WtCom= 1.00D+00 WtEn= 0.00D+00
 Coeff-Com: -0.207D-03-0.329D-03 0.154D-01 0.303D-01 0.107D+00 0.289D+00
 Coeff-Com:  0.559D+00
 Coeff:     -0.207D-03-0.329D-03 0.154D-01 0.303D-01 0.107D+00 0.289D+00
 Coeff:      0.559D+00
 Gap=     0.213 Goal=   None    Shift=    0.000
 RMSDP=5.34D-06 MaxDP=1.21D-04 DE=-1.12D-05 OVMax= 4.12D-04

 Initial convergence to 1.0D-05 achieved.  Increase integral accuracy.
 Cycle   8  Pass 1  IDiag  1:
 E= -480.739902295688     Delta-E=        0.000016776849 Rises=F Damp=F
 DIIS: error= 3.58D-05 at cycle   1 NSaved=   1.
 NSaved= 1 IEnMin= 1 EnMin= -480.739902295688     IErMin= 1 ErrMin= 3.58D-05
 ErrMax= 3.58D-05 EMaxC= 1.00D-01 BMatC= 1.72D-07 BMatP= 1.72D-07
 IDIUse=1 WtCom= 1.00D+00 WtEn= 0.00D+00
 Coeff-Com:  0.100D+01
 Coeff:      0.100D+01
 Gap=     0.213 Goal=   None    Shift=    0.000
 RMSDP=5.34D-06 MaxDP=1.21D-04 DE= 1.68D-05 OVMax= 4.82D-04

 Cycle   9  Pass 1  IDiag  1:
 E= -480.739902061934     Delta-E=        0.000000233753 Rises=F Damp=F
 DIIS: error= 5.13D-05 at cycle   2 NSaved=   2.
 NSaved= 2 IEnMin= 1 EnMin= -480.739902295688     IErMin= 1 ErrMin= 3.58D-05
 ErrMax= 5.13D-05 EMaxC= 1.00D-01 BMatC= 3.87D-07 BMatP= 1.72D-07
 IDIUse=1 WtCom= 1.00D+00 WtEn= 0.00D+00
 Coeff-Com:  0.613D+00 0.387D+00
 Coeff:      0.613D+00 0.387D+00
 Gap=     0.213 Goal=   None    Shift=    0.000
 RMSDP=4.25D-06 MaxDP=1.12D-04 DE= 2.34D-07 OVMax= 3.56D-04

 Cycle  10  Pass 1  IDiag  1:
 E= -480.739902505768     Delta-E=       -0.000000443833 Rises=F Damp=F
 DIIS: error= 8.34D-06 at cycle   3 NSaved=   3.
 NSaved= 3 IEnMin= 3 EnMin= -480.739902505768     IErMin= 3 ErrMin= 8.34D-06
 ErrMax= 8.34D-06 EMaxC= 1.00D-01 BMatC= 9.83D-09 BMatP= 1.72D-07
 IDIUse=1 WtCom= 1.00D+00 WtEn= 0.00D+00
 Coeff-Com:  0.128D-01 0.134D+00 0.853D+00
 Coeff:      0.128D-01 0.134D+00 0.853D+00
 Gap=     0.213 Goal=   None    Shift=    0.000
 RMSDP=7.14D-07 MaxDP=1.82D-05 DE=-4.44D-07 OVMax= 5.15D-05

 Cycle  11  Pass 1  IDiag  1:
 E= -480.739902515537     Delta-E=       -0.000000009769 Rises=F Damp=F
 DIIS: error= 1.64D-06 at cycle   4 NSaved=   4.
 NSaved= 4 IEnMin= 4 EnMin= -480.739902515537     IErMin= 4 ErrMin= 1.64D-06
 ErrMax= 1.64D-06 EMaxC= 1.00D-01 BMatC= 1.58D-09 BMatP= 9.83D-09
 IDIUse=1 WtCom= 1.00D+00 WtEn= 0.00D+00
 Coeff-Com: -0.137D-01 0.624D-01 0.477D+00 0.474D+00
 Coeff:     -0.137D-01 0.624D-01 0.477D+00 0.474D+00
 Gap=     0.213 Goal=   None    Shift=    0.000
 RMSDP=2.20D-07 MaxDP=5.69D-06 DE=-9.77D-09 OVMax= 1.03D-05

 Cycle  12  Pass 1  IDiag  1:
 E= -480.739902516880     Delta-E=       -0.000000001343 Rises=F Damp=F
 DIIS: error= 4.32D-07 at cycle   5 NSaved=   5.
 NSaved= 5 IEnMin= 5 EnMin= -480.739902516880     IErMin= 5 ErrMin= 4.32D-07
 ErrMax= 4.32D-07 EMaxC= 1.00D-01 BMatC= 6.98D-11 BMatP= 1.58D-09
 IDIUse=1 WtCom= 1.00D+00 WtEn= 0.00D+00
 Coeff-Com: -0.801D-02 0.250D-01 0.201D+00 0.249D+00 0.533D+00
 Coeff:     -0.801D-02 0.250D-01 0.201D+00 0.249D+00 0.533D+00
 Gap=     0.213 Goal=   None    Shift=    0.000
 RMSDP=6.10D-08 MaxDP=1.69D-06 DE=-1.34D-09 OVMax= 4.18D-06

 Cycle  13  Pass 1  IDiag  1:
 E= -480.739902516959     Delta-E=       -0.000000000079 Rises=F Damp=F
 DIIS: error= 1.75D-07 at cycle   6 NSaved=   6.
 NSaved= 6 IEnMin= 6 EnMin= -480.739902516959     IErMin= 6 ErrMin= 1.75D-07
 ErrMax= 1.75D-07 EMaxC= 1.00D-01 BMatC= 9.88D-12 BMatP= 6.98D-11
 IDIUse=1 WtCom= 1.00D+00 WtEn= 0.00D+00
 Coeff-Com: -0.324D-02 0.863D-02 0.710D-01 0.973D-01 0.316D+00 0.510D+00
 Coeff:     -0.324D-02 0.863D-02 0.710D-01 0.973D-01 0.316D+00 0.510D+00
 Gap=     0.213 Goal=   None    Shift=    0.000
 RMSDP=2.20D-08 MaxDP=6.26D-07 DE=-7.87D-11 OVMax= 1.88D-06

 Cycle  14  Pass 1  IDiag  1:
 E= -480.739902516959     Delta-E=        0.000000000000 Rises=F Damp=F
 DIIS: error= 4.32D-08 at cycle   7 NSaved=   7.
 NSaved= 7 IEnMin= 6 EnMin= -480.739902516959     IErMin= 7 ErrMin= 4.32D-08
 ErrMax= 4.32D-08 EMaxC= 1.00D-01 BMatC= 4.88D-13 BMatP= 9.88D-12
 IDIUse=1 WtCom= 1.00D+00 WtEn= 0.00D+00
 Coeff-Com: -0.475D-03 0.748D-03 0.677D-02 0.117D-01 0.697D-01 0.224D+00
 Coeff-Com:  0.688D+00
 Coeff:     -0.475D-03 0.748D-03 0.677D-02 0.117D-01 0.697D-01 0.224D+00
 Coeff:      0.688D+00
 Gap=     0.213 Goal=   None    Shift=    0.000
 RMSDP=5.32D-09 MaxDP=1.42D-07 DE= 0.00D+00 OVMax= 2.81D-07

 SCF Done:  E(RB3LYP) =  -480.739902517     A.U. after   14 cycles
             Convg  =    0.5316D-08             -V/T =  2.0095
 KE= 4.762201900590D+02 PE=-2.280951397718D+03 EE= 7.419024009892D+02
 Leave Link  502 at Thu Sep 30 12:44:10 2021, MaxMem= 1073741824 cpu:     121.0
 (Enter /sw/target/amd/app/gaussian/Gaussian09RevA.02_gcc-4.9.2/g09/l508.exe)
 QCSCF skips out because SCF is already converged.
 Leave Link  508 at Thu Sep 30 12:44:10 2021, MaxMem= 1073741824 cpu:       0.0
 (Enter /sw/target/amd/app/gaussian/Gaussian09RevA.02_gcc-4.9.2/g09/l601.exe)
 Copying SCF densities to generalized density rwf, IOpCl= 0 IROHF=0.

 **********************************************************************

            Population analysis using the SCF density.

 **********************************************************************

 Orbital symmetries:
       Occupied  (A) (A) (A) (A) (A) (A) (A) (A) (A) (A) (A) (A)
                 (A) (A) (A) (A) (A) (A) (A) (A) (A) (A) (A) (A)
                 (A) (A) (A) (A) (A) (A) (A) (A) (A) (A) (A) (A)
                 (A) (A) (A) (A) (A)
       Virtual   (A) (A) (A) (A) (A) (A) (A) (A) (A) (A) (A) (A)
                 (A) (A) (A) (A) (A) (A) (A) (A) (A) (A) (A) (A)
                 (A) (A) (A) (A) (A) (A) (A) (A) (A) (A) (A) (A)
                 (A) (A) (A) (A) (A) (A) (A) (A) (A) (A) (A) (A)
                 (A) (A) (A) (A) (A) (A) (A) (A) (A) (A) (A) (A)
                 (A) (A) (A) (A) (A) (A) (A) (A) (A) (A) (A) (A)
                 (A) (A) (A) (A) (A) (A) (A) (A) (A) (A) (A) (A)
                 (A) (A) (A) (A) (A) (A) (A) (A) (A) (A) (A) (A)
                 (A) (A) (A) (A) (A) (A) (A) (A) (A) (A) (A) (A)
                 (A) (A) (A) (A) (A) (A) (A) (A) (A) (A) (A) (A)
                 (A) (A) (A) (A) (A) (A) (A) (A) (A) (A) (A) (A)
                 (A) (A) (A) (A) (A) (A) (A) (A) (A) (A) (A) (A)
                 (A) (A) (A) (A) (A) (A)
 The electronic state is 1-A.
 Alpha  occ. eigenvalues --  -19.17352 -14.30463 -10.24018 -10.23797 -10.20167
 Alpha  occ. eigenvalues --  -10.18504 -10.18350 -10.18298 -10.18242 -10.17894
 Alpha  occ. eigenvalues --  -10.17834  -1.05832  -0.87558  -0.84617  -0.77153
 Alpha  occ. eigenvalues --   -0.74222  -0.71809  -0.67621  -0.60956  -0.60421
 Alpha  occ. eigenvalues --   -0.56874  -0.52715  -0.48688  -0.48074  -0.46718
 Alpha  occ. eigenvalues --   -0.46039  -0.44424  -0.42911  -0.42149  -0.41385
 Alpha  occ. eigenvalues --   -0.40205  -0.37752  -0.36421  -0.35680  -0.33956
 Alpha  occ. eigenvalues --   -0.33486  -0.32208  -0.30632  -0.24474  -0.22515
 Alpha  occ. eigenvalues --   -0.20969
 Alpha virt. eigenvalues --    0.00286   0.01931   0.08448   0.09310   0.10727
 Alpha virt. eigenvalues --    0.12761   0.13192   0.14517   0.14759   0.15521
 Alpha virt. eigenvalues --    0.16578   0.17084   0.17614   0.18294   0.19128
 Alpha virt. eigenvalues --    0.19607   0.21376   0.24122   0.25605   0.26789
 Alpha virt. eigenvalues --    0.27782   0.33333   0.34177   0.34880   0.37207
 Alpha virt. eigenvalues --    0.48321   0.51372   0.51795   0.52239   0.53355
 Alpha virt. eigenvalues --    0.54282   0.54929   0.55909   0.57026   0.59788
 Alpha virt. eigenvalues --    0.60310   0.60702   0.61135   0.62067   0.64374
 Alpha virt. eigenvalues --    0.65640   0.66950   0.68758   0.69788   0.72160
 Alpha virt. eigenvalues --    0.73895   0.75341   0.76302   0.79200   0.82396
 Alpha virt. eigenvalues --    0.83010   0.83939   0.84560   0.84887   0.86475
 Alpha virt. eigenvalues --    0.87315   0.88796   0.89388   0.91201   0.91660
 Alpha virt. eigenvalues --    0.93191   0.93726   0.95009   0.96065   0.98170
 Alpha virt. eigenvalues --    1.00802   1.01538   1.02543   1.05013   1.05635
 Alpha virt. eigenvalues --    1.08651   1.13659   1.16747   1.18806   1.20021
 Alpha virt. eigenvalues --    1.25921   1.28092   1.29556   1.36988   1.38260
 Alpha virt. eigenvalues --    1.41928   1.42027   1.45663   1.46215   1.47084
 Alpha virt. eigenvalues --    1.48636   1.51586   1.52898   1.58588   1.65246
 Alpha virt. eigenvalues --    1.68918   1.69863   1.81513   1.81660   1.83625
 Alpha virt. eigenvalues --    1.84423   1.86416   1.89579   1.93706   1.94309
 Alpha virt. eigenvalues --    1.96461   1.97840   1.98348   2.00329   2.02627
 Alpha virt. eigenvalues --    2.06859   2.07416   2.10023   2.10573   2.14164
 Alpha virt. eigenvalues --    2.15362   2.15836   2.17214   2.24136   2.25018
 Alpha virt. eigenvalues --    2.27431   2.31189   2.32771   2.35353   2.36835
 Alpha virt. eigenvalues --    2.38132   2.40399   2.45756   2.50950   2.53485
 Alpha virt. eigenvalues --    2.55531   2.60482   2.64169   2.65837   2.68313
 Alpha virt. eigenvalues --    2.71478   2.74856   2.80589   2.82311   2.91784
 Alpha virt. eigenvalues --    2.94298   2.99785   3.18647   3.43504   3.79317
 Alpha virt. eigenvalues --    4.05799   4.11901   4.12917   4.20839   4.24773
 Alpha virt. eigenvalues --    4.31682   4.36129   4.47634   4.52401   4.77468
          Condensed to atoms (all electrons):
              1          2          3          4          5          6
     1  N    6.946643   0.291054  -0.047440   0.003401   0.000054   0.000001
     2  C    0.291054   4.913013   0.359635  -0.040075  -0.003433  -0.000073
     3  C   -0.047440   0.359635   5.186624   0.332582  -0.057776   0.006954
     4  C    0.003401  -0.040075   0.332582   4.668121   0.549254  -0.021815
     5  C    0.000054  -0.003433  -0.057776   0.549254   4.972185   0.475394
     6  C    0.000001  -0.000073   0.006954  -0.021815   0.475394   5.120371
     7  C   -0.000000   0.000027   0.000357  -0.033477  -0.003745   0.470466
     8  C    0.000001  -0.000082   0.006854  -0.024389  -0.043572  -0.063828
     9  C    0.000005  -0.003508  -0.057407   0.545674  -0.033892  -0.045890
    10  O    0.000000   0.000000   0.000000   0.000158   0.003671  -0.062729
    11  C    0.000000  -0.000000  -0.000000  -0.000004   0.000330  -0.006659
    12  H    0.307409  -0.032322   0.005915  -0.000246  -0.000003  -0.000000
    13  H    0.309327  -0.038460  -0.005127  -0.000196   0.000007  -0.000000
    14  H   -0.055130   0.376916  -0.054946   0.004435   0.003992  -0.000178
    15  H   -0.039153   0.373959  -0.029740  -0.002562  -0.000111  -0.000002
    16  H    0.004440  -0.033910   0.354105  -0.026944   0.004049  -0.000215
    17  H   -0.003004  -0.040103   0.360459  -0.031811  -0.005531   0.000154
    18  H   -0.000066   0.000497  -0.009303  -0.043084   0.353347  -0.042330
    19  H   -0.000000  -0.000001  -0.000179   0.003659  -0.037434   0.350388
    20  H   -0.000000  -0.000001  -0.000165   0.004231   0.000323   0.007403
    21  H   -0.000026   0.000382  -0.009288  -0.044131   0.006217   0.000192
    22  H   -0.000000   0.000000  -0.000000  -0.000000   0.000001   0.000174
    23  H    0.000000  -0.000000  -0.000000  -0.000008  -0.000153   0.005286
    24  H   -0.000000   0.000000   0.000000  -0.000001  -0.000146   0.004941
              7          8          9         10         11         12
     1  N   -0.000000   0.000001   0.000005   0.000000   0.000000   0.307409
     2  C    0.000027  -0.000082  -0.003508   0.000000  -0.000000  -0.032322
     3  C    0.000357   0.006854  -0.057407   0.000000  -0.000000   0.005915
     4  C   -0.033477  -0.024389   0.545674   0.000158  -0.000004  -0.000246
     5  C   -0.003745  -0.043572  -0.033892   0.003671   0.000330  -0.000003
     6  C    0.470466  -0.063828  -0.045890  -0.062729  -0.006659  -0.000000
     7  C    4.507399   0.545373  -0.018632   0.279595  -0.043714  -0.000000
     8  C    0.545373   4.996403   0.509884  -0.055661   0.004351  -0.000000
     9  C   -0.018632   0.509884   4.955281   0.003172  -0.000132  -0.000000
    10  O    0.279595  -0.055661   0.003172   8.202305   0.250029  -0.000000
    11  C   -0.043714   0.004351  -0.000132   0.250029   4.894173  -0.000000
    12  H   -0.000000  -0.000000  -0.000000  -0.000000  -0.000000   0.467064
    13  H   -0.000000  -0.000000   0.000004  -0.000000  -0.000000  -0.033514
    14  H    0.000000  -0.000020   0.000037   0.000000   0.000000  -0.003516
    15  H   -0.000008  -0.000102   0.003612  -0.000000   0.000000  -0.003389
    16  H    0.000013   0.000145  -0.005404  -0.000000   0.000000  -0.000108
    17  H    0.000012  -0.000220   0.003793  -0.000000   0.000000  -0.000028
    18  H    0.003226   0.000475   0.005954  -0.000047  -0.000008   0.000001
    19  H   -0.046593   0.004501   0.000811  -0.007333   0.005789   0.000000
    20  H   -0.036891   0.342794  -0.040209  -0.000322  -0.000178   0.000000
    21  H    0.004285  -0.043313   0.355770  -0.000059   0.000003   0.000001
    22  H    0.003207  -0.000110   0.000003  -0.031263   0.383851   0.000000
    23  H   -0.004838   0.000080   0.000001  -0.035985   0.363395  -0.000000
    24  H   -0.004590   0.000053  -0.000001  -0.036486   0.364142   0.000000
             13         14         15         16         17         18
     1  N    0.309327  -0.055130  -0.039153   0.004440  -0.003004  -0.000066
     2  C   -0.038460   0.376916   0.373959  -0.033910  -0.040103   0.000497
     3  C   -0.005127  -0.054946  -0.029740   0.354105   0.360459  -0.009303
     4  C   -0.000196   0.004435  -0.002562  -0.026944  -0.031811  -0.043084
     5  C    0.000007   0.003992  -0.000111   0.004049  -0.005531   0.353347
     6  C   -0.000000  -0.000178  -0.000002  -0.000215   0.000154  -0.042330
     7  C   -0.000000   0.000000  -0.000008   0.000013   0.000012   0.003226
     8  C   -0.000000  -0.000020  -0.000102   0.000145  -0.000220   0.000475
     9  C    0.000004   0.000037   0.003612  -0.005404   0.003793   0.005954
    10  O   -0.000000   0.000000  -0.000000  -0.000000  -0.000000  -0.000047
    11  C   -0.000000   0.000000   0.000000   0.000000   0.000000  -0.000008
    12  H   -0.033514  -0.003516  -0.003389  -0.000108  -0.000028   0.000001
    13  H    0.472124  -0.005291   0.006696  -0.000661   0.005780   0.000001
    14  H   -0.005291   0.663879  -0.048628   0.006555  -0.006226   0.001050
    15  H    0.006696  -0.048628   0.595263  -0.006603   0.005751   0.000014
    16  H   -0.000661   0.006555  -0.006603   0.583155  -0.037865   0.000065
    17  H    0.005780  -0.006226   0.005751  -0.037865   0.611490   0.005040
    18  H    0.000001   0.001050   0.000014   0.000065   0.005040   0.609637
    19  H    0.000000   0.000002   0.000000   0.000003  -0.000008  -0.005751
    20  H    0.000000   0.000000   0.000002  -0.000008   0.000003   0.000017
    21  H    0.000000   0.000036   0.000499   0.005194   0.000040  -0.000183
    22  H   -0.000000   0.000000  -0.000000   0.000000  -0.000000  -0.000000
    23  H    0.000000   0.000000   0.000000   0.000000   0.000000   0.000003
    24  H   -0.000000  -0.000000  -0.000000  -0.000000  -0.000000   0.000001
             19         20         21         22         23         24
     1  N   -0.000000  -0.000000  -0.000026  -0.000000   0.000000  -0.000000
     2  C   -0.000001  -0.000001   0.000382   0.000000  -0.000000   0.000000
     3  C   -0.000179  -0.000165  -0.009288  -0.000000  -0.000000   0.000000
     4  C    0.003659   0.004231  -0.044131  -0.000000  -0.000008  -0.000001
     5  C   -0.037434   0.000323   0.006217   0.000001  -0.000153  -0.000146
     6  C    0.350388   0.007403   0.000192   0.000174   0.005286   0.004941
     7  C   -0.046593  -0.036891   0.004285   0.003207  -0.004838  -0.004590
     8  C    0.004501   0.342794  -0.043313  -0.000110   0.000080   0.000053
     9  C    0.000811  -0.040209   0.355770   0.000003   0.000001  -0.000001
    10  O   -0.007333  -0.000322  -0.000059  -0.031263  -0.035985  -0.036486
    11  C    0.005789  -0.000178   0.000003   0.383851   0.363395   0.364142
    12  H    0.000000   0.000000   0.000001   0.000000  -0.000000   0.000000
    13  H    0.000000   0.000000   0.000000  -0.000000   0.000000  -0.000000
    14  H    0.000002   0.000000   0.000036   0.000000   0.000000  -0.000000
    15  H    0.000000   0.000002   0.000499  -0.000000   0.000000  -0.000000
    16  H    0.000003  -0.000008   0.005194   0.000000   0.000000  -0.000000
    17  H   -0.000008   0.000003   0.000040  -0.000000   0.000000  -0.000000
    18  H   -0.005751   0.000017  -0.000183  -0.000000   0.000003   0.000001
    19  H    0.601168  -0.000168   0.000017  -0.000114   0.001773   0.001750
    20  H   -0.000168   0.594610  -0.006227  -0.000027   0.000030   0.000029
    21  H    0.000017  -0.006227   0.602548  -0.000000  -0.000000  -0.000000
    22  H   -0.000114  -0.000027  -0.000000   0.545956  -0.033982  -0.034427
    23  H    0.001773   0.000030  -0.000000  -0.033982   0.599648  -0.046908
    24  H    0.001750   0.000029  -0.000000  -0.034427  -0.046908   0.600448
 Mulliken atomic charges:
              1
     1  N   -0.717516
     2  C   -0.123515
     3  C   -0.342114
     4  C    0.157227
     5  C   -0.183030
     6  C   -0.198005
     7  C    0.378527
     8  C   -0.179619
     9  C   -0.178927
    10  O   -0.509045
    11  C   -0.215370
    12  H    0.292735
    13  H    0.289310
    14  H    0.117034
    15  H    0.144502
    16  H    0.153995
    17  H    0.132275
    18  H    0.121441
    19  H    0.127719
    20  H    0.134754
    21  H    0.128042
    22  H    0.166730
    23  H    0.151657
    24  H    0.151193
 Sum of Mulliken atomic charges =  -0.00000
 Mulliken charges with hydrogens summed into heavy atoms:
              1
     1  N   -0.135471
     2  C    0.138020
     3  C   -0.055844
     4  C    0.157227
     5  C   -0.061589
     6  C   -0.070285
     7  C    0.378527
     8  C   -0.044865
     9  C   -0.050885
    10  O   -0.509045
    11  C    0.254210
 Sum of Mulliken charges with hydrogens summed into heavy atoms =  -0.00000
 Electronic spatial extent (au):  <R**2>=           2630.4823
 Charge=             -0.0000 electrons
 Dipole moment (field-independent basis, Debye):
    X=              0.7191    Y=             -2.3620    Z=              0.6154  Tot=              2.5446
 Quadrupole moment (field-independent basis, Debye-Ang):
   XX=            -61.3554   YY=            -61.4456   ZZ=            -66.9821
   XY=              1.2575   XZ=             -2.6862   YZ=              0.3328
 Traceless Quadrupole moment (field-independent basis, Debye-Ang):
   XX=              1.9056   YY=              1.8155   ZZ=             -3.7211
   XY=              1.2575   XZ=             -2.6862   YZ=              0.3328
 Octapole moment (field-independent basis, Debye-Ang**2):
  XXX=             52.2215  YYY=              1.5382  ZZZ=              6.2801  XYY=             -0.9366
  XXY=            -52.5294  XXZ=             21.3691  XZZ=             -7.6887  YZZ=             -1.4540
  YYZ=             -0.1393  XYZ=             -1.6986
 Hexadecapole moment (field-independent basis, Debye-Ang**3):
 XXXX=          -2743.3898 YYYY=           -359.6883 ZZZZ=           -158.6908 XXXY=            104.0854
 XXXZ=            -87.1790 YYYX=             13.4555 YYYZ=              3.5799 ZZZX=            -11.3580
 ZZZY=             -0.4429 XXYY=           -517.5812 XXZZ=           -467.2126 YYZZ=            -93.3836
 XXYZ=             -3.2687 YYXZ=              4.2256 ZZXY=              2.1602
 N-N= 5.820889041532D+02 E-N=-2.280951402785D+03  KE= 4.762201900590D+02
 No NMR shielding tensors so no spin-rotation constants.
 Leave Link  601 at Thu Sep 30 12:44:12 2021, MaxMem= 1073741824 cpu:       1.2
 (Enter /sw/target/amd/app/gaussian/Gaussian09RevA.02_gcc-4.9.2/g09/l701.exe)
 Compute integral first derivatives.
 ... and contract with generalized density number  0.
 Leave Link  701 at Thu Sep 30 12:44:14 2021, MaxMem= 1073741824 cpu:       1.2
 (Enter /sw/target/amd/app/gaussian/Gaussian09RevA.02_gcc-4.9.2/g09/l702.exe)
 L702 exits ... SP integral derivatives will be done elsewhere.
 Leave Link  702 at Thu Sep 30 12:44:14 2021, MaxMem= 1073741824 cpu:       0.0
 (Enter /sw/target/amd/app/gaussian/Gaussian09RevA.02_gcc-4.9.2/g09/l703.exe)
 Compute integral first derivatives, UseDBF=F ICtDFT=           0.
 Integral derivatives from FoFDir, PRISM(SPDF).
 Calling FoFJK, ICntrl=      2127 FMM=F ISym2X=0 I1Cent= 0 IOpClX= 0 NMat=1 NMatS=1 NMatT=0.
 FoFCou: FMM=F IPFlag=           0 FMFlag=      100000 FMFlg1=         800
         NFxFlg=           0 DoJE=F BraDBF=F KetDBF=F FulRan=T
         Omega=  0.000000  0.000000  1.000000  0.000000  0.000000 ICntrl=    2127 IOpCl=  0
         NMat0=    1 NMatS0=    1 NMatT0=    0 NMatD0=    1 NMtDS0=    0 NMtDT0=    0
         I1Cent=           0 NGrid=           0.
 Symmetry not used in FoFCou.
 Leave Link  703 at Thu Sep 30 12:45:05 2021, MaxMem= 1073741824 cpu:      44.1
 (Enter /sw/target/amd/app/gaussian/Gaussian09RevA.02_gcc-4.9.2/g09/l716.exe)
 Dipole        = 2.82907034D-01-9.29272873D-01 2.42130921D-01
 ***** Axes restored to original set *****
 -------------------------------------------------------------------
 Center     Atomic                   Forces (Hartrees/Bohr)
 Number     Number              X              Y              Z
 -------------------------------------------------------------------
      1        7          -0.006731061    0.001846922   -0.008280751
      2        6          -0.008771719    0.000621683    0.005809850
      3        6           0.002701815   -0.001933418   -0.002220752
      4        6          -0.005752255   -0.001344925    0.004225107
      5        6           0.005647955    0.001081338   -0.008296916
      6        6          -0.002790135   -0.001412234    0.008754447
      7        6           0.001578959    0.001534911   -0.005837692
      8        6          -0.008899942    0.004505795   -0.009357554
      9        6           0.011268159   -0.003099683    0.004318403
     10        8           0.003540340   -0.002796680    0.006521832
     11        6           0.004467330    0.000269073   -0.003400476
     12        1          -0.001079998   -0.001105893   -0.000358947
     13        1           0.000612232    0.000346254    0.000435466
     14        1           0.011485282   -0.002325557    0.002649325
     15        1           0.000050236   -0.000575924   -0.001012058
     16        1          -0.001967548    0.003589502    0.000927528
     17        1          -0.001809408    0.001970106    0.001783418
     18        1          -0.000186975   -0.000202683   -0.000863367
     19        1           0.002300598   -0.000273130   -0.000691451
     20        1           0.001734443   -0.000987407    0.002306041
     21        1          -0.000780216   -0.000542227    0.000644388
     22        1          -0.001687762    0.001559819   -0.004171214
     23        1          -0.002432638    0.000205097    0.003018670
     24        1          -0.002497693   -0.000930739    0.003096705
 -------------------------------------------------------------------
 Cartesian Forces:  Max     0.011485282 RMS     0.004098978
 Leave Link  716 at Thu Sep 30 12:45:05 2021, MaxMem= 1073741824 cpu:       0.1
 (Enter /sw/target/amd/app/gaussian/Gaussian09RevA.02_gcc-4.9.2/g09/l103.exe)

 GradGradGradGradGradGradGradGradGradGradGradGradGradGradGradGradGradGrad
 Berny optimization.
 Internal  Forces:  Max     0.009377982 RMS     0.002616200
 Search for a local minimum.
 Step number   1 out of a maximum of  124
 All quantities printed in internal units (Hartrees-Bohrs-Radians)
 RMS Force = .26162D-02 SwitMx=.10000D-02 MixMth= 1
 Mixed Optimization -- RFO/linear search
 Second derivative matrix not updated -- first step.
     Eigenvalues ---    0.00343   0.00641   0.00859   0.01403   0.01504
     Eigenvalues ---    0.02087   0.02093   0.02114   0.02116   0.02118
     Eigenvalues ---    0.02126   0.02133   0.02138   0.02148   0.04099
     Eigenvalues ---    0.04315   0.04548   0.05353   0.05419   0.09263
     Eigenvalues ---    0.09359   0.09986   0.10541   0.12703   0.12810
     Eigenvalues ---    0.16000   0.16000   0.16000   0.16000   0.16000
     Eigenvalues ---    0.16000   0.16000   0.16000   0.16000   0.21892
     Eigenvalues ---    0.21926   0.21999   0.22972   0.23999   0.24997
     Eigenvalues ---    0.25000   0.25000   0.29243   0.31405   0.33886
     Eigenvalues ---    0.33909   0.34118   0.34149   0.34223   0.34245
     Eigenvalues ---    0.34316   0.35044   0.35081   0.35114   0.35455
     Eigenvalues ---    0.36595   0.41600   0.42187   0.42194   0.44377
     Eigenvalues ---    0.44435   0.45654   0.45902   0.46043   0.46359
     Eigenvalues ---    0.514001000.000001000.000001000.000001000.00000
     Eigenvalues --- 1000.000001000.000001000.000001000.000001000.00000
     Eigenvalues --- 1000.000001000.000001000.000001000.000001000.00000
     Eigenvalues --- 1000.000001000.000001000.000001000.000001000.00000
     Eigenvalues --- 1000.000001000.000001000.000001000.000001000.00000
     Eigenvalues --- 1000.000001000.000001000.000001000.000001000.00000
     Eigenvalues --- 1000.000001000.000001000.000001000.000001000.00000
     Eigenvalues --- 1000.000001000.000001000.000001000.000001000.00000
     Eigenvalues --- 1000.000001000.000001000.000001000.000001000.00000
     Eigenvalues --- 1000.000001000.000001000.000001000.00000
 RFO step:  Lambda=-5.03234877D-03 EMin= 3.43190173D-03
 Linear search not attempted -- first point.
 Iteration  1 RMS(Cart)=  0.03665101 RMS(Int)=  0.00075172
 Iteration  2 RMS(Cart)=  0.00097283 RMS(Int)=  0.00026365
 Iteration  3 RMS(Cart)=  0.00000081 RMS(Int)=  0.00026365
 Variable       Old X    -DE/DX   Delta X   Delta X   Delta X     New X
                                 (Linear)    (Quad)   (Total)
    R1        2.76462   0.00761   0.00000   0.02051   0.02051   2.78513
    R2        1.92707  -0.00093   0.00000  -0.00206  -0.00206   1.92500
    R3        1.92637  -0.00018   0.00000  -0.00040  -0.00040   1.92597
    R4        2.89498  -0.00030   0.00000  -0.00101  -0.00101   2.89397
    R5        2.07132   0.00568   0.00000   0.01640   0.01640   2.08771
    R6        2.07079   0.00029   0.00000   0.00084   0.00084   2.07162
    R7        2.85246   0.00586   0.00000   0.01836   0.01836   2.87082
    R8        2.07484  -0.00097   0.00000  -0.00281  -0.00281   2.07203
    R9        2.07524   0.00068   0.00000   0.00197   0.00197   2.07721
   R10        2.64651  -0.00192   0.00000  -0.00465  -0.00463   2.64188
   R11        2.64374   0.00336   0.00000   0.00674   0.00675   2.65048
   R12        2.64511  -0.00046   0.00000  -0.00096  -0.00095   2.64417
   R13        2.05603  -0.00057   0.00000  -0.00161  -0.00161   2.05441
   R14        2.63534   0.00258   0.00000   0.00600   0.00599   2.64132
   R15        2.04942   0.00034   0.00000   0.00093   0.00093   2.05036
   R16        2.63873   0.00392   0.00000   0.00887   0.00885   2.64757
   R17        2.58478   0.00141   0.00000   0.00271   0.00271   2.58749
   R18        2.64003  -0.00443   0.00000  -0.00954  -0.00955   2.63048
   R19        2.05491  -0.00100   0.00000  -0.00280  -0.00280   2.05211
   R20        2.05544  -0.00042   0.00000  -0.00117  -0.00117   2.05427
   R21        2.68686  -0.00252   0.00000  -0.00591  -0.00591   2.68095
   R22        2.06801  -0.00100   0.00000  -0.00287  -0.00287   2.06513
   R23        2.06955   0.00160   0.00000   0.00461   0.00461   2.07416
   R24        2.06919   0.00180   0.00000   0.00517   0.00517   2.07436
    A1        1.90465   0.00224   0.00000   0.01321   0.01322   1.91787
    A2        1.91331  -0.00129   0.00000  -0.00818  -0.00816   1.90514
    A3        1.85295  -0.00054   0.00000  -0.00403  -0.00400   1.84896
    A4        1.93805  -0.00217   0.00000  -0.00545  -0.00600   1.93205
    A5        1.90326   0.00938   0.00000   0.10329   0.10358   2.00684
    A6        1.89900  -0.00131   0.00000  -0.02308  -0.02352   1.87549
    A7        1.92852  -0.00534   0.00000  -0.03234  -0.03361   1.89491
    A8        1.92202   0.00020   0.00000  -0.02841  -0.02933   1.89269
    A9        1.87150  -0.00056   0.00000  -0.01299  -0.01398   1.85752
   A10        1.95521   0.00355   0.00000   0.01593   0.01609   1.97130
   A11        1.92240  -0.00403   0.00000  -0.03335  -0.03360   1.88880
   A12        1.92480  -0.00300   0.00000  -0.02510  -0.02536   1.89944
   A13        1.90835   0.00131   0.00000   0.01962   0.01976   1.92810
   A14        1.90276   0.00051   0.00000   0.01438   0.01448   1.91724
   A15        1.84708   0.00160   0.00000   0.00875   0.00791   1.85499
   A16        2.10473   0.00293   0.00000   0.01258   0.01255   2.11727
   A17        2.10412   0.00232   0.00000   0.01018   0.01014   2.11426
   A18        2.07426  -0.00526   0.00000  -0.02291  -0.02290   2.05136
   A19        2.10708   0.00488   0.00000   0.02036   0.02037   2.12745
   A20        2.09820  -0.00300   0.00000  -0.01358  -0.01359   2.08460
   A21        2.07789  -0.00188   0.00000  -0.00675  -0.00676   2.07113
   A22        2.09797  -0.00238   0.00000  -0.00984  -0.00986   2.08811
   A23        2.05905   0.00364   0.00000   0.01978   0.01979   2.07883
   A24        2.12616  -0.00126   0.00000  -0.00994  -0.00993   2.11623
   A25        2.07980   0.00002   0.00000   0.00155   0.00150   2.08129
   A26        2.20047  -0.00502   0.00000  -0.02043  -0.02041   2.18006
   A27        2.00292   0.00500   0.00000   0.01888   0.01891   2.02182
   A28        2.10787  -0.00197   0.00000  -0.00828  -0.00832   2.09955
   A29        2.08778  -0.00198   0.00000  -0.01380  -0.01378   2.07400
   A30        2.08753   0.00394   0.00000   0.02208   0.02210   2.10963
   A31        2.09929   0.00471   0.00000   0.01932   0.01931   2.11860
   A32        2.10314  -0.00334   0.00000  -0.01564  -0.01564   2.08749
   A33        2.08075  -0.00137   0.00000  -0.00365  -0.00365   2.07709
   A34        2.03942   0.00378   0.00000   0.01481   0.01481   2.05423
   A35        1.88155  -0.00630   0.00000  -0.03559  -0.03551   1.84603
   A36        1.94151   0.00134   0.00000   0.00671   0.00676   1.94827
   A37        1.93825   0.00195   0.00000   0.01052   0.01058   1.94883
   A38        1.87869   0.00342   0.00000   0.02323   0.02329   1.90198
   A39        1.87996   0.00322   0.00000   0.02222   0.02231   1.90227
   A40        1.94079  -0.00361   0.00000  -0.02644  -0.02641   1.91438
    D1        3.12307   0.00017   0.00000   0.03719   0.03758  -3.12253
    D2        0.99400   0.00198   0.00000   0.01208   0.01152   1.00552
    D3       -1.04199  -0.00181   0.00000  -0.01680  -0.01667  -1.05866
    D4        1.10053   0.00027   0.00000   0.03914   0.03955   1.14007
    D5       -1.02855   0.00208   0.00000   0.01402   0.01349  -1.01506
    D6       -3.06453  -0.00172   0.00000  -0.01486  -0.01470  -3.07924
    D7       -3.12063  -0.00325   0.00000  -0.06543  -0.06508   3.09747
    D8        1.03441  -0.00452   0.00000  -0.07788  -0.07726   0.95716
    D9       -0.99794  -0.00229   0.00000  -0.05382  -0.05370  -1.05164
   D10       -1.00634   0.00354   0.00000   0.03956   0.03898  -0.96736
   D11       -3.13448   0.00228   0.00000   0.02711   0.02681  -3.10767
   D12        1.11636   0.00450   0.00000   0.05118   0.05036   1.16672
   D13        1.05798  -0.00033   0.00000  -0.01407  -0.01388   1.04409
   D14       -1.07016  -0.00159   0.00000  -0.02652  -0.02605  -1.09622
   D15       -3.10251   0.00063   0.00000  -0.00246  -0.00250  -3.10501
   D16        1.53682   0.00014   0.00000  -0.00034  -0.00043   1.53639
   D17       -1.59055   0.00042   0.00000   0.01219   0.01227  -1.57828
   D18       -2.61020  -0.00167   0.00000  -0.01825  -0.01836  -2.62857
   D19        0.54561  -0.00139   0.00000  -0.00572  -0.00566   0.53995
   D20       -0.59848   0.00124   0.00000   0.01085   0.01079  -0.58768
   D21        2.55734   0.00151   0.00000   0.02337   0.02349   2.58083
   D22       -3.14139   0.00063   0.00000   0.02593   0.02587  -3.11552
   D23        0.00652   0.00051   0.00000   0.02159   0.02151   0.02802
   D24       -0.01378   0.00042   0.00000   0.01387   0.01387   0.00009
   D25        3.13413   0.00030   0.00000   0.00953   0.00950  -3.13956
   D26       -3.14101  -0.00063   0.00000  -0.02648  -0.02642   3.11575
   D27       -0.00583  -0.00050   0.00000  -0.02156  -0.02148  -0.02732
   D28        0.01456  -0.00043   0.00000  -0.01445  -0.01446   0.00010
   D29       -3.13345  -0.00030   0.00000  -0.00953  -0.00952   3.14021
   D30        0.00323  -0.00011   0.00000  -0.00441  -0.00453  -0.00130
   D31       -3.13553  -0.00008   0.00000  -0.00328  -0.00336  -3.13890
   D32        3.13858   0.00000   0.00000  -0.00015  -0.00022   3.13835
   D33       -0.00019   0.00003   0.00000   0.00098   0.00095   0.00076
   D34        0.00663  -0.00011   0.00000  -0.00427  -0.00432   0.00231
   D35       -3.13468  -0.00004   0.00000  -0.00143  -0.00146  -3.13614
   D36       -3.13790  -0.00014   0.00000  -0.00540  -0.00547   3.13981
   D37        0.00397  -0.00006   0.00000  -0.00256  -0.00260   0.00137
   D38       -0.00583   0.00010   0.00000   0.00363   0.00369  -0.00214
   D39        3.13887   0.00014   0.00000   0.00536   0.00544  -3.13887
   D40        3.13552   0.00003   0.00000   0.00110   0.00107   3.13658
   D41       -0.00296   0.00007   0.00000   0.00283   0.00282  -0.00015
   D42        0.01093  -0.00005   0.00000  -0.00211  -0.00214   0.00879
   D43       -3.13040   0.00002   0.00000   0.00062   0.00064  -3.12976
   D44       -0.00488   0.00015   0.00000   0.00571   0.00582   0.00094
   D45       -3.14014   0.00003   0.00000   0.00089   0.00096  -3.13918
   D46        3.13360   0.00010   0.00000   0.00391   0.00397   3.13757
   D47       -0.00166  -0.00002   0.00000  -0.00090  -0.00090  -0.00256
   D48        3.12365   0.00006   0.00000   0.00508   0.00510   3.12875
   D49        1.06772  -0.00102   0.00000  -0.00526  -0.00523   1.06248
   D50       -1.10392   0.00126   0.00000   0.01644   0.01639  -1.08753
         Item               Value     Threshold  Converged?
 Maximum Force            0.009378     0.000450     NO 
 RMS     Force            0.002616     0.000300     NO 
 Maximum Displacement     0.148917     0.001800     NO 
 RMS     Displacement     0.036427     0.001200     NO 
 Predicted change in Energy=-2.625046D-03
 GradGradGradGradGradGradGradGradGradGradGradGradGradGradGradGradGradGrad

 Leave Link  103 at Thu Sep 30 12:45:13 2021, MaxMem= 1073741824 cpu:       4.7
 (Enter /sw/target/amd/app/gaussian/Gaussian09RevA.02_gcc-4.9.2/g09/l202.exe)
                          Input orientation:                          
 ---------------------------------------------------------------------
 Center     Atomic      Atomic             Coordinates (Angstroms)
 Number     Number       Type             X           Y           Z
 ---------------------------------------------------------------------
      1          7           0        1.108077    1.290366    1.588213
      2          6           0        2.556753    1.057050    1.726279
      3          6           0        2.911077   -0.384599    1.350298
      4          6           0        4.402852   -0.664234    1.415866
      5          6           0        5.011781   -1.084625    2.602011
      6          6           0        6.389294   -1.316056    2.684155
      7          6           0        7.190610   -1.126673    1.554698
      8          6           0        6.597632   -0.704362    0.357647
      9          6           0        5.225446   -0.478919    0.295056
     10          8           0        8.544505   -1.326593    1.512039
     11          6           0        9.183506   -1.768899    2.698943
     12          1           0        0.888785    2.256881    1.823673
     13          1           0        0.610656    0.716891    2.268231
     14          1           0        2.970489    1.271234    2.728011
     15          1           0        3.066541    1.732501    1.029385
     16          1           0        2.528292   -0.579777    0.341520
     17          1           0        2.373218   -1.068788    2.021760
     18          1           0        4.403055   -1.239789    3.489292
     19          1           0        6.814106   -1.643966    3.627148
     20          1           0        7.226181   -0.561834   -0.516339
     21          1           0        4.786968   -0.153793   -0.645031
     22          1           0       10.241004   -1.875624    2.444844
     23          1           0        8.795814   -2.741308    3.028849
     24          1           0        9.083213   -1.036288    3.510228
 ---------------------------------------------------------------------
                    Distance matrix (angstroms):
                    1          2          3          4          5
     1  N    0.000000
     2  C    1.473826   0.000000
     3  C    2.472433   1.531424   0.000000
     4  C    3.834802   2.543080   1.519173   0.000000
     5  C    4.680521   3.373550   2.543576   1.398021   0.000000
     6  C    5.990474   4.608419   3.839893   2.445277   1.399232
     7  C    6.545259   5.125496   4.348201   2.829261   2.417836
     8  C    5.968957   4.615672   3.831226   2.436903   2.774291
     9  C    4.664264   3.395515   2.545336   1.402575   2.394697
    10  O    7.883828   6.448320   5.713932   4.195386   3.704960
    11  C    8.706628   7.269519   6.563420   5.071609   4.228583
    12  H    1.018667   2.056988   3.360233   4.587798   5.363820
    13  H    1.019178   2.048588   2.710686   4.124898   4.767260
    14  H    2.183595   1.104771   2.154856   2.742157   3.119746
    15  H    2.084071   1.096257   2.146920   2.771179   3.767401
    16  H    2.658701   2.144195   1.096473   2.162250   3.395940
    17  H    2.711854   2.154108   1.099212   2.156429   2.701658
    18  H    4.568661   3.434023   2.744566   2.151827   1.087148
    19  H    6.732484   5.388306   4.690809   3.415229   2.147591
    20  H    6.729858   5.427124   4.704877   3.422731   3.860179
    21  H    4.539517   3.473198   2.748377   2.157635   3.385302
    22  H    9.704003   8.256186   7.559696   6.050643   5.291044
    23  H    8.799496   7.419575   6.557571   5.119967   4.152794
    24  H    8.527030   7.082316   6.571548   5.141065   4.171780
                    6          7          8          9         10
     6  C    0.000000
     7  C    1.397729   0.000000
     8  C    2.414583   1.401036   0.000000
     9  C    2.786240   2.422427   1.391990   0.000000
    10  O    2.453345   1.369241   2.347362   3.635348   0.000000
    11  C    2.830707   2.386081   3.647143   4.807178   1.418695
    12  H    6.615278   7.157778   6.596145   5.350505   8.458632
    13  H    6.139912   6.870491   6.443149   5.159425   8.227613
    14  H    4.287682   4.993600   4.762118   3.750618   6.268728
    15  H    4.803400   5.045669   4.342596   3.176553   6.292782
    16  H    4.575738   4.848516   4.071278   2.699439   6.174356
    17  H    4.077840   4.840327   4.554970   3.385950   6.197666
    18  H    2.144577   3.394984   3.861354   3.385025   4.590063
    19  H    1.085001   2.168962   3.408718   3.870919   2.751125
    20  H    3.392991   2.146975   1.085928   2.160596   2.537155
    21  H    3.873213   3.400412   2.141727   1.087075   4.488597
    22  H    3.899494   3.264688   4.359175   5.632778   2.012378
    23  H    2.818066   2.712351   4.014533   5.033841   2.089326
    24  H    2.831583   2.722904   4.028281   5.052757   2.089794
                   11         12         13         14         15
    11  C    0.000000
    12  H    9.261500   0.000000
    13  H    8.936353   1.626824   0.000000
    14  H    6.916995   2.474433   2.467287   0.000000
    15  H    7.243237   2.376655   2.932162   1.762760   0.000000
    16  H    7.159841   3.596025   3.011792   3.052396   2.471740
    17  H    6.879590   3.647308   2.521115   2.516193   3.051676
    18  H    4.874148   5.229826   4.438679   2.989486   4.083126
    19  H    2.547788   7.319738   6.775183   4.907161   5.673901
    20  H    3.952994   7.320068   7.290688   5.656576   4.995582
    21  H    5.755022   5.205927   5.165923   4.087506   3.053136
    22  H    1.092822  10.243410   9.974764   7.927375   8.154447
    23  H    1.097598   9.431619   8.918211   7.079929   7.539058
    24  H    1.097707   8.990999   8.740732   6.580418   7.072561
                   16         17         18         19         20
    16  H    0.000000
    17  H    1.756812   0.000000
    18  H    3.722744   2.510603   0.000000
    19  H    5.504185   4.757057   2.448578   0.000000
    20  H    4.775605   5.500018   4.947196   4.302244   0.000000
    21  H    2.501272   3.711493   4.291783   4.957965   2.476453
    22  H    8.098710   7.920356   5.964630   3.632511   4.425359
    23  H    7.153725   6.712771   4.665073   2.342923   4.447720
    24  H    7.294936   6.873181   4.684627   2.351975   4.459474
                   21         22         23         24
    21  H    0.000000
    22  H    6.500656   0.000000
    23  H    6.021916   1.782987   0.000000
    24  H    6.041745   1.783258   1.794830   0.000000
 Stoichiometry    C9H13NO
 Framework group  C1[X(C9H13NO)]
 Deg. of freedom    66
 Full point group                 C1      NOp   1
 Largest Abelian subgroup         C1      NOp   1
 Largest concise Abelian subgroup C1      NOp   1
                         Standard orientation:                         
 ---------------------------------------------------------------------
 Center     Atomic      Atomic             Coordinates (Angstroms)
 Number     Number       Type             X           Y           Z
 ---------------------------------------------------------------------
      1          7           0       -4.585327   -0.177944    0.367900
      2          6           0       -3.135962   -0.160968    0.634761
      3          6           0       -2.348096    0.017700   -0.666240
      4          6           0       -0.847859    0.103654   -0.443113
      5          6           0       -0.051646   -1.044930   -0.407565
      6          6           0        1.326260   -0.982303   -0.172399
      7          6           0        1.936789    0.258162    0.032897
      8          6           0        1.154162    1.419817    0.002003
      9          6           0       -0.215362    1.337792   -0.233186
     10          8           0        3.273192    0.444869    0.265251
     11          6           0        4.105040   -0.704090    0.290073
     12          1           0       -5.097539   -0.279094    1.242594
     13          1           0       -4.813604   -1.001802   -0.186963
     14          1           0       -2.748048   -1.051200    1.161572
     15          1           0       -2.931291    0.697670    1.284860
     16          1           0       -2.713756    0.921987   -1.167049
     17          1           0       -2.578029   -0.821181   -1.338310
     18          1           0       -0.509607   -2.017735   -0.568231
     19          1           0        1.901417   -1.902185   -0.156959
     20          1           0        1.635910    2.380159    0.159804
     21          1           0       -0.802231    2.252584   -0.254940
     22          1           0        5.116837   -0.334305    0.473882
     23          1           0        4.088444   -1.236365   -0.669682
     24          1           0        3.823296   -1.390875    1.098719
 ---------------------------------------------------------------------
[...]
    14  H    0.000001  -0.000000   0.000042   0.000000   0.000000  -0.000000
    15  H    0.000000   0.000002   0.000841  -0.000000  -0.000000   0.000000
    16  H    0.000002  -0.000006   0.004732   0.000000   0.000000  -0.000000
    17  H   -0.000007   0.000003   0.000045  -0.000000  -0.000000   0.000000
    18  H   -0.006292   0.000017  -0.000210  -0.000000   0.000001   0.000003
    19  H    0.611386  -0.000187   0.000017  -0.000014   0.001287   0.001402
    20  H   -0.000187   0.606473  -0.006858  -0.000024   0.000024   0.000022
    21  H    0.000017  -0.006858   0.617695  -0.000000  -0.000000  -0.000000
    22  H   -0.000014  -0.000024  -0.000000   0.531121  -0.031161  -0.031008
    23  H    0.001287   0.000024  -0.000000  -0.031161   0.570900  -0.044094
    24  H    0.001402   0.000022  -0.000000  -0.031008  -0.044094   0.571645
 Mulliken atomic charges:
              1
     1  N   -0.712830
     2  C   -0.130265
     3  C   -0.342947
     4  C    0.189837
     5  C   -0.220612
     6  C   -0.197935
     7  C    0.351728
     8  C   -0.189763
     9  C   -0.213294
    10  O   -0.448189
    11  C   -0.225541
    12  H    0.297564
    13  H    0.291931
    14  H    0.122047
    15  H    0.149306
    16  H    0.161423
    17  H    0.134266
    18  H    0.109354
    19  H    0.117968
    20  H    0.123509
    21  H    0.114744
    22  H    0.176670
    23  H    0.170798
    24  H    0.170229
 Sum of Mulliken atomic charges =  -0.00000
 Mulliken charges with hydrogens summed into heavy atoms:
              1
     1  N   -0.123335
     2  C    0.141088
     3  C   -0.047258
     4  C    0.189837
     5  C   -0.111258
     6  C   -0.079967
     7  C    0.351728
     8  C   -0.066254
     9  C   -0.098549
    10  O   -0.448189
    11  C    0.292157
 Sum of Mulliken charges with hydrogens summed into heavy atoms =  -0.00000
 Electronic spatial extent (au):  <R**2>=           2641.1374
 Charge=             -0.0000 electrons
 Dipole moment (field-independent basis, Debye):
    X=              1.4508    Y=             -2.4733    Z=              1.0955  Tot=              3.0696
 Quadrupole moment (field-independent basis, Debye-Ang):
   XX=            -53.0364   YY=            -63.6803   ZZ=            -67.3527
   XY=              0.5069   XZ=             -2.8732   YZ=              0.2471
 Traceless Quadrupole moment (field-independent basis, Debye-Ang):
   XX=              8.3201   YY=             -2.3238   ZZ=             -5.9963
   XY=              0.5069   XZ=             -2.8732   YZ=              0.2471
 Octapole moment (field-independent basis, Debye-Ang**2):
  XXX=             58.4389  YYY=             -0.4858  ZZZ=              7.2954  XYY=             -0.0602
  XXY=            -49.7042  XXZ=             29.2306  XZZ=             -6.3779  YZZ=             -0.9639
  YYZ=              0.4532  XYZ=             -2.8577
 Hexadecapole moment (field-independent basis, Debye-Ang**3):
 XXXX=          -2570.9462 YYYY=           -363.7749 ZZZZ=           -163.3190 XXXY=             85.2548
 XXXZ=           -102.4712 YYYX=             10.1393 YYYZ=              2.7144 ZZZX=            -10.4429
 ZZZY=             -0.4206 XXYY=           -518.8391 XXZZ=           -468.1160 YYZZ=            -95.1577
 XXYZ=              2.2341 YYXZ=              3.9099 ZZXY=             -1.6619
 N-N= 5.811694364805D+02 E-N=-2.278982857944D+03  KE= 4.763470473501D+02
 No NMR shielding tensors so no spin-rotation constants.
 Leave Link  601 at Thu Sep 30 16:32:31 2021, MaxMem= 1073741824 cpu:       1.2
 (Enter /sw/target/amd/app/gaussian/Gaussian09RevA.02_gcc-4.9.2/g09/l604.exe)
 Evaluate density.
 Using the total density.
 Monte-Carlo method of calculating molar volume:
 based on  0.001 e/bohr**3 density envelope.
 Number of points per bohr**3 =   20 CutOff= 1.00D-04
 Using the CI density.
 There are       397 points.  Will hold       397 in memory.
 LenV=  1073627737 MDV=  1073741824.
 Box volume = 7821.581 fraction occupied=0.202
 Integrated density= 4.5304870188758815D+02 error= 3.7104870188758815D+02
 Molar volume = 1576.137 bohr**3/mol (140.653 cm**3/mol)
 Recommended a0 for SCRF calculation =  4.70 angstrom (  8.89 bohr)
 Leave Link  604 at Thu Sep 30 16:32:32 2021, MaxMem= 1073741824 cpu:       0.3
 (Enter /sw/target/amd/app/gaussian/Gaussian09RevA.02_gcc-4.9.2/g09/l607.exe)
 ******************************Gaussian NBO Version 3.1******************************
             N A T U R A L   A T O M I C   O R B I T A L   A N D
          N A T U R A L   B O N D   O R B I T A L   A N A L Y S I S
 ******************************Gaussian NBO Version 3.1******************************
       /RESON  / : Allow strongly delocalized NBO set

 Analyzing the CI density

 Job title: NCCc1ccc(cc1)OC_conf_0                                          

 Storage needed:    111386 in NPA (1073738704 available)


 NATURAL POPULATIONS:  Natural atomic orbital occupancies 
                                                          
   NAO  Atom  No  lang   Type(AO)    Occupancy
 --------------------------------------------
     1    N    1  S      Cor( 1S)     1.99966
     2    N    1  S      Val( 2S)     1.43933
     3    N    1  S      Ryd( 3S)     0.00052
     4    N    1  S      Ryd( 4S)     0.00001
     5    N    1  px     Val( 2p)     1.28870
     6    N    1  px     Ryd( 3p)     0.00231
     7    N    1  py     Val( 2p)     1.62871
     8    N    1  py     Ryd( 3p)     0.00387
     9    N    1  pz     Val( 2p)     1.52080
    10    N    1  pz     Ryd( 3p)     0.00305
    11    N    1  dxy    Ryd( 3d)     0.00071
    12    N    1  dxz    Ryd( 3d)     0.00095
    13    N    1  dyz    Ryd( 3d)     0.00134
    14    N    1  dx2y2  Ryd( 3d)     0.00140
    15    N    1  dz2    Ryd( 3d)     0.00114

    16    C    2  S      Cor( 1S)     1.99933
    17    C    2  S      Val( 2S)     1.02527
    18    C    2  S      Ryd( 3S)     0.00216
    19    C    2  S      Ryd( 4S)     0.00003
    20    C    2  px     Val( 2p)     0.87594
    21    C    2  px     Ryd( 3p)     0.00265
    22    C    2  py     Val( 2p)     1.23114
    23    C    2  py     Ryd( 3p)     0.00261
    24    C    2  pz     Val( 2p)     1.09807
    25    C    2  pz     Ryd( 3p)     0.00081
    26    C    2  dxy    Ryd( 3d)     0.00111
    27    C    2  dxz    Ryd( 3d)     0.00114
    28    C    2  dyz    Ryd( 3d)     0.00128
    29    C    2  dx2y2  Ryd( 3d)     0.00134
    30    C    2  dz2    Ryd( 3d)     0.00056

    31    C    3  S      Cor( 1S)     1.99926
    32    C    3  S      Val( 2S)     1.03680
    33    C    3  S      Ryd( 3S)     0.00081
    34    C    3  S      Ryd( 4S)     0.00002
    35    C    3  px     Val( 2p)     1.05862
    36    C    3  px     Ryd( 3p)     0.00316
    37    C    3  py     Val( 2p)     1.25534
    38    C    3  py     Ryd( 3p)     0.00584
    39    C    3  pz     Val( 2p)     1.12251
    40    C    3  pz     Ryd( 3p)     0.00102
    41    C    3  dxy    Ryd( 3d)     0.00044
    42    C    3  dxz    Ryd( 3d)     0.00067
    43    C    3  dyz    Ryd( 3d)     0.00114
    44    C    3  dx2y2  Ryd( 3d)     0.00088
    45    C    3  dz2    Ryd( 3d)     0.00040

    46    C    4  S      Cor( 1S)     1.99904
    47    C    4  S      Val( 2S)     0.89043
    48    C    4  S      Ryd( 3S)     0.00089
    49    C    4  S      Ryd( 4S)     0.00005
    50    C    4  px     Val( 2p)     1.05327
    51    C    4  px     Ryd( 3p)     0.00490
    52    C    4  py     Val( 2p)     1.08476
    53    C    4  py     Ryd( 3p)     0.00472
    54    C    4  pz     Val( 2p)     0.91717
    55    C    4  pz     Ryd( 3p)     0.00361
    56    C    4  dxy    Ryd( 3d)     0.00088
    57    C    4  dxz    Ryd( 3d)     0.00054
    58    C    4  dyz    Ryd( 3d)     0.00107
    59    C    4  dx2y2  Ryd( 3d)     0.00072
    60    C    4  dz2    Ryd( 3d)     0.00036

    61    C    5  S      Cor( 1S)     1.99906
    62    C    5  S      Val( 2S)     0.94633
    63    C    5  S      Ryd( 3S)     0.00073
    64    C    5  S      Ryd( 4S)     0.00005
    65    C    5  px     Val( 2p)     1.07150
    66    C    5  px     Ryd( 3p)     0.00442
    67    C    5  py     Val( 2p)     1.16264
    68    C    5  py     Ryd( 3p)     0.00508
    69    C    5  pz     Val( 2p)     1.08552
    70    C    5  pz     Ryd( 3p)     0.00602
    71    C    5  dxy    Ryd( 3d)     0.00072
    72    C    5  dxz    Ryd( 3d)     0.00058
    73    C    5  dyz    Ryd( 3d)     0.00040
    74    C    5  dx2y2  Ryd( 3d)     0.00073
    75    C    5  dz2    Ryd( 3d)     0.00044

    76    C    6  S      Cor( 1S)     1.99905
    77    C    6  S      Val( 2S)     0.95699
    78    C    6  S      Ryd( 3S)     0.00065
    79    C    6  S      Ryd( 4S)     0.00005
    80    C    6  px     Val( 2p)     1.11261
    81    C    6  px     Ryd( 3p)     0.00402
    82    C    6  py     Val( 2p)     1.14367
    83    C    6  py     Ryd( 3p)     0.00409
    84    C    6  pz     Val( 2p)     1.10736
    85    C    6  pz     Ryd( 3p)     0.00589
    86    C    6  dxy    Ryd( 3d)     0.00083
    87    C    6  dxz    Ryd( 3d)     0.00058
    88    C    6  dyz    Ryd( 3d)     0.00045
    89    C    6  dx2y2  Ryd( 3d)     0.00054
    90    C    6  dz2    Ryd( 3d)     0.00049

    91    C    7  S      Cor( 1S)     1.99879
    92    C    7  S      Val( 2S)     0.84314
    93    C    7  S      Ryd( 3S)     0.00156
    94    C    7  S      Ryd( 4S)     0.00013
    95    C    7  px     Val( 2p)     0.75098
    96    C    7  px     Ryd( 3p)     0.00647
    97    C    7  py     Val( 2p)     1.08779
    98    C    7  py     Ryd( 3p)     0.00625
    99    C    7  pz     Val( 2p)     0.96607
   100    C    7  pz     Ryd( 3p)     0.00202
   101    C    7  dxy    Ryd( 3d)     0.00137
   102    C    7  dxz    Ryd( 3d)     0.00160
   103    C    7  dyz    Ryd( 3d)     0.00138
   104    C    7  dx2y2  Ryd( 3d)     0.00175
   105    C    7  dz2    Ryd( 3d)     0.00058

   106    C    8  S      Cor( 1S)     1.99906
   107    C    8  S      Val( 2S)     0.95756
   108    C    8  S      Ryd( 3S)     0.00087
   109    C    8  S      Ryd( 4S)     0.00004
   110    C    8  px     Val( 2p)     1.08608
   111    C    8  px     Ryd( 3p)     0.00557
   112    C    8  py     Val( 2p)     1.15190
   113    C    8  py     Ryd( 3p)     0.00455
   114    C    8  pz     Val( 2p)     1.10056
   115    C    8  pz     Ryd( 3p)     0.00688
   116    C    8  dxy    Ryd( 3d)     0.00083
   117    C    8  dxz    Ryd( 3d)     0.00061
   118    C    8  dyz    Ryd( 3d)     0.00042
   119    C    8  dx2y2  Ryd( 3d)     0.00053
   120    C    8  dz2    Ryd( 3d)     0.00047

   121    C    9  S      Cor( 1S)     1.99906
   122    C    9  S      Val( 2S)     0.94838
   123    C    9  S      Ryd( 3S)     0.00061
   124    C    9  S      Ryd( 4S)     0.00005
   125    C    9  px     Val( 2p)     1.09747
   126    C    9  px     Ryd( 3p)     0.00430
   127    C    9  py     Val( 2p)     1.14297
   128    C    9  py     Ryd( 3p)     0.00486
   129    C    9  pz     Val( 2p)     1.08086
   130    C    9  pz     Ryd( 3p)     0.00559
   131    C    9  dxy    Ryd( 3d)     0.00079
   132    C    9  dxz    Ryd( 3d)     0.00060
   133    C    9  dyz    Ryd( 3d)     0.00039
   134    C    9  dx2y2  Ryd( 3d)     0.00067
   135    C    9  dz2    Ryd( 3d)     0.00046

   136    O   10  S      Cor( 1S)     1.99975
   137    O   10  S      Val( 2S)     1.59841
   138    O   10  S      Ryd( 3S)     0.00078
   139    O   10  S      Ryd( 4S)     0.00007
   140    O   10  px     Val( 2p)     1.43806
   141    O   10  px     Ryd( 3p)     0.00110
   142    O   10  py     Val( 2p)     1.67634
   143    O   10  py     Ryd( 3p)     0.00207
   144    O   10  pz     Val( 2p)     1.70517
   145    O   10  pz     Ryd( 3p)     0.00220
   146    O   10  dxy    Ryd( 3d)     0.00134
   147    O   10  dxz    Ryd( 3d)     0.00064
   148    O   10  dyz    Ryd( 3d)     0.00140
   149    O   10  dx2y2  Ryd( 3d)     0.00131
   150    O   10  dz2    Ryd( 3d)     0.00079

   151    C   11  S      Cor( 1S)     1.99942
   152    C   11  S      Val( 2S)     1.10338
   153    C   11  S      Ryd( 3S)     0.00149
   154    C   11  S      Ryd( 4S)     0.00003
   155    C   11  px     Val( 2p)     1.04458
   156    C   11  px     Ryd( 3p)     0.00230
   157    C   11  py     Val( 2p)     0.93140
   158    C   11  py     Ryd( 3p)     0.00342
   159    C   11  pz     Val( 2p)     1.23198
   160    C   11  pz     Ryd( 3p)     0.00037
   161    C   11  dxy    Ryd( 3d)     0.00176
   162    C   11  dxz    Ryd( 3d)     0.00065
   163    C   11  dyz    Ryd( 3d)     0.00172
   164    C   11  dx2y2  Ryd( 3d)     0.00132
   165    C   11  dz2    Ryd( 3d)     0.00106

   166    H   12  S      Val( 1S)     0.62177
   167    H   12  S      Ryd( 2S)     0.00144

   168    H   13  S      Val( 1S)     0.63046
   169    H   13  S      Ryd( 2S)     0.00179

   170    H   14  S      Val( 1S)     0.79718
   171    H   14  S      Ryd( 2S)     0.00258

   172    H   15  S      Val( 1S)     0.77029
   173    H   15  S      Ryd( 2S)     0.00188

   174    H   16  S      Val( 1S)     0.74353
   175    H   16  S      Ryd( 2S)     0.00273

   176    H   17  S      Val( 1S)     0.76510
   177    H   17  S      Ryd( 2S)     0.00213

   178    H   18  S      Val( 1S)     0.77565
   179    H   18  S      Ryd( 2S)     0.00110

   180    H   19  S      Val( 1S)     0.77333
   181    H   19  S      Ryd( 2S)     0.00100

   182    H   20  S      Val( 1S)     0.76312
   183    H   20  S      Ryd( 2S)     0.00126

   184    H   21  S      Val( 1S)     0.77232
   185    H   21  S      Ryd( 2S)     0.00100

   186    H   22  S      Val( 1S)     0.76854
   187    H   22  S      Ryd( 2S)     0.00054

   188    H   23  S      Val( 1S)     0.78146
   189    H   23  S      Ryd( 2S)     0.00204

   190    H   24  S      Val( 1S)     0.78167
   191    H   24  S      Ryd( 2S)     0.00209

 WARNING:  1 low occupancy (<1.9990e) core orbital  found on  C    7


 Summary of Natural Population Analysis:                  
                                                          
                                       Natural Population 
                Natural  -----------------------------------------------
    Atom  No    Charge         Core      Valence    Rydberg      Total
 -----------------------------------------------------------------------
      N    1   -0.89250      1.99966     5.87754    0.01530     7.89250
      C    2   -0.24344      1.99933     4.23042    0.01369     6.24344
      C    3   -0.48692      1.99926     4.47327    0.01439     6.48692
      C    4    0.03760      1.99904     3.94563    0.01773     5.96240
      C    5   -0.28423      1.99906     4.26600    0.01916     6.28423
      C    6   -0.33727      1.99905     4.32063    0.01759     6.33727
      C    7    0.33012      1.99879     3.64799    0.02310     5.66988
      C    8   -0.31597      1.99906     4.29611    0.02079     6.31597
      C    9   -0.28706      1.99906     4.26968    0.01832     6.28706
      O   10   -0.42943      1.99975     6.41798    0.01169     8.42943
      C   11   -0.32488      1.99942     4.31134    0.01412     6.32488
      H   12    0.37680      0.00000     0.62177    0.00144     0.62320
      H   13    0.36775      0.00000     0.63046    0.00179     0.63225
      H   14    0.20024      0.00000     0.79718    0.00258     0.79976
      H   15    0.22782      0.00000     0.77029    0.00188     0.77218
      H   16    0.25374      0.00000     0.74353    0.00273     0.74626
      H   17    0.23277      0.00000     0.76510    0.00213     0.76723
      H   18    0.22324      0.00000     0.77565    0.00110     0.77676
      H   19    0.22567      0.00000     0.77333    0.00100     0.77433
      H   20    0.23562      0.00000     0.76312    0.00126     0.76438
      H   21    0.22668      0.00000     0.77232    0.00100     0.77332
      H   22    0.23091      0.00000     0.76854    0.00054     0.76909
      H   23    0.21650      0.00000     0.78146    0.00204     0.78350
      H   24    0.21624      0.00000     0.78167    0.00209     0.78376
 =======================================================================
   * Total *   -0.00000     21.99150    59.80105    0.20745    82.00000

                                 Natural Population      
 --------------------------------------------------------
   Core                      21.99150 ( 99.9614% of  22)
   Valence                   59.80105 ( 99.6684% of  60)
   Natural Minimal Basis     81.79255 ( 99.7470% of  82)
   Natural Rydberg Basis      0.20745 (  0.2530% of  82)
 --------------------------------------------------------

    Atom  No          Natural Electron Configuration
 ----------------------------------------------------------------------------
      N    1      [core]2S( 1.44)2p( 4.44)3p( 0.01)3d( 0.01)
      C    2      [core]2S( 1.03)2p( 3.21)3p( 0.01)3d( 0.01)
      C    3      [core]2S( 1.04)2p( 3.44)3p( 0.01)
      C    4      [core]2S( 0.89)2p( 3.06)3p( 0.01)
      C    5      [core]2S( 0.95)2p( 3.32)3p( 0.02)
      C    6      [core]2S( 0.96)2p( 3.36)3p( 0.01)
      C    7      [core]2S( 0.84)2p( 2.80)3p( 0.01)3d( 0.01)
      C    8      [core]2S( 0.96)2p( 3.34)3p( 0.02)
      C    9      [core]2S( 0.95)2p( 3.32)3p( 0.01)
      O   10      [core]2S( 1.60)2p( 4.82)3p( 0.01)3d( 0.01)
      C   11      [core]2S( 1.10)2p( 3.21)3p( 0.01)3d( 0.01)
      H   12            1S( 0.62)
      H   13            1S( 0.63)
      H   14            1S( 0.80)
      H   15            1S( 0.77)
      H   16            1S( 0.74)
      H   17            1S( 0.77)
      H   18            1S( 0.78)
      H   19            1S( 0.77)
      H   20            1S( 0.76)
      H   21            1S( 0.77)
      H   22            1S( 0.77)
      H   23            1S( 0.78)
      H   24            1S( 0.78)


 NBO analysis skipped by request.
 Leave Link  607 at Thu Sep 30 16:32:56 2021, MaxMem= 1073741824 cpu:      15.3
 (Enter /sw/target/amd/app/gaussian/Gaussian09RevA.02_gcc-4.9.2/g09/l9999.exe)
 1\1\GINC-HERMITE\SP\RTD-B3LYP-FC\6-31G(d)\C9H13N1O1\JSCHLEINITZ\30-Sep
 -2021\0\\#p TD(NStates=10, Root=1) b3lyp/6-31G* volume pop=NPA density
 =current Geom=AllCheck Guess=Read\\NCCc1ccc(cc1)OC_conf_0\\0,1\N,0,1.1
 158999571,1.2853181703,1.5578766243\C,0,2.5602558207,1.0646305115,1.69
 23720725\C,0,2.9089051267,-0.4010361456,1.3837741138\C,0,4.3948924376,
 -0.6783302835,1.4425088147\C,0,5.0083489237,-1.1324009789,2.6125959002
 \C,0,6.3869032196,-1.3564653481,2.6868611237\C,0,7.1843269324,-1.12233
 17175,1.5620178615\C,0,6.5876080979,-0.6683299383,0.3768728184\C,0,5.2
 165499678,-0.4523439873,0.3255991537\O,0,8.5383739108,-1.30795818,1.51
 23923943\C,0,9.1932496245,-1.7639899734,2.6834997557\H,0,0.9026315434,
 2.2694968455,1.7131374549\H,0,0.6243835142,0.7748342478,2.291389952\H,
 0,2.9706815298,1.3267091659,2.6847467976\H,0,3.0676860507,1.7116555978
 ,0.966128756\H,0,2.5083531031,-0.6419711483,0.3919942721\H,0,2.3825936
 969,-1.0478728528,2.099980497\H,0,4.3999458587,-1.3246143184,3.4942099
 983\H,0,6.8185742311,-1.7145285838,3.6148030115\H,0,7.2192472064,-0.49
 80385472,-0.4896774546\H,0,4.7697663002,-0.1054080896,-0.6038650697\H,
 0,10.2518143018,-1.8372522775,2.4265848612\H,0,8.827548758,-2.75214590
 88,2.9941175418\H,0,9.0713162419,-1.0588335183,3.5168548854\\Version=A
 M64L-G09RevA.02\State=1-A\HF=-480.7424176\RMSD=4.560e-09\Dipole=0.5221
 621,0.0003085,1.0889351\Quadrupole=3.8985939,-1.8252163,-2.0733776,-4.
 7828453,-0.5933853,-0.8112108\PG=C01 [X(C9H13N1O1)]\\@


       THE DEATH-KNELL OF THE ATOM

 SO THE ATOMS IN TURN, WE NOW CLEARLY DISCERN,
 FLY TO BITS WITH THE UTMOST FACILITY;
 THEY WEND ON THEIR WAY, AND, IN SPLITTING, DISPLAY
 AN ABSOLUTE LACK OF STABILITY.

          SIR WM. RAMSAY, 1905
 Job cpu time:  0 days  1 hours 59 minutes 46.6 seconds.
 File lengths (MBytes):  RWF=    127 Int=      0 D2E=      0 Chk=     17 Scr=      1
 Normal termination of Gaussian 09 at Thu Sep 30 16:33:00 2021.
