 Entering Gaussian System, Link 0=g09
 Input=C9H7N_309f_conf_0.com
 Output=C9H7N_309f_conf_0.log
 Initial command:
 /sw/target/amd/app/gaussian/Gaussian09RevA.02_gcc-4.9.2/g09/l1.exe /home/jschleinitz/gaussian/Gau-2673993.inp -scrdir=/home/jschleinitz/gaussian/
 Entering Link 1 = /sw/target/amd/app/gaussian/Gaussian09RevA.02_gcc-4.9.2/g09/l1.exe PID=   2673999.
  
 Copyright (c) 1988,1990,1992,1993,1995,1998,2003,2009, Gaussian, Inc.
                  All Rights Reserved.
  
 This is part of the Gaussian(R) 09 program.  It is based on
 the Gaussian(R) 03 system (copyright 2003, Gaussian, Inc.),
 the Gaussian(R) 98 system (copyright 1998, Gaussian, Inc.),
 the Gaussian(R) 94 system (copyright 1995, Gaussian, Inc.),
 the Gaussian 92(TM) system (copyright 1992, Gaussian, Inc.),
 the Gaussian 90(TM) system (copyright 1990, Gaussian, Inc.),
 the Gaussian 88(TM) system (copyright 1988, Gaussian, Inc.),
 the Gaussian 86(TM) system (copyright 1986, Carnegie Mellon
 University), and the Gaussian 82(TM) system (copyright 1983,
 Carnegie Mellon University). Gaussian is a federally registered
 trademark of Gaussian, Inc.
  
 This software contains proprietary and confidential information,
 including trade secrets, belonging to Gaussian, Inc.
  
 This software is provided under written license and may be
 used, copied, transmitted, or stored only in accord with that
 written license.
  
 The following legend is applicable only to US Government
 contracts under FAR:
  
                    RESTRICTED RIGHTS LEGEND
  
 Use, reproduction and disclosure by the US Government is
 subject to restrictions as set forth in subparagraphs (a)
 and (c) of the Commercial Computer Software - Restricted
 Rights clause in FAR 52.227-19.
  
 Gaussian, Inc.
 340 Quinnipiac St., Bldg. 40, Wallingford CT 06492
  
  
 ---------------------------------------------------------------
 Warning -- This program may not be used in any manner that
 competes with the business of Gaussian, Inc. or will provide
 assistance to any competitor of Gaussian, Inc.  The licensee
 of this program is prohibited from giving any competitor of
 Gaussian, Inc. access to this program.  By using this program,
 the user acknowledges that Gaussian, Inc. is engaged in the
 business of creating and licensing software in the field of
 computational chemistry and represents and warrants to the
 licensee that it is not a competitor of Gaussian, Inc. and that
 it will not use this program in any manner prohibited above.
 ---------------------------------------------------------------
  

 Cite this work as:
 Gaussian 09, Revision A.02,
 M. J. Frisch, G. W. Trucks, H. B. Schlegel, G. E. Scuseria, 
 M. A. Robb, J. R. Cheeseman, G. Scalmani, V. Barone, B. Mennucci, 
 G. A. Petersson, H. Nakatsuji, M. Caricato, X. Li, H. P. Hratchian, 
 A. F. Izmaylov, J. Bloino, G. Zheng, J. L. Sonnenberg, M. Hada, 
 M. Ehara, K. Toyota, R. Fukuda, J. Hasegawa, M. Ishida, T. Nakajima, 
 Y. Honda, O. Kitao, H. Nakai, T. Vreven, J. A. Montgomery, Jr., 
 J. E. Peralta, F. Ogliaro, M. Bearpark, J. J. Heyd, E. Brothers, 
 K. N. Kudin, V. N. Staroverov, R. Kobayashi, J. Normand, 
 K. Raghavachari, A. Rendell, J. C. Burant, S. S. Iyengar, J. Tomasi, 
 M. Cossi, N. Rega, J. M. Millam, M. Klene, J. E. Knox, J. B. Cross, 
 V. Bakken, C. Adamo, J. Jaramillo, R. Gomperts, R. E. Stratmann, 
 O. Yazyev, A. J. Austin, R. Cammi, C. Pomelli, J. W. Ochterski, 
 R. L. Martin, K. Morokuma, V. G. Zakrzewski, G. A. Voth, 
 P. Salvador, J. J. Dannenberg, S. Dapprich, A. D. Daniels, 
 O. Farkas, J. B. Foresman, J. V. Ortiz, J. Cioslowski, 
 and D. J. Fox, Gaussian, Inc., Wallingford CT, 2009.
 
 ******************************************
 Gaussian 09:  AM64L-G09RevA.02 11-Jun-2009
                 3-Oct-2021 
 ******************************************
 %nproc=2
 Will use up to    2 processors via shared memory.
 %mem=4gb
 %chk=C9H7N_309f_conf_0.chk
 -----------------------------------
 #p opt b3lyp/6-31G* scf=(xqc,tight)
 -----------------------------------
 1/14=-1,18=20,19=15,26=3,38=1/1,3;
 2/9=110,12=2,17=6,18=5,40=1/2;
 3/5=1,6=6,7=1,11=2,16=1,25=1,30=1,71=1,74=-5/1,2,3;
 4//1;
 5/5=2,8=3,13=1,32=2,38=5/2,8;
 6/7=2,8=2,9=2,10=2,28=1/1;
 7//1,2,3,16;
 1/14=-1,18=20,19=15/3(2);
 2/9=110/2;
 99//99;
 2/9=110/2;
 3/5=1,6=6,7=1,11=2,16=1,25=1,30=1,71=1,74=-5/1,2,3;
 4/5=5,16=3/1;
 5/5=2,8=3,13=1,32=2,38=5/2,8;
 7//1,2,3,16;
 1/14=-1,18=20,19=15/3(-5);
 2/9=110/2;
 6/7=2,8=2,9=2,10=2,19=2,28=1/1;
 99/9=1/99;
 Leave Link    1 at Sun Oct  3 22:19:25 2021, MaxMem=  536870912 cpu:       0.1
 (Enter /sw/target/amd/app/gaussian/Gaussian09RevA.02_gcc-4.9.2/g09/l101.exe)
 -----------------------
 c1ccc2c(c1)cncc2_conf_0
 -----------------------
 Symbolic Z-matrix:
 Charge =  0 Multiplicity = 1
 C                    -2.45112  -0.7492   -0.00912 
 C                    -2.48957   0.64324  -0.01301 
 C                    -1.30141   1.37696  -0.00658 
 C                    -0.05712   0.72479  -0.0004 
 C                    -0.02099  -0.6838   -0.00139 
 C                    -1.22353  -1.41266  -0.00262 
 C                     1.23691  -1.29229  -0.00132 
 N                     2.41446  -0.62438   0.00231 
 C                     2.34078   0.72251   0.00678 
 C                     1.15038   1.43272   0.00551 
 H                    -3.37714  -1.31868  -0.01192 
 H                    -3.44575   1.16027  -0.02053 
 H                    -1.3536    2.46359  -0.00782 
 H                    -1.20886  -2.50029   0.00105 
 H                     1.33649  -2.3746   -0.00595 
 H                     3.29724   1.23738   0.01116 
 H                     1.17068   2.51722   0.00885 
 
 NAtoms=     17 NQM=     17 NQMF=      0 NMic=      0 NMicF=      0 NTot=     17.
                    Isotopes and Nuclear Properties:
 (Nuclear quadrupole moments (NQMom) in fm**2, nuclear magnetic moments (NMagM)
  in nuclear magnetons)

  Atom         1           2           3           4           5           6           7           8           9          10
 IAtWgt=          12          12          12          12          12          12          12          14          12          12
 AtmWgt=  12.0000000  12.0000000  12.0000000  12.0000000  12.0000000  12.0000000  12.0000000  14.0030740  12.0000000  12.0000000
 NucSpn=           0           0           0           0           0           0           0           2           0           0
 AtZEff=   0.0000000   0.0000000   0.0000000   0.0000000   0.0000000   0.0000000   0.0000000   0.0000000   0.0000000   0.0000000
 NQMom=    0.0000000   0.0000000   0.0000000   0.0000000   0.0000000   0.0000000   0.0000000   2.0440000   0.0000000   0.0000000
 NMagM=    0.0000000   0.0000000   0.0000000   0.0000000   0.0000000   0.0000000   0.0000000   0.4037610   0.0000000   0.0000000

  Atom        11          12          13          14          15          16          17
 IAtWgt=           1           1           1           1           1           1           1
 AtmWgt=   1.0078250   1.0078250   1.0078250   1.0078250   1.0078250   1.0078250   1.0078250
 NucSpn=           1           1           1           1           1           1           1
 AtZEff=   0.0000000   0.0000000   0.0000000   0.0000000   0.0000000   0.0000000   0.0000000
 NQMom=    0.0000000   0.0000000   0.0000000   0.0000000   0.0000000   0.0000000   0.0000000
 NMagM=    2.7928460   2.7928460   2.7928460   2.7928460   2.7928460   2.7928460   2.7928460
 Leave Link  101 at Sun Oct  3 22:19:27 2021, MaxMem=  536870912 cpu:       0.3
 (Enter /sw/target/amd/app/gaussian/Gaussian09RevA.02_gcc-4.9.2/g09/l103.exe)

 GradGradGradGradGradGradGradGradGradGradGradGradGradGradGradGradGradGrad
 Berny optimization.
 Initialization pass.
                           ----------------------------
                           !    Initial Parameters    !
                           ! (Angstroms and Degrees)  !
 --------------------------                            --------------------------
 ! Name  Definition              Value          Derivative Info.                !
 --------------------------------------------------------------------------------
 ! R1    R(1,2)                  1.393          estimate D2E/DX2                !
 ! R2    R(1,6)                  1.3954         estimate D2E/DX2                !
 ! R3    R(1,11)                 1.0871         estimate D2E/DX2                !
 ! R4    R(2,3)                  1.3965         estimate D2E/DX2                !
 ! R5    R(2,12)                 1.087          estimate D2E/DX2                !
 ! R6    R(3,4)                  1.4049         estimate D2E/DX2                !
 ! R7    R(3,13)                 1.0879         estimate D2E/DX2                !
 ! R8    R(4,5)                  1.4091         estimate D2E/DX2                !
 ! R9    R(4,10)                 1.3997         estimate D2E/DX2                !
 ! R10   R(5,6)                  1.4062         estimate D2E/DX2                !
 ! R11   R(5,7)                  1.3973         estimate D2E/DX2                !
 ! R12   R(6,14)                 1.0877         estimate D2E/DX2                !
 ! R13   R(7,8)                  1.3538         estimate D2E/DX2                !
 ! R14   R(7,15)                 1.0869         estimate D2E/DX2                !
 ! R15   R(8,9)                  1.3489         estimate D2E/DX2                !
 ! R16   R(9,10)                 1.3862         estimate D2E/DX2                !
 ! R17   R(9,16)                 1.0862         estimate D2E/DX2                !
 ! R18   R(10,17)                1.0847         estimate D2E/DX2                !
 ! A1    A(2,1,6)              119.9716         estimate D2E/DX2                !
 ! A2    A(2,1,11)             120.0084         estimate D2E/DX2                !
 ! A3    A(6,1,11)             120.0199         estimate D2E/DX2                !
 ! A4    A(1,2,3)              120.1129         estimate D2E/DX2                !
 ! A5    A(1,2,12)             119.9833         estimate D2E/DX2                !
 ! A6    A(3,2,12)             119.9039         estimate D2E/DX2                !
 ! A7    A(2,3,4)              120.6441         estimate D2E/DX2                !
 ! A8    A(2,3,13)             118.9454         estimate D2E/DX2                !
 ! A9    A(4,3,13)             120.4104         estimate D2E/DX2                !
 ! A10   A(3,4,5)              119.1294         estimate D2E/DX2                !
 ! A11   A(3,4,10)             121.9578         estimate D2E/DX2                !
 ! A12   A(5,4,10)             118.9128         estimate D2E/DX2                !
 ! A13   A(4,5,6)              119.7505         estimate D2E/DX2                !
 ! A14   A(4,5,7)              117.2838         estimate D2E/DX2                !
 ! A15   A(6,5,7)              122.9657         estimate D2E/DX2                !
 ! A16   A(1,6,5)              120.3906         estimate D2E/DX2                !
 ! A17   A(1,6,14)             119.1627         estimate D2E/DX2                !
 ! A18   A(5,6,14)             120.4467         estimate D2E/DX2                !
 ! A19   A(5,7,8)              124.6234         estimate D2E/DX2                !
 ! A20   A(5,7,15)             121.0706         estimate D2E/DX2                !
 ! A21   A(8,7,15)             114.306          estimate D2E/DX2                !
 ! A22   A(7,8,9)              116.4313         estimate D2E/DX2                !
 ! A23   A(8,9,10)             123.9517         estimate D2E/DX2                !
 ! A24   A(8,9,16)             115.1635         estimate D2E/DX2                !
 ! A25   A(10,9,16)            120.8848         estimate D2E/DX2                !
 ! A26   A(4,10,9)             118.7965         estimate D2E/DX2                !
 ! A27   A(4,10,17)            121.455          estimate D2E/DX2                !
 ! A28   A(9,10,17)            119.7485         estimate D2E/DX2                !
 ! D1    D(6,1,2,3)             -0.1826         estimate D2E/DX2                !
 ! D2    D(6,1,2,12)           179.8506         estimate D2E/DX2                !
 ! D3    D(11,1,2,3)           179.865          estimate D2E/DX2                !
 ! D4    D(11,1,2,12)           -0.1018         estimate D2E/DX2                !
 ! D5    D(2,1,6,5)             -0.0668         estimate D2E/DX2                !
 ! D6    D(2,1,6,14)           179.9585         estimate D2E/DX2                !
 ! D7    D(11,1,6,5)           179.8856         estimate D2E/DX2                !
 ! D8    D(11,1,6,14)           -0.0891         estimate D2E/DX2                !
 ! D9    D(1,2,3,4)              0.2016         estimate D2E/DX2                !
 ! D10   D(1,2,3,13)          -179.882          estimate D2E/DX2                !
 ! D11   D(12,2,3,4)          -179.8316         estimate D2E/DX2                !
 ! D12   D(12,2,3,13)            0.0848         estimate D2E/DX2                !
 ! D13   D(2,3,4,5)              0.029          estimate D2E/DX2                !
 ! D14   D(2,3,4,10)           179.9708         estimate D2E/DX2                !
 ! D15   D(13,3,4,5)          -179.8861         estimate D2E/DX2                !
 ! D16   D(13,3,4,10)            0.0557         estimate D2E/DX2                !
 ! D17   D(3,4,5,6)             -0.2759         estimate D2E/DX2                !
 ! D18   D(3,4,5,7)            179.713          estimate D2E/DX2                !
 ! D19   D(10,4,5,6)           179.7805         estimate D2E/DX2                !
 ! D20   D(10,4,5,7)            -0.2306         estimate D2E/DX2                !
 ! D21   D(3,4,10,9)          -179.7805         estimate D2E/DX2                !
 ! D22   D(3,4,10,17)            0.2044         estimate D2E/DX2                !
 ! D23   D(5,4,10,9)             0.1614         estimate D2E/DX2                !
 ! D24   D(5,4,10,17)         -179.8537         estimate D2E/DX2                !
 ! D25   D(4,5,6,1)              0.297          estimate D2E/DX2                !
 ! D26   D(4,5,6,14)          -179.7286         estimate D2E/DX2                !
 ! D27   D(7,5,6,1)           -179.6912         estimate D2E/DX2                !
 ! D28   D(7,5,6,14)             0.2832         estimate D2E/DX2                !
 ! D29   D(4,5,7,8)              0.1383         estimate D2E/DX2                !
 ! D30   D(4,5,7,15)          -179.7599         estimate D2E/DX2                !
 ! D31   D(6,5,7,8)           -179.8732         estimate D2E/DX2                !
 ! D32   D(6,5,7,15)             0.2286         estimate D2E/DX2                !
 ! D33   D(5,7,8,9)              0.0326         estimate D2E/DX2                !
 ! D34   D(15,7,8,9)           179.9369         estimate D2E/DX2                !
 ! D35   D(7,8,9,10)            -0.1133         estimate D2E/DX2                !
 ! D36   D(7,8,9,16)           179.9109         estimate D2E/DX2                !
 ! D37   D(8,9,10,4)             0.0162         estimate D2E/DX2                !
 ! D38   D(8,9,10,17)         -179.9689         estimate D2E/DX2                !
 ! D39   D(16,9,10,4)          179.9908         estimate D2E/DX2                !
 ! D40   D(16,9,10,17)           0.0056         estimate D2E/DX2                !
 --------------------------------------------------------------------------------
 Trust Radius=3.00D-01 FncErr=1.00D-07 GrdErr=1.00D-06
 Number of steps in this run=  96 maximum allowed number of steps= 102.
 GradGradGradGradGradGradGradGradGradGradGradGradGradGradGradGradGradGrad

 Leave Link  103 at Sun Oct  3 22:19:27 2021, MaxMem=  536870912 cpu:       0.0
 (Enter /sw/target/amd/app/gaussian/Gaussian09RevA.02_gcc-4.9.2/g09/l202.exe)
                          Input orientation:                          
 ---------------------------------------------------------------------
 Center     Atomic      Atomic             Coordinates (Angstroms)
 Number     Number       Type             X           Y           Z
 ---------------------------------------------------------------------
      1          6           0       -2.451119   -0.749195   -0.009118
      2          6           0       -2.489572    0.643244   -0.013014
      3          6           0       -1.301410    1.376956   -0.006584
      4          6           0       -0.057125    0.724786   -0.000404
      5          6           0       -0.020992   -0.683802   -0.001391
      6          6           0       -1.223530   -1.412656   -0.002625
      7          6           0        1.236914   -1.292288   -0.001322
      8          7           0        2.414456   -0.624382    0.002311
      9          6           0        2.340780    0.722508    0.006775
     10          6           0        1.150380    1.432724    0.005511
     11          1           0       -3.377136   -1.318684   -0.011917
     12          1           0       -3.445750    1.160270   -0.020527
     13          1           0       -1.353603    2.463591   -0.007820
     14          1           0       -1.208859   -2.500294    0.001048
     15          1           0        1.336488   -2.374599   -0.005953
     16          1           0        3.297237    1.237379    0.011162
     17          1           0        1.170678    2.517219    0.008846
 ---------------------------------------------------------------------
                    Distance matrix (angstroms):
                    1          2          3          4          5
     1  C    0.000000
     2  C    1.392976   0.000000
     3  C    2.417096   1.396461   0.000000
     4  C    2.811389   2.433847   1.404852   0.000000
     5  C    2.431019   2.802691   2.426153   1.409052   0.000000
     6  C    1.395420   2.414477   2.790702   2.434989   1.406175
     7  C    3.727814   4.199181   3.683474   2.396482   1.397348
     8  N    4.867189   5.065235   4.220556   2.815844   2.436176
     9  C    5.012829   4.831043   3.700544   2.397916   2.748771
    10  C    4.210912   3.724631   2.452454   1.399742   2.419058
    11  H    1.087121   2.153354   3.402226   3.898510   3.415683
    12  H    2.153016   1.087036   2.155306   3.416553   3.889722
    13  H    3.395076   2.145721   1.087889   2.168952   3.417891
    14  H    2.147012   3.394445   3.878361   3.424564   2.170409
    15  H    4.121640   4.873004   4.586139   3.398290   2.168309
    16  H    6.081981   5.817280   4.600799   3.393321   3.834285
    17  H    4.877212   4.112140   2.722436   2.172648   3.415658
                    6          7          8          9         10
     6  C    0.000000
     7  C    2.463388   0.000000
     8  N    3.722412   1.353779   0.000000
     9  C    4.154915   2.297387   1.348911   0.000000
    10  C    3.705632   2.726394   2.414453   1.386167   0.000000
    11  H    2.155675   4.614138   5.833078   6.071357   5.298014
    12  H    3.399784   5.286091   6.125971   5.803129   4.604272
    13  H    3.878433   4.562615   4.871751   4.084121   2.707914
    14  H    1.087742   2.727836   4.080130   4.794415   4.586355
    15  H    2.734783   1.086892   2.055564   3.255892   3.811886
    16  H    5.240250   3.262561   2.060470   1.086243   2.155734
    17  H    4.601770   3.810096   3.378858   2.142458   1.084690
                   11         12         13         14         15
    11  H    0.000000
    12  H    2.479919   0.000000
    13  H    4.289558   2.464932   0.000000
    14  H    2.469371   4.289974   4.966003   0.000000
    15  H    4.830450   5.946874   5.535764   2.548458   0.000000
    16  H    7.147115   6.743503   4.809810   5.854503   4.109892
    17  H    5.949554   4.811817   2.524906   5.553169   4.894649
                   16         17
    16  H    0.000000
    17  H    2.481985   0.000000
 Stoichiometry    C9H7N
 Framework group  C1[X(C9H7N)]
 Deg. of freedom    45
 Full point group                 C1      NOp   1
 Largest Abelian subgroup         C1      NOp   1
 Largest concise Abelian subgroup C1      NOp   1
                         Standard orientation:                         
 ---------------------------------------------------------------------
 Center     Atomic      Atomic             Coordinates (Angstroms)
 Number     Number       Type             X           Y           Z
 ---------------------------------------------------------------------
      1          6           0        2.425187   -0.681112   -0.000996
      2          6           0        2.412555    0.711799    0.003491
      3          6           0        1.198266    1.401438    0.001217
      4          6           0       -0.021275    0.704071   -0.001338
      5          6           0       -0.005716   -0.704896   -0.000958
      6          6           0        1.222744   -1.389151   -0.003923
      7          6           0       -1.240451   -1.359111    0.002664
      8          7           0       -2.441704   -0.734845    0.003120
      9          6           0       -2.417493    0.613843   -0.000889
     10          6           0       -1.253945    1.367244   -0.003049
     11          1           0        3.371473   -1.216253   -0.001435
     12          1           0        3.349145    1.263546    0.008225
     13          1           0        1.210572    2.489257    0.002842
     14          1           0        1.247963   -2.476593   -0.008106
     15          1           0       -1.300246   -2.444348    0.007058
     16          1           0       -3.392200    1.093287   -0.001969
     17          1           0       -1.314018    2.450265   -0.005764
 ---------------------------------------------------------------------
 Rotational constants (GHZ):      3.2457235      1.2405751      0.8975278
 Leave Link  202 at Sun Oct  3 22:19:28 2021, MaxMem=  536870912 cpu:       0.0
 (Enter /sw/target/amd/app/gaussian/Gaussian09RevA.02_gcc-4.9.2/g09/l301.exe)
 Standard basis: 6-31G(d) (6D, 7F)
 Ernie: Thresh=  0.10000D-02 Tol=  0.10000D-05 Strict=F.
 There are   164 symmetry adapted basis functions of A   symmetry.
 Integral buffers will be    131072 words long.
 Raffenetti 2 integral format.
 Two-electron integral symmetry is turned on.
   164 basis functions,   308 primitive gaussians,   164 cartesian basis functions
    34 alpha electrons       34 beta electrons
       nuclear repulsion energy       462.1697169570 Hartrees.
 IExCor=  402 DFT=T Ex+Corr=B3LYP ExCW=0 ScaHFX=  0.200000
 ScaDFX=  0.800000  0.720000  1.000000  0.810000 ScalE2=  1.000000  1.000000
 IRadAn=      0 IRanWt=     -1 IRanGd=            0 ICorTp=0
 NAtoms=   17 NActive=   17 NUniq=   17 SFac= 7.50D-01 NAtFMM=   80 NAOKFM=F Big=F
 Leave Link  301 at Sun Oct  3 22:19:29 2021, MaxMem=  536870912 cpu:       0.2
 (Enter /sw/target/amd/app/gaussian/Gaussian09RevA.02_gcc-4.9.2/g09/l302.exe)
 NPDir=0 NMtPBC=     1 NCelOv=     1 NCel=       1 NClECP=     1 NCelD=      1
         NCelK=      1 NCelE2=     1 NClLst=     1 CellRange=     0.0.
 One-electron integrals computed using PRISM.
 NBasis=   164 RedAO= T  NBF=   164
 NBsUse=   164 1.00D-06 NBFU=   164
 Precomputing XC quadrature grid using
 IXCGrd= 2 IRadAn=           0 IRanWt=          -1 IRanGd=           0 AccXCQ= 1.00D-10.
 NRdTot=    1059 NPtTot=      134424 NUsed=      142071 NTot=      142103
 NSgBfM=   164   164   164   164   164 NAtAll=    17    17.
 Leave Link  302 at Sun Oct  3 22:19:33 2021, MaxMem=  536870912 cpu:       0.9
 (Enter /sw/target/amd/app/gaussian/Gaussian09RevA.02_gcc-4.9.2/g09/l303.exe)
 DipDrv:  MaxL=1.
 Leave Link  303 at Sun Oct  3 22:19:33 2021, MaxMem=  536870912 cpu:       0.1
 (Enter /sw/target/amd/app/gaussian/Gaussian09RevA.02_gcc-4.9.2/g09/l401.exe)
 Harris functional with IExCor=  402 diagonalized for initial guess.
 ExpMin= 1.61D-01 ExpMax= 4.17D+03 ExpMxC= 6.27D+02 IAcc=1 IRadAn=         1 AccDes= 0.00D+00
 HarFok:  IExCor=  402 AccDes= 0.00D+00 IRadAn=         1 IDoV= 1
 ScaDFX=  1.000000  1.000000  1.000000  1.000000
 FoFCou: FMM=F IPFlag=           0 FMFlag=      100000 FMFlg1=           0
         NFxFlg=           0 DoJE=T BraDBF=F KetDBF=T FulRan=T
         Omega=  0.000000  0.000000  1.000000  0.000000  0.000000 ICntrl=     500 IOpCl=  0
         NMat0=    1 NMatS0=    1 NMatT0=    0 NMatD0=    1 NMtDS0=    0 NMtDT0=    0
         I1Cent=           4 NGrid=           0.
 Petite list used in FoFCou.
 Harris En= -401.965412426719    
 Initial guess orbital symmetries:
       Occupied  (A) (A) (A) (A) (A) (A) (A) (A) (A) (A) (A) (A)
                 (A) (A) (A) (A) (A) (A) (A) (A) (A) (A) (A) (A)
                 (A) (A) (A) (A) (A) (A) (A) (A) (A) (A)
       Virtual   (A) (A) (A) (A) (A) (A) (A) (A) (A) (A) (A) (A)
                 (A) (A) (A) (A) (A) (A) (A) (A) (A) (A) (A) (A)
                 (A) (A) (A) (A) (A) (A) (A) (A) (A) (A) (A) (A)
                 (A) (A) (A) (A) (A) (A) (A) (A) (A) (A) (A) (A)
                 (A) (A) (A) (A) (A) (A) (A) (A) (A) (A) (A) (A)
                 (A) (A) (A) (A) (A) (A) (A) (A) (A) (A) (A) (A)
                 (A) (A) (A) (A) (A) (A) (A) (A) (A) (A) (A) (A)
                 (A) (A) (A) (A) (A) (A) (A) (A) (A) (A) (A) (A)
                 (A) (A) (A) (A) (A) (A) (A) (A) (A) (A) (A) (A)
                 (A) (A) (A) (A) (A) (A) (A) (A) (A) (A) (A) (A)
                 (A) (A) (A) (A) (A) (A) (A) (A) (A) (A)
 The electronic state of the initial guess is 1-A.
 Leave Link  401 at Sun Oct  3 22:19:46 2021, MaxMem=  536870912 cpu:       4.2
 (Enter /sw/target/amd/app/gaussian/Gaussian09RevA.02_gcc-4.9.2/g09/l502.exe)
 Closed shell SCF:
 Requested convergence on RMS density matrix=1.00D-08 within  64 cycles.
 Requested convergence on MAX density matrix=1.00D-06.
 Requested convergence on             energy=1.00D-06.
 No special actions if energy rises.
 Using DIIS extrapolation, IDIIS=  1040.
 Integral symmetry usage will be decided dynamically.
       141905 words used for storage of precomputed grid.
 Keep R1 ints in memory in canonical form, NReq=94013560.
 IEnd=      230351 IEndB=      230351 NGot=   536870912 MDV=   445134603
 LenX=   445134603 LenY=   445107266
 Symmetry not used in FoFDir.
 MinBra= 0 MaxBra= 2 Meth= 1.
 IRaf=       0 NMat=   1 IRICut=       1 DoRegI=T DoRafI=F ISym2E= 0 JSym2E=0.
 Integral accuracy reduced to 1.0D-05 until final iterations.

 Cycle   1  Pass 0  IDiag  1:
 E= -401.731457341463    
 DIIS: error= 4.32D-02 at cycle   1 NSaved=   1.
 NSaved= 1 IEnMin= 1 EnMin= -401.731457341463     IErMin= 1 ErrMin= 4.32D-02
 ErrMax= 4.32D-02 EMaxC= 1.00D-01 BMatC= 1.71D-01 BMatP= 1.71D-01
 IDIUse=3 WtCom= 5.68D-01 WtEn= 4.32D-01
 Coeff-Com:  0.100D+01
 Coeff-En:   0.100D+01
 Coeff:      0.100D+01
 Gap=     0.165 Goal=   None    Shift=    0.000
 GapD=    0.165 DampG=1.000 DampE=0.500 DampFc=0.5000 IDamp=-1.
 Damping current iteration by 5.00D-01
 RMSDP=6.65D-03 MaxDP=1.15D-01              OVMax= 1.43D-01

 Cycle   2  Pass 0  IDiag  1:
 E= -401.826440176775     Delta-E=       -0.094982835312 Rises=F Damp=T
 DIIS: error= 6.79D-03 at cycle   2 NSaved=   2.
 NSaved= 2 IEnMin= 2 EnMin= -401.826440176775     IErMin= 2 ErrMin= 6.79D-03
 ErrMax= 6.79D-03 EMaxC= 1.00D-01 BMatC= 1.04D-02 BMatP= 1.71D-01
 IDIUse=3 WtCom= 9.32D-01 WtEn= 6.79D-02
 Coeff-Com: -0.334D-01 0.103D+01
 Coeff-En:   0.000D+00 0.100D+01
 Coeff:     -0.312D-01 0.103D+01
 Gap=     0.167 Goal=   None    Shift=    0.000
 RMSDP=2.09D-03 MaxDP=3.38D-02 DE=-9.50D-02 OVMax= 1.13D-01

 Cycle   3  Pass 0  IDiag  1:
 E= -401.917934476354     Delta-E=       -0.091494299578 Rises=F Damp=F
 DIIS: error= 6.74D-03 at cycle   3 NSaved=   3.
 NSaved= 3 IEnMin= 3 EnMin= -401.917934476354     IErMin= 3 ErrMin= 6.74D-03
 ErrMax= 6.74D-03 EMaxC= 1.00D-01 BMatC= 7.06D-03 BMatP= 1.04D-02
 IDIUse=3 WtCom= 9.33D-01 WtEn= 6.74D-02
 Coeff-Com: -0.623D-01 0.480D+00 0.582D+00
 Coeff-En:   0.000D+00 0.000D+00 0.100D+01
 Coeff:     -0.581D-01 0.448D+00 0.611D+00
 Gap=     0.166 Goal=   None    Shift=    0.000
 RMSDP=8.74D-04 MaxDP=3.12D-02 DE=-9.15D-02 OVMax= 6.72D-02

 Cycle   4  Pass 0  IDiag  1:
 E= -401.921821157762     Delta-E=       -0.003886681409 Rises=F Damp=F
 DIIS: error= 5.68D-03 at cycle   4 NSaved=   4.
 NSaved= 4 IEnMin= 4 EnMin= -401.921821157762     IErMin= 4 ErrMin= 5.68D-03
 ErrMax= 5.68D-03 EMaxC= 1.00D-01 BMatC= 3.08D-03 BMatP= 7.06D-03
 IDIUse=3 WtCom= 9.43D-01 WtEn= 5.68D-02
 Coeff-Com: -0.301D-01 0.140D+00 0.409D+00 0.481D+00
 Coeff-En:   0.000D+00 0.000D+00 0.344D+00 0.656D+00
 Coeff:     -0.284D-01 0.132D+00 0.405D+00 0.491D+00
 Gap=     0.167 Goal=   None    Shift=    0.000
 RMSDP=4.40D-04 MaxDP=1.34D-02 DE=-3.89D-03 OVMax= 3.60D-02

 Cycle   5  Pass 0  IDiag  1:
 E= -401.924958161719     Delta-E=       -0.003137003957 Rises=F Damp=F
 DIIS: error= 1.37D-03 at cycle   5 NSaved=   5.
 NSaved= 5 IEnMin= 5 EnMin= -401.924958161719     IErMin= 5 ErrMin= 1.37D-03
 ErrMax= 1.37D-03 EMaxC= 1.00D-01 BMatC= 1.78D-04 BMatP= 3.08D-03
 IDIUse=3 WtCom= 9.86D-01 WtEn= 1.37D-02
 Coeff-Com: -0.116D-01 0.413D-01 0.184D+00 0.279D+00 0.507D+00
 Coeff-En:   0.000D+00 0.000D+00 0.000D+00 0.000D+00 0.100D+01
 Coeff:     -0.115D-01 0.408D-01 0.182D+00 0.275D+00 0.514D+00
 Gap=     0.167 Goal=   None    Shift=    0.000
 RMSDP=1.23D-04 MaxDP=2.75D-03 DE=-3.14D-03 OVMax= 8.65D-03

 Cycle   6  Pass 0  IDiag  1:
 E= -401.925137232055     Delta-E=       -0.000179070335 Rises=F Damp=F
 DIIS: error= 3.95D-04 at cycle   6 NSaved=   6.
 NSaved= 6 IEnMin= 6 EnMin= -401.925137232055     IErMin= 6 ErrMin= 3.95D-04
 ErrMax= 3.95D-04 EMaxC= 1.00D-01 BMatC= 2.15D-05 BMatP= 1.78D-04
 IDIUse=3 WtCom= 9.96D-01 WtEn= 3.95D-03
 Coeff-Com: -0.262D-02 0.489D-02 0.517D-01 0.921D-01 0.303D+00 0.551D+00
 Coeff-En:   0.000D+00 0.000D+00 0.000D+00 0.000D+00 0.104D+00 0.896D+00
 Coeff:     -0.261D-02 0.487D-02 0.515D-01 0.917D-01 0.302D+00 0.552D+00
 Gap=     0.167 Goal=   None    Shift=    0.000
 RMSDP=3.26D-05 MaxDP=7.95D-04 DE=-1.79D-04 OVMax= 2.15D-03

 Cycle   7  Pass 0  IDiag  1:
 E= -401.925160456403     Delta-E=       -0.000023224349 Rises=F Damp=F
 DIIS: error= 3.89D-05 at cycle   7 NSaved=   7.
 NSaved= 7 IEnMin= 7 EnMin= -401.925160456403     IErMin= 7 ErrMin= 3.89D-05
 ErrMax= 3.89D-05 EMaxC= 1.00D-01 BMatC= 3.60D-07 BMatP= 2.15D-05
 IDIUse=1 WtCom= 1.00D+00 WtEn= 0.00D+00
 Coeff-Com: -0.974D-03 0.135D-02 0.214D-01 0.383D-01 0.135D+00 0.268D+00
 Coeff-Com:  0.538D+00
 Coeff:     -0.974D-03 0.135D-02 0.214D-01 0.383D-01 0.135D+00 0.268D+00
 Coeff:      0.538D+00
 Gap=     0.167 Goal=   None    Shift=    0.000
 RMSDP=5.51D-06 MaxDP=1.12D-04 DE=-2.32D-05 OVMax= 3.20D-04

 Initial convergence to 1.0D-05 achieved.  Increase integral accuracy.
 Cycle   8  Pass 1  IDiag  1:
 E= -401.925067588111     Delta-E=        0.000092868292 Rises=F Damp=F
 DIIS: error= 5.43D-05 at cycle   1 NSaved=   1.
 NSaved= 1 IEnMin= 1 EnMin= -401.925067588111     IErMin= 1 ErrMin= 5.43D-05
 ErrMax= 5.43D-05 EMaxC= 1.00D-01 BMatC= 1.96D-07 BMatP= 1.96D-07
 IDIUse=1 WtCom= 1.00D+00 WtEn= 0.00D+00
 Coeff-Com:  0.100D+01
 Coeff:      0.100D+01
 Gap=     0.167 Goal=   None    Shift=    0.000
 RMSDP=5.51D-06 MaxDP=1.12D-04 DE= 9.29D-05 OVMax= 3.25D-04

 Cycle   9  Pass 1  IDiag  1:
 E= -401.925067556775     Delta-E=        0.000000031336 Rises=F Damp=F
 DIIS: error= 3.30D-05 at cycle   2 NSaved=   2.
 NSaved= 2 IEnMin= 1 EnMin= -401.925067588111     IErMin= 2 ErrMin= 3.30D-05
 ErrMax= 3.30D-05 EMaxC= 1.00D-01 BMatC= 2.52D-07 BMatP= 1.96D-07
 IDIUse=1 WtCom= 1.00D+00 WtEn= 0.00D+00
 Coeff-Com:  0.540D+00 0.460D+00
 Coeff:      0.540D+00 0.460D+00
 Gap=     0.167 Goal=   None    Shift=    0.000
 RMSDP=4.63D-06 MaxDP=9.39D-05 DE= 3.13D-08 OVMax= 2.75D-04

 Cycle  10  Pass 1  IDiag  1:
 E= -401.925067802676     Delta-E=       -0.000000245901 Rises=F Damp=F
 DIIS: error= 1.26D-05 at cycle   3 NSaved=   3.
 NSaved= 3 IEnMin= 3 EnMin= -401.925067802676     IErMin= 3 ErrMin= 1.26D-05
 ErrMax= 1.26D-05 EMaxC= 1.00D-01 BMatC= 3.19D-08 BMatP= 1.96D-07
 IDIUse=1 WtCom= 1.00D+00 WtEn= 0.00D+00
 Coeff-Com:  0.830D-02 0.259D+00 0.733D+00
 Coeff:      0.830D-02 0.259D+00 0.733D+00
 Gap=     0.167 Goal=   None    Shift=    0.000
 RMSDP=1.49D-06 MaxDP=3.54D-05 DE=-2.46D-07 OVMax= 9.72D-05

 Cycle  11  Pass 1  IDiag  1:
 E= -401.925067836110     Delta-E=       -0.000000033434 Rises=F Damp=F
 DIIS: error= 4.67D-06 at cycle   4 NSaved=   4.
 NSaved= 4 IEnMin= 4 EnMin= -401.925067836110     IErMin= 4 ErrMin= 4.67D-06
 ErrMax= 4.67D-06 EMaxC= 1.00D-01 BMatC= 3.60D-09 BMatP= 3.19D-08
 IDIUse=1 WtCom= 1.00D+00 WtEn= 0.00D+00
 Coeff-Com: -0.153D-01 0.141D+00 0.451D+00 0.424D+00
 Coeff:     -0.153D-01 0.141D+00 0.451D+00 0.424D+00
 Gap=     0.167 Goal=   None    Shift=    0.000
 RMSDP=4.46D-07 MaxDP=1.31D-05 DE=-3.34D-08 OVMax= 2.94D-05

 Cycle  12  Pass 1  IDiag  1:
 E= -401.925067839827     Delta-E=       -0.000000003717 Rises=F Damp=F
 DIIS: error= 1.05D-06 at cycle   5 NSaved=   5.
 NSaved= 5 IEnMin= 5 EnMin= -401.925067839827     IErMin= 5 ErrMin= 1.05D-06
 ErrMax= 1.05D-06 EMaxC= 1.00D-01 BMatC= 1.01D-10 BMatP= 3.60D-09
 IDIUse=1 WtCom= 1.00D+00 WtEn= 0.00D+00
 Coeff-Com: -0.802D-02 0.576D-01 0.191D+00 0.219D+00 0.540D+00
 Coeff:     -0.802D-02 0.576D-01 0.191D+00 0.219D+00 0.540D+00
 Gap=     0.167 Goal=   None    Shift=    0.000
 RMSDP=9.91D-08 MaxDP=2.61D-06 DE=-3.72D-09 OVMax= 7.39D-06

 Cycle  13  Pass 1  IDiag  1:
 E= -401.925067839926     Delta-E=       -0.000000000099 Rises=F Damp=F
 DIIS: error= 4.91D-07 at cycle   6 NSaved=   6.
 NSaved= 6 IEnMin= 6 EnMin= -401.925067839926     IErMin= 6 ErrMin= 4.91D-07
 ErrMax= 4.91D-07 EMaxC= 1.00D-01 BMatC= 2.47D-11 BMatP= 1.01D-10
 IDIUse=1 WtCom= 1.00D+00 WtEn= 0.00D+00
 Coeff-Com: -0.327D-02 0.200D-01 0.686D-01 0.920D-01 0.355D+00 0.468D+00
 Coeff:     -0.327D-02 0.200D-01 0.686D-01 0.920D-01 0.355D+00 0.468D+00
 Gap=     0.167 Goal=   None    Shift=    0.000
 RMSDP=3.71D-08 MaxDP=1.10D-06 DE=-9.91D-11 OVMax= 2.89D-06

 Cycle  14  Pass 1  IDiag  1:
 E= -401.925067839946     Delta-E=       -0.000000000019 Rises=F Damp=F
 DIIS: error= 6.06D-08 at cycle   7 NSaved=   7.
 NSaved= 7 IEnMin= 7 EnMin= -401.925067839946     IErMin= 7 ErrMin= 6.06D-08
 ErrMax= 6.06D-08 EMaxC= 1.00D-01 BMatC= 5.19D-13 BMatP= 2.47D-11
 IDIUse=1 WtCom= 1.00D+00 WtEn= 0.00D+00
 Coeff-Com: -0.419D-03 0.181D-02 0.644D-02 0.134D-01 0.677D-01 0.163D+00
 Coeff-Com:  0.748D+00
 Coeff:     -0.419D-03 0.181D-02 0.644D-02 0.134D-01 0.677D-01 0.163D+00
 Coeff:      0.748D+00
 Gap=     0.167 Goal=   None    Shift=    0.000
 RMSDP=7.98D-09 MaxDP=1.91D-07 DE=-1.94D-11 OVMax= 4.14D-07

 SCF Done:  E(RB3LYP) =  -401.925067840     A.U. after   14 cycles
             Convg  =    0.7977D-08             -V/T =  2.0095
 KE= 3.981610310500D+02 PE=-1.855626458149D+03 EE= 5.933706423018D+02
 Leave Link  502 at Sun Oct  3 22:25:32 2021, MaxMem=  536870912 cpu:      85.3
 (Enter /sw/target/amd/app/gaussian/Gaussian09RevA.02_gcc-4.9.2/g09/l508.exe)
 QCSCF skips out because SCF is already converged.
 Leave Link  508 at Sun Oct  3 22:25:34 2021, MaxMem=  536870912 cpu:       0.0
 (Enter /sw/target/amd/app/gaussian/Gaussian09RevA.02_gcc-4.9.2/g09/l601.exe)
 Copying SCF densities to generalized density rwf, IOpCl= 0 IROHF=0.

 **********************************************************************

            Population analysis using the SCF density.

 **********************************************************************

 Orbital symmetries:
       Occupied  (A) (A) (A) (A) (A) (A) (A) (A) (A) (A) (A) (A)
                 (A) (A) (A) (A) (A) (A) (A) (A) (A) (A) (A) (A)
                 (A) (A) (A) (A) (A) (A) (A) (A) (A) (A)
       Virtual   (A) (A) (A) (A) (A) (A) (A) (A) (A) (A) (A) (A)
                 (A) (A) (A) (A) (A) (A) (A) (A) (A) (A) (A) (A)
                 (A) (A) (A) (A) (A) (A) (A) (A) (A) (A) (A) (A)
                 (A) (A) (A) (A) (A) (A) (A) (A) (A) (A) (A) (A)
                 (A) (A) (A) (A) (A) (A) (A) (A) (A) (A) (A) (A)
                 (A) (A) (A) (A) (A) (A) (A) (A) (A) (A) (A) (A)
                 (A) (A) (A) (A) (A) (A) (A) (A) (A) (A) (A) (A)
                 (A) (A) (A) (A) (A) (A) (A) (A) (A) (A) (A) (A)
                 (A) (A) (A) (A) (A) (A) (A) (A) (A) (A) (A) (A)
                 (A) (A) (A) (A) (A) (A) (A) (A) (A) (A) (A) (A)
                 (A) (A) (A) (A) (A) (A) (A) (A) (A) (A)
 The electronic state is 1-A.
 Alpha  occ. eigenvalues --  -14.32866 -10.22431 -10.21641 -10.20704 -10.20381
 Alpha  occ. eigenvalues --  -10.20317 -10.20246 -10.20101 -10.20018 -10.19496
 Alpha  occ. eigenvalues --   -0.93489  -0.86521  -0.79112  -0.77468  -0.73088
 Alpha  occ. eigenvalues --   -0.65111  -0.62728  -0.61143  -0.52761  -0.52259
 Alpha  occ. eigenvalues --   -0.49608  -0.46127  -0.45227  -0.42710  -0.42328
 Alpha  occ. eigenvalues --   -0.41001  -0.39325  -0.36709  -0.34987  -0.34683
 Alpha  occ. eigenvalues --   -0.29660  -0.26739  -0.25367  -0.22321
 Alpha virt. eigenvalues --   -0.05629  -0.01772   0.02412   0.08724   0.09284
 Alpha virt. eigenvalues --    0.11475   0.12957   0.16082   0.16215   0.17309
 Alpha virt. eigenvalues --    0.19276   0.19607   0.22151   0.26244   0.29373
 Alpha virt. eigenvalues --    0.30055   0.32606   0.32719   0.36961   0.44247
 Alpha virt. eigenvalues --    0.46958   0.50187   0.50973   0.51408   0.53353
 Alpha virt. eigenvalues --    0.53607   0.54206   0.55769   0.56622   0.58792
 Alpha virt. eigenvalues --    0.60057   0.60403   0.60517   0.61085   0.62261
 Alpha virt. eigenvalues --    0.62784   0.65154   0.67669   0.68217   0.68286
 Alpha virt. eigenvalues --    0.71308   0.80402   0.81538   0.81742   0.83165
 Alpha virt. eigenvalues --    0.83733   0.85158   0.87283   0.88212   0.88302
 Alpha virt. eigenvalues --    0.89324   0.92837   0.93038   0.95075   1.00679
 Alpha virt. eigenvalues --    1.03595   1.04108   1.05896   1.11933   1.15128
 Alpha virt. eigenvalues --    1.16579   1.21428   1.22919   1.24480   1.25834
 Alpha virt. eigenvalues --    1.30050   1.38194   1.39851   1.40820   1.44580
 Alpha virt. eigenvalues --    1.45097   1.48213   1.48727   1.49269   1.49920
 Alpha virt. eigenvalues --    1.51412   1.52204   1.68426   1.75433   1.79328
 Alpha virt. eigenvalues --    1.79505   1.84320   1.85752   1.90037   1.91532
 Alpha virt. eigenvalues --    1.93217   1.96351   1.97189   1.98411   2.02301
 Alpha virt. eigenvalues --    2.07145   2.13804   2.15821   2.17577   2.17741
 Alpha virt. eigenvalues --    2.19708   2.23605   2.28896   2.30344   2.31160
 Alpha virt. eigenvalues --    2.32964   2.36139   2.38819   2.40865   2.54944
 Alpha virt. eigenvalues --    2.58906   2.61461   2.63377   2.63557   2.70193
 Alpha virt. eigenvalues --    2.72514   2.73229   2.77861   2.82927   2.84910
 Alpha virt. eigenvalues --    2.90601   2.97301   3.08206   3.35485   3.47764
 Alpha virt. eigenvalues --    4.06091   4.07904   4.10346   4.12567   4.14760
 Alpha virt. eigenvalues --    4.22826   4.29375   4.38638   4.45440   4.78460
          Condensed to atoms (all electrons):
              1          2          3          4          5          6
     1  C    4.890517   0.504041  -0.019699  -0.037715  -0.000625   0.511756
     2  C    0.504041   4.889978   0.509529  -0.001927  -0.039505  -0.018619
     3  C   -0.019699   0.509529   5.125747   0.450187  -0.032761  -0.076251
     4  C   -0.037715  -0.001927   0.450187   4.681476   0.487954  -0.037354
     5  C   -0.000625  -0.039505  -0.032761   0.487954   4.800996   0.414217
     6  C    0.511756  -0.018619  -0.076251  -0.037354   0.414217   5.139964
     7  C    0.006910  -0.000586   0.015928  -0.025614   0.382849  -0.082316
     8  N   -0.000234   0.000039  -0.000375  -0.054462   0.003840   0.007338
     9  C    0.000075  -0.000388   0.007980  -0.002328  -0.037663  -0.000542
    10  C   -0.000987   0.008670  -0.101546   0.446191  -0.030038   0.018651
    11  H    0.358918  -0.041642   0.004396   0.000957   0.002667  -0.036518
    12  H   -0.041570   0.357620  -0.036177   0.002801   0.000998   0.004329
    13  H    0.004567  -0.045016   0.356656  -0.041781   0.004887   0.000531
    14  H   -0.044079   0.004488   0.000553   0.004430  -0.042629   0.357071
    15  H    0.000044   0.000011  -0.000197   0.003037  -0.065997  -0.001946
    16  H   -0.000001   0.000003  -0.000201   0.001632   0.001010   0.000025
    17  H   -0.000005   0.000182  -0.009321  -0.041694   0.005995  -0.000082
              7          8          9         10         11         12
     1  C    0.006910  -0.000234   0.000075  -0.000987   0.358918  -0.041570
     2  C   -0.000586   0.000039  -0.000388   0.008670  -0.041642   0.357620
     3  C    0.015928  -0.000375   0.007980  -0.101546   0.004396  -0.036177
     4  C   -0.025614  -0.054462  -0.002328   0.446191   0.000957   0.002801
     5  C    0.382849   0.003840  -0.037663  -0.030038   0.002667   0.000998
     6  C   -0.082316   0.007338  -0.000542   0.018651  -0.036518   0.004329
     7  C    5.060206   0.436354  -0.063038  -0.072879  -0.000168   0.000009
     8  N    0.436354   6.715622   0.426995  -0.015912   0.000001  -0.000000
     9  C   -0.063038   0.426995   4.823471   0.472716  -0.000000   0.000003
    10  C   -0.072879  -0.015912   0.472716   5.197146   0.000011  -0.000199
    11  H   -0.000168   0.000001  -0.000000   0.000011   0.584969  -0.005133
    12  H    0.000009  -0.000000   0.000003  -0.000199  -0.005133   0.585148
    13  H   -0.000170   0.000004   0.000246  -0.008192  -0.000188  -0.005165
    14  H   -0.006380   0.000125   0.000009  -0.000172  -0.005003  -0.000190
    15  H    0.374222  -0.051653   0.005428   0.000529  -0.000006  -0.000000
    16  H    0.005247  -0.053227   0.376348  -0.058739   0.000000  -0.000000
    17  H    0.000050   0.004851  -0.039175   0.347435   0.000000  -0.000010
             13         14         15         16         17
     1  C    0.004567  -0.044079   0.000044  -0.000001  -0.000005
     2  C   -0.045016   0.004488   0.000011   0.000003   0.000182
     3  C    0.356656   0.000553  -0.000197  -0.000201  -0.009321
     4  C   -0.041781   0.004430   0.003037   0.001632  -0.041694
     5  C    0.004887  -0.042629  -0.065997   0.001010   0.005995
     6  C    0.000531   0.357071  -0.001946   0.000025  -0.000082
     7  C   -0.000170  -0.006380   0.374222   0.005247   0.000050
     8  N    0.000004   0.000125  -0.051653  -0.053227   0.004851
     9  C    0.000246   0.000009   0.005428   0.376348  -0.039175
    10  C   -0.008192  -0.000172   0.000529  -0.058739   0.347435
    11  H   -0.000188  -0.005003  -0.000006   0.000000   0.000000
    12  H   -0.005165  -0.000190  -0.000000  -0.000000  -0.000010
    13  H    0.592339   0.000019   0.000003  -0.000008   0.005871
    14  H    0.000019   0.585835   0.005920   0.000000   0.000003
    15  H    0.000003   0.005920   0.586548  -0.000210   0.000029
    16  H   -0.000008   0.000000  -0.000210   0.590636  -0.001792
    17  H    0.005871   0.000003   0.000029  -0.001792   0.592610
 Mulliken atomic charges:
              1
     1  C   -0.131915
     2  C   -0.126878
     3  C   -0.194448
     4  C    0.164209
     5  C    0.143804
     6  C   -0.200254
     7  C   -0.030627
     8  N   -0.419308
     9  C    0.029863
    10  C   -0.202684
    11  H    0.136738
    12  H    0.137538
    13  H    0.135398
    14  H    0.140000
    15  H    0.144236
    16  H    0.139275
    17  H    0.135053
 Sum of Mulliken atomic charges =  -0.00000
 Mulliken charges with hydrogens summed into heavy atoms:
              1
     1  C    0.004823
     2  C    0.010659
     3  C   -0.059051
     4  C    0.164209
     5  C    0.143804
     6  C   -0.060254
     7  C    0.113610
     8  N   -0.419308
     9  C    0.169139
    10  C   -0.067630
 Sum of Mulliken charges with hydrogens summed into heavy atoms =  -0.00000
 Electronic spatial extent (au):  <R**2>=           1252.8577
 Charge=             -0.0000 electrons
 Dipole moment (field-independent basis, Debye):
    X=              2.4305    Y=              0.9413    Z=             -0.0033  Tot=              2.6064
 Quadrupole moment (field-independent basis, Debye-Ang):
   XX=            -57.4235   YY=            -50.2069   ZZ=            -60.3725
   XY=             -4.1769   XZ=              0.0255   YZ=              0.0081
 Traceless Quadrupole moment (field-independent basis, Debye-Ang):
   XX=             -1.4226   YY=              5.7941   ZZ=             -4.3715
   XY=             -4.1769   XZ=              0.0255   YZ=              0.0081
 Octapole moment (field-independent basis, Debye-Ang**2):
  XXX=             30.8534  YYY=             -0.8345  ZZZ=              0.0095  XYY=              3.1867
  XXY=             14.9591  XXZ=             -0.0124  XZZ=             -2.7848  YZZ=             -0.8337
  YYZ=             -0.0113  XYZ=              0.0447
 Hexadecapole moment (field-independent basis, Debye-Ang**3):
 XXXX=          -1121.7776 YYYY=           -449.3353 ZZZZ=            -61.1068 XXXY=            -49.2395
 XXXZ=              0.3410 YYYX=             -2.0335 YYYZ=             -0.0006 ZZZX=             -0.0061
 ZZZY=             -0.0033 XXYY=           -263.8672 XXZZ=           -216.0371 YYZZ=           -100.8689
 XXYZ=              0.1156 YYXZ=              0.0080 ZZXY=              1.3084
 N-N= 4.621697169570D+02 E-N=-1.855626451293D+03  KE= 3.981610310500D+02
 No NMR shielding tensors so no spin-rotation constants.
 Leave Link  601 at Sun Oct  3 22:25:37 2021, MaxMem=  536870912 cpu:       0.5
 (Enter /sw/target/amd/app/gaussian/Gaussian09RevA.02_gcc-4.9.2/g09/l701.exe)
 Compute integral first derivatives.
 ... and contract with generalized density number  0.
 Leave Link  701 at Sun Oct  3 22:25:39 2021, MaxMem=  536870912 cpu:       0.6
 (Enter /sw/target/amd/app/gaussian/Gaussian09RevA.02_gcc-4.9.2/g09/l702.exe)
 L702 exits ... SP integral derivatives will be done elsewhere.
 Leave Link  702 at Sun Oct  3 22:25:42 2021, MaxMem=  536870912 cpu:       0.1
 (Enter /sw/target/amd/app/gaussian/Gaussian09RevA.02_gcc-4.9.2/g09/l703.exe)
 Compute integral first derivatives, UseDBF=F ICtDFT=           0.
 Integral derivatives from FoFDir, PRISM(SPDF).
 Calling FoFJK, ICntrl=      2127 FMM=F ISym2X=0 I1Cent= 0 IOpClX= 0 NMat=1 NMatS=1 NMatT=0.
 FoFCou: FMM=F IPFlag=           0 FMFlag=      100000 FMFlg1=         800
         NFxFlg=           0 DoJE=F BraDBF=F KetDBF=F FulRan=T
         Omega=  0.000000  0.000000  1.000000  0.000000  0.000000 ICntrl=    2127 IOpCl=  0
         NMat0=    1 NMatS0=    1 NMatT0=    0 NMatD0=    1 NMtDS0=    0 NMtDT0=    0
         I1Cent=           0 NGrid=           0.
 Symmetry not used in FoFCou.
 Leave Link  703 at Sun Oct  3 22:28:09 2021, MaxMem=  536870912 cpu:      41.2
 (Enter /sw/target/amd/app/gaussian/Gaussian09RevA.02_gcc-4.9.2/g09/l716.exe)
 Dipole        = 9.56242782D-01 3.70338096D-01-1.28606929D-03
 ***** Axes restored to original set *****
 -------------------------------------------------------------------
 Center     Atomic                   Forces (Hartrees/Bohr)
 Number     Number              X              Y              Z
 -------------------------------------------------------------------
      1        6           0.012511587   -0.022717963    0.000067238
      2        6           0.012768748    0.022885076    0.000102026
      3        6          -0.027919833   -0.000699177   -0.000188486
      4        6          -0.007055408    0.016648032   -0.000011010
      5        6          -0.002701531   -0.008881760    0.000099587
      6        6          -0.023946978   -0.000760833   -0.000203897
      7        6           0.043437917    0.005719182    0.000097894
      8        7          -0.026222368   -0.020072721   -0.000112447
      9        6          -0.005223667    0.008398290    0.000062114
     10        6           0.022028742   -0.001379472    0.000026906
     11        1           0.000776368   -0.000387918    0.000027541
     12        1           0.000522921    0.000376265    0.000070620
     13        1           0.002528554   -0.000519893    0.000019687
     14        1           0.002509919    0.000487641   -0.000090846
     15        1          -0.002823158   -0.002060370    0.000088333
     16        1           0.000861713    0.001789451    0.000005252
     17        1          -0.002053525    0.001176169   -0.000060511
 -------------------------------------------------------------------
 Cartesian Forces:  Max     0.043437917 RMS     0.011511235
 Leave Link  716 at Sun Oct  3 22:28:10 2021, MaxMem=  536870912 cpu:       0.1
 (Enter /sw/target/amd/app/gaussian/Gaussian09RevA.02_gcc-4.9.2/g09/l103.exe)

 GradGradGradGradGradGradGradGradGradGradGradGradGradGradGradGradGradGrad
 Berny optimization.
 Internal  Forces:  Max     0.026899021 RMS     0.005804848
 Search for a local minimum.
 Step number   1 out of a maximum of   96
 All quantities printed in internal units (Hartrees-Bohrs-Radians)
 RMS Force = .58048D-02 SwitMx=.10000D-02 MixMth= 1
 Mixed Optimization -- RFO/linear search
 Second derivative matrix not updated -- first step.
     Eigenvalues ---    0.02023   0.02039   0.02046   0.02078   0.02079
     Eigenvalues ---    0.02083   0.02152   0.02155   0.02167   0.02176
     Eigenvalues ---    0.02178   0.02184   0.02295   0.02312   0.16000
     Eigenvalues ---    0.16000   0.16000   0.16000   0.16000   0.16000
     Eigenvalues ---    0.16000   0.22000   0.22282   0.22670   0.23302
     Eigenvalues ---    0.24350   0.24742   0.35058   0.35075   0.35147
     Eigenvalues ---    0.35157   0.35174   0.35251   0.35434   0.39307
     Eigenvalues ---    0.41221   0.42705   0.44108   0.45325   0.45608
     Eigenvalues ---    0.45762   0.46522   0.47308   0.52636   0.54169
     Eigenvalues --- 1000.000001000.000001000.000001000.000001000.00000
     Eigenvalues --- 1000.000001000.000001000.000001000.000001000.00000
     Eigenvalues --- 1000.000001000.000001000.000001000.000001000.00000
     Eigenvalues --- 1000.000001000.000001000.000001000.000001000.00000
     Eigenvalues --- 1000.000001000.000001000.000001000.000001000.00000
     Eigenvalues --- 1000.000001000.000001000.000001000.000001000.00000
     Eigenvalues --- 1000.000001000.000001000.000001000.000001000.00000
     Eigenvalues --- 1000.000001000.000001000.000001000.000001000.00000
     Eigenvalues --- 1000.00000
 RFO step:  Lambda=-6.54746725D-03 EMin= 2.02270650D-02
 Linear search not attempted -- first point.
 Iteration  1 RMS(Cart)=  0.01593926 RMS(Int)=  0.00012579
 Iteration  2 RMS(Cart)=  0.00016249 RMS(Int)=  0.00002713
 Iteration  3 RMS(Cart)=  0.00000003 RMS(Int)=  0.00002713
 Variable       Old X    -DE/DX   Delta X   Delta X   Delta X     New X
                                 (Linear)    (Quad)   (Total)
    R1        2.63234   0.02008   0.00000   0.04035   0.04037   2.67272
    R2        2.63696  -0.01290   0.00000  -0.02860  -0.02859   2.60837
    R3        2.05436  -0.00046   0.00000  -0.00128  -0.00128   2.05308
    R4        2.63893  -0.01320   0.00000  -0.02898  -0.02896   2.60997
    R5        2.05420  -0.00028   0.00000  -0.00079  -0.00079   2.05341
    R6        2.65478   0.01140   0.00000   0.02626   0.02625   2.68103
    R7        2.05581  -0.00064   0.00000  -0.00179  -0.00179   2.05402
    R8        2.66272   0.01852   0.00000   0.04604   0.04602   2.70874
    R9        2.64513   0.01259   0.00000   0.02929   0.02933   2.67446
   R10        2.65729   0.00890   0.00000   0.02048   0.02047   2.67775
   R11        2.64061   0.01649   0.00000   0.03557   0.03553   2.67613
   R12        2.05554  -0.00045   0.00000  -0.00127  -0.00127   2.05426
   R13        2.55827  -0.02690   0.00000  -0.05078  -0.05082   2.50745
   R14        2.05393   0.00179   0.00000   0.00500   0.00500   2.05893
   R15        2.54907   0.01011   0.00000   0.01600   0.01600   2.56507
   R16        2.61948  -0.00454   0.00000  -0.00980  -0.00976   2.60971
   R17        2.05270   0.00161   0.00000   0.00448   0.00448   2.05718
   R18        2.04977   0.00114   0.00000   0.00315   0.00315   2.05292
    A1        2.09390   0.00296   0.00000   0.00788   0.00792   2.10182
    A2        2.09454  -0.00072   0.00000   0.00061   0.00059   2.09513
    A3        2.09474  -0.00224   0.00000  -0.00849  -0.00851   2.08624
    A4        2.09636   0.00337   0.00000   0.01049   0.01053   2.10690
    A5        2.09410  -0.00109   0.00000  -0.00167  -0.00169   2.09241
    A6        2.09272  -0.00228   0.00000  -0.00882  -0.00884   2.08388
    A7        2.10564  -0.00228   0.00000  -0.00781  -0.00781   2.09783
    A8        2.07599   0.00371   0.00000   0.01934   0.01934   2.09533
    A9        2.10156  -0.00143   0.00000  -0.01153  -0.01153   2.09003
   A10        2.07920  -0.00117   0.00000  -0.00243  -0.00249   2.07671
   A11        2.12857   0.00967   0.00000   0.02891   0.02890   2.15747
   A12        2.07542  -0.00850   0.00000  -0.02648  -0.02641   2.04901
   A13        2.09004  -0.00187   0.00000  -0.00427  -0.00429   2.08575
   A14        2.04699   0.00071   0.00000   0.00653   0.00651   2.05350
   A15        2.14616   0.00116   0.00000  -0.00225  -0.00222   2.14394
   A16        2.10121  -0.00102   0.00000  -0.00383  -0.00384   2.09737
   A17        2.07978   0.00309   0.00000   0.01744   0.01745   2.09723
   A18        2.10219  -0.00208   0.00000  -0.01361  -0.01361   2.08858
   A19        2.17509  -0.00051   0.00000  -0.00409  -0.00418   2.17091
   A20        2.11308  -0.00282   0.00000  -0.01645  -0.01641   2.09667
   A21        1.99502   0.00334   0.00000   0.02054   0.02059   2.01560
   A22        2.03211   0.00607   0.00000   0.01308   0.01299   2.04510
   A23        2.16337   0.00236   0.00000   0.00617   0.00620   2.16956
   A24        2.00998   0.00002   0.00000   0.00411   0.00410   2.01408
   A25        2.10984  -0.00238   0.00000  -0.01028  -0.01029   2.09955
   A26        2.07339  -0.00013   0.00000   0.00481   0.00490   2.07829
   A27        2.11979  -0.00206   0.00000  -0.01518  -0.01522   2.10457
   A28        2.09001   0.00219   0.00000   0.01037   0.01032   2.10033
    D1       -0.00319   0.00005   0.00000   0.00220   0.00222  -0.00096
    D2        3.13899   0.00003   0.00000   0.00133   0.00135   3.14033
    D3        3.13924   0.00002   0.00000   0.00126   0.00128   3.14051
    D4       -0.00178   0.00000   0.00000   0.00039   0.00040  -0.00138
    D5       -0.00117   0.00002   0.00000   0.00117   0.00119   0.00002
    D6        3.14087  -0.00001   0.00000   0.00009   0.00010   3.14097
    D7        3.13960   0.00005   0.00000   0.00211   0.00213  -3.14145
    D8       -0.00156   0.00002   0.00000   0.00104   0.00105  -0.00051
    D9        0.00352  -0.00009   0.00000  -0.00292  -0.00291   0.00061
   D10       -3.13953  -0.00005   0.00000  -0.00140  -0.00138  -3.14091
   D11       -3.13865  -0.00006   0.00000  -0.00205  -0.00204  -3.14069
   D12        0.00148  -0.00002   0.00000  -0.00053  -0.00051   0.00097
   D13        0.00051   0.00001   0.00000   0.00015   0.00015   0.00065
   D14        3.14108   0.00001   0.00000   0.00063   0.00064  -3.14146
   D15       -3.13961  -0.00004   0.00000  -0.00142  -0.00140  -3.14101
   D16        0.00097  -0.00004   0.00000  -0.00093  -0.00091   0.00006
   D17       -0.00481   0.00009   0.00000   0.00325   0.00325  -0.00157
   D18        3.13658   0.00008   0.00000   0.00286   0.00286   3.13944
   D19        3.13776   0.00008   0.00000   0.00275   0.00275   3.14051
   D20       -0.00402   0.00006   0.00000   0.00236   0.00236  -0.00167
   D21       -3.13776  -0.00006   0.00000  -0.00248  -0.00248  -3.14024
   D22        0.00357  -0.00006   0.00000  -0.00208  -0.00208   0.00149
   D23        0.00282  -0.00006   0.00000  -0.00198  -0.00198   0.00084
   D24       -3.13904  -0.00005   0.00000  -0.00159  -0.00158  -3.14062
   D25        0.00518  -0.00012   0.00000  -0.00396  -0.00395   0.00124
   D26       -3.13686  -0.00009   0.00000  -0.00287  -0.00286  -3.13971
   D27       -3.13620  -0.00010   0.00000  -0.00355  -0.00354  -3.13974
   D28        0.00494  -0.00007   0.00000  -0.00245  -0.00245   0.00250
   D29        0.00241  -0.00002   0.00000  -0.00121  -0.00124   0.00118
   D30       -3.13740  -0.00007   0.00000  -0.00254  -0.00255  -3.13995
   D31       -3.13938  -0.00003   0.00000  -0.00162  -0.00164  -3.14102
   D32        0.00399  -0.00008   0.00000  -0.00295  -0.00295   0.00104
   D33        0.00057  -0.00001   0.00000  -0.00031  -0.00032   0.00025
   D34        3.14049   0.00003   0.00000   0.00091   0.00090   3.14140
   D35       -0.00198   0.00001   0.00000   0.00075   0.00077  -0.00121
   D36        3.14004   0.00001   0.00000   0.00067   0.00069   3.14073
   D37        0.00028  -0.00000   0.00000   0.00034   0.00036   0.00064
   D38       -3.14105  -0.00001   0.00000  -0.00004  -0.00003  -3.14108
   D39        3.14143   0.00000   0.00000   0.00043   0.00045  -3.14131
   D40        0.00010  -0.00000   0.00000   0.00005   0.00005   0.00015
         Item               Value     Threshold  Converged?
 Maximum Force            0.026899     0.000450     NO 
 RMS     Force            0.005805     0.000300     NO 
 Maximum Displacement     0.053163     0.001800     NO 
 RMS     Displacement     0.015874     0.001200     NO 
 Predicted change in Energy=-3.326411D-03
 GradGradGradGradGradGradGradGradGradGradGradGradGradGradGradGradGradGrad

 Leave Link  103 at Sun Oct  3 22:28:13 2021, MaxMem=  536870912 cpu:       0.9
 (Enter /sw/target/amd/app/gaussian/Gaussian09RevA.02_gcc-4.9.2/g09/l202.exe)
                          Input orientation:                          
 ---------------------------------------------------------------------
 Center     Atomic      Atomic             Coordinates (Angstroms)
 Number     Number       Type             X           Y           Z
 ---------------------------------------------------------------------
      1          6           0       -2.444697   -0.761262   -0.010054
      2          6           0       -2.492422    0.652273   -0.011143
      3          6           0       -1.329542    1.397408   -0.006541
      4          6           0       -0.067169    0.749940   -0.001383
      5          6           0       -0.021305   -0.682731   -0.001857
      6          6           0       -1.231584   -1.419696   -0.005507
      7          6           0        1.253428   -1.299600    0.000669
      8          7           0        2.404925   -0.640315    0.004727
      9          6           0        2.342936    0.715644    0.006844
     10          6           0        1.167837    1.441106    0.003673
     11          1           0       -3.366291   -1.336604   -0.012694
     12          1           0       -3.452262    1.161613   -0.015918
     13          1           0       -1.378788    2.483232   -0.006793
     14          1           0       -1.199890   -2.506303   -0.004099
     15          1           0        1.335266   -2.386060   -0.001138
     16          1           0        3.303977    1.226972    0.011016
     17          1           0        1.193421    2.527161    0.005176
 ---------------------------------------------------------------------
                    Distance matrix (angstroms):
                    1          2          3          4          5
     1  C    0.000000
     2  C    1.414340   0.000000
     3  C    2.429699   1.381136   0.000000
     4  C    2.817170   2.427239   1.418742   0.000000
     5  C    2.424678   2.808690   2.457334   1.433406   0.000000
     6  C    1.380290   2.425448   2.818808   2.462357   1.417006
     7  C    3.737118   4.223901   3.734387   2.438154   1.416149
     8  N    4.851153   5.065081   4.254256   2.836212   2.426610
     9  C    5.010286   4.835807   3.735248   2.410363   2.746846
    10  C    4.230959   3.744326   2.497783   1.415265   2.434086
    11  H    1.086444   2.172390   3.409282   3.903588   3.408313
    12  H    2.170868   1.086620   2.135797   3.410065   3.895288
    13  H    3.415101   2.143038   1.086940   2.173632   3.444722
    14  H    2.143537   3.412813   3.905865   3.447635   2.171286
    15  H    4.114385   4.886999   4.627728   3.435305   2.177524
    16  H    6.082826   5.824862   4.636686   3.404752   3.834662
    17  H    4.904065   4.135325   2.764385   2.178909   3.432058
                    6          7          8          9         10
     6  C    0.000000
     7  C    2.487920   0.000000
     8  N    3.719105   1.326883   0.000000
     9  C    4.163775   2.290911   1.357376   0.000000
    10  C    3.733832   2.742044   2.421301   1.381000   0.000000
    11  H    2.136335   4.619887   5.813094   6.066908   5.317355
    12  H    3.405096   5.310496   6.128133   5.812377   4.628588
    13  H    3.905704   4.608518   4.906441   4.120168   2.751625
    14  H    1.087070   2.734031   4.059148   4.788808   4.603068
    15  H    2.742735   1.089539   2.047397   3.261292   3.830829
    16  H    5.251328   3.253986   2.072460   1.088611   2.146858
    17  H    4.632326   3.827234   3.391260   2.145456   1.086358
                   11         12         13         14         15
    11  H    0.000000
    12  H    2.499698   0.000000
    13  H    4.305967   2.458873   0.000000
    14  H    2.462024   4.304292   4.992743   0.000000
    15  H    4.817274   5.958743   5.574596   2.538007   0.000000
    16  H    7.145975   6.756609   4.848381   5.849991   4.114604
    17  H    5.976619   4.842266   2.572612   5.573490   4.915272
                   16         17
    16  H    0.000000
    17  H    2.478906   0.000000
 Stoichiometry    C9H7N
 Framework group  C1[X(C9H7N)]
 Deg. of freedom    45
 Full point group                 C1      NOp   1
 Largest Abelian subgroup         C1      NOp   1
 Largest concise Abelian subgroup C1      NOp   1
                         Standard orientation:                         
 ---------------------------------------------------------------------
 Center     Atomic      Atomic             Coordinates (Angstroms)
 Number     Number       Type             X           Y           Z
 ---------------------------------------------------------------------
      1          6           0        2.414573   -0.705808   -0.000464
      2          6           0        2.417152    0.708529    0.001077
      3          6           0        1.231068    1.416162    0.000725
      4          6           0       -0.010003    0.728724   -0.000451
      5          6           0       -0.010104   -0.704682   -0.000444
      6          6           0        1.223090   -1.402634   -0.001200
      7          6           0       -1.264496   -1.361932    0.001068
      8          7           0       -2.436461   -0.739743    0.001184
      9          6           0       -2.417798    0.617504   -0.000554
     10          6           0       -1.266454    1.380111   -0.001037
     11          1           0        3.354068   -1.251435   -0.001186
     12          1           0        3.360253    1.248252    0.002832
     13          1           0        1.245626    2.503004    0.001282
     14          1           0        1.226096   -2.489698   -0.002973
     15          1           0       -1.311601   -2.450451    0.002680
     16          1           0       -3.394682    1.097891   -0.001259
     17          1           0       -1.326701    2.464796   -0.001982
 ---------------------------------------------------------------------
 Rotational constants (GHZ):      3.1905790      1.2361908      0.8909807
 Leave Link  202 at Sun Oct  3 22:28:14 2021, MaxMem=  536870912 cpu:       0.0
 (Enter /sw/target/amd/app/gaussian/Gaussian09RevA.02_gcc-4.9.2/g09/l301.exe)
 Standard basis: 6-31G(d) (6D, 7F)
 Ernie: Thresh=  0.10000D-02 Tol=  0.10000D-05 Strict=F.
 There are   164 symmetry adapted basis functions of A   symmetry.
 Integral buffers will be    131072 words long.
 Raffenetti 2 integral format.
 Two-electron integral symmetry is turned on.
   164 basis functions,   308 primitive gaussians,   164 cartesian basis functions
    34 alpha electrons       34 beta electrons
       nuclear repulsion energy       460.4675177447 Hartrees.
 IExCor=  402 DFT=T Ex+Corr=B3LYP ExCW=0 ScaHFX=  0.200000
 ScaDFX=  0.800000  0.720000  1.000000  0.810000 ScalE2=  1.000000  1.000000
 IRadAn=      0 IRanWt=     -1 IRanGd=            0 ICorTp=0
 NAtoms=   17 NActive=   17 NUniq=   17 SFac= 7.50D-01 NAtFMM=   80 NAOKFM=F Big=F
 Leave Link  301 at Sun Oct  3 22:28:14 2021, MaxMem=  536870912 cpu:       0.1
 (Enter /sw/target/amd/app/gaussian/Gaussian09RevA.02_gcc-4.9.2/g09/l302.exe)
 NPDir=0 NMtPBC=     1 NCelOv=     1 NCel=       1 NClECP=     1 NCelD=      1
         NCelK=      1 NCelE2=     1 NClLst=     1 CellRange=     0.0.
 One-electron integrals computed using PRISM.
 NBasis=   164 RedAO= T  NBF=   164
 NBsUse=   164 1.00D-06 NBFU=   164
 Precomputing XC quadrature grid using
 IXCGrd= 2 IRadAn=           0 IRanWt=          -1 IRanGd=           0 AccXCQ= 1.00D-10.
 NRdTot=    1059 NPtTot=      134716 NUsed=      142363 NTot=      142395
 NSgBfM=   164   164   164   164   164 NAtAll=    17    17.
 Leave Link  302 at Sun Oct  3 22:28:18 2021, MaxMem=  536870912 cpu:       0.9
 (Enter /sw/target/amd/app/gaussian/Gaussian09RevA.02_gcc-4.9.2/g09/l303.exe)
 DipDrv:  MaxL=1.
 Leave Link  303 at Sun Oct  3 22:28:19 2021, MaxMem=  536870912 cpu:       0.1
 (Enter /sw/target/amd/app/gaussian/Gaussian09RevA.02_gcc-4.9.2/g09/l401.exe)
 Initial guess read from the read-write file.
 B after Tr=     0.000000    0.000000    0.000000
         Rot=    1.000000    0.000000    0.000000    0.000000 Ang=   0.00 deg.
 Guess basis will be translated and rotated to current coordinates.
 Initial guess orbital symmetries:
       Occupied  (A) (A) (A) (A) (A) (A) (A) (A) (A) (A) (A) (A)
                 (A) (A) (A) (A) (A) (A) (A) (A) (A) (A) (A) (A)
                 (A) (A) (A) (A) (A) (A) (A) (A) (A) (A)
       Virtual   (A) (A) (A) (A) (A) (A) (A) (A) (A) (A) (A) (A)
                 (A) (A) (A) (A) (A) (A) (A) (A) (A) (A) (A) (A)
                 (A) (A) (A) (A) (A) (A) (A) (A) (A) (A) (A) (A)
                 (A) (A) (A) (A) (A) (A) (A) (A) (A) (A) (A) (A)
                 (A) (A) (A) (A) (A) (A) (A) (A) (A) (A) (A) (A)
                 (A) (A) (A) (A) (A) (A) (A) (A) (A) (A) (A) (A)
                 (A) (A) (A) (A) (A) (A) (A) (A) (A) (A) (A) (A)
                 (A) (A) (A) (A) (A) (A) (A) (A) (A) (A) (A) (A)
                 (A) (A) (A) (A) (A) (A) (A) (A) (A) (A) (A) (A)
                 (A) (A) (A) (A) (A) (A) (A) (A) (A) (A) (A) (A)
                 (A) (A) (A) (A) (A) (A) (A) (A) (A) (A)
 The electronic state of the initial guess is 1-A.
 Generating alternative initial guess.
 Harris functional with IExCor=  402 diagonalized for initial guess.
 ExpMin= 1.61D-01 ExpMax= 4.17D+03 ExpMxC= 6.27D+02 IAcc=1 IRadAn=         1 AccDes= 0.00D+00
 HarFok:  IExCor=  402 AccDes= 0.00D+00 IRadAn=         1 IDoV= 1
 ScaDFX=  1.000000  1.000000  1.000000  1.000000
 FoFCou: FMM=F IPFlag=           0 FMFlag=      100000 FMFlg1=           0
         NFxFlg=           0 DoJE=T BraDBF=F KetDBF=T FulRan=T
         Omega=  0.000000  0.000000  1.000000  0.000000  0.000000 ICntrl=     500 IOpCl=  0
         NMat0=    1 NMatS0=    1 NMatT0=    0 NMatD0=    1 NMtDS0=    0 NMtDT0=    0
         I1Cent=           4 NGrid=           0.
 Petite list used in FoFCou.
 Harris En= -401.966540946942    
 Leave Link  401 at Sun Oct  3 22:28:36 2021, MaxMem=  536870912 cpu:       4.3
 (Enter /sw/target/amd/app/gaussian/Gaussian09RevA.02_gcc-4.9.2/g09/l502.exe)
 Closed shell SCF:
 Requested convergence on RMS density matrix=1.00D-08 within  64 cycles.
 Requested convergence on MAX density matrix=1.00D-06.
 Requested convergence on             energy=1.00D-06.
 No special actions if energy rises.
 Using DIIS extrapolation, IDIIS=  1040.
 Integral symmetry usage will be decided dynamically.
       142197 words used for storage of precomputed grid.
 Keep R1 ints in memory in canonical form, NReq=94013852.
 IEnd=      230643 IEndB=      230643 NGot=   536870912 MDV=   445134311
 LenX=   445134311 LenY=   445106974
 Symmetry not used in FoFDir.
 MinBra= 0 MaxBra= 2 Meth= 1.
 IRaf=       0 NMat=   1 IRICut=       1 DoRegI=T DoRafI=F ISym2E= 0 JSym2E=0.
 Integral accuracy reduced to 1.0D-05 until final iterations.

 Cycle   1  Pass 0  IDiag  1:
 E= -401.927336352862    
 DIIS: error= 2.36D-03 at cycle   1 NSaved=   1.
 NSaved= 1 IEnMin= 1 EnMin= -401.927336352862     IErMin= 1 ErrMin= 2.36D-03
 ErrMax= 2.36D-03 EMaxC= 1.00D-01 BMatC= 9.30D-04 BMatP= 9.30D-04
 IDIUse=3 WtCom= 9.76D-01 WtEn= 2.36D-02
 Coeff-Com:  0.100D+01
 Coeff-En:   0.100D+01
 Coeff:      0.100D+01
 Gap=     0.175 Goal=   None    Shift=    0.000
 GapD=    0.175 DampG=1.000 DampE=1.000 DampFc=1.0000 IDamp=-1.
 RMSDP=5.22D-04 MaxDP=8.84D-03              OVMax= 1.62D-02

 Cycle   2  Pass 0  IDiag  1:
 E= -401.928572571530     Delta-E=       -0.001236218669 Rises=F Damp=F
 DIIS: error= 1.55D-03 at cycle   2 NSaved=   2.
 NSaved= 2 IEnMin= 2 EnMin= -401.928572571530     IErMin= 2 ErrMin= 1.55D-03
 ErrMax= 1.55D-03 EMaxC= 1.00D-01 BMatC= 3.23D-04 BMatP= 9.30D-04
 IDIUse=3 WtCom= 9.84D-01 WtEn= 1.55D-02
 Coeff-Com:  0.308D+00 0.692D+00
 Coeff-En:   0.000D+00 0.100D+01
 Coeff:      0.303D+00 0.697D+00
 Gap=     0.175 Goal=   None    Shift=    0.000
 RMSDP=2.14D-04 MaxDP=5.23D-03 DE=-1.24D-03 OVMax= 1.01D-02

 Cycle   3  Pass 0  IDiag  1:
 E= -401.928593580737     Delta-E=       -0.000021009206 Rises=F Damp=F
 DIIS: error= 1.69D-03 at cycle   3 NSaved=   3.
 NSaved= 3 IEnMin= 3 EnMin= -401.928593580737     IErMin= 2 ErrMin= 1.55D-03
 ErrMax= 1.69D-03 EMaxC= 1.00D-01 BMatC= 2.83D-04 BMatP= 3.23D-04
 IDIUse=3 WtCom= 9.83D-01 WtEn= 1.69D-02
 Coeff-Com:  0.979D-03 0.483D+00 0.516D+00
 Coeff-En:   0.000D+00 0.486D+00 0.514D+00
 Coeff:      0.962D-03 0.483D+00 0.516D+00
 Gap=     0.175 Goal=   None    Shift=    0.000
 RMSDP=1.32D-04 MaxDP=3.63D-03 DE=-2.10D-05 OVMax= 6.23D-03

 Cycle   4  Pass 0  IDiag  1:
 E= -401.928863647358     Delta-E=       -0.000270066622 Rises=F Damp=F
 DIIS: error= 4.35D-04 at cycle   4 NSaved=   4.
 NSaved= 4 IEnMin= 4 EnMin= -401.928863647358     IErMin= 4 ErrMin= 4.35D-04
 ErrMax= 4.35D-04 EMaxC= 1.00D-01 BMatC= 1.60D-05 BMatP= 2.83D-04
 IDIUse=3 WtCom= 9.96D-01 WtEn= 4.35D-03
 Coeff-Com: -0.143D-01 0.235D+00 0.306D+00 0.474D+00
 Coeff-En:   0.000D+00 0.000D+00 0.000D+00 0.100D+01
 Coeff:     -0.142D-01 0.234D+00 0.305D+00 0.476D+00
 Gap=     0.175 Goal=   None    Shift=    0.000
 RMSDP=3.00D-05 MaxDP=8.12D-04 DE=-2.70D-04 OVMax= 1.49D-03

 Cycle   5  Pass 0  IDiag  1:
 E= -401.928878823535     Delta-E=       -0.000015176177 Rises=F Damp=F
 DIIS: error= 8.04D-05 at cycle   5 NSaved=   5.
 NSaved= 5 IEnMin= 5 EnMin= -401.928878823535     IErMin= 5 ErrMin= 8.04D-05
 ErrMax= 8.04D-05 EMaxC= 1.00D-01 BMatC= 9.62D-07 BMatP= 1.60D-05
 IDIUse=1 WtCom= 1.00D+00 WtEn= 0.00D+00
 Coeff-Com: -0.619D-02 0.491D-01 0.884D-01 0.238D+00 0.631D+00
 Coeff:     -0.619D-02 0.491D-01 0.884D-01 0.238D+00 0.631D+00
 Gap=     0.175 Goal=   None    Shift=    0.000
 RMSDP=7.32D-06 MaxDP=1.37D-04 DE=-1.52D-05 OVMax= 3.63D-04

 Initial convergence to 1.0D-05 achieved.  Increase integral accuracy.
 Cycle   6  Pass 1  IDiag  1:
 E= -401.928803599120     Delta-E=        0.000075224415 Rises=F Damp=F
 DIIS: error= 5.16D-05 at cycle   1 NSaved=   1.
 NSaved= 1 IEnMin= 1 EnMin= -401.928803599120     IErMin= 1 ErrMin= 5.16D-05
 ErrMax= 5.16D-05 EMaxC= 1.00D-01 BMatC= 1.32D-07 BMatP= 1.32D-07
 IDIUse=1 WtCom= 1.00D+00 WtEn= 0.00D+00
 Coeff-Com:  0.100D+01
 Coeff:      0.100D+01
 Gap=     0.175 Goal=   None    Shift=    0.000
 RMSDP=7.32D-06 MaxDP=1.37D-04 DE= 7.52D-05 OVMax= 2.15D-04

 Cycle   7  Pass 1  IDiag  1:
 E= -401.928803686867     Delta-E=       -0.000000087747 Rises=F Damp=F
 DIIS: error= 3.33D-05 at cycle   2 NSaved=   2.
 NSaved= 2 IEnMin= 2 EnMin= -401.928803686867     IErMin= 2 ErrMin= 3.33D-05
 ErrMax= 3.33D-05 EMaxC= 1.00D-01 BMatC= 7.91D-08 BMatP= 1.32D-07
 IDIUse=1 WtCom= 1.00D+00 WtEn= 0.00D+00
 Coeff-Com:  0.408D+00 0.592D+00
 Coeff:      0.408D+00 0.592D+00
 Gap=     0.175 Goal=   None    Shift=    0.000
 RMSDP=3.51D-06 MaxDP=7.54D-05 DE=-8.77D-08 OVMax= 2.42D-04

 Cycle   8  Pass 1  IDiag  1:
 E= -401.928803723750     Delta-E=       -0.000000036883 Rises=F Damp=F
 DIIS: error= 2.75D-05 at cycle   3 NSaved=   3.
 NSaved= 3 IEnMin= 3 EnMin= -401.928803723750     IErMin= 3 ErrMin= 2.75D-05
 ErrMax= 2.75D-05 EMaxC= 1.00D-01 BMatC= 4.84D-08 BMatP= 7.91D-08
 IDIUse=1 WtCom= 1.00D+00 WtEn= 0.00D+00
 Coeff-Com: -0.670D-02 0.439D+00 0.568D+00
 Coeff:     -0.670D-02 0.439D+00 0.568D+00
 Gap=     0.175 Goal=   None    Shift=    0.000
 RMSDP=1.62D-06 MaxDP=4.20D-05 DE=-3.69D-08 OVMax= 1.07D-04

 Cycle   9  Pass 1  IDiag  1:
 E= -401.928803779754     Delta-E=       -0.000000056004 Rises=F Damp=F
 DIIS: error= 1.84D-06 at cycle   4 NSaved=   4.
 NSaved= 4 IEnMin= 4 EnMin= -401.928803779754     IErMin= 4 ErrMin= 1.84D-06
 ErrMax= 1.84D-06 EMaxC= 1.00D-01 BMatC= 8.18D-10 BMatP= 4.84D-08
 IDIUse=1 WtCom= 1.00D+00 WtEn= 0.00D+00
 Coeff-Com: -0.129D-01 0.212D+00 0.290D+00 0.511D+00
 Coeff:     -0.129D-01 0.212D+00 0.290D+00 0.511D+00
 Gap=     0.175 Goal=   None    Shift=    0.000
 RMSDP=2.37D-07 MaxDP=6.96D-06 DE=-5.60D-08 OVMax= 9.75D-06

 Cycle  10  Pass 1  IDiag  1:
 E= -401.928803780396     Delta-E=       -0.000000000642 Rises=F Damp=F
 DIIS: error= 7.68D-07 at cycle   5 NSaved=   5.
 NSaved= 5 IEnMin= 5 EnMin= -401.928803780396     IErMin= 5 ErrMin= 7.68D-07
 ErrMax= 7.68D-07 EMaxC= 1.00D-01 BMatC= 1.33D-10 BMatP= 8.18D-10
 IDIUse=1 WtCom= 1.00D+00 WtEn= 0.00D+00
 Coeff-Com: -0.739D-02 0.853D-01 0.121D+00 0.315D+00 0.487D+00
 Coeff:     -0.739D-02 0.853D-01 0.121D+00 0.315D+00 0.487D+00
 Gap=     0.175 Goal=   None    Shift=    0.000
 RMSDP=8.41D-08 MaxDP=2.12D-06 DE=-6.42D-10 OVMax= 3.39D-06

 Cycle  11  Pass 1  IDiag  1:
 E= -401.928803780522     Delta-E=       -0.000000000126 Rises=F Damp=F
 DIIS: error= 2.82D-07 at cycle   6 NSaved=   6.
 NSaved= 6 IEnMin= 6 EnMin= -401.928803780522     IErMin= 6 ErrMin= 2.82D-07
 ErrMax= 2.82D-07 EMaxC= 1.00D-01 BMatC= 5.56D-12 BMatP= 1.33D-10
 IDIUse=1 WtCom= 1.00D+00 WtEn= 0.00D+00
 Coeff-Com: -0.274D-02 0.275D-01 0.398D-01 0.113D+00 0.234D+00 0.589D+00
 Coeff:     -0.274D-02 0.275D-01 0.398D-01 0.113D+00 0.234D+00 0.589D+00
 Gap=     0.175 Goal=   None    Shift=    0.000
 RMSDP=2.17D-08 MaxDP=5.98D-07 DE=-1.26D-10 OVMax= 1.21D-06

 Cycle  12  Pass 1  IDiag  1:
 E= -401.928803780522     Delta-E=        0.000000000000 Rises=F Damp=F
 DIIS: error= 9.46D-08 at cycle   7 NSaved=   7.
 NSaved= 7 IEnMin= 6 EnMin= -401.928803780522     IErMin= 7 ErrMin= 9.46D-08
 ErrMax= 9.46D-08 EMaxC= 1.00D-01 BMatC= 1.20D-12 BMatP= 5.56D-12
 IDIUse=1 WtCom= 1.00D+00 WtEn= 0.00D+00
 Coeff-Com: -0.221D-03 0.595D-03 0.111D-02 0.347D-02 0.367D-01 0.342D+00
 Coeff-Com:  0.617D+00
 Coeff:     -0.221D-03 0.595D-03 0.111D-02 0.347D-02 0.367D-01 0.342D+00
 Coeff:      0.617D+00
 Gap=     0.175 Goal=   None    Shift=    0.000
 RMSDP=8.11D-09 MaxDP=2.12D-07 DE= 2.27D-13 OVMax= 5.25D-07

 SCF Done:  E(RB3LYP) =  -401.928803781     A.U. after   12 cycles
             Convg  =    0.8105D-08             -V/T =  2.0098
 KE= 3.980321706909D+02 PE=-1.852126367607D+03 EE= 5.916978753911D+02
 Leave Link  502 at Sun Oct  3 22:33:11 2021, MaxMem=  536870912 cpu:      74.6
 (Enter /sw/target/amd/app/gaussian/Gaussian09RevA.02_gcc-4.9.2/g09/l508.exe)
 QCSCF skips out because SCF is already converged.
 Leave Link  508 at Sun Oct  3 22:33:11 2021, MaxMem=  536870912 cpu:       0.0
 (Enter /sw/target/amd/app/gaussian/Gaussian09RevA.02_gcc-4.9.2/g09/l701.exe)
 Compute integral first derivatives.
 ... and contract with generalized density number  0.
 Leave Link  701 at Sun Oct  3 22:33:13 2021, MaxMem=  536870912 cpu:       0.4
 (Enter /sw/target/amd/app/gaussian/Gaussian09RevA.02_gcc-4.9.2/g09/l702.exe)
 L702 exits ... SP integral derivatives will be done elsewhere.
 Leave Link  702 at Sun Oct  3 22:33:13 2021, MaxMem=  536870912 cpu:       0.1
 (Enter /sw/target/amd/app/gaussian/Gaussian09RevA.02_gcc-4.9.2/g09/l703.exe)
 Compute integral first derivatives, UseDBF=F ICtDFT=           0.
 Integral derivatives from FoFDir, PRISM(SPDF).
 Calling FoFJK, ICntrl=      2127 FMM=F ISym2X=0 I1Cent= 0 IOpClX= 0 NMat=1 NMatS=1 NMatT=0.
 FoFCou: FMM=F IPFlag=           0 FMFlag=      100000 FMFlg1=         800
         NFxFlg=           0 DoJE=F BraDBF=F KetDBF=F FulRan=T
         Omega=  0.000000  0.000000  1.000000  0.000000  0.000000 ICntrl=    2127 IOpCl=  0
         NMat0=    1 NMatS0=    1 NMatT0=    0 NMatD0=    1 NMtDS0=    0 NMtDT0=    0
         I1Cent=           0 NGrid=           0.
 Symmetry not used in FoFCou.
 Leave Link  703 at Sun Oct  3 22:35:15 2021, MaxMem=  536870912 cpu:      36.2
 (Enter /sw/target/amd/app/gaussian/Gaussian09RevA.02_gcc-4.9.2/g09/l716.exe)
 Dipole        = 9.41538901D-01 3.67747521D-01-7.59899255D-04
 ***** Axes restored to original set *****
 -------------------------------------------------------------------
 Center     Atomic                   Forces (Hartrees/Bohr)
 Number     Number              X              Y              Z
 -------------------------------------------------------------------
      1        6           0.002225314   -0.004493106    0.000019049
      2        6           0.002940385    0.004184944   -0.000013190
      3        6          -0.004850781   -0.002853362    0.000018171
      4        6          -0.000598003   -0.000349230   -0.000033900
      5        6          -0.001715519    0.002088138   -0.000033294
      6        6          -0.004573092    0.002016034    0.000011291
      7        6           0.011878536    0.004088107    0.000060320
      8        7          -0.006984439   -0.005163342   -0.000002394
      9        6          -0.001519699    0.004681968   -0.000010916
     10        6           0.005027113   -0.003491127    0.000025545
     11        1          -0.000592399    0.000863013   -0.000016278
     12        1          -0.000506145   -0.000776856    0.000034951
     13        1           0.001228335    0.000080001   -0.000002731
     14        1           0.001111541   -0.000090171   -0.000046091
     15        1          -0.002251710   -0.000861135    0.000018447
     16        1          -0.000193492   -0.000152696   -0.000009479
     17        1          -0.000625946    0.000228821   -0.000019502
 -------------------------------------------------------------------
 Cartesian Forces:  Max     0.011878536 RMS     0.002875590
 Leave Link  716 at Sun Oct  3 22:35:15 2021, MaxMem=  536870912 cpu:       0.1
 (Enter /sw/target/amd/app/gaussian/Gaussian09RevA.02_gcc-4.9.2/g09/l103.exe)

 GradGradGradGradGradGradGradGradGradGradGradGradGradGradGradGradGradGrad
 Berny optimization.
 Using GEDIIS/GDIIS optimizer.
 Internal  Forces:  Max     0.007065751 RMS     0.001239913
 Search for a local minimum.
 Step number   2 out of a maximum of   96
 All quantities printed in internal units (Hartrees-Bohrs-Radians)
 RMS Force = .12399D-02 SwitMx=.10000D-02 MixMth= 1
 Mixed Optimization -- RFO/linear search
 Update second derivatives using D2CorX and points    1    2
 DE= -3.74D-03 DEPred=-3.33D-03 R= 1.12D+00
 SS=  1.41D+00  RLast= 1.27D-01 DXNew= 5.0454D-01 3.8165D-01
 Trust test= 1.12D+00 RLast= 1.27D-01 DXMaxT set to 3.82D-01
 Use linear search instead of GDIIS.
     Eigenvalues ---    0.02023   0.02039   0.02047   0.02079   0.02081
     Eigenvalues ---    0.02084   0.02152   0.02155   0.02167   0.02177
     Eigenvalues ---    0.02180   0.02185   0.02295   0.02313   0.14901
     Eigenvalues ---    0.16000   0.16000   0.16000   0.16000   0.16000
     Eigenvalues ---    0.16155   0.21969   0.22166   0.22621   0.23334
     Eigenvalues ---    0.24403   0.24677   0.35058   0.35074   0.35107
     Eigenvalues ---    0.35148   0.35158   0.35262   0.35427   0.39731
     Eigenvalues ---    0.41363   0.41776   0.42822   0.44320   0.45579
     Eigenvalues ---    0.45784   0.46587   0.48672   0.51215   0.53607
     Eigenvalues --- 1000.000001000.000001000.000001000.000001000.00000
     Eigenvalues --- 1000.000001000.000001000.000001000.000001000.00000
     Eigenvalues --- 1000.000001000.000001000.000001000.000001000.00000
     Eigenvalues --- 1000.000001000.000001000.000001000.000001000.00000
     Eigenvalues --- 1000.000001000.000001000.000001000.000001000.00000
[...]
    10  C   -0.000440   0.009114  -0.100706   0.399201  -0.024087   0.014220
    11  H    0.356948  -0.040201   0.004397   0.001016   0.003337  -0.039863
    12  H   -0.040990   0.355927  -0.039575   0.003248   0.001070   0.004578
    13  H    0.004745  -0.045609   0.356784  -0.043885   0.004754   0.000503
    14  H   -0.042473   0.004572   0.000643   0.004705  -0.042436   0.352561
    15  H    0.000147   0.000013  -0.000150   0.004227  -0.023049  -0.008262
    16  H   -0.000000   0.000003  -0.000141   0.002200   0.001044   0.000002
    17  H    0.000019   0.000073  -0.007602  -0.028169   0.005261  -0.000206
              7          8          9         10         11         12
     1  C    0.007978  -0.000203   0.000082  -0.000440   0.356948  -0.040990
     2  C   -0.000195   0.000025  -0.000423   0.009114  -0.040201   0.355927
     3  C    0.012799  -0.000060   0.008713  -0.100706   0.004397  -0.039575
     4  C   -0.026904  -0.044358   0.012136   0.399201   0.001016   0.003248
     5  C    0.425286   0.024912  -0.037302  -0.024087   0.003337   0.001070
     6  C   -0.097842   0.005770  -0.000772   0.014220  -0.039863   0.004578
     7  C    5.217694   0.274641  -0.070903  -0.052329  -0.000187   0.000008
     8  N    0.274641   6.784771   0.379603  -0.011582   0.000001   0.000000
     9  C   -0.070903   0.379603   4.863351   0.489959  -0.000000   0.000003
    10  C   -0.052329  -0.011582   0.489959   5.186152   0.000007  -0.000178
    11  H   -0.000187   0.000001  -0.000000   0.000007   0.601896  -0.005085
    12  H    0.000008   0.000000   0.000003  -0.000178  -0.005085   0.606726
    13  H   -0.000190  -0.000008   0.000174  -0.009142  -0.000192  -0.005679
    14  H   -0.008558   0.000098   0.000004  -0.000205  -0.005864  -0.000190
    15  H    0.352061  -0.049221   0.003954   0.000708  -0.000012   0.000000
    16  H    0.004195  -0.045967   0.358173  -0.024133  -0.000000  -0.000000
    17  H   -0.000105   0.003513  -0.049627   0.365884  -0.000000  -0.000006
             13         14         15         16         17
     1  C    0.004745  -0.042473   0.000147  -0.000000   0.000019
     2  C   -0.045609   0.004572   0.000013   0.000003   0.000073
     3  C    0.356784   0.000643  -0.000150  -0.000141  -0.007602
     4  C   -0.043885   0.004705   0.004227   0.002200  -0.028169
     5  C    0.004754  -0.042436  -0.023049   0.001044   0.005261
     6  C    0.000503   0.352561  -0.008262   0.000002  -0.000206
     7  C   -0.000190  -0.008558   0.352061   0.004195  -0.000105
     8  N   -0.000008   0.000098  -0.049221  -0.045967   0.003513
     9  C    0.000174   0.000004   0.003954   0.358173  -0.049627
    10  C   -0.009142  -0.000205   0.000708  -0.024133   0.365884
    11  H   -0.000192  -0.005864  -0.000012  -0.000000  -0.000000
    12  H   -0.005679  -0.000190   0.000000  -0.000000  -0.000006
    13  H    0.616237   0.000019   0.000002  -0.000010   0.005251
    14  H    0.000019   0.614141   0.005743  -0.000000   0.000002
    15  H    0.000002   0.005743   0.544004  -0.000320   0.000010
    16  H   -0.000010  -0.000000  -0.000320   0.541136  -0.005485
    17  H    0.005251   0.000002   0.000010  -0.005485   0.563683
 Mulliken atomic charges:
              1
     1  C   -0.133187
     2  C   -0.138926
     3  C   -0.214587
     4  C    0.169385
     5  C    0.137047
     6  C   -0.225164
     7  C   -0.037451
     8  N   -0.321935
     9  C    0.042875
    10  C   -0.242442
    11  H    0.123804
    12  H    0.120142
    13  H    0.116246
    14  H    0.117238
    15  H    0.170144
    16  H    0.169303
    17  H    0.147506
 Sum of Mulliken atomic charges =  -0.00000
 Mulliken charges with hydrogens summed into heavy atoms:
              1
     1  C   -0.009383
     2  C   -0.018783
     3  C   -0.098340
     4  C    0.169385
     5  C    0.137047
     6  C   -0.107926
     7  C    0.132693
     8  N   -0.321935
     9  C    0.212178
    10  C   -0.094936
 Sum of Mulliken charges with hydrogens summed into heavy atoms =  -0.00000
 Electronic spatial extent (au):  <R**2>=           1257.0337
 Charge=              0.0000 electrons
 Dipole moment (field-independent basis, Debye):
    X=              1.6963    Y=             -0.1793    Z=              0.0000  Tot=              1.7058
 Quadrupole moment (field-independent basis, Debye-Ang):
   XX=            -50.3719   YY=            -50.4848   ZZ=            -61.9699
   XY=              0.8167   XZ=             -0.0001   YZ=              0.0000
 Traceless Quadrupole moment (field-independent basis, Debye-Ang):
   XX=              3.9036   YY=              3.7907   ZZ=             -7.6943
   XY=              0.8167   XZ=             -0.0001   YZ=              0.0000
 Octapole moment (field-independent basis, Debye-Ang**2):
  XXX=             12.2842  YYY=             -3.0302  ZZZ=              0.0001  XYY=              4.9334
  XXY=              3.8307  XXZ=              0.0003  XZZ=              2.9964  YZZ=             -0.8820
  YYZ=              0.0001  XYZ=             -0.0005
 Hexadecapole moment (field-independent basis, Debye-Ang**3):
 XXXX=          -1035.2677 YYYY=           -456.4005 ZZZZ=            -63.6305 XXXY=             18.2450
 XXXZ=             -0.0009 YYYX=             -4.6247 YYYZ=              0.0000 ZZZX=              0.0001
 ZZZY=              0.0000 XXYY=           -253.3213 XXZZ=           -220.9123 YYZZ=           -104.9500
 XXYZ=              0.0005 YYXZ=              0.0002 ZZXY=             -1.8185
 N-N= 4.605901214966D+02 E-N=-1.852126985521D+03  KE= 3.979723866055D+02
 No NMR shielding tensors so no spin-rotation constants.
 Leave Link  601 at Mon Oct  4 02:44:55 2021, MaxMem=  536870912 cpu:       0.5
 (Enter /sw/target/amd/app/gaussian/Gaussian09RevA.02_gcc-4.9.2/g09/l604.exe)
 Evaluate density.
 Using the total density.
 Monte-Carlo method of calculating molar volume:
 based on  0.001 e/bohr**3 density envelope.
 Number of points per bohr**3 =   20 CutOff= 1.00D-04
 Using the CI density.
 There are       348 points.  Will hold       348 in memory.
 LenV=   536785388 MDV=   536870912.
 Box volume = 5296.802 fraction occupied=0.184
 Integrated density= 4.7086410789081413D+01 error=-2.0913589210918587D+01
 Molar volume =  974.125 bohr**3/mol ( 86.930 cm**3/mol)
 Recommended a0 for SCRF calculation =  4.08 angstrom (  7.71 bohr)
 Leave Link  604 at Mon Oct  4 02:44:56 2021, MaxMem=  536870912 cpu:       0.2
 (Enter /sw/target/amd/app/gaussian/Gaussian09RevA.02_gcc-4.9.2/g09/l607.exe)
 ******************************Gaussian NBO Version 3.1******************************
             N A T U R A L   A T O M I C   O R B I T A L   A N D
          N A T U R A L   B O N D   O R B I T A L   A N A L Y S I S
 ******************************Gaussian NBO Version 3.1******************************
       /RESON  / : Allow strongly delocalized NBO set

 Analyzing the CI density

 Job title: c1ccc2c(c1)cncc2_conf_0                                         

 Storage needed:     81736 in NPA ( 536869331 available)


 NATURAL POPULATIONS:  Natural atomic orbital occupancies 
                                                          
   NAO  Atom  No  lang   Type(AO)    Occupancy
 --------------------------------------------
     1    C    1  S      Cor( 1S)     1.99910
     2    C    1  S      Val( 2S)     0.95840
     3    C    1  S      Ryd( 3S)     0.00055
     4    C    1  S      Ryd( 4S)     0.00003
     5    C    1  px     Val( 2p)     1.15990
     6    C    1  px     Ryd( 3p)     0.00493
     7    C    1  py     Val( 2p)     1.09174
     8    C    1  py     Ryd( 3p)     0.00464
     9    C    1  pz     Val( 2p)     1.00984
    10    C    1  pz     Ryd( 3p)     0.00102
    11    C    1  dxy    Ryd( 3d)     0.00082
    12    C    1  dxz    Ryd( 3d)     0.00049
    13    C    1  dyz    Ryd( 3d)     0.00059
    14    C    1  dx2y2  Ryd( 3d)     0.00065
    15    C    1  dz2    Ryd( 3d)     0.00044

    16    C    2  S      Cor( 1S)     1.99911
    17    C    2  S      Val( 2S)     0.95700
    18    C    2  S      Ryd( 3S)     0.00053
    19    C    2  S      Ryd( 4S)     0.00003
    20    C    2  px     Val( 2p)     1.16400
    21    C    2  px     Ryd( 3p)     0.00491
    22    C    2  py     Val( 2p)     1.08790
    23    C    2  py     Ryd( 3p)     0.00463
    24    C    2  pz     Val( 2p)     1.01581
    25    C    2  pz     Ryd( 3p)     0.00146
    26    C    2  dxy    Ryd( 3d)     0.00082
    27    C    2  dxz    Ryd( 3d)     0.00047
    28    C    2  dyz    Ryd( 3d)     0.00054
    29    C    2  dx2y2  Ryd( 3d)     0.00065
    30    C    2  dz2    Ryd( 3d)     0.00044

    31    C    3  S      Cor( 1S)     1.99904
    32    C    3  S      Val( 2S)     0.94015
    33    C    3  S      Ryd( 3S)     0.00064
    34    C    3  S      Ryd( 4S)     0.00004
    35    C    3  px     Val( 2p)     1.04475
    36    C    3  px     Ryd( 3p)     0.00412
    37    C    3  py     Val( 2p)     1.19055
    38    C    3  py     Ryd( 3p)     0.00473
    39    C    3  pz     Val( 2p)     1.09334
    40    C    3  pz     Ryd( 3p)     0.00196
    41    C    3  dxy    Ryd( 3d)     0.00061
    42    C    3  dxz    Ryd( 3d)     0.00046
    43    C    3  dyz    Ryd( 3d)     0.00031
    44    C    3  dx2y2  Ryd( 3d)     0.00083
    45    C    3  dz2    Ryd( 3d)     0.00042

    46    C    4  S      Cor( 1S)     1.99901
    47    C    4  S      Val( 2S)     0.86889
    48    C    4  S      Ryd( 3S)     0.00041
    49    C    4  S      Ryd( 4S)     0.00006
    50    C    4  px     Val( 2p)     1.09999
    51    C    4  px     Ryd( 3p)     0.00487
    52    C    4  py     Val( 2p)     1.07511
    53    C    4  py     Ryd( 3p)     0.00558
    54    C    4  pz     Val( 2p)     0.95157
    55    C    4  pz     Ryd( 3p)     0.00046
    56    C    4  dxy    Ryd( 3d)     0.00060
    57    C    4  dxz    Ryd( 3d)     0.00115
    58    C    4  dyz    Ryd( 3d)     0.00043
    59    C    4  dx2y2  Ryd( 3d)     0.00076
    60    C    4  dz2    Ryd( 3d)     0.00035

    61    C    5  S      Cor( 1S)     1.99896
    62    C    5  S      Val( 2S)     0.87715
    63    C    5  S      Ryd( 3S)     0.00046
    64    C    5  S      Ryd( 4S)     0.00006
    65    C    5  px     Val( 2p)     1.06957
    66    C    5  px     Ryd( 3p)     0.00489
    67    C    5  py     Val( 2p)     1.07912
    68    C    5  py     Ryd( 3p)     0.00509
    69    C    5  pz     Val( 2p)     1.02042
    70    C    5  pz     Ryd( 3p)     0.00022
    71    C    5  dxy    Ryd( 3d)     0.00065
    72    C    5  dxz    Ryd( 3d)     0.00115
    73    C    5  dyz    Ryd( 3d)     0.00047
    74    C    5  dx2y2  Ryd( 3d)     0.00070
    75    C    5  dz2    Ryd( 3d)     0.00037

    76    C    6  S      Cor( 1S)     1.99904
    77    C    6  S      Val( 2S)     0.93840
    78    C    6  S      Ryd( 3S)     0.00065
    79    C    6  S      Ryd( 4S)     0.00003
    80    C    6  px     Val( 2p)     1.04180
    81    C    6  px     Ryd( 3p)     0.00411
    82    C    6  py     Val( 2p)     1.19023
    83    C    6  py     Ryd( 3p)     0.00460
    84    C    6  pz     Val( 2p)     1.09359
    85    C    6  pz     Ryd( 3p)     0.00221
    86    C    6  dxy    Ryd( 3d)     0.00059
    87    C    6  dxz    Ryd( 3d)     0.00048
    88    C    6  dyz    Ryd( 3d)     0.00030
    89    C    6  dx2y2  Ryd( 3d)     0.00082
    90    C    6  dz2    Ryd( 3d)     0.00043

    91    C    7  S      Cor( 1S)     1.99913
    92    C    7  S      Val( 2S)     0.91850
    93    C    7  S      Ryd( 3S)     0.00196
    94    C    7  S      Ryd( 4S)     0.00013
    95    C    7  px     Val( 2p)     0.90310
    96    C    7  px     Ryd( 3p)     0.00620
    97    C    7  py     Val( 2p)     1.14634
    98    C    7  py     Ryd( 3p)     0.00444
    99    C    7  pz     Val( 2p)     1.10644
   100    C    7  pz     Ryd( 3p)     0.00473
   101    C    7  dxy    Ryd( 3d)     0.00092
   102    C    7  dxz    Ryd( 3d)     0.00134
   103    C    7  dyz    Ryd( 3d)     0.00049
   104    C    7  dx2y2  Ryd( 3d)     0.00115
   105    C    7  dz2    Ryd( 3d)     0.00053

   106    N    8  S      Cor( 1S)     1.99892
   107    N    8  S      Val( 2S)     1.27155
   108    N    8  S      Ryd( 3S)     0.00020
   109    N    8  S      Ryd( 4S)     0.00000
   110    N    8  px     Val( 2p)     1.13549
   111    N    8  px     Ryd( 3p)     0.00354
   112    N    8  py     Val( 2p)     1.19130
   113    N    8  py     Ryd( 3p)     0.00311
   114    N    8  pz     Val( 2p)     1.49013
   115    N    8  pz     Ryd( 3p)     0.00196
   116    N    8  dxy    Ryd( 3d)     0.00019
   117    N    8  dxz    Ryd( 3d)     0.00116
   118    N    8  dyz    Ryd( 3d)     0.00136
   119    N    8  dx2y2  Ryd( 3d)     0.00068
   120    N    8  dz2    Ryd( 3d)     0.00009

   121    C    9  S      Cor( 1S)     1.99907
   122    C    9  S      Val( 2S)     0.93991
   123    C    9  S      Ryd( 3S)     0.00121
   124    C    9  S      Ryd( 4S)     0.00008
   125    C    9  px     Val( 2p)     1.17195
   126    C    9  px     Ryd( 3p)     0.00521
   127    C    9  py     Val( 2p)     0.89777
   128    C    9  py     Ryd( 3p)     0.00565
   129    C    9  pz     Val( 2p)     1.03221
   130    C    9  pz     Ryd( 3p)     0.00182
   131    C    9  dxy    Ryd( 3d)     0.00086
   132    C    9  dxz    Ryd( 3d)     0.00060
   133    C    9  dyz    Ryd( 3d)     0.00171
   134    C    9  dx2y2  Ryd( 3d)     0.00133
   135    C    9  dz2    Ryd( 3d)     0.00056

   136    C   10  S      Cor( 1S)     1.99900
   137    C   10  S      Val( 2S)     0.94921
   138    C   10  S      Ryd( 3S)     0.00066
   139    C   10  S      Ryd( 4S)     0.00004
   140    C   10  px     Val( 2p)     1.02469
   141    C   10  px     Ryd( 3p)     0.00412
   142    C   10  py     Val( 2p)     1.19203
   143    C   10  py     Ryd( 3p)     0.00413
   144    C   10  pz     Val( 2p)     1.15426
   145    C   10  pz     Ryd( 3p)     0.00351
   146    C   10  dxy    Ryd( 3d)     0.00064
   147    C   10  dxz    Ryd( 3d)     0.00048
   148    C   10  dyz    Ryd( 3d)     0.00039
   149    C   10  dx2y2  Ryd( 3d)     0.00067
   150    C   10  dz2    Ryd( 3d)     0.00046

   151    H   11  S      Val( 1S)     0.76295
   152    H   11  S      Ryd( 2S)     0.00077

   153    H   12  S      Val( 1S)     0.76608
   154    H   12  S      Ryd( 2S)     0.00079

   155    H   13  S      Val( 1S)     0.76856
   156    H   13  S      Ryd( 2S)     0.00098

   157    H   14  S      Val( 1S)     0.76905
   158    H   14  S      Ryd( 2S)     0.00094

   159    H   15  S      Val( 1S)     0.74805
   160    H   15  S      Ryd( 2S)     0.00080

   161    H   16  S      Val( 1S)     0.74796
   162    H   16  S      Ryd( 2S)     0.00055

   163    H   17  S      Val( 1S)     0.74338
   164    H   17  S      Ryd( 2S)     0.00064

 WARNING:  1 low occupancy (<1.9990e) core orbital  found on  C    5
           1 low occupancy (<1.9990e) core orbital  found on  N    8


 Summary of Natural Population Analysis:                  
                                                          
                                       Natural Population 
                Natural  -----------------------------------------------
    Atom  No    Charge         Core      Valence    Rydberg      Total
 -----------------------------------------------------------------------
      C    1   -0.23311      1.99910     4.21987    0.01414     6.23311
      C    2   -0.23829      1.99911     4.22471    0.01448     6.23829
      C    3   -0.28196      1.99904     4.26879    0.01412     6.28196
      C    4   -0.00923      1.99901     3.99556    0.01466     6.00923
      C    5   -0.05928      1.99896     4.04626    0.01405     6.05928
      C    6   -0.27728      1.99904     4.26403    0.01422     6.27728
      C    7   -0.09542      1.99913     4.07438    0.02191     6.09542
      N    8   -0.09969      1.99892     5.08847    0.01230     7.09969
      C    9   -0.05993      1.99907     4.04185    0.01902     6.05993
      C   10   -0.33430      1.99900     4.32019    0.01511     6.33430
      H   11    0.23628      0.00000     0.76295    0.00077     0.76372
      H   12    0.23313      0.00000     0.76608    0.00079     0.76687
      H   13    0.23045      0.00000     0.76856    0.00098     0.76955
      H   14    0.23000      0.00000     0.76905    0.00094     0.77000
      H   15    0.25115      0.00000     0.74805    0.00080     0.74885
      H   16    0.25148      0.00000     0.74796    0.00055     0.74852
      H   17    0.25598      0.00000     0.74338    0.00064     0.74402
 =======================================================================
   * Total *   -0.00000     19.99038    47.85014    0.15948    68.00000

                                 Natural Population      
 --------------------------------------------------------
   Core                      19.99038 ( 99.9519% of  20)
   Valence                   47.85014 ( 99.6878% of  48)
   Natural Minimal Basis     67.84052 ( 99.7655% of  68)
   Natural Rydberg Basis      0.15948 (  0.2345% of  68)
 --------------------------------------------------------

    Atom  No          Natural Electron Configuration
 ----------------------------------------------------------------------------
      C    1      [core]2S( 0.96)2p( 3.26)3p( 0.01)
      C    2      [core]2S( 0.96)2p( 3.27)3p( 0.01)
      C    3      [core]2S( 0.94)2p( 3.33)3p( 0.01)
      C    4      [core]2S( 0.87)2p( 3.13)3p( 0.01)
      C    5      [core]2S( 0.88)2p( 3.17)3p( 0.01)
      C    6      [core]2S( 0.94)2p( 3.33)3p( 0.01)
      C    7      [core]2S( 0.92)2p( 3.16)3p( 0.02)
      N    8      [core]2S( 1.27)2p( 3.82)3p( 0.01)
      C    9      [core]2S( 0.94)2p( 3.10)3p( 0.01)3d( 0.01)
      C   10      [core]2S( 0.95)2p( 3.37)3p( 0.01)
      H   11            1S( 0.76)
      H   12            1S( 0.77)
      H   13            1S( 0.77)
      H   14            1S( 0.77)
      H   15            1S( 0.75)
      H   16            1S( 0.75)
      H   17            1S( 0.74)


 NBO analysis skipped by request.
 Leave Link  607 at Mon Oct  4 02:45:23 2021, MaxMem=  536870912 cpu:       7.7
 (Enter /sw/target/amd/app/gaussian/Gaussian09RevA.02_gcc-4.9.2/g09/l9999.exe)
 1\1\GINC-HERMITE\SP\RTD-B3LYP-FC\6-31G(d)\C9H7N1\JSCHLEINITZ\04-Oct-20
 21\0\\#p TD(NStates=10, Root=1) b3lyp/6-31G* volume pop=NPA density=cu
 rrent Geom=AllCheck Guess=Read\\c1ccc2c(c1)cncc2_conf_0\\0,1\C,0,-2.44
 4574898,-0.7652729486,-0.0106500231\C,0,-2.4923140546,0.6521759549,-0.
 0102689256\C,0,-1.333267075,1.3957680535,-0.0059792672\C,0,-0.06797799
 42,0.7505783448,-0.0018358536\C,0,-0.0222151162,-0.6771664753,-0.00219
 43642\C,0,-1.2323993877,-1.4175840219,-0.0066914155\C,0,1.2591763408,-
 1.2948701297,0.0020782003\N,0,2.4031154862,-0.6429457142,0.0062900261\
 C,0,2.3450608829,0.7183089691,0.0065289663\C,0,1.1728610465,1.43838674
 54,0.0027150036\H,0,-3.3713239385,-1.3321757428,-0.014091432\H,0,-3.45
 70281207,1.1524956375,-0.013397183\H,0,-1.3721114624,2.4823053212,-0.0
 057115807\H,0,-1.1856662679,-2.5041018113,-0.0069466379\H,0,1.31715595
 13,-2.3846552638,0.0018957355\H,0,3.3069980738,1.2263139655,0.01006372
 49\H,0,1.1923500783,2.5252167217,0.0031732132\\Version=AM64L-G09RevA.0
 2\State=1-A\HF=-401.9290866\RMSD=3.967e-09\Dipole=0.6693226,-0.0487594
 ,0.0023161\Quadrupole=2.8625263,2.8579102,-5.7204365,0.6086299,0.03002
 58,0.0052492\PG=C01 [X(C9H7N1)]\\@


 The juvenile sea squirt wanders through the sea searching
 for a suitable rock or hunk of coral to cling to and make
 its home for life.  For this task it has a rudimentary
 nervous system.  When it finds its spot and takes root, it
 doesn't need its brain any more so it eats it.
 It's rather like getting tenure.

                               -- source unknown
 Job cpu time:  0 days  0 hours 49 minutes 51.3 seconds.
 File lengths (MBytes):  RWF=     90 Int=      0 D2E=      0 Chk=     13 Scr=      1
 Normal termination of Gaussian 09 at Mon Oct  4 02:45:28 2021.
