 Entering Gaussian System, Link 0=g09
 Input=C9H7NO_5097_conf_0.com
 Output=C9H7NO_5097_conf_0.log
 Initial command:
 /sw/target/amd/app/gaussian/Gaussian09RevA.02_gcc-4.9.2/g09/l1.exe /home/jschleinitz/gaussian/Gau-1624379.inp -scrdir=/home/jschleinitz/gaussian/
 Entering Link 1 = /sw/target/amd/app/gaussian/Gaussian09RevA.02_gcc-4.9.2/g09/l1.exe PID=   1624417.
  
 Copyright (c) 1988,1990,1992,1993,1995,1998,2003,2009, Gaussian, Inc.
                  All Rights Reserved.
  
 This is part of the Gaussian(R) 09 program.  It is based on
 the Gaussian(R) 03 system (copyright 2003, Gaussian, Inc.),
 the Gaussian(R) 98 system (copyright 1998, Gaussian, Inc.),
 the Gaussian(R) 94 system (copyright 1995, Gaussian, Inc.),
 the Gaussian 92(TM) system (copyright 1992, Gaussian, Inc.),
 the Gaussian 90(TM) system (copyright 1990, Gaussian, Inc.),
 the Gaussian 88(TM) system (copyright 1988, Gaussian, Inc.),
 the Gaussian 86(TM) system (copyright 1986, Carnegie Mellon
 University), and the Gaussian 82(TM) system (copyright 1983,
 Carnegie Mellon University). Gaussian is a federally registered
 trademark of Gaussian, Inc.
  
 This software contains proprietary and confidential information,
 including trade secrets, belonging to Gaussian, Inc.
  
 This software is provided under written license and may be
 used, copied, transmitted, or stored only in accord with that
 written license.
  
 The following legend is applicable only to US Government
 contracts under FAR:
  
                    RESTRICTED RIGHTS LEGEND
  
 Use, reproduction and disclosure by the US Government is
 subject to restrictions as set forth in subparagraphs (a)
 and (c) of the Commercial Computer Software - Restricted
 Rights clause in FAR 52.227-19.
  
 Gaussian, Inc.
 340 Quinnipiac St., Bldg. 40, Wallingford CT 06492
  
  
 ---------------------------------------------------------------
 Warning -- This program may not be used in any manner that
 competes with the business of Gaussian, Inc. or will provide
 assistance to any competitor of Gaussian, Inc.  The licensee
 of this program is prohibited from giving any competitor of
 Gaussian, Inc. access to this program.  By using this program,
 the user acknowledges that Gaussian, Inc. is engaged in the
 business of creating and licensing software in the field of
 computational chemistry and represents and warrants to the
 licensee that it is not a competitor of Gaussian, Inc. and that
 it will not use this program in any manner prohibited above.
 ---------------------------------------------------------------
  

 Cite this work as:
 Gaussian 09, Revision A.02,
 M. J. Frisch, G. W. Trucks, H. B. Schlegel, G. E. Scuseria, 
 M. A. Robb, J. R. Cheeseman, G. Scalmani, V. Barone, B. Mennucci, 
 G. A. Petersson, H. Nakatsuji, M. Caricato, X. Li, H. P. Hratchian, 
 A. F. Izmaylov, J. Bloino, G. Zheng, J. L. Sonnenberg, M. Hada, 
 M. Ehara, K. Toyota, R. Fukuda, J. Hasegawa, M. Ishida, T. Nakajima, 
 Y. Honda, O. Kitao, H. Nakai, T. Vreven, J. A. Montgomery, Jr., 
 J. E. Peralta, F. Ogliaro, M. Bearpark, J. J. Heyd, E. Brothers, 
 K. N. Kudin, V. N. Staroverov, R. Kobayashi, J. Normand, 
 K. Raghavachari, A. Rendell, J. C. Burant, S. S. Iyengar, J. Tomasi, 
 M. Cossi, N. Rega, J. M. Millam, M. Klene, J. E. Knox, J. B. Cross, 
 V. Bakken, C. Adamo, J. Jaramillo, R. Gomperts, R. E. Stratmann, 
 O. Yazyev, A. J. Austin, R. Cammi, C. Pomelli, J. W. Ochterski, 
 R. L. Martin, K. Morokuma, V. G. Zakrzewski, G. A. Voth, 
 P. Salvador, J. J. Dannenberg, S. Dapprich, A. D. Daniels, 
 O. Farkas, J. B. Foresman, J. V. Ortiz, J. Cioslowski, 
 and D. J. Fox, Gaussian, Inc., Wallingford CT, 2009.
 
 ******************************************
 Gaussian 09:  AM64L-G09RevA.02 11-Jun-2009
                 4-Oct-2021 
 ******************************************
 %nproc=3
 Will use up to    3 processors via shared memory.
 %mem=6gb
 %chk=C9H7NO_5097_conf_0.chk
 -----------------------------------
 #p opt b3lyp/6-31G* scf=(xqc,tight)
 -----------------------------------
 1/14=-1,18=20,19=15,26=3,38=1/1,3;
 2/9=110,12=2,17=6,18=5,40=1/2;
 3/5=1,6=6,7=1,11=2,16=1,25=1,30=1,71=1,74=-5/1,2,3;
 4//1;
 5/5=2,8=3,13=1,32=2,38=5/2,8;
 6/7=2,8=2,9=2,10=2,28=1/1;
 7//1,2,3,16;
 1/14=-1,18=20,19=15/3(2);
 2/9=110/2;
 99//99;
 2/9=110/2;
 3/5=1,6=6,7=1,11=2,16=1,25=1,30=1,71=1,74=-5/1,2,3;
 4/5=5,16=3/1;
 5/5=2,8=3,13=1,32=2,38=5/2,8;
 7//1,2,3,16;
 1/14=-1,18=20,19=15/3(-5);
 2/9=110/2;
 6/7=2,8=2,9=2,10=2,19=2,28=1/1;
 99/9=1/99;
 Leave Link    1 at Mon Oct  4 11:03:14 2021, MaxMem=  805306368 cpu:       0.1
 (Enter /sw/target/amd/app/gaussian/Gaussian09RevA.02_gcc-4.9.2/g09/l101.exe)
 ------------------------
 c1ccc(cc1)c1cnco1_conf_0
 ------------------------
 Symbolic Z-matrix:
 Charge =  0 Multiplicity = 1
 C                     1.37188  -0.19475   0.01093 
 C                     0.51429  -1.2904   -0.04515 
 C                    -0.86928  -1.09513  -0.0794 
 C                    -1.41484   0.19716  -0.05346 
 C                    -0.53673   1.28974   0.00612 
 C                     0.84747   1.09519   0.03526 
 C                    -2.8544    0.40786  -0.08429 
 C                    -3.70623   1.45552   0.19734 
 N                    -5.0093    1.09032  -0.03371 
 C                    -4.90448  -0.15293  -0.44441 
 O                    -3.63623  -0.64179  -0.49768 
 H                     2.44801  -0.34623   0.03449 
 H                     0.9196   -2.2989   -0.06251 
 H                    -1.51988  -1.96635  -0.12047 
 H                    -0.91694   2.30844   0.01888 
 H                     1.51532   1.95212   0.07461 
 H                    -3.45341   2.44358   0.55505 
 H                    -5.69517  -0.82628  -0.74247 
 
 NAtoms=     18 NQM=     18 NQMF=      0 NMic=      0 NMicF=      0 NTot=     18.
                    Isotopes and Nuclear Properties:
 (Nuclear quadrupole moments (NQMom) in fm**2, nuclear magnetic moments (NMagM)
  in nuclear magnetons)

  Atom         1           2           3           4           5           6           7           8           9          10
 IAtWgt=          12          12          12          12          12          12          12          12          14          12
 AtmWgt=  12.0000000  12.0000000  12.0000000  12.0000000  12.0000000  12.0000000  12.0000000  12.0000000  14.0030740  12.0000000
 NucSpn=           0           0           0           0           0           0           0           0           2           0
 AtZEff=   0.0000000   0.0000000   0.0000000   0.0000000   0.0000000   0.0000000   0.0000000   0.0000000   0.0000000   0.0000000
 NQMom=    0.0000000   0.0000000   0.0000000   0.0000000   0.0000000   0.0000000   0.0000000   0.0000000   2.0440000   0.0000000
 NMagM=    0.0000000   0.0000000   0.0000000   0.0000000   0.0000000   0.0000000   0.0000000   0.0000000   0.4037610   0.0000000

  Atom        11          12          13          14          15          16          17          18
 IAtWgt=          16           1           1           1           1           1           1           1
 AtmWgt=  15.9949146   1.0078250   1.0078250   1.0078250   1.0078250   1.0078250   1.0078250   1.0078250
 NucSpn=           0           1           1           1           1           1           1           1
 AtZEff=   0.0000000   0.0000000   0.0000000   0.0000000   0.0000000   0.0000000   0.0000000   0.0000000
 NQMom=    0.0000000   0.0000000   0.0000000   0.0000000   0.0000000   0.0000000   0.0000000   0.0000000
 NMagM=    0.0000000   2.7928460   2.7928460   2.7928460   2.7928460   2.7928460   2.7928460   2.7928460
 Leave Link  101 at Mon Oct  4 11:03:16 2021, MaxMem=  805306368 cpu:       0.2
 (Enter /sw/target/amd/app/gaussian/Gaussian09RevA.02_gcc-4.9.2/g09/l103.exe)

 GradGradGradGradGradGradGradGradGradGradGradGradGradGradGradGradGradGrad
 Berny optimization.
 Initialization pass.
                           ----------------------------
                           !    Initial Parameters    !
                           ! (Angstroms and Degrees)  !
 --------------------------                            --------------------------
 ! Name  Definition              Value          Derivative Info.                !
 --------------------------------------------------------------------------------
 ! R1    R(1,2)                  1.3925         estimate D2E/DX2                !
 ! R2    R(1,6)                  1.3927         estimate D2E/DX2                !
 ! R3    R(1,12)                 1.087          estimate D2E/DX2                !
 ! R4    R(2,3)                  1.3977         estimate D2E/DX2                !
 ! R5    R(2,13)                 1.087          estimate D2E/DX2                !
 ! R6    R(3,4)                  1.403          estimate D2E/DX2                !
 ! R7    R(3,14)                 1.0881         estimate D2E/DX2                !
 ! R8    R(4,5)                  1.403          estimate D2E/DX2                !
 ! R9    R(4,7)                  1.4552         estimate D2E/DX2                !
 ! R10   R(5,6)                  1.3981         estimate D2E/DX2                !
 ! R11   R(5,15)                 1.0874         estimate D2E/DX2                !
 ! R12   R(6,16)                 1.0871         estimate D2E/DX2                !
 ! R13   R(7,8)                  1.3793         estimate D2E/DX2                !
 ! R14   R(7,11)                 1.3726         estimate D2E/DX2                !
 ! R15   R(8,9)                  1.3729         estimate D2E/DX2                !
 ! R16   R(8,17)                 1.0808         estimate D2E/DX2                !
 ! R17   R(9,10)                 1.3135         estimate D2E/DX2                !
 ! R18   R(10,11)                1.3603         estimate D2E/DX2                !
 ! R19   R(10,18)                1.0805         estimate D2E/DX2                !
 ! A1    A(2,1,6)              119.8397         estimate D2E/DX2                !
 ! A2    A(2,1,12)             120.0626         estimate D2E/DX2                !
 ! A3    A(6,1,12)             120.0977         estimate D2E/DX2                !
 ! A4    A(1,2,3)              120.0469         estimate D2E/DX2                !
 ! A5    A(1,2,13)             120.065          estimate D2E/DX2                !
 ! A6    A(3,2,13)             119.888          estimate D2E/DX2                !
 ! A7    A(2,3,4)              120.8743         estimate D2E/DX2                !
 ! A8    A(2,3,14)             118.7468         estimate D2E/DX2                !
 ! A9    A(4,3,14)             120.3778         estimate D2E/DX2                !
 ! A10   A(3,4,5)              118.3416         estimate D2E/DX2                !
 ! A11   A(3,4,7)              121.1748         estimate D2E/DX2                !
 ! A12   A(5,4,7)              120.4835         estimate D2E/DX2                !
 ! A13   A(4,5,6)              120.809          estimate D2E/DX2                !
 ! A14   A(4,5,15)             120.7438         estimate D2E/DX2                !
 ! A15   A(6,5,15)             118.4433         estimate D2E/DX2                !
 ! A16   A(1,6,5)              120.0878         estimate D2E/DX2                !
 ! A17   A(1,6,16)             119.9606         estimate D2E/DX2                !
 ! A18   A(5,6,16)             119.9515         estimate D2E/DX2                !
 ! A19   A(4,7,8)              135.7724         estimate D2E/DX2                !
 ! A20   A(4,7,11)             117.331          estimate D2E/DX2                !
 ! A21   A(8,7,11)             106.8928         estimate D2E/DX2                !
 ! A22   A(7,8,9)              110.4727         estimate D2E/DX2                !
 ! A23   A(7,8,17)             128.133          estimate D2E/DX2                !
 ! A24   A(9,8,17)             121.3938         estimate D2E/DX2                !
 ! A25   A(8,9,10)             103.2186         estimate D2E/DX2                !
 ! A26   A(9,10,11)            115.2654         estimate D2E/DX2                !
 ! A27   A(9,10,18)            128.1497         estimate D2E/DX2                !
 ! A28   A(11,10,18)           116.5848         estimate D2E/DX2                !
 ! A29   A(7,11,10)            104.149          estimate D2E/DX2                !
 ! D1    D(6,1,2,3)              0.1172         estimate D2E/DX2                !
 ! D2    D(6,1,2,13)          -179.8908         estimate D2E/DX2                !
 ! D3    D(12,1,2,3)          -179.8123         estimate D2E/DX2                !
 ! D4    D(12,1,2,13)            0.1797         estimate D2E/DX2                !
 ! D5    D(2,1,6,5)              0.1259         estimate D2E/DX2                !
 ! D6    D(2,1,6,16)          -179.73           estimate D2E/DX2                !
 ! D7    D(12,1,6,5)          -179.9447         estimate D2E/DX2                !
 ! D8    D(12,1,6,16)            0.1995         estimate D2E/DX2                !
 ! D9    D(1,2,3,4)             -0.2197         estimate D2E/DX2                !
 ! D10   D(1,2,3,14)          -179.8428         estimate D2E/DX2                !
 ! D11   D(13,2,3,4)           179.7883         estimate D2E/DX2                !
 ! D12   D(13,2,3,14)            0.1652         estimate D2E/DX2                !
 ! D13   D(2,3,4,5)              0.0758         estimate D2E/DX2                !
 ! D14   D(2,3,4,7)           -179.7906         estimate D2E/DX2                !
 ! D15   D(14,3,4,5)           179.6928         estimate D2E/DX2                !
 ! D16   D(14,3,4,7)            -0.1736         estimate D2E/DX2                !
 ! D17   D(3,4,5,6)              0.1692         estimate D2E/DX2                !
 ! D18   D(3,4,5,15)           179.4434         estimate D2E/DX2                !
 ! D19   D(7,4,5,6)           -179.9635         estimate D2E/DX2                !
 ! D20   D(7,4,5,15)            -0.6892         estimate D2E/DX2                !
 ! D21   D(3,4,7,8)            163.6387         estimate D2E/DX2                !
 ! D22   D(3,4,7,11)           -17.1836         estimate D2E/DX2                !
 ! D23   D(5,4,7,8)            -16.2249         estimate D2E/DX2                !
 ! D24   D(5,4,7,11)           162.9529         estimate D2E/DX2                !
 ! D25   D(4,5,6,1)             -0.2718         estimate D2E/DX2                !
 ! D26   D(4,5,6,16)           179.584          estimate D2E/DX2                !
 ! D27   D(15,5,6,1)          -179.5624         estimate D2E/DX2                !
 ! D28   D(15,5,6,16)            0.2935         estimate D2E/DX2                !
 ! D29   D(4,7,8,9)            179.0476         estimate D2E/DX2                !
 ! D30   D(4,7,8,17)            -1.2312         estimate D2E/DX2                !
 ! D31   D(11,7,8,9)            -0.1891         estimate D2E/DX2                !
 ! D32   D(11,7,8,17)          179.5322         estimate D2E/DX2                !
 ! D33   D(4,7,11,10)         -179.061          estimate D2E/DX2                !
 ! D34   D(8,7,11,10)            0.3396         estimate D2E/DX2                !
 ! D35   D(7,8,9,10)            -0.0524         estimate D2E/DX2                !
 ! D36   D(17,8,9,10)         -179.7956         estimate D2E/DX2                !
 ! D37   D(8,9,10,11)            0.2924         estimate D2E/DX2                !
 ! D38   D(8,9,10,18)         -179.6513         estimate D2E/DX2                !
 ! D39   D(9,10,11,7)           -0.4108         estimate D2E/DX2                !
 ! D40   D(18,10,11,7)         179.5396         estimate D2E/DX2                !
 --------------------------------------------------------------------------------
 Trust Radius=3.00D-01 FncErr=1.00D-07 GrdErr=1.00D-06
 Number of steps in this run=  98 maximum allowed number of steps= 108.
 GradGradGradGradGradGradGradGradGradGradGradGradGradGradGradGradGradGrad

 Leave Link  103 at Mon Oct  4 11:03:16 2021, MaxMem=  805306368 cpu:       0.0
 (Enter /sw/target/amd/app/gaussian/Gaussian09RevA.02_gcc-4.9.2/g09/l202.exe)
                          Input orientation:                          
 ---------------------------------------------------------------------
 Center     Atomic      Atomic             Coordinates (Angstroms)
 Number     Number       Type             X           Y           Z
 ---------------------------------------------------------------------
      1          6           0        1.371885   -0.194754    0.010932
      2          6           0        0.514287   -1.290398   -0.045153
      3          6           0       -0.869281   -1.095134   -0.079397
      4          6           0       -1.414837    0.197156   -0.053460
      5          6           0       -0.536725    1.289744    0.006118
      6          6           0        0.847473    1.095193    0.035263
      7          6           0       -2.854401    0.407863   -0.084289
      8          6           0       -3.706226    1.455519    0.197343
      9          7           0       -5.009295    1.090318   -0.033711
     10          6           0       -4.904480   -0.152929   -0.444407
     11          8           0       -3.636226   -0.641795   -0.497682
     12          1           0        2.448009   -0.346225    0.034493
     13          1           0        0.919598   -2.298900   -0.062509
     14          1           0       -1.519882   -1.966352   -0.120472
     15          1           0       -0.916940    2.308436    0.018877
     16          1           0        1.515317    1.952118    0.074607
     17          1           0       -3.453407    2.443577    0.555047
     18          1           0       -5.695168   -0.826280   -0.742467
 ---------------------------------------------------------------------
                    Distance matrix (angstroms):
                    1          2          3          4          5
     1  C    0.000000
     2  C    1.392499   0.000000
     3  C    2.416954   1.397699   0.000000
     4  C    2.814882   2.436063   1.402968   0.000000
     5  C    2.417964   2.786465   2.409471   1.402989   0.000000
     6  C    1.392682   2.410087   2.785305   2.435649   1.398108
     7  C    4.270094   3.772755   2.489924   1.455229   2.481433
     8  C    5.342786   5.040991   3.825006   2.626184   3.179589
     9  N    6.509444   6.014806   4.681666   3.703817   4.477191
    10  C    6.293000   5.551241   4.159786   3.528883   4.621857
    11  O    5.053683   4.225189   2.834865   2.415728   3.686673
    12  H    1.086987   2.153389   3.402682   3.901868   3.403797
    13  H    2.153459   1.087040   2.156253   3.417596   3.873494
    14  H    3.393838   2.144861   1.088112   2.167093   3.403642
    15  H    3.391864   3.873514   3.405322   2.170400   1.087409
    16  H    2.152600   3.395631   3.872437   3.417907   2.157384
    17  H    5.526328   5.481369   4.427494   3.093939   3.184288
    18  H    7.135102   6.265699   4.878640   4.454592   5.625609
                    6          7          8          9         10
     6  C    0.000000
     7  C    3.767039   0.000000
     8  C    4.570808   1.379314   0.000000
     9  N    5.857176   2.260945   1.372861   0.000000
    10  C    5.905325   2.155690   2.105887   1.313514   0.000000
    11  O    4.837842   1.372562   2.210585   2.258495   1.360257
    12  H    2.153927   5.357080   6.414625   7.594714   7.370604
    13  H    3.396267   4.644363   5.963341   6.829304   6.218595
    14  H    3.873200   2.723811   4.073120   4.639694   3.853433
    15  H    2.141350   2.715985   2.922231   4.270123   4.708867
    16  H    1.087145   4.637284   5.246540   6.582172   6.776016
    17  H    4.537167   2.216234   1.080800   2.144466   3.137892
    18  H    6.863168   3.166428   3.169502   2.155483   1.080477
                   11         12         13         14         15
    11  O    0.000000
    12  H    6.114612   0.000000
    13  H    4.867330   2.481610   0.000000
    14  H    2.525005   4.288703   2.462723   0.000000
    15  H    4.045394   4.286064   4.960548   4.319348   0.000000
    16  H    5.796058   2.480707   4.294745   4.960331   2.458849
    17  H    3.265146   6.548334   6.480404   4.862337   2.596037
    18  H    2.081634   8.194233   6.810733   4.372603   5.765202
                   16         17         18
    16  H    0.000000
    17  H    5.016031   0.000000
    18  H    7.770341   4.171451   0.000000
 Stoichiometry    C9H7NO
 Framework group  C1[X(C9H7NO)]
 Deg. of freedom    48
 Full point group                 C1      NOp   1
 Largest Abelian subgroup         C1      NOp   1
 Largest concise Abelian subgroup C1      NOp   1
                         Standard orientation:                         
 ---------------------------------------------------------------------
 Center     Atomic      Atomic             Coordinates (Angstroms)
 Number     Number       Type             X           Y           Z
 ---------------------------------------------------------------------
      1          6           0        3.239704   -0.059697   -0.011521
      2          6           0        2.493765   -1.227976    0.121721
      3          6           0        1.097353   -1.169180    0.133567
      4          6           0        0.427429    0.057990    0.017055
      5          6           0        1.194204    1.225645   -0.113388
      6          6           0        2.590974    1.166915   -0.130407
      7          6           0       -1.026062    0.127256    0.033139
      8          6           0       -1.966302    1.119399    0.217822
      9          7           0       -3.234557    0.606126    0.104574
     10          6           0       -3.022609   -0.666219   -0.143489
     11          8           0       -1.715045   -1.037271   -0.197305
     12          1           0        4.325658   -0.105449   -0.023830
     13          1           0        2.996361   -2.187172    0.216560
     14          1           0        0.535497   -2.094750    0.241384
     15          1           0        0.715370    2.196606   -0.215416
     16          1           0        3.171329    2.079763   -0.238944
     17          1           0       -1.799334    2.166216    0.428592
     18          1           0       -3.753359   -1.444722   -0.308916
 ---------------------------------------------------------------------
 Rotational constants (GHZ):      3.6094502      0.6866501      0.5806810
 Leave Link  202 at Mon Oct  4 11:03:16 2021, MaxMem=  805306368 cpu:       0.0
 (Enter /sw/target/amd/app/gaussian/Gaussian09RevA.02_gcc-4.9.2/g09/l301.exe)
 Standard basis: 6-31G(d) (6D, 7F)
 Ernie: Thresh=  0.10000D-02 Tol=  0.10000D-05 Strict=F.
 There are   179 symmetry adapted basis functions of A   symmetry.
 Integral buffers will be    131072 words long.
 Raffenetti 2 integral format.
 Two-electron integral symmetry is turned on.
   179 basis functions,   336 primitive gaussians,   179 cartesian basis functions
    38 alpha electrons       38 beta electrons
       nuclear repulsion energy       541.0990792077 Hartrees.
 IExCor=  402 DFT=T Ex+Corr=B3LYP ExCW=0 ScaHFX=  0.200000
 ScaDFX=  0.800000  0.720000  1.000000  0.810000 ScalE2=  1.000000  1.000000
 IRadAn=      0 IRanWt=     -1 IRanGd=            0 ICorTp=0
 NAtoms=   18 NActive=   18 NUniq=   18 SFac= 7.50D-01 NAtFMM=   80 NAOKFM=F Big=F
 Leave Link  301 at Mon Oct  4 11:03:17 2021, MaxMem=  805306368 cpu:       0.1
 (Enter /sw/target/amd/app/gaussian/Gaussian09RevA.02_gcc-4.9.2/g09/l302.exe)
 NPDir=0 NMtPBC=     1 NCelOv=     1 NCel=       1 NClECP=     1 NCelD=      1
         NCelK=      1 NCelE2=     1 NClLst=     1 CellRange=     0.0.
 One-electron integrals computed using PRISM.
 NBasis=   179 RedAO= T  NBF=   179
 NBsUse=   179 1.00D-06 NBFU=   179
 Precomputing XC quadrature grid using
 IXCGrd= 2 IRadAn=           0 IRanWt=          -1 IRanGd=           0 AccXCQ= 1.00D-10.
 NRdTot=    1129 NPtTot=      143492 NUsed=      151642 NTot=      151674
 NSgBfM=   178   178   178   178   178 NAtAll=    18    18.
 Leave Link  302 at Mon Oct  4 11:03:20 2021, MaxMem=  805306368 cpu:       1.2
 (Enter /sw/target/amd/app/gaussian/Gaussian09RevA.02_gcc-4.9.2/g09/l303.exe)
 DipDrv:  MaxL=1.
 Leave Link  303 at Mon Oct  4 11:03:21 2021, MaxMem=  805306368 cpu:       0.1
 (Enter /sw/target/amd/app/gaussian/Gaussian09RevA.02_gcc-4.9.2/g09/l401.exe)
 Harris functional with IExCor=  402 diagonalized for initial guess.
 ExpMin= 1.61D-01 ExpMax= 5.48D+03 ExpMxC= 8.25D+02 IAcc=1 IRadAn=         1 AccDes= 0.00D+00
 HarFok:  IExCor=  402 AccDes= 0.00D+00 IRadAn=         1 IDoV= 1
 ScaDFX=  1.000000  1.000000  1.000000  1.000000
 FoFCou: FMM=F IPFlag=           0 FMFlag=      100000 FMFlg1=           0
         NFxFlg=           0 DoJE=T BraDBF=F KetDBF=T FulRan=T
         Omega=  0.000000  0.000000  1.000000  0.000000  0.000000 ICntrl=     500 IOpCl=  0
         NMat0=    1 NMatS0=    1 NMatT0=    0 NMatD0=    1 NMtDS0=    0 NMtDT0=    0
         I1Cent=           4 NGrid=           0.
 Petite list used in FoFCou.
 Harris En= -477.166572626184    
 Initial guess orbital symmetries:
       Occupied  (A) (A) (A) (A) (A) (A) (A) (A) (A) (A) (A) (A)
                 (A) (A) (A) (A) (A) (A) (A) (A) (A) (A) (A) (A)
                 (A) (A) (A) (A) (A) (A) (A) (A) (A) (A) (A) (A)
                 (A) (A)
       Virtual   (A) (A) (A) (A) (A) (A) (A) (A) (A) (A) (A) (A)
                 (A) (A) (A) (A) (A) (A) (A) (A) (A) (A) (A) (A)
                 (A) (A) (A) (A) (A) (A) (A) (A) (A) (A) (A) (A)
                 (A) (A) (A) (A) (A) (A) (A) (A) (A) (A) (A) (A)
                 (A) (A) (A) (A) (A) (A) (A) (A) (A) (A) (A) (A)
                 (A) (A) (A) (A) (A) (A) (A) (A) (A) (A) (A) (A)
                 (A) (A) (A) (A) (A) (A) (A) (A) (A) (A) (A) (A)
                 (A) (A) (A) (A) (A) (A) (A) (A) (A) (A) (A) (A)
                 (A) (A) (A) (A) (A) (A) (A) (A) (A) (A) (A) (A)
                 (A) (A) (A) (A) (A) (A) (A) (A) (A) (A) (A) (A)
                 (A) (A) (A) (A) (A) (A) (A) (A) (A) (A) (A) (A)
                 (A) (A) (A) (A) (A) (A) (A) (A) (A)
 The electronic state of the initial guess is 1-A.
 Leave Link  401 at Mon Oct  4 11:03:30 2021, MaxMem=  805306368 cpu:       4.8
 (Enter /sw/target/amd/app/gaussian/Gaussian09RevA.02_gcc-4.9.2/g09/l502.exe)
 Closed shell SCF:
 Requested convergence on RMS density matrix=1.00D-08 within  64 cycles.
 Requested convergence on MAX density matrix=1.00D-06.
 Requested convergence on             energy=1.00D-06.
 No special actions if energy rises.
 Using DIIS extrapolation, IDIIS=  1040.
 Integral symmetry usage will be decided dynamically.
       151467 words used for storage of precomputed grid.
 Keep R1 ints in memory in canonical form, NReq=132945578.
 IEnd=      255549 IEndB=      255549 NGot=   805306368 MDV=   675313131
 LenX=   675313131 LenY=   675280649
 Symmetry not used in FoFDir.
 MinBra= 0 MaxBra= 2 Meth= 1.
 IRaf=       0 NMat=   1 IRICut=       1 DoRegI=T DoRafI=F ISym2E= 0 JSym2E=0.
 Integral accuracy reduced to 1.0D-05 until final iterations.

 Cycle   1  Pass 0  IDiag  1:
 E= -476.909031589958    
 DIIS: error= 4.64D-02 at cycle   1 NSaved=   1.
 NSaved= 1 IEnMin= 1 EnMin= -476.909031589958     IErMin= 1 ErrMin= 4.64D-02
 ErrMax= 4.64D-02 EMaxC= 1.00D-01 BMatC= 2.07D-01 BMatP= 2.07D-01
 IDIUse=3 WtCom= 5.36D-01 WtEn= 4.64D-01
 Coeff-Com:  0.100D+01
 Coeff-En:   0.100D+01
 Coeff:      0.100D+01
 Gap=     0.213 Goal=   None    Shift=    0.000
 GapD=    0.213 DampG=1.000 DampE=0.500 DampFc=0.5000 IDamp=-1.
 Damping current iteration by 5.00D-01
 RMSDP=6.30D-03 MaxDP=1.55D-01              OVMax= 2.47D-01

 Cycle   2  Pass 0  IDiag  1:
 E= -476.994774368866     Delta-E=       -0.085742778908 Rises=F Damp=T
 DIIS: error= 7.89D-03 at cycle   2 NSaved=   2.
 NSaved= 2 IEnMin= 2 EnMin= -476.994774368866     IErMin= 2 ErrMin= 7.89D-03
 ErrMax= 7.89D-03 EMaxC= 1.00D-01 BMatC= 2.48D-02 BMatP= 2.07D-01
 IDIUse=3 WtCom= 9.21D-01 WtEn= 7.89D-02
 Coeff-Com:  0.128D+00 0.872D+00
 Coeff-En:   0.202D+00 0.798D+00
 Coeff:      0.134D+00 0.866D+00
 Gap=     0.201 Goal=   None    Shift=    0.000
 RMSDP=1.91D-03 MaxDP=5.02D-02 DE=-8.57D-02 OVMax= 1.96D-01

 Cycle   3  Pass 0  IDiag  1:
 E= -477.102570515733     Delta-E=       -0.107796146867 Rises=F Damp=F
 DIIS: error= 1.24D-02 at cycle   3 NSaved=   3.
 NSaved= 3 IEnMin= 3 EnMin= -477.102570515733     IErMin= 2 ErrMin= 7.89D-03
 ErrMax= 1.24D-02 EMaxC= 1.00D-01 BMatC= 3.25D-02 BMatP= 2.48D-02
 IDIUse=2 WtCom= 0.00D+00 WtEn= 1.00D+00
 Coeff-En:   0.000D+00 0.000D+00 0.100D+01
 Coeff:      0.000D+00 0.000D+00 0.100D+01
 Gap=     0.175 Goal=   None    Shift=    0.000
 RMSDP=2.90D-03 MaxDP=9.60D-02 DE=-1.08D-01 OVMax= 2.01D-01

 Cycle   4  Pass 0  IDiag  1:
 E= -476.983555145266     Delta-E=        0.119015370467 Rises=F Damp=F
 DIIS: error= 2.16D-02 at cycle   4 NSaved=   4.
 NSaved= 4 IEnMin= 3 EnMin= -477.102570515733     IErMin= 2 ErrMin= 7.89D-03
 ErrMax= 2.16D-02 EMaxC= 1.00D-01 BMatC= 1.63D-01 BMatP= 2.48D-02
 IDIUse=2 WtCom= 0.00D+00 WtEn= 1.00D+00
 Coeff-En:   0.000D+00 0.000D+00 0.778D+00 0.222D+00
 Coeff:      0.000D+00 0.000D+00 0.778D+00 0.222D+00
 Gap=     0.179 Goal=   None    Shift=    0.000
 RMSDP=1.49D-03 MaxDP=4.75D-02 DE= 1.19D-01 OVMax= 1.12D-01

 Cycle   5  Pass 0  IDiag  1:
 E= -477.122255611246     Delta-E=       -0.138700465980 Rises=F Damp=F
 DIIS: error= 6.42D-03 at cycle   5 NSaved=   5.
 NSaved= 5 IEnMin= 5 EnMin= -477.122255611246     IErMin= 5 ErrMin= 6.42D-03
 ErrMax= 6.42D-03 EMaxC= 1.00D-01 BMatC= 1.14D-02 BMatP= 2.48D-02
 IDIUse=3 WtCom= 9.36D-01 WtEn= 6.42D-02
 Coeff-Com:  0.267D-03 0.131D-01 0.282D+00-0.890D-01 0.794D+00
 Coeff-En:   0.000D+00 0.000D+00 0.307D+00 0.000D+00 0.693D+00
 Coeff:      0.250D-03 0.123D-01 0.284D+00-0.833D-01 0.787D+00
 Gap=     0.181 Goal=   None    Shift=    0.000
 RMSDP=5.45D-04 MaxDP=1.84D-02 DE=-1.39D-01 OVMax= 3.84D-02

 Cycle   6  Pass 0  IDiag  1:
 E= -477.132601838494     Delta-E=       -0.010346227248 Rises=F Damp=F
 DIIS: error= 2.90D-04 at cycle   6 NSaved=   6.
 NSaved= 6 IEnMin= 6 EnMin= -477.132601838494     IErMin= 6 ErrMin= 2.90D-04
 ErrMax= 2.90D-04 EMaxC= 1.00D-01 BMatC= 3.74D-05 BMatP= 1.14D-02
 IDIUse=3 WtCom= 9.97D-01 WtEn= 2.90D-03
 Coeff-Com: -0.176D-02 0.661D-02 0.123D+00-0.639D-01 0.445D+00 0.491D+00
 Coeff-En:   0.000D+00 0.000D+00 0.000D+00 0.000D+00 0.000D+00 0.100D+01
 Coeff:     -0.175D-02 0.659D-02 0.123D+00-0.637D-01 0.443D+00 0.493D+00
 Gap=     0.181 Goal=   None    Shift=    0.000
 RMSDP=3.63D-05 MaxDP=1.13D-03 DE=-1.03D-02 OVMax= 3.03D-03

 Cycle   7  Pass 0  IDiag  1:
 E= -477.132636383309     Delta-E=       -0.000034544815 Rises=F Damp=F
 DIIS: error= 7.78D-05 at cycle   7 NSaved=   7.
 NSaved= 7 IEnMin= 7 EnMin= -477.132636383309     IErMin= 7 ErrMin= 7.78D-05
 ErrMax= 7.78D-05 EMaxC= 1.00D-01 BMatC= 1.91D-06 BMatP= 3.74D-05
 IDIUse=1 WtCom= 1.00D+00 WtEn= 0.00D+00
 Coeff-Com: -0.662D-03 0.199D-02 0.478D-01-0.270D-01 0.180D+00 0.259D+00
 Coeff-Com:  0.539D+00
 Coeff:     -0.662D-03 0.199D-02 0.478D-01-0.270D-01 0.180D+00 0.259D+00
 Coeff:      0.539D+00
 Gap=     0.181 Goal=   None    Shift=    0.000
 RMSDP=9.30D-06 MaxDP=2.30D-04 DE=-3.45D-05 OVMax= 4.86D-04

 Initial convergence to 1.0D-05 achieved.  Increase integral accuracy.
 Cycle   8  Pass 1  IDiag  1:
 E= -477.132633593325     Delta-E=        0.000002789984 Rises=F Damp=F
 DIIS: error= 2.64D-05 at cycle   1 NSaved=   1.
 NSaved= 1 IEnMin= 1 EnMin= -477.132633593325     IErMin= 1 ErrMin= 2.64D-05
 ErrMax= 2.64D-05 EMaxC= 1.00D-01 BMatC= 2.30D-07 BMatP= 2.30D-07
 IDIUse=1 WtCom= 1.00D+00 WtEn= 0.00D+00
 Coeff-Com:  0.100D+01
 Coeff:      0.100D+01
 Gap=     0.181 Goal=   None    Shift=    0.000
 RMSDP=9.30D-06 MaxDP=2.30D-04 DE= 2.79D-06 OVMax= 4.71D-04

 Cycle   9  Pass 1  IDiag  1:
 E= -477.132633260838     Delta-E=        0.000000332487 Rises=F Damp=F
 DIIS: error= 5.37D-05 at cycle   2 NSaved=   2.
 NSaved= 2 IEnMin= 1 EnMin= -477.132633593325     IErMin= 1 ErrMin= 2.64D-05
 ErrMax= 5.37D-05 EMaxC= 1.00D-01 BMatC= 5.55D-07 BMatP= 2.30D-07
 IDIUse=1 WtCom= 1.00D+00 WtEn= 0.00D+00
 Coeff-Com:  0.616D+00 0.384D+00
 Coeff:      0.616D+00 0.384D+00
 Gap=     0.181 Goal=   None    Shift=    0.000
 RMSDP=4.88D-06 MaxDP=1.27D-04 DE= 3.32D-07 OVMax= 3.17D-04

 Cycle  10  Pass 1  IDiag  1:
 E= -477.132633849708     Delta-E=       -0.000000588870 Rises=F Damp=F
 DIIS: error= 8.77D-06 at cycle   3 NSaved=   3.
 NSaved= 3 IEnMin= 3 EnMin= -477.132633849708     IErMin= 3 ErrMin= 8.77D-06
 ErrMax= 8.77D-06 EMaxC= 1.00D-01 BMatC= 1.66D-08 BMatP= 2.30D-07
 IDIUse=1 WtCom= 1.00D+00 WtEn= 0.00D+00
 Coeff-Com:  0.194D+00 0.180D+00 0.627D+00
 Coeff:      0.194D+00 0.180D+00 0.627D+00
 Gap=     0.181 Goal=   None    Shift=    0.000
 RMSDP=1.15D-06 MaxDP=2.97D-05 DE=-5.89D-07 OVMax= 6.82D-05

 Cycle  11  Pass 1  IDiag  1:
 E= -477.132633859219     Delta-E=       -0.000000009511 Rises=F Damp=F
 DIIS: error= 6.61D-06 at cycle   4 NSaved=   4.
 NSaved= 4 IEnMin= 4 EnMin= -477.132633859219     IErMin= 4 ErrMin= 6.61D-06
 ErrMax= 6.61D-06 EMaxC= 1.00D-01 BMatC= 8.34D-09 BMatP= 1.66D-08
 IDIUse=1 WtCom= 1.00D+00 WtEn= 0.00D+00
 Coeff-Com: -0.481D-02 0.402D-01 0.449D+00 0.515D+00
 Coeff:     -0.481D-02 0.402D-01 0.449D+00 0.515D+00
 Gap=     0.181 Goal=   None    Shift=    0.000
 RMSDP=5.11D-07 MaxDP=1.55D-05 DE=-9.51D-09 OVMax= 3.50D-05

 Cycle  12  Pass 1  IDiag  1:
 E= -477.132633866748     Delta-E=       -0.000000007529 Rises=F Damp=F
 DIIS: error= 1.23D-06 at cycle   5 NSaved=   5.
 NSaved= 5 IEnMin= 5 EnMin= -477.132633866748     IErMin= 5 ErrMin= 1.23D-06
 ErrMax= 1.23D-06 EMaxC= 1.00D-01 BMatC= 4.51D-10 BMatP= 8.34D-09
 IDIUse=1 WtCom= 1.00D+00 WtEn= 0.00D+00
 Coeff-Com: -0.126D-01 0.159D-01 0.245D+00 0.311D+00 0.440D+00
 Coeff:     -0.126D-01 0.159D-01 0.245D+00 0.311D+00 0.440D+00
 Gap=     0.181 Goal=   None    Shift=    0.000
 RMSDP=1.33D-07 MaxDP=4.30D-06 DE=-7.53D-09 OVMax= 6.02D-06

 Cycle  13  Pass 1  IDiag  1:
 E= -477.132633867138     Delta-E=       -0.000000000390 Rises=F Damp=F
 DIIS: error= 2.65D-07 at cycle   6 NSaved=   6.
 NSaved= 6 IEnMin= 6 EnMin= -477.132633867138     IErMin= 6 ErrMin= 2.65D-07
 ErrMax= 2.65D-07 EMaxC= 1.00D-01 BMatC= 1.68D-11 BMatP= 4.51D-10
 IDIUse=1 WtCom= 1.00D+00 WtEn= 0.00D+00
 Coeff-Com: -0.607D-02 0.565D-02 0.952D-01 0.123D+00 0.230D+00 0.552D+00
 Coeff:     -0.607D-02 0.565D-02 0.952D-01 0.123D+00 0.230D+00 0.552D+00
 Gap=     0.181 Goal=   None    Shift=    0.000
 RMSDP=2.82D-08 MaxDP=9.16D-07 DE=-3.90D-10 OVMax= 1.68D-06

 Cycle  14  Pass 1  IDiag  1:
 E= -477.132633867168     Delta-E=       -0.000000000030 Rises=F Damp=F
 DIIS: error= 6.98D-08 at cycle   7 NSaved=   7.
 NSaved= 7 IEnMin= 7 EnMin= -477.132633867168     IErMin= 7 ErrMin= 6.98D-08
 ErrMax= 6.98D-08 EMaxC= 1.00D-01 BMatC= 1.58D-12 BMatP= 1.68D-11
 IDIUse=1 WtCom= 1.00D+00 WtEn= 0.00D+00
 Coeff-Com: -0.118D-02 0.589D-03 0.120D-01 0.153D-01 0.555D-01 0.270D+00
 Coeff-Com:  0.648D+00
 Coeff:     -0.118D-02 0.589D-03 0.120D-01 0.153D-01 0.555D-01 0.270D+00
 Coeff:      0.648D+00
 Gap=     0.181 Goal=   None    Shift=    0.000
 RMSDP=8.96D-09 MaxDP=2.66D-07 DE=-3.00D-11 OVMax= 4.05D-07

 SCF Done:  E(RB3LYP) =  -477.132633867     A.U. after   14 cycles
             Convg  =    0.8960D-08             -V/T =  2.0096
 KE= 4.726072877442D+02 PE=-2.190590220822D+03 EE= 6.997512200029D+02
 Leave Link  502 at Mon Oct  4 11:07:15 2021, MaxMem=  805306368 cpu:      96.9
 (Enter /sw/target/amd/app/gaussian/Gaussian09RevA.02_gcc-4.9.2/g09/l508.exe)
 QCSCF skips out because SCF is already converged.
 Leave Link  508 at Mon Oct  4 11:07:18 2021, MaxMem=  805306368 cpu:       0.0
 (Enter /sw/target/amd/app/gaussian/Gaussian09RevA.02_gcc-4.9.2/g09/l601.exe)
 Copying SCF densities to generalized density rwf, IOpCl= 0 IROHF=0.

 **********************************************************************

            Population analysis using the SCF density.

 **********************************************************************

 Orbital symmetries:
       Occupied  (A) (A) (A) (A) (A) (A) (A) (A) (A) (A) (A) (A)
                 (A) (A) (A) (A) (A) (A) (A) (A) (A) (A) (A) (A)
                 (A) (A) (A) (A) (A) (A) (A) (A) (A) (A) (A) (A)
                 (A) (A)
       Virtual   (A) (A) (A) (A) (A) (A) (A) (A) (A) (A) (A) (A)
                 (A) (A) (A) (A) (A) (A) (A) (A) (A) (A) (A) (A)
                 (A) (A) (A) (A) (A) (A) (A) (A) (A) (A) (A) (A)
                 (A) (A) (A) (A) (A) (A) (A) (A) (A) (A) (A) (A)
                 (A) (A) (A) (A) (A) (A) (A) (A) (A) (A) (A) (A)
                 (A) (A) (A) (A) (A) (A) (A) (A) (A) (A) (A) (A)
                 (A) (A) (A) (A) (A) (A) (A) (A) (A) (A) (A) (A)
                 (A) (A) (A) (A) (A) (A) (A) (A) (A) (A) (A) (A)
                 (A) (A) (A) (A) (A) (A) (A) (A) (A) (A) (A) (A)
                 (A) (A) (A) (A) (A) (A) (A) (A) (A) (A) (A) (A)
                 (A) (A) (A) (A) (A) (A) (A) (A) (A) (A) (A) (A)
                 (A) (A) (A) (A) (A) (A) (A) (A) (A)
 The electronic state is 1-A.
 Alpha  occ. eigenvalues --  -19.23387 -14.33791 -10.27679 -10.25381 -10.21706
 Alpha  occ. eigenvalues --  -10.21348 -10.19993 -10.19770 -10.19738 -10.19670
 Alpha  occ. eigenvalues --  -10.19534  -1.13610  -0.92372  -0.86498  -0.79375
 Alpha  occ. eigenvalues --   -0.75101  -0.73304  -0.63919  -0.63010  -0.60019
 Alpha  occ. eigenvalues --   -0.57872  -0.54783  -0.50917  -0.47646  -0.47259
 Alpha  occ. eigenvalues --   -0.45354  -0.43402  -0.42883  -0.42302  -0.40122
 Alpha  occ. eigenvalues --   -0.37549  -0.35939  -0.35036  -0.32481  -0.29443
 Alpha  occ. eigenvalues --   -0.28799  -0.25651  -0.21907
 Alpha virt. eigenvalues --   -0.03836  -0.00781   0.02016   0.07203   0.08789
 Alpha virt. eigenvalues --    0.11961   0.12642   0.14343   0.15362   0.16427
 Alpha virt. eigenvalues --    0.17423   0.18037   0.19810   0.22075   0.26354
 Alpha virt. eigenvalues --    0.27494   0.29066   0.30144   0.33225   0.34868
 Alpha virt. eigenvalues --    0.39630   0.43846   0.45671   0.50113   0.51697
 Alpha virt. eigenvalues --    0.52887   0.53654   0.55145   0.55575   0.56376
 Alpha virt. eigenvalues --    0.57668   0.58644   0.59275   0.59873   0.60705
 Alpha virt. eigenvalues --    0.61050   0.61841   0.64015   0.64951   0.66058
 Alpha virt. eigenvalues --    0.67517   0.67808   0.73125   0.77401   0.77586
 Alpha virt. eigenvalues --    0.79868   0.81725   0.82236   0.83067   0.83738
 Alpha virt. eigenvalues --    0.84500   0.85703   0.88965   0.90604   0.91573
 Alpha virt. eigenvalues --    0.92257   0.95643   0.96220   0.99407   1.01193
 Alpha virt. eigenvalues --    1.04141   1.09610   1.12192   1.14745   1.16019
 Alpha virt. eigenvalues --    1.18921   1.20111   1.22111   1.24781   1.32101
 Alpha virt. eigenvalues --    1.36006   1.37232   1.39030   1.40794   1.42620
 Alpha virt. eigenvalues --    1.45506   1.47085   1.48331   1.48607   1.49501
 Alpha virt. eigenvalues --    1.50626   1.52582   1.56428   1.58841   1.73884
 Alpha virt. eigenvalues --    1.79198   1.79374   1.81419   1.83292   1.87564
 Alpha virt. eigenvalues --    1.89403   1.91750   1.96583   1.96890   2.01882
 Alpha virt. eigenvalues --    2.05187   2.09135   2.10207   2.12789   2.14016
 Alpha virt. eigenvalues --    2.14968   2.19484   2.20406   2.21871   2.25161
 Alpha virt. eigenvalues --    2.28409   2.29618   2.30017   2.33594   2.34248
 Alpha virt. eigenvalues --    2.39596   2.50209   2.53123   2.56463   2.57525
 Alpha virt. eigenvalues --    2.59639   2.63049   2.65218   2.65608   2.69350
 Alpha virt. eigenvalues --    2.73693   2.75843   2.77104   2.84192   2.89489
 Alpha virt. eigenvalues --    2.94290   2.96703   3.12707   3.24273   3.43089
 Alpha virt. eigenvalues --    3.96783   4.00737   4.08231   4.10796   4.12306
 Alpha virt. eigenvalues --    4.18336   4.28298   4.30634   4.32336   4.50411
 Alpha virt. eigenvalues --    4.74201
          Condensed to atoms (all electrons):
              1          2          3          4          5          6
     1  C    4.850893   0.547807  -0.036623  -0.033181  -0.038138   0.549157
     2  C    0.547807   4.867077   0.511350  -0.010109  -0.043727  -0.025381
     3  C   -0.036623   0.511350   5.032154   0.483324  -0.068395  -0.044144
     4  C   -0.033181  -0.010109   0.483324   4.764891   0.543189  -0.010539
     5  C   -0.038138  -0.043727  -0.068395   0.543189   4.996001   0.520197
     6  C    0.549157  -0.025381  -0.044144  -0.010539   0.520197   4.862658
     7  C    0.000839   0.004827  -0.039029   0.330939  -0.051184   0.006956
     8  C    0.000016  -0.000160   0.008682  -0.055887  -0.013947   0.000107
     9  N    0.000000   0.000002  -0.000018   0.007935   0.000007  -0.000002
    10  C    0.000000   0.000005   0.000047   0.006918   0.000018   0.000002
    11  O    0.000003   0.000263  -0.004054  -0.045945   0.002447  -0.000062
    12  H    0.359212  -0.043192   0.004821   0.000593   0.004991  -0.043300
    13  H   -0.042658   0.359171  -0.038523   0.003278   0.000840   0.004608
    14  H    0.004745  -0.043805   0.358209  -0.041371   0.005652   0.000328
    15  H    0.004792   0.000312   0.005893  -0.039363   0.352644  -0.044050
    16  H   -0.042475   0.004588   0.000878   0.003255  -0.038232   0.358173
    17  H    0.000001   0.000002  -0.000100  -0.000665   0.001222   0.000018
    18  H    0.000000  -0.000000  -0.000014  -0.000127   0.000003  -0.000000
              7          8          9         10         11         12
     1  C    0.000839   0.000016   0.000000   0.000000   0.000003   0.359212
     2  C    0.004827  -0.000160   0.000002   0.000005   0.000263  -0.043192
     3  C   -0.039029   0.008682  -0.000018   0.000047  -0.004054   0.004821
     4  C    0.330939  -0.055887   0.007935   0.006918  -0.045945   0.000593
     5  C   -0.051184  -0.013947   0.000007   0.000018   0.002447   0.004991
     6  C    0.006956   0.000107  -0.000002   0.000002  -0.000062  -0.043300
     7  C    4.837408   0.535488  -0.032707  -0.083349   0.281925   0.000004
     8  C    0.535488   5.009047   0.391181  -0.121832  -0.075970  -0.000000
     9  N   -0.032707   0.391181   6.676453   0.516192  -0.073372   0.000000
    10  C   -0.083349  -0.121832   0.516192   4.731840   0.312889  -0.000000
    11  O    0.281925  -0.075970  -0.073372   0.312889   8.059294   0.000000
    12  H    0.000004  -0.000000   0.000000  -0.000000   0.000000   0.595532
    13  H   -0.000172   0.000001  -0.000000  -0.000000  -0.000003  -0.005567
    14  H   -0.011544   0.000211   0.000033  -0.000060   0.007638  -0.000174
    15  H   -0.010700   0.005034  -0.000004  -0.000009   0.000016  -0.000181
    16  H   -0.000209  -0.000001  -0.000000  -0.000000   0.000000  -0.005602
    17  H   -0.044172   0.372192  -0.040635   0.007739   0.003070  -0.000000
    18  H    0.003667   0.006396  -0.041468   0.381436  -0.042098  -0.000000
             13         14         15         16         17         18
     1  C   -0.042658   0.004745   0.004792  -0.042475   0.000001   0.000000
     2  C    0.359171  -0.043805   0.000312   0.004588   0.000002  -0.000000
     3  C   -0.038523   0.358209   0.005893   0.000878  -0.000100  -0.000014
     4  C    0.003278  -0.041371  -0.039363   0.003255  -0.000665  -0.000127
     5  C    0.000840   0.005652   0.352644  -0.038232   0.001222   0.000003
     6  C    0.004608   0.000328  -0.044050   0.358173   0.000018  -0.000000
     7  C   -0.000172  -0.011544  -0.010700  -0.000209  -0.044172   0.003667
     8  C    0.000001   0.000211   0.005034  -0.000001   0.372192   0.006396
     9  N   -0.000000   0.000033  -0.000004  -0.000000  -0.040635  -0.041468
    10  C   -0.000000  -0.000060  -0.000009  -0.000000   0.007739   0.381436
    11  O   -0.000003   0.007638   0.000016   0.000000   0.003070  -0.042098
    12  H   -0.005567  -0.000174  -0.000181  -0.005602  -0.000000  -0.000000
    13  H    0.588849  -0.005356   0.000016  -0.000188   0.000000  -0.000000
    14  H   -0.005356   0.579012  -0.000153   0.000016  -0.000006   0.000012
    15  H    0.000016  -0.000153   0.594267  -0.005425   0.001608   0.000000
    16  H   -0.000188   0.000016  -0.005425   0.589782  -0.000001   0.000000
    17  H    0.000000  -0.000006   0.001608  -0.000001   0.546126  -0.000145
    18  H   -0.000000   0.000012   0.000000   0.000000  -0.000145   0.517668
 Mulliken atomic charges:
              1
     1  C   -0.124389
     2  C   -0.129030
     3  C   -0.174458
     4  C    0.092863
     5  C   -0.173587
     6  C   -0.134724
     7  C    0.271015
     8  C   -0.060558
     9  N   -0.403595
    10  C    0.248166
    11  O   -0.426038
    12  H    0.132864
    13  H    0.135704
    14  H    0.146613
    15  H    0.135301
    16  H    0.135439
    17  H    0.153746
    18  H    0.174668
 Sum of Mulliken atomic charges =  -0.00000
 Mulliken charges with hydrogens summed into heavy atoms:
              1
     1  C    0.008475
     2  C    0.006674
     3  C   -0.027845
     4  C    0.092863
     5  C   -0.038286
     6  C    0.000715
     7  C    0.271015
     8  C    0.093189
     9  N   -0.403595
    10  C    0.422834
    11  O   -0.426038
 Sum of Mulliken charges with hydrogens summed into heavy atoms =  -0.00000
 Electronic spatial extent (au):  <R**2>=           1840.2085
 Charge=             -0.0000 electrons
 Dipole moment (field-independent basis, Debye):
    X=              1.8258    Y=             -0.6138    Z=             -0.1087  Tot=              1.9293
 Quadrupole moment (field-independent basis, Debye-Ang):
   XX=            -62.0603   YY=            -55.8367   ZZ=            -65.5023
   XY=              5.3293   XZ=              0.9369   YZ=             -0.2617
 Traceless Quadrupole moment (field-independent basis, Debye-Ang):
   XX=             -0.9272   YY=              5.2964   ZZ=             -4.3692
   XY=              5.3293   XZ=              0.9369   YZ=             -0.2617
 Octapole moment (field-independent basis, Debye-Ang**2):
  XXX=             35.2502  YYY=             -0.5699  ZZZ=             -1.2737  XYY=             -0.4372
  XXY=            -28.1346  XXZ=             -5.9459  XZZ=             -8.1399  YZZ=             -2.0192
  YYZ=              0.8576  XYZ=             -3.0370
 Hexadecapole moment (field-independent basis, Debye-Ang**3):
 XXXX=          -1948.4782 YYYY=           -399.9233 ZZZZ=            -72.8702 XXXY=            119.3360
 XXXZ=             21.6278 YYYX=              6.7002 YYYZ=             -0.0471 ZZZX=              2.2706
 ZZZY=              1.5620 XXYY=           -364.4391 XXZZ=           -360.9059 YYZZ=            -89.8456
 XXYZ=              0.7769 YYXZ=             -0.2686 ZZXY=              3.7995
 N-N= 5.410990792077D+02 E-N=-2.190590228416D+03  KE= 4.726072877442D+02
 No NMR shielding tensors so no spin-rotation constants.
 Leave Link  601 at Mon Oct  4 11:07:22 2021, MaxMem=  805306368 cpu:       0.9
 (Enter /sw/target/amd/app/gaussian/Gaussian09RevA.02_gcc-4.9.2/g09/l701.exe)
 Compute integral first derivatives.
 ... and contract with generalized density number  0.
 Leave Link  701 at Mon Oct  4 11:07:24 2021, MaxMem=  805306368 cpu:       0.9
 (Enter /sw/target/amd/app/gaussian/Gaussian09RevA.02_gcc-4.9.2/g09/l702.exe)
 L702 exits ... SP integral derivatives will be done elsewhere.
 Leave Link  702 at Mon Oct  4 11:07:29 2021, MaxMem=  805306368 cpu:       0.1
 (Enter /sw/target/amd/app/gaussian/Gaussian09RevA.02_gcc-4.9.2/g09/l703.exe)
 Compute integral first derivatives, UseDBF=F ICtDFT=           0.
 Integral derivatives from FoFDir, PRISM(SPDF).
 Calling FoFJK, ICntrl=      2127 FMM=F ISym2X=0 I1Cent= 0 IOpClX= 0 NMat=1 NMatS=1 NMatT=0.
 FoFCou: FMM=F IPFlag=           0 FMFlag=      100000 FMFlg1=         800
         NFxFlg=           0 DoJE=F BraDBF=F KetDBF=F FulRan=T
         Omega=  0.000000  0.000000  1.000000  0.000000  0.000000 ICntrl=    2127 IOpCl=  0
         NMat0=    1 NMatS0=    1 NMatT0=    0 NMatD0=    1 NMtDS0=    0 NMtDT0=    0
         I1Cent=           0 NGrid=           0.
 Symmetry not used in FoFCou.
 Leave Link  703 at Mon Oct  4 11:08:36 2021, MaxMem=  805306368 cpu:      43.0
 (Enter /sw/target/amd/app/gaussian/Gaussian09RevA.02_gcc-4.9.2/g09/l716.exe)
 Dipole        = 7.18319355D-01-2.41496865D-01-4.27514833D-02
 ***** Axes restored to original set *****
 -------------------------------------------------------------------
 Center     Atomic                   Forces (Hartrees/Bohr)
 Number     Number              X              Y              Z
 -------------------------------------------------------------------
      1        6           0.004929419   -0.001103370    0.000069265
      2        6          -0.005340434    0.000828676   -0.000568317
      3        6           0.003722330   -0.008287304   -0.000281146
      4        6           0.001193008    0.001745620    0.001243719
      5        6           0.007759728    0.004993614    0.000612791
      6        6          -0.005694635    0.001687767    0.000721733
      7        6           0.000222409    0.007889184    0.001783931
      8        6           0.015150269   -0.003020556   -0.000353199
      9        7          -0.001204111   -0.023165070   -0.008517353
     10        6          -0.005356493    0.009679052    0.003807146
     11        8          -0.011031861    0.006571422    0.001391160
     12        1          -0.000060758    0.000116880   -0.000050176
     13        1          -0.000905732    0.000154066   -0.000025156
     14        1          -0.000763645    0.002923059   -0.000069398
     15        1          -0.002080648   -0.001308642   -0.000528876
     16        1          -0.001079205    0.000156595    0.000010996
     17        1           0.000392321   -0.000093728    0.000404577
     18        1           0.000148037    0.000232735    0.000348301
 -------------------------------------------------------------------
 Cartesian Forces:  Max     0.023165070 RMS     0.005273264
 Leave Link  716 at Mon Oct  4 11:08:36 2021, MaxMem=  805306368 cpu:       0.1
 (Enter /sw/target/amd/app/gaussian/Gaussian09RevA.02_gcc-4.9.2/g09/l103.exe)

 GradGradGradGradGradGradGradGradGradGradGradGradGradGradGradGradGradGrad
 Berny optimization.
 Internal  Forces:  Max     0.018260348 RMS     0.003318192
 Search for a local minimum.
 Step number   1 out of a maximum of   98
 All quantities printed in internal units (Hartrees-Bohrs-Radians)
 RMS Force = .33182D-02 SwitMx=.10000D-02 MixMth= 1
 Mixed Optimization -- RFO/linear search
 Second derivative matrix not updated -- first step.
     Eigenvalues ---    0.01358   0.01836   0.01881   0.02059   0.02080
     Eigenvalues ---    0.02086   0.02117   0.02146   0.02154   0.02170
     Eigenvalues ---    0.02187   0.02195   0.02271   0.02412   0.02579
     Eigenvalues ---    0.15999   0.16000   0.16000   0.16000   0.16000
     Eigenvalues ---    0.16000   0.16000   0.22000   0.22000   0.23139
     Eigenvalues ---    0.23471   0.23970   0.24998   0.25000   0.35032
     Eigenvalues ---    0.35114   0.35145   0.35157   0.35163   0.35898
     Eigenvalues ---    0.35937   0.37568   0.41617   0.41864   0.44337
     Eigenvalues ---    0.45318   0.45970   0.46145   0.46703   0.46729
     Eigenvalues ---    0.50247   0.51806   0.610021000.000001000.00000
     Eigenvalues --- 1000.000001000.000001000.000001000.000001000.00000
     Eigenvalues --- 1000.000001000.000001000.000001000.000001000.00000
     Eigenvalues --- 1000.000001000.000001000.000001000.000001000.00000
     Eigenvalues --- 1000.000001000.000001000.000001000.000001000.00000
     Eigenvalues --- 1000.000001000.000001000.000001000.000001000.00000
     Eigenvalues --- 1000.000001000.000001000.000001000.000001000.00000
     Eigenvalues --- 1000.000001000.000001000.000001000.000001000.00000
     Eigenvalues --- 1000.000001000.000001000.00000
 RFO step:  Lambda=-2.57549099D-03 EMin= 1.35817947D-02
 Linear search not attempted -- first point.
 Iteration  1 RMS(Cart)=  0.03329812 RMS(Int)=  0.00047994
 Iteration  2 RMS(Cart)=  0.00071759 RMS(Int)=  0.00005484
 Iteration  3 RMS(Cart)=  0.00000026 RMS(Int)=  0.00005484
 Variable       Old X    -DE/DX   Delta X   Delta X   Delta X     New X
                                 (Linear)    (Quad)   (Total)
    R1        2.63144   0.00366   0.00000   0.00790   0.00791   2.63935
    R2        2.63179   0.00375   0.00000   0.00805   0.00805   2.63984
    R3        2.05411  -0.00008   0.00000  -0.00022  -0.00022   2.05389
    R4        2.64127  -0.00369   0.00000  -0.00792  -0.00792   2.63335
    R5        2.05421  -0.00048   0.00000  -0.00135  -0.00135   2.05285
    R6        2.65122   0.00182   0.00000   0.00392   0.00392   2.65514
    R7        2.05623  -0.00188   0.00000  -0.00533  -0.00533   2.05090
    R8        2.65126   0.00226   0.00000   0.00484   0.00483   2.65610
    R9        2.74998   0.00141   0.00000   0.00373   0.00373   2.75371
   R10        2.64204  -0.00464   0.00000  -0.01009  -0.01009   2.63195
   R11        2.05490  -0.00051   0.00000  -0.00143  -0.00143   2.05348
   R12        2.05441  -0.00054   0.00000  -0.00152  -0.00152   2.05288
   R13        2.60653  -0.01214   0.00000  -0.02309  -0.02304   2.58349
   R14        2.59377   0.00541   0.00000   0.01141   0.01142   2.60519
   R15        2.59433   0.01019   0.00000   0.02026   0.02028   2.61461
   R16        2.04242   0.00014   0.00000   0.00039   0.00039   2.04280
   R17        2.48218  -0.01826   0.00000  -0.02970  -0.02974   2.45244
   R18        2.57051  -0.00444   0.00000  -0.00932  -0.00937   2.56114
   R19        2.04180  -0.00035   0.00000  -0.00097  -0.00097   2.04084
    A1        2.09160  -0.00107   0.00000  -0.00414  -0.00414   2.08745
    A2        2.09549   0.00064   0.00000   0.00273   0.00273   2.09822
    A3        2.09610   0.00043   0.00000   0.00141   0.00141   2.09751
    A4        2.09521   0.00105   0.00000   0.00530   0.00529   2.10051
    A5        2.09553   0.00028   0.00000   0.00231   0.00230   2.09783
    A6        2.09244  -0.00133   0.00000  -0.00761  -0.00761   2.08483
    A7        2.10966  -0.00169   0.00000  -0.00749  -0.00750   2.10215
    A8        2.07252   0.00327   0.00000   0.01869   0.01869   2.09122
    A9        2.10099  -0.00158   0.00000  -0.01117  -0.01117   2.08981
   A10        2.06545   0.00205   0.00000   0.00784   0.00782   2.07327
   A11        2.11490  -0.00078   0.00000  -0.00296  -0.00295   2.11195
   A12        2.10283  -0.00127   0.00000  -0.00489  -0.00488   2.09795
   A13        2.10852  -0.00085   0.00000  -0.00403  -0.00406   2.10446
   A14        2.10738  -0.00206   0.00000  -0.01329  -0.01328   2.09410
   A15        2.06722   0.00292   0.00000   0.01735   0.01736   2.08459
   A16        2.09593   0.00051   0.00000   0.00258   0.00256   2.09848
   A17        2.09371   0.00071   0.00000   0.00468   0.00467   2.09838
   A18        2.09355  -0.00123   0.00000  -0.00728  -0.00729   2.08626
   A19        2.36968  -0.00091   0.00000  -0.00595  -0.00605   2.36363
   A20        2.04781   0.00637   0.00000   0.02285   0.02276   2.07057
   A21        1.86563  -0.00546   0.00000  -0.01667  -0.01668   1.84895
   A22        1.92811  -0.00238   0.00000  -0.00661  -0.00657   1.92155
   A23        2.23634   0.00078   0.00000   0.00075   0.00069   2.23703
   A24        2.11872   0.00160   0.00000   0.00580   0.00574   2.12446
   A25        1.80150   0.00642   0.00000   0.02327   0.02324   1.82475
   A26        2.01176  -0.00537   0.00000  -0.02758  -0.02767   1.98409
   A27        2.23663   0.00255   0.00000   0.01297   0.01300   2.24963
   A28        2.03479   0.00282   0.00000   0.01461   0.01463   2.04942
   A29        1.81774   0.00679   0.00000   0.02769   0.02763   1.84538
    D1        0.00205  -0.00014   0.00000  -0.00618  -0.00621  -0.00417
    D2       -3.13969   0.00000   0.00000   0.00001  -0.00000  -3.13969
    D3       -3.13832  -0.00010   0.00000  -0.00428  -0.00432   3.14055
    D4        0.00314   0.00005   0.00000   0.00190   0.00189   0.00502
    D5        0.00220  -0.00014   0.00000  -0.00596  -0.00600  -0.00381
    D6       -3.13688   0.00009   0.00000   0.00359   0.00359  -3.13329
    D7       -3.14063  -0.00018   0.00000  -0.00785  -0.00789   3.13466
    D8        0.00348   0.00005   0.00000   0.00170   0.00170   0.00518
    D9       -0.00383   0.00023   0.00000   0.00985   0.00985   0.00602
   D10       -3.13885   0.00011   0.00000   0.00441   0.00436  -3.13449
   D11        3.13790   0.00009   0.00000   0.00368   0.00369   3.14159
   D12        0.00288  -0.00003   0.00000  -0.00177  -0.00180   0.00108
   D13        0.00132  -0.00003   0.00000  -0.00125  -0.00124   0.00008
   D14       -3.13794   0.00005   0.00000   0.00226   0.00227  -3.13566
   D15        3.13623   0.00011   0.00000   0.00440   0.00436   3.14059
   D16       -0.00303   0.00019   0.00000   0.00791   0.00787   0.00484
   D17        0.00295  -0.00026   0.00000  -0.01102  -0.01102  -0.00806
   D18        3.13188  -0.00017   0.00000  -0.00793  -0.00796   3.12392
   D19       -3.14095  -0.00033   0.00000  -0.01450  -0.01450   3.12773
   D20       -0.01203  -0.00025   0.00000  -0.01141  -0.01145  -0.02347
   D21        2.85603   0.00036   0.00000   0.02557   0.02550   2.88154
   D22       -0.29991   0.00085   0.00000   0.05045   0.05053  -0.24938
   D23       -0.28318   0.00043   0.00000   0.02913   0.02905  -0.25413
   D24        2.84406   0.00093   0.00000   0.05401   0.05408   2.89815
   D25       -0.00474   0.00035   0.00000   0.01475   0.01473   0.00999
   D26        3.13433   0.00012   0.00000   0.00522   0.00522   3.13956
   D27       -3.13396   0.00030   0.00000   0.01195   0.01191  -3.12205
   D28        0.00512   0.00007   0.00000   0.00242   0.00240   0.00752
   D29        3.12497   0.00052   0.00000   0.02229   0.02208  -3.13614
   D30       -0.02149   0.00021   0.00000   0.00900   0.00889  -0.01259
   D31       -0.00330  -0.00000   0.00000  -0.00104  -0.00100  -0.00430
   D32        3.13343  -0.00032   0.00000  -0.01433  -0.01418   3.11925
   D33       -3.12520  -0.00058   0.00000  -0.02585  -0.02605   3.13193
   D34        0.00593  -0.00021   0.00000  -0.00773  -0.00779  -0.00186
   D35       -0.00092   0.00024   0.00000   0.00971   0.00982   0.00890
   D36       -3.13802   0.00054   0.00000   0.02197   0.02202  -3.11601
   D37        0.00510  -0.00042   0.00000  -0.01571  -0.01554  -0.01044
   D38       -3.13551  -0.00020   0.00000  -0.00715  -0.00711   3.14057
   D39       -0.00717   0.00041   0.00000   0.01529   0.01521   0.00804
   D40        3.13356   0.00022   0.00000   0.00777   0.00782   3.14137
         Item               Value     Threshold  Converged?
 Maximum Force            0.018260     0.000450     NO 
 RMS     Force            0.003318     0.000300     NO 
 Maximum Displacement     0.145964     0.001800     NO 
 RMS     Displacement     0.033275     0.001200     NO 
 Predicted change in Energy=-1.310620D-03
 GradGradGradGradGradGradGradGradGradGradGradGradGradGradGradGradGradGrad

 Leave Link  103 at Mon Oct  4 11:08:40 2021, MaxMem=  805306368 cpu:       2.3
 (Enter /sw/target/amd/app/gaussian/Gaussian09RevA.02_gcc-4.9.2/g09/l202.exe)
                          Input orientation:                          
 ---------------------------------------------------------------------
 Center     Atomic      Atomic             Coordinates (Angstroms)
 Number     Number       Type             X           Y           Z
 ---------------------------------------------------------------------
      1          6           0        1.376927   -0.193494    0.026481
      2          6           0        0.515640   -1.289498   -0.061175
      3          6           0       -0.864094   -1.099025   -0.105018
      4          6           0       -1.405364    0.197070   -0.068914
      5          6           0       -0.530335    1.294042    0.011936
      6          6           0        0.847642    1.098722    0.065088
      7          6           0       -2.846422    0.410050   -0.106676
      8          6           0       -3.683113    1.458669    0.156706
      9          7           0       -4.998276    1.080272   -0.046998
     10          6           0       -4.927175   -0.163768   -0.409669
     11          8           0       -3.660015   -0.640017   -0.475426
     12          1           0        2.452677   -0.344566    0.061519
     13          1           0        0.916712   -2.298659   -0.090052
     14          1           0       -1.525653   -1.957177   -0.166453
     15          1           0       -0.927246    2.305537    0.024410
     16          1           0        1.508478    1.958829    0.125440
     17          1           0       -3.423207    2.452561    0.493160
     18          1           0       -5.727477   -0.842393   -0.665226
 ---------------------------------------------------------------------
                    Distance matrix (angstroms):
                    1          2          3          4          5
     1  C    0.000000
     2  C    1.396683   0.000000
     3  C    2.420631   1.393510   0.000000
     4  C    2.811189   2.429033   1.405041   0.000000
     5  C    2.418806   2.788205   2.419059   1.405546   0.000000
     6  C    1.396944   2.414490   2.790890   2.430425   1.392766
     7  C    4.268334   3.767492   2.491372   1.457201   2.481888
     8  C    5.324529   5.022890   3.815386   2.613557   3.160391
     9  N    6.501622   6.001606   4.673773   3.699938   4.473440
    10  C    6.319241   5.568927   4.180447   3.556609   4.651361
    11  O    5.081543   4.246119   2.857458   2.439143   3.711200
    12  H    1.086871   2.158718   3.405572   3.898059   3.403800
    13  H    2.158031   1.086323   2.147234   3.408980   3.874512
    14  H    3.401878   2.150292   1.085292   2.159806   3.404835
    15  H    3.399172   3.874729   3.407606   2.164009   1.086653
    16  H    2.158609   3.401791   3.877200   3.410578   2.147459
    17  H    5.500971   5.461210   4.418217   3.078126   3.153165
    18  H    7.167432   6.288187   4.902263   4.485168   5.659786
                    6          7          8          9         10
     6  C    0.000000
     7  C    3.761632   0.000000
     8  C    4.545954   1.367122   0.000000
     9  N    5.847021   2.254603   1.383594   0.000000
    10  C    5.930243   2.179588   2.121502   1.297776   0.000000
    11  O    4.861517   1.378606   2.191942   2.221236   1.355297
    12  H    2.158525   5.355202   6.395986   7.586741   7.397089
    13  H    3.401622   4.636654   5.944476   6.812203   6.229841
    14  H    3.876165   2.711414   4.053032   4.615135   3.853027
    15  H    2.146692   2.700608   2.886085   4.252017   4.720733
    16  H    1.086338   4.627930   5.215722   6.568062   6.797748
    17  H    4.500698   2.205524   1.081006   2.157727   3.149952
    18  H    6.894452   3.190779   3.185888   2.147226   1.079965
                   11         12         13         14         15
    11  O    0.000000
    12  H    6.143339   0.000000
    13  H    4.883240   2.490109   0.000000
    14  H    2.527029   4.298790   2.467305   0.000000
    15  H    4.048969   4.295149   4.961038   4.308740   0.000000
    16  H    5.816215   2.490226   4.303815   4.962485   2.462349
    17  H    3.249350   6.521982   6.461356   4.845780   2.543848
    18  H    2.085995   8.227449   6.826183   4.375710   5.781632
                   16         17         18
    16  H    0.000000
    17  H    4.969960   0.000000
    18  H    7.799425   4.184285   0.000000
 Stoichiometry    C9H7NO
 Framework group  C1[X(C9H7NO)]
 Deg. of freedom    48
 Full point group                 C1      NOp   1
 Largest Abelian subgroup         C1      NOp   1
 Largest concise Abelian subgroup C1      NOp   1
                         Standard orientation:                         
 ---------------------------------------------------------------------
 Center     Atomic      Atomic             Coordinates (Angstroms)
 Number     Number       Type             X           Y           Z
 ---------------------------------------------------------------------
      1          6           0        3.243913   -0.067370    0.001766
      2          6           0        2.488815   -1.238042    0.102157
      3          6           0        1.096533   -1.179709    0.106236
      4          6           0        0.435420    0.055707    0.002239
      5          6           0        1.203821    1.227655   -0.105735
      6          6           0        2.595192    1.165628   -0.099877
      7          6           0       -1.019768    0.131566    0.012630
      8          6           0       -1.941896    1.126694    0.181225
      9          7           0       -3.221831    0.607974    0.097403
     10          6           0       -3.046398   -0.662002   -0.104109
     11          8           0       -1.743078   -1.027155   -0.173764
     12          1           0        4.329727   -0.115267   -0.000236
     13          1           0        2.983279   -2.201886    0.183438
     14          1           0        0.518336   -2.094210    0.191297
     15          1           0        0.712616    2.191979   -0.203779
     16          1           0        3.172438    2.081849   -0.186226
     17          1           0       -1.765187    2.175976    0.371895
     18          1           0       -3.787558   -1.437781   -0.227283
 ---------------------------------------------------------------------
 Rotational constants (GHZ):      3.6175941      0.6860070      0.5792909
 Leave Link  202 at Mon Oct  4 11:08:41 2021, MaxMem=  805306368 cpu:       0.0
 (Enter /sw/target/amd/app/gaussian/Gaussian09RevA.02_gcc-4.9.2/g09/l301.exe)
 Standard basis: 6-31G(d) (6D, 7F)
 Ernie: Thresh=  0.10000D-02 Tol=  0.10000D-05 Strict=F.
 There are   179 symmetry adapted basis functions of A   symmetry.
 Integral buffers will be    131072 words long.
 Raffenetti 2 integral format.
 Two-electron integral symmetry is turned on.
   179 basis functions,   336 primitive gaussians,   179 cartesian basis functions
    38 alpha electrons       38 beta electrons
       nuclear repulsion energy       541.1842845038 Hartrees.
 IExCor=  402 DFT=T Ex+Corr=B3LYP ExCW=0 ScaHFX=  0.200000
 ScaDFX=  0.800000  0.720000  1.000000  0.810000 ScalE2=  1.000000  1.000000
 IRadAn=      0 IRanWt=     -1 IRanGd=            0 ICorTp=0
 NAtoms=   18 NActive=   18 NUniq=   18 SFac= 7.50D-01 NAtFMM=   80 NAOKFM=F Big=F
 Leave Link  301 at Mon Oct  4 11:08:41 2021, MaxMem=  805306368 cpu:       0.1
 (Enter /sw/target/amd/app/gaussian/Gaussian09RevA.02_gcc-4.9.2/g09/l302.exe)
 NPDir=0 NMtPBC=     1 NCelOv=     1 NCel=       1 NClECP=     1 NCelD=      1
         NCelK=      1 NCelE2=     1 NClLst=     1 CellRange=     0.0.
 One-electron integrals computed using PRISM.
 NBasis=   179 RedAO= T  NBF=   179
 NBsUse=   179 1.00D-06 NBFU=   179
 Precomputing XC quadrature grid using
 IXCGrd= 2 IRadAn=           0 IRanWt=          -1 IRanGd=           0 AccXCQ= 1.00D-10.
 NRdTot=    1129 NPtTot=      143492 NUsed=      151642 NTot=      151674
 NSgBfM=   178   178   178   178   178 NAtAll=    18    18.
 Leave Link  302 at Mon Oct  4 11:08:44 2021, MaxMem=  805306368 cpu:       1.1
 (Enter /sw/target/amd/app/gaussian/Gaussian09RevA.02_gcc-4.9.2/g09/l303.exe)
 DipDrv:  MaxL=1.
 Leave Link  303 at Mon Oct  4 11:08:44 2021, MaxMem=  805306368 cpu:       0.1
 (Enter /sw/target/amd/app/gaussian/Gaussian09RevA.02_gcc-4.9.2/g09/l401.exe)
 Initial guess read from the read-write file.
 B after Tr=     0.000000    0.000000    0.000000
         Rot=    1.000000    0.000000    0.000000    0.000000 Ang=   0.00 deg.
 Guess basis will be translated and rotated to current coordinates.
 Initial guess orbital symmetries:
       Occupied  (A) (A) (A) (A) (A) (A) (A) (A) (A) (A) (A) (A)
                 (A) (A) (A) (A) (A) (A) (A) (A) (A) (A) (A) (A)
                 (A) (A) (A) (A) (A) (A) (A) (A) (A) (A) (A) (A)
                 (A) (A)
       Virtual   (A) (A) (A) (A) (A) (A) (A) (A) (A) (A) (A) (A)
                 (A) (A) (A) (A) (A) (A) (A) (A) (A) (A) (A) (A)
                 (A) (A) (A) (A) (A) (A) (A) (A) (A) (A) (A) (A)
                 (A) (A) (A) (A) (A) (A) (A) (A) (A) (A) (A) (A)
                 (A) (A) (A) (A) (A) (A) (A) (A) (A) (A) (A) (A)
                 (A) (A) (A) (A) (A) (A) (A) (A) (A) (A) (A) (A)
                 (A) (A) (A) (A) (A) (A) (A) (A) (A) (A) (A) (A)
                 (A) (A) (A) (A) (A) (A) (A) (A) (A) (A) (A) (A)
                 (A) (A) (A) (A) (A) (A) (A) (A) (A) (A) (A) (A)
                 (A) (A) (A) (A) (A) (A) (A) (A) (A) (A) (A) (A)
                 (A) (A) (A) (A) (A) (A) (A) (A) (A) (A) (A) (A)
                 (A) (A) (A) (A) (A) (A) (A) (A) (A)
 The electronic state of the initial guess is 1-A.
 Generating alternative initial guess.
 Harris functional with IExCor=  402 diagonalized for initial guess.
 ExpMin= 1.61D-01 ExpMax= 5.48D+03 ExpMxC= 8.25D+02 IAcc=1 IRadAn=         1 AccDes= 0.00D+00
 HarFok:  IExCor=  402 AccDes= 0.00D+00 IRadAn=         1 IDoV= 1
 ScaDFX=  1.000000  1.000000  1.000000  1.000000
 FoFCou: FMM=F IPFlag=           0 FMFlag=      100000 FMFlg1=           0
         NFxFlg=           0 DoJE=T BraDBF=F KetDBF=T FulRan=T
         Omega=  0.000000  0.000000  1.000000  0.000000  0.000000 ICntrl=     500 IOpCl=  0
         NMat0=    1 NMatS0=    1 NMatT0=    0 NMatD0=    1 NMtDS0=    0 NMtDT0=    0
         I1Cent=           4 NGrid=           0.
 Petite list used in FoFCou.
 Harris En= -477.168987977795    
 Leave Link  401 at Mon Oct  4 11:08:58 2021, MaxMem=  805306368 cpu:       5.3
 (Enter /sw/target/amd/app/gaussian/Gaussian09RevA.02_gcc-4.9.2/g09/l502.exe)
 Closed shell SCF:
 Requested convergence on RMS density matrix=1.00D-08 within  64 cycles.
 Requested convergence on MAX density matrix=1.00D-06.
 Requested convergence on             energy=1.00D-06.
 No special actions if energy rises.
 Using DIIS extrapolation, IDIIS=  1040.
 Integral symmetry usage will be decided dynamically.
       151467 words used for storage of precomputed grid.
 Keep R1 ints in memory in canonical form, NReq=132945578.
 IEnd=      255549 IEndB=      255549 NGot=   805306368 MDV=   675313131
 LenX=   675313131 LenY=   675280649
 Symmetry not used in FoFDir.
 MinBra= 0 MaxBra= 2 Meth= 1.
 IRaf=       0 NMat=   1 IRICut=       1 DoRegI=T DoRafI=F ISym2E= 0 JSym2E=0.
 Integral accuracy reduced to 1.0D-05 until final iterations.

 Cycle   1  Pass 0  IDiag  1:
 E= -477.130411649412    
 DIIS: error= 2.59D-03 at cycle   1 NSaved=   1.
 NSaved= 1 IEnMin= 1 EnMin= -477.130411649412     IErMin= 1 ErrMin= 2.59D-03
 ErrMax= 2.59D-03 EMaxC= 1.00D-01 BMatC= 1.60D-03 BMatP= 1.60D-03
 IDIUse=3 WtCom= 9.74D-01 WtEn= 2.59D-02
 Coeff-Com:  0.100D+01
 Coeff-En:   0.100D+01
 Coeff:      0.100D+01
 Gap=     0.190 Goal=   None    Shift=    0.000
 GapD=    0.190 DampG=1.000 DampE=1.000 DampFc=1.0000 IDamp=-1.
 RMSDP=4.27D-04 MaxDP=8.77D-03              OVMax= 1.43D-02

 Cycle   2  Pass 0  IDiag  1:
 E= -477.133628361965     Delta-E=       -0.003216712553 Rises=F Damp=F
 DIIS: error= 3.24D-04 at cycle   2 NSaved=   2.
 NSaved= 2 IEnMin= 2 EnMin= -477.133628361965     IErMin= 2 ErrMin= 3.24D-04
 ErrMax= 3.24D-04 EMaxC= 1.00D-01 BMatC= 5.12D-05 BMatP= 1.60D-03
 IDIUse=3 WtCom= 9.97D-01 WtEn= 3.24D-03
 Coeff-Com: -0.280D-01 0.103D+01
 Coeff-En:   0.000D+00 0.100D+01
 Coeff:     -0.279D-01 0.103D+01
 Gap=     0.182 Goal=   None    Shift=    0.000
 RMSDP=8.45D-05 MaxDP=2.03D-03 DE=-3.22D-03 OVMax= 4.44D-03

 Cycle   3  Pass 0  IDiag  1:
 E= -477.133618808597     Delta-E=        0.000009553368 Rises=F Damp=F
 DIIS: error= 5.77D-04 at cycle   3 NSaved=   3.
 NSaved= 3 IEnMin= 2 EnMin= -477.133628361965     IErMin= 2 ErrMin= 3.24D-04
 ErrMax= 5.77D-04 EMaxC= 1.00D-01 BMatC= 9.17D-05 BMatP= 5.12D-05
 IDIUse=3 WtCom= 2.94D-01 WtEn= 7.06D-01
 Coeff-Com: -0.453D-01 0.617D+00 0.429D+00
 Coeff-En:   0.000D+00 0.540D+00 0.460D+00
 Coeff:     -0.133D-01 0.562D+00 0.451D+00
 Gap=     0.182 Goal=   None    Shift=    0.000
 RMSDP=5.74D-05 MaxDP=2.00D-03 DE= 9.55D-06 OVMax= 3.62D-03

 Cycle   4  Pass 0  IDiag  1:
 E= -477.133690847915     Delta-E=       -0.000072039318 Rises=F Damp=F
 DIIS: error= 2.19D-04 at cycle   4 NSaved=   4.
 NSaved= 4 IEnMin= 4 EnMin= -477.133690847915     IErMin= 4 ErrMin= 2.19D-04
 ErrMax= 2.19D-04 EMaxC= 1.00D-01 BMatC= 1.02D-05 BMatP= 5.12D-05
 IDIUse=3 WtCom= 9.98D-01 WtEn= 2.19D-03
 Coeff-Com: -0.209D-01 0.226D+00 0.286D+00 0.509D+00
 Coeff-En:   0.000D+00 0.000D+00 0.845D-01 0.916D+00
 Coeff:     -0.209D-01 0.226D+00 0.285D+00 0.509D+00
 Gap=     0.182 Goal=   None    Shift=    0.000
 RMSDP=1.93D-05 MaxDP=7.08D-04 DE=-7.20D-05 OVMax= 1.24D-03

 Cycle   5  Pass 0  IDiag  1:
 E= -477.133699109153     Delta-E=       -0.000008261238 Rises=F Damp=F
 DIIS: error= 7.21D-05 at cycle   5 NSaved=   5.
 NSaved= 5 IEnMin= 5 EnMin= -477.133699109153     IErMin= 5 ErrMin= 7.21D-05
 ErrMax= 7.21D-05 EMaxC= 1.00D-01 BMatC= 9.48D-07 BMatP= 1.02D-05
 IDIUse=1 WtCom= 1.00D+00 WtEn= 0.00D+00
 Coeff-Com: -0.592D-02 0.466D-01 0.113D+00 0.318D+00 0.529D+00
 Coeff:     -0.592D-02 0.466D-01 0.113D+00 0.318D+00 0.529D+00
 Gap=     0.182 Goal=   None    Shift=    0.000
 RMSDP=6.18D-06 MaxDP=1.85D-04 DE=-8.26D-06 OVMax= 3.49D-04

 Initial convergence to 1.0D-05 achieved.  Increase integral accuracy.
 Cycle   6  Pass 1  IDiag  1:
 E= -477.133687245800     Delta-E=        0.000011863352 Rises=F Damp=F
 DIIS: error= 1.84D-05 at cycle   1 NSaved=   1.
 NSaved= 1 IEnMin= 1 EnMin= -477.133687245800     IErMin= 1 ErrMin= 1.84D-05
 ErrMax= 1.84D-05 EMaxC= 1.00D-01 BMatC= 1.39D-07 BMatP= 1.39D-07
 IDIUse=1 WtCom= 1.00D+00 WtEn= 0.00D+00
 Coeff-Com:  0.100D+01
 Coeff:      0.100D+01
 Gap=     0.182 Goal=   None    Shift=    0.000
 RMSDP=6.18D-06 MaxDP=1.85D-04 DE= 1.19D-05 OVMax= 2.53D-04

 Cycle   7  Pass 1  IDiag  1:
 E= -477.133687125631     Delta-E=        0.000000120169 Rises=F Damp=F
 DIIS: error= 3.91D-05 at cycle   2 NSaved=   2.
 NSaved= 2 IEnMin= 1 EnMin= -477.133687245800     IErMin= 1 ErrMin= 1.84D-05
 ErrMax= 3.91D-05 EMaxC= 1.00D-01 BMatC= 2.88D-07 BMatP= 1.39D-07
 IDIUse=1 WtCom= 1.00D+00 WtEn= 0.00D+00
 Coeff-Com:  0.602D+00 0.398D+00
 Coeff:      0.602D+00 0.398D+00
 Gap=     0.182 Goal=   None    Shift=    0.000
 RMSDP=3.38D-06 MaxDP=1.13D-04 DE= 1.20D-07 OVMax= 1.89D-04

 Cycle   8  Pass 1  IDiag  1:
 E= -477.133687397823     Delta-E=       -0.000000272192 Rises=F Damp=F
 DIIS: error= 8.49D-06 at cycle   3 NSaved=   3.
 NSaved= 3 IEnMin= 3 EnMin= -477.133687397823     IErMin= 3 ErrMin= 8.49D-06
 ErrMax= 8.49D-06 EMaxC= 1.00D-01 BMatC= 1.54D-08 BMatP= 1.39D-07
 IDIUse=1 WtCom= 1.00D+00 WtEn= 0.00D+00
 Coeff-Com:  0.115D+00 0.195D+00 0.689D+00
 Coeff:      0.115D+00 0.195D+00 0.689D+00
 Gap=     0.182 Goal=   None    Shift=    0.000
 RMSDP=1.04D-06 MaxDP=3.10D-05 DE=-2.72D-07 OVMax= 5.52D-05

 Cycle   9  Pass 1  IDiag  1:
 E= -477.133687407016     Delta-E=       -0.000000009194 Rises=F Damp=F
 DIIS: error= 5.60D-06 at cycle   4 NSaved=   4.
 NSaved= 4 IEnMin= 4 EnMin= -477.133687407016     IErMin= 4 ErrMin= 5.60D-06
 ErrMax= 5.60D-06 EMaxC= 1.00D-01 BMatC= 6.72D-09 BMatP= 1.54D-08
 IDIUse=1 WtCom= 1.00D+00 WtEn= 0.00D+00
 Coeff-Com: -0.900D-02 0.775D-01 0.475D+00 0.456D+00
 Coeff:     -0.900D-02 0.775D-01 0.475D+00 0.456D+00
 Gap=     0.182 Goal=   None    Shift=    0.000
 RMSDP=4.45D-07 MaxDP=1.65D-05 DE=-9.19D-09 OVMax= 2.66D-05

 Cycle  10  Pass 1  IDiag  1:
 E= -477.133687412765     Delta-E=       -0.000000005748 Rises=F Damp=F
 DIIS: error= 9.69D-07 at cycle   5 NSaved=   5.
 NSaved= 5 IEnMin= 5 EnMin= -477.133687412765     IErMin= 5 ErrMin= 9.69D-07
 ErrMax= 9.69D-07 EMaxC= 1.00D-01 BMatC= 2.11D-10 BMatP= 6.72D-09
 IDIUse=1 WtCom= 1.00D+00 WtEn= 0.00D+00
 Coeff-Com: -0.115D-01 0.299D-01 0.212D+00 0.246D+00 0.523D+00
 Coeff:     -0.115D-01 0.299D-01 0.212D+00 0.246D+00 0.523D+00
 Gap=     0.182 Goal=   None    Shift=    0.000
 RMSDP=8.89D-08 MaxDP=2.67D-06 DE=-5.75D-09 OVMax= 5.65D-06

 Cycle  11  Pass 1  IDiag  1:
 E= -477.133687412963     Delta-E=       -0.000000000199 Rises=F Damp=F
 DIIS: error= 1.24D-07 at cycle   6 NSaved=   6.
 NSaved= 6 IEnMin= 6 EnMin= -477.133687412963     IErMin= 6 ErrMin= 1.24D-07
 ErrMax= 1.24D-07 EMaxC= 1.00D-01 BMatC= 3.44D-12 BMatP= 2.11D-10
 IDIUse=1 WtCom= 1.00D+00 WtEn= 0.00D+00
 Coeff-Com: -0.370D-02 0.788D-02 0.569D-01 0.705D-01 0.189D+00 0.679D+00
 Coeff:     -0.370D-02 0.788D-02 0.569D-01 0.705D-01 0.189D+00 0.679D+00
 Gap=     0.182 Goal=   None    Shift=    0.000
 RMSDP=1.81D-08 MaxDP=5.23D-07 DE=-1.99D-10 OVMax= 9.53D-07

 Cycle  12  Pass 1  IDiag  1:
 E= -477.133687412977     Delta-E=       -0.000000000014 Rises=F Damp=F
 DIIS: error= 7.59D-08 at cycle   7 NSaved=   7.
 NSaved= 7 IEnMin= 7 EnMin= -477.133687412977     IErMin= 7 ErrMin= 7.59D-08
 ErrMax= 7.59D-08 EMaxC= 1.00D-01 BMatC= 1.02D-12 BMatP= 3.44D-12
 IDIUse=1 WtCom= 1.00D+00 WtEn= 0.00D+00
 Coeff-Com: -0.999D-03 0.160D-02 0.119D-01 0.163D-01 0.576D-01 0.385D+00
 Coeff-Com:  0.529D+00
 Coeff:     -0.999D-03 0.160D-02 0.119D-01 0.163D-01 0.576D-01 0.385D+00
 Coeff:      0.529D+00
 Gap=     0.182 Goal=   None    Shift=    0.000
 RMSDP=7.61D-09 MaxDP=2.52D-07 DE=-1.36D-11 OVMax= 5.22D-07

 SCF Done:  E(RB3LYP) =  -477.133687413     A.U. after   12 cycles
             Convg  =    0.7611D-08             -V/T =  2.0095
 KE= 4.726401989082D+02 PE=-2.190825056365D+03 EE= 6.998668855405D+02
 Leave Link  502 at Mon Oct  4 11:12:04 2021, MaxMem=  805306368 cpu:      80.1
 (Enter /sw/target/amd/app/gaussian/Gaussian09RevA.02_gcc-4.9.2/g09/l508.exe)
 QCSCF skips out because SCF is already converged.
 Leave Link  508 at Mon Oct  4 11:12:04 2021, MaxMem=  805306368 cpu:       0.0
 (Enter /sw/target/amd/app/gaussian/Gaussian09RevA.02_gcc-4.9.2/g09/l701.exe)
 Compute integral first derivatives.
 ... and contract with generalized density number  0.
 Leave Link  701 at Mon Oct  4 11:12:07 2021, MaxMem=  805306368 cpu:       0.9
 (Enter /sw/target/amd/app/gaussian/Gaussian09RevA.02_gcc-4.9.2/g09/l702.exe)
 L702 exits ... SP integral derivatives will be done elsewhere.
 Leave Link  702 at Mon Oct  4 11:12:07 2021, MaxMem=  805306368 cpu:       0.1
 (Enter /sw/target/amd/app/gaussian/Gaussian09RevA.02_gcc-4.9.2/g09/l703.exe)
 Compute integral first derivatives, UseDBF=F ICtDFT=           0.
 Integral derivatives from FoFDir, PRISM(SPDF).
 Calling FoFJK, ICntrl=      2127 FMM=F ISym2X=0 I1Cent= 0 IOpClX= 0 NMat=1 NMatS=1 NMatT=0.
 FoFCou: FMM=F IPFlag=           0 FMFlag=      100000 FMFlg1=         800
         NFxFlg=           0 DoJE=F BraDBF=F KetDBF=F FulRan=T
         Omega=  0.000000  0.000000  1.000000  0.000000  0.000000 ICntrl=    2127 IOpCl=  0
         NMat0=    1 NMatS0=    1 NMatT0=    0 NMatD0=    1 NMtDS0=    0 NMtDT0=    0
         I1Cent=           0 NGrid=           0.
 Symmetry not used in FoFCou.
 Leave Link  703 at Mon Oct  4 11:13:33 2021, MaxMem=  805306368 cpu:      43.0
 (Enter /sw/target/amd/app/gaussian/Gaussian09RevA.02_gcc-4.9.2/g09/l716.exe)
 Dipole        = 7.25454810D-01-2.53460714D-01-3.04762739D-02
 ***** Axes restored to original set *****
 -------------------------------------------------------------------
 Center     Atomic                   Forces (Hartrees/Bohr)
 Number     Number              X              Y              Z
 -------------------------------------------------------------------
      1        6           0.000528588   -0.000519915    0.000018724
      2        6          -0.000308086    0.001102654    0.000248404
      3        6           0.000710310   -0.001173872   -0.000565523
      4        6          -0.000661397   -0.000492701   -0.000128414
      5        6           0.000991496    0.001072735    0.000651667
      6        6          -0.001012404   -0.000497588   -0.000289007
      7        6          -0.003728165   -0.000158632   -0.000583285
      8        6           0.001744293    0.000687744   -0.000272589
      9        7          -0.004883240   -0.000577186    0.000700305
     10        6           0.006183095    0.008110673    0.001578966
     11        8           0.002042319   -0.007609112   -0.000810865
     12        1          -0.000260527    0.000028401    0.000022696
     13        1           0.000233583   -0.000104201   -0.000060351
[...]
     5  C   -0.052659  -0.009382   0.000009  -0.000163   0.003103   0.005118
     6  C    0.007084   0.000125  -0.000003   0.000002  -0.000058  -0.043034
     7  C    4.889477   0.399489  -0.035934  -0.042202   0.248172   0.000003
     8  C    0.399489   5.126788   0.419498  -0.131864  -0.074657  -0.000000
     9  N   -0.035934   0.419498   6.676887   0.481827  -0.075648   0.000000
    10  C   -0.042202  -0.131864   0.481827   4.772449   0.270860  -0.000000
    11  O    0.248172  -0.074657  -0.075648   0.270860   8.146269   0.000000
    12  H    0.000003  -0.000000   0.000000  -0.000000   0.000000   0.600817
    13  H   -0.000183   0.000001  -0.000000  -0.000000  -0.000003  -0.005707
    14  H   -0.012996   0.000289   0.000045  -0.000034   0.009300  -0.000168
    15  H   -0.013701   0.005912   0.000028  -0.000007   0.000027  -0.000180
    16  H   -0.000219  -0.000000  -0.000000  -0.000000   0.000000  -0.005677
    17  H   -0.044978   0.370066  -0.037370   0.007211   0.003153  -0.000000
    18  H    0.003713   0.006149  -0.042072   0.380336  -0.042186  -0.000000
             13         14         15         16         17         18
     1  C   -0.043303   0.004609   0.004799  -0.042903   0.000001   0.000000
     2  C    0.358105  -0.040804   0.000257   0.004572   0.000002  -0.000000
     3  C   -0.038200   0.356042   0.005991   0.000920  -0.000108  -0.000015
     4  C    0.003410  -0.044773  -0.043866   0.003363  -0.001210  -0.000088
     5  C    0.000888   0.005633   0.349283  -0.038158   0.001164   0.000003
     6  C    0.004636   0.000263  -0.041078   0.356709   0.000034  -0.000000
     7  C   -0.000183  -0.012996  -0.013701  -0.000219  -0.044978   0.003713
     8  C    0.000001   0.000289   0.005912  -0.000000   0.370066   0.006149
     9  N   -0.000000   0.000045   0.000028  -0.000000  -0.037370  -0.042072
    10  C   -0.000000  -0.000034  -0.000007  -0.000000   0.007211   0.380336
    11  O   -0.000003   0.009300   0.000027   0.000000   0.003153  -0.042186
    12  H   -0.005707  -0.000168  -0.000180  -0.005677  -0.000000  -0.000000
    13  H    0.594729  -0.005492   0.000017  -0.000187   0.000000  -0.000000
    14  H   -0.005492   0.581969  -0.000159   0.000017  -0.000006   0.000014
    15  H    0.000017  -0.000159   0.609913  -0.005726   0.002852  -0.000000
    16  H   -0.000187   0.000017  -0.005726   0.594789  -0.000002   0.000000
    17  H    0.000000  -0.000006   0.002852  -0.000002   0.533026  -0.000124
    18  H   -0.000000   0.000014  -0.000000   0.000000  -0.000124   0.513563
 Mulliken atomic charges:
              1
     1  C   -0.137557
     2  C   -0.134817
     3  C   -0.162677
     4  C    0.069855
     5  C   -0.177328
     6  C   -0.132325
     7  C    0.300477
     8  C   -0.056850
     9  N   -0.394887
    10  C    0.254253
    11  O   -0.439307
    12  H    0.128487
    13  H    0.131290
    14  H    0.146251
    15  H    0.125638
    16  H    0.132502
    17  H    0.166290
    18  H    0.180706
 Sum of Mulliken atomic charges =  -0.00000
 Mulliken charges with hydrogens summed into heavy atoms:
              1
     1  C   -0.009070
     2  C   -0.003527
     3  C   -0.016426
     4  C    0.069855
     5  C   -0.051690
     6  C    0.000176
     7  C    0.300477
     8  C    0.109440
     9  N   -0.394887
    10  C    0.434959
    11  O   -0.439307
 Sum of Mulliken charges with hydrogens summed into heavy atoms =  -0.00000
 Electronic spatial extent (au):  <R**2>=           1840.7220
 Charge=             -0.0000 electrons
 Dipole moment (field-independent basis, Debye):
    X=             -0.7551    Y=             -0.4870    Z=             -0.0000  Tot=              0.8985
 Quadrupole moment (field-independent basis, Debye-Ang):
   XX=            -61.9458   YY=            -56.5645   ZZ=            -65.8129
   XY=             -5.3289   XZ=             -0.0003   YZ=             -0.0002
 Traceless Quadrupole moment (field-independent basis, Debye-Ang):
   XX=             -0.5047   YY=              4.8766   ZZ=             -4.3719
   XY=             -5.3289   XZ=             -0.0003   YZ=             -0.0002
 Octapole moment (field-independent basis, Debye-Ang**2):
  XXX=            -24.0994  YYY=             -0.1962  ZZZ=             -0.0003  XYY=              2.2164
  XXY=            -28.7096  XXZ=             -0.0007  XZZ=              8.9489  YZZ=             -2.2282
  YYZ=             -0.0000  XYZ=             -0.0001
 Hexadecapole moment (field-independent basis, Debye-Ang**3):
 XXXX=          -1946.0126 YYYY=           -409.0712 ZZZZ=            -65.1557 XXXY=           -125.3598
 XXXZ=             -0.0062 YYYX=             -6.6423 YYYZ=             -0.0003 ZZZX=             -0.0004
 ZZZY=              0.0004 XXYY=           -368.2736 XXZZ=           -362.0695 YYZZ=            -92.3007
 XXYZ=             -0.0010 YYXZ=              0.0003 ZZXY=             -3.9109
 N-N= 5.414154879118D+02 E-N=-2.191135613252D+03  KE= 4.728393503419D+02
 No NMR shielding tensors so no spin-rotation constants.
 Leave Link  601 at Mon Oct  4 15:51:12 2021, MaxMem=  805306368 cpu:       0.8
 (Enter /sw/target/amd/app/gaussian/Gaussian09RevA.02_gcc-4.9.2/g09/l604.exe)
 Evaluate density.
 Using the total density.
 Monte-Carlo method of calculating molar volume:
 based on  0.001 e/bohr**3 density envelope.
 Number of points per bohr**3 =   20 CutOff= 1.00D-04
 Using the CI density.
 There are       358 points.  Will hold       358 in memory.
 LenV=   805208634 MDV=   805306368.
 Box volume = 5739.458 fraction occupied=0.235
 Integrated density= 6.7532190808381202D+01 error=-8.4678091916187981D+00
 Molar volume = 1346.688 bohr**3/mol (120.177 cm**3/mol)
 Recommended a0 for SCRF calculation =  4.49 angstrom (  8.48 bohr)
 Leave Link  604 at Mon Oct  4 15:51:13 2021, MaxMem=  805306368 cpu:       0.2
 (Enter /sw/target/amd/app/gaussian/Gaussian09RevA.02_gcc-4.9.2/g09/l607.exe)
 ******************************Gaussian NBO Version 3.1******************************
             N A T U R A L   A T O M I C   O R B I T A L   A N D
          N A T U R A L   B O N D   O R B I T A L   A N A L Y S I S
 ******************************Gaussian NBO Version 3.1******************************
       /RESON  / : Allow strongly delocalized NBO set

 Analyzing the CI density

 Job title: c1ccc(cc1)c1cnco1_conf_0                                        

 Storage needed:     97292 in NPA ( 805304604 available)


 NATURAL POPULATIONS:  Natural atomic orbital occupancies 
                                                          
   NAO  Atom  No  lang   Type(AO)    Occupancy
 --------------------------------------------
     1    C    1  S      Cor( 1S)     1.99909
     2    C    1  S      Val( 2S)     0.96335
     3    C    1  S      Ryd( 3S)     0.00052
     4    C    1  S      Ryd( 4S)     0.00003
     5    C    1  px     Val( 2p)     1.19280
     6    C    1  px     Ryd( 3p)     0.00464
     7    C    1  py     Val( 2p)     1.05533
     8    C    1  py     Ryd( 3p)     0.00481
     9    C    1  pz     Val( 2p)     1.01364
    10    C    1  pz     Ryd( 3p)     0.00425
    11    C    1  dxy    Ryd( 3d)     0.00065
    12    C    1  dxz    Ryd( 3d)     0.00034
    13    C    1  dyz    Ryd( 3d)     0.00053
    14    C    1  dx2y2  Ryd( 3d)     0.00087
    15    C    1  dz2    Ryd( 3d)     0.00043

    16    C    2  S      Cor( 1S)     1.99912
    17    C    2  S      Val( 2S)     0.96306
    18    C    2  S      Ryd( 3S)     0.00064
    19    C    2  S      Ryd( 4S)     0.00003
    20    C    2  px     Val( 2p)     1.08931
    21    C    2  px     Ryd( 3p)     0.00491
    22    C    2  py     Val( 2p)     1.16995
    23    C    2  py     Ryd( 3p)     0.00519
    24    C    2  pz     Val( 2p)     1.00930
    25    C    2  pz     Ryd( 3p)     0.00143
    26    C    2  dxy    Ryd( 3d)     0.00080
    27    C    2  dxz    Ryd( 3d)     0.00063
    28    C    2  dyz    Ryd( 3d)     0.00045
    29    C    2  dx2y2  Ryd( 3d)     0.00069
    30    C    2  dz2    Ryd( 3d)     0.00043

    31    C    3  S      Cor( 1S)     1.99907
    32    C    3  S      Val( 2S)     0.95493
    33    C    3  S      Ryd( 3S)     0.00061
    34    C    3  S      Ryd( 4S)     0.00005
    35    C    3  px     Val( 2p)     1.10385
    36    C    3  px     Ryd( 3p)     0.00447
    37    C    3  py     Val( 2p)     1.14563
    38    C    3  py     Ryd( 3p)     0.00454
    39    C    3  pz     Val( 2p)     0.97446
    40    C    3  pz     Ryd( 3p)     0.00232
    41    C    3  dxy    Ryd( 3d)     0.00091
    42    C    3  dxz    Ryd( 3d)     0.00065
    43    C    3  dyz    Ryd( 3d)     0.00042
    44    C    3  dx2y2  Ryd( 3d)     0.00060
    45    C    3  dz2    Ryd( 3d)     0.00043

    46    C    4  S      Cor( 1S)     1.99898
    47    C    4  S      Val( 2S)     0.87724
    48    C    4  S      Ryd( 3S)     0.00074
    49    C    4  S      Ryd( 4S)     0.00008
    50    C    4  px     Val( 2p)     1.06239
    51    C    4  px     Ryd( 3p)     0.00485
    52    C    4  py     Val( 2p)     1.11036
    53    C    4  py     Ryd( 3p)     0.00514
    54    C    4  pz     Val( 2p)     1.07228
    55    C    4  pz     Ryd( 3p)     0.00282
    56    C    4  dxy    Ryd( 3d)     0.00058
    57    C    4  dxz    Ryd( 3d)     0.00076
    58    C    4  dyz    Ryd( 3d)     0.00062
    59    C    4  dx2y2  Ryd( 3d)     0.00079
    60    C    4  dz2    Ryd( 3d)     0.00035

    61    C    5  S      Cor( 1S)     1.99907
    62    C    5  S      Val( 2S)     0.94867
    63    C    5  S      Ryd( 3S)     0.00058
    64    C    5  S      Ryd( 4S)     0.00005
    65    C    5  px     Val( 2p)     1.09059
    66    C    5  px     Ryd( 3p)     0.00365
    67    C    5  py     Val( 2p)     1.14996
    68    C    5  py     Ryd( 3p)     0.00451
    69    C    5  pz     Val( 2p)     1.02103
    70    C    5  pz     Ryd( 3p)     0.00337
    71    C    5  dxy    Ryd( 3d)     0.00086
    72    C    5  dxz    Ryd( 3d)     0.00061
    73    C    5  dyz    Ryd( 3d)     0.00038
    74    C    5  dx2y2  Ryd( 3d)     0.00061
    75    C    5  dz2    Ryd( 3d)     0.00043

    76    C    6  S      Cor( 1S)     1.99912
    77    C    6  S      Val( 2S)     0.96386
    78    C    6  S      Ryd( 3S)     0.00064
    79    C    6  S      Ryd( 4S)     0.00003
    80    C    6  px     Val( 2p)     1.10060
    81    C    6  px     Ryd( 3p)     0.00491
    82    C    6  py     Val( 2p)     1.16040
    83    C    6  py     Ryd( 3p)     0.00528
    84    C    6  pz     Val( 2p)     0.98763
    85    C    6  pz     Ryd( 3p)     0.00082
    86    C    6  dxy    Ryd( 3d)     0.00084
    87    C    6  dxz    Ryd( 3d)     0.00067
    88    C    6  dyz    Ryd( 3d)     0.00048
    89    C    6  dx2y2  Ryd( 3d)     0.00066
    90    C    6  dz2    Ryd( 3d)     0.00043

    91    C    7  S      Cor( 1S)     1.99892
    92    C    7  S      Val( 2S)     0.86690
    93    C    7  S      Ryd( 3S)     0.00203
    94    C    7  S      Ryd( 4S)     0.00017
    95    C    7  px     Val( 2p)     1.00994
    96    C    7  px     Ryd( 3p)     0.00413
    97    C    7  py     Val( 2p)     0.80142
    98    C    7  py     Ryd( 3p)     0.01008
    99    C    7  pz     Val( 2p)     0.98031
   100    C    7  pz     Ryd( 3p)     0.00129
   101    C    7  dxy    Ryd( 3d)     0.00179
   102    C    7  dxz    Ryd( 3d)     0.00160
   103    C    7  dyz    Ryd( 3d)     0.00132
   104    C    7  dx2y2  Ryd( 3d)     0.00146
   105    C    7  dz2    Ryd( 3d)     0.00058

   106    C    8  S      Cor( 1S)     1.99904
   107    C    8  S      Val( 2S)     0.95882
   108    C    8  S      Ryd( 3S)     0.00174
   109    C    8  S      Ryd( 4S)     0.00010
   110    C    8  px     Val( 2p)     0.89268
   111    C    8  px     Ryd( 3p)     0.00785
   112    C    8  py     Val( 2p)     1.17908
   113    C    8  py     Ryd( 3p)     0.00429
   114    C    8  pz     Val( 2p)     1.01908
   115    C    8  pz     Ryd( 3p)     0.00480
   116    C    8  dxy    Ryd( 3d)     0.00123
   117    C    8  dxz    Ryd( 3d)     0.00094
   118    C    8  dyz    Ryd( 3d)     0.00068
   119    C    8  dx2y2  Ryd( 3d)     0.00120
   120    C    8  dz2    Ryd( 3d)     0.00042

   121    N    9  S      Cor( 1S)     1.99951
   122    N    9  S      Val( 2S)     1.42791
   123    N    9  S      Ryd( 3S)     0.00041
   124    N    9  S      Ryd( 4S)     0.00003
   125    N    9  px     Val( 2p)     1.51175
   126    N    9  px     Ryd( 3p)     0.00379
   127    N    9  py     Val( 2p)     1.32861
   128    N    9  py     Ryd( 3p)     0.00440
   129    N    9  pz     Val( 2p)     1.18911
   130    N    9  pz     Ryd( 3p)     0.00042
   131    N    9  dxy    Ryd( 3d)     0.00342
   132    N    9  dxz    Ryd( 3d)     0.00269
   133    N    9  dyz    Ryd( 3d)     0.00203
   134    N    9  dx2y2  Ryd( 3d)     0.00371
   135    N    9  dz2    Ryd( 3d)     0.00274

   136    C   10  S      Cor( 1S)     1.99940
   137    C   10  S      Val( 2S)     0.91194
   138    C   10  S      Ryd( 3S)     0.00236
   139    C   10  S      Ryd( 4S)     0.00021
   140    C   10  px     Val( 2p)     0.79386
   141    C   10  px     Ryd( 3p)     0.00957
   142    C   10  py     Val( 2p)     0.96370
   143    C   10  py     Ryd( 3p)     0.01055
   144    C   10  pz     Val( 2p)     0.95256
   145    C   10  pz     Ryd( 3p)     0.00522
   146    C   10  dxy    Ryd( 3d)     0.00272
   147    C   10  dxz    Ryd( 3d)     0.00151
   148    C   10  dyz    Ryd( 3d)     0.00112
   149    C   10  dx2y2  Ryd( 3d)     0.00192
   150    C   10  dz2    Ryd( 3d)     0.00060

   151    O   11  S      Cor( 1S)     1.99975
   152    O   11  S      Val( 2S)     1.61332
   153    O   11  S      Ryd( 3S)     0.00046
   154    O   11  S      Ryd( 4S)     0.00006
   155    O   11  px     Val( 2p)     1.44094
   156    O   11  px     Ryd( 3p)     0.00088
   157    O   11  py     Val( 2p)     1.68931
   158    O   11  py     Ryd( 3p)     0.00206
   159    O   11  pz     Val( 2p)     1.73115
   160    O   11  pz     Ryd( 3p)     0.00136
   161    O   11  dxy    Ryd( 3d)     0.00149
   162    O   11  dxz    Ryd( 3d)     0.00079
   163    O   11  dyz    Ryd( 3d)     0.00214
   164    O   11  dx2y2  Ryd( 3d)     0.00154
   165    O   11  dz2    Ryd( 3d)     0.00080

   166    H   12  S      Val( 1S)     0.76560
   167    H   12  S      Ryd( 2S)     0.00114

   168    H   13  S      Val( 1S)     0.76169
   169    H   13  S      Ryd( 2S)     0.00086

   170    H   14  S      Val( 1S)     0.75447
   171    H   14  S      Ryd( 2S)     0.00152

   172    H   15  S      Val( 1S)     0.76934
   173    H   15  S      Ryd( 2S)     0.00140

   174    H   16  S      Val( 1S)     0.76128
   175    H   16  S      Ryd( 2S)     0.00088

   176    H   17  S      Val( 1S)     0.75837
   177    H   17  S      Ryd( 2S)     0.00097

   178    H   18  S      Val( 1S)     0.77502
   179    H   18  S      Ryd( 2S)     0.00088

 WARNING:  1 low occupancy (<1.9990e) core orbital  found on  C    4
           1 low occupancy (<1.9990e) core orbital  found on  C    7


 Summary of Natural Population Analysis:                  
                                                          
                                       Natural Population 
                Natural  -----------------------------------------------
    Atom  No    Charge         Core      Valence    Rydberg      Total
 -----------------------------------------------------------------------
      C    1   -0.24131      1.99909     4.22513    0.01709     6.24131
      C    2   -0.24593      1.99912     4.23161    0.01520     6.24593
      C    3   -0.19295      1.99907     4.17888    0.01500     6.19295
      C    4   -0.13798      1.99898     4.12227    0.01673     6.13798
      C    5   -0.22436      1.99907     4.21024    0.01505     6.22436
      C    6   -0.22637      1.99912     4.21249    0.01477     6.22637
      C    7    0.31807      1.99892     3.65857    0.02444     5.68193
      C    8   -0.07194      1.99904     4.04966    0.02324     6.07194
      N    9   -0.48054      1.99951     5.45739    0.02364     7.48054
      C   10    0.34279      1.99940     3.62205    0.03577     5.65721
      O   11   -0.48608      1.99975     6.47473    0.01159     8.48608
      H   12    0.23326      0.00000     0.76560    0.00114     0.76674
      H   13    0.23745      0.00000     0.76169    0.00086     0.76255
      H   14    0.24401      0.00000     0.75447    0.00152     0.75599
      H   15    0.22926      0.00000     0.76934    0.00140     0.77074
      H   16    0.23784      0.00000     0.76128    0.00088     0.76216
      H   17    0.24067      0.00000     0.75837    0.00097     0.75933
      H   18    0.22410      0.00000     0.77502    0.00088     0.77590
 =======================================================================
   * Total *   -0.00000     21.99106    53.78878    0.22016    76.00000

                                 Natural Population      
 --------------------------------------------------------
   Core                      21.99106 ( 99.9594% of  22)
   Valence                   53.78878 ( 99.6088% of  54)
   Natural Minimal Basis     75.77984 ( 99.7103% of  76)
   Natural Rydberg Basis      0.22016 (  0.2897% of  76)
 --------------------------------------------------------

    Atom  No          Natural Electron Configuration
 ----------------------------------------------------------------------------
      C    1      [core]2S( 0.96)2p( 3.26)3p( 0.01)
      C    2      [core]2S( 0.96)2p( 3.27)3p( 0.01)
      C    3      [core]2S( 0.95)2p( 3.22)3p( 0.01)
      C    4      [core]2S( 0.88)2p( 3.25)3p( 0.01)
      C    5      [core]2S( 0.95)2p( 3.26)3p( 0.01)
      C    6      [core]2S( 0.96)2p( 3.25)3p( 0.01)
      C    7      [core]2S( 0.87)2p( 2.79)3p( 0.02)3d( 0.01)
      C    8      [core]2S( 0.96)2p( 3.09)3p( 0.02)
      N    9      [core]2S( 1.43)2p( 4.03)3p( 0.01)3d( 0.01)
      C   10      [core]2S( 0.91)2p( 2.71)3p( 0.03)3d( 0.01)
      O   11      [core]2S( 1.61)2p( 4.86)3d( 0.01)
      H   12            1S( 0.77)
      H   13            1S( 0.76)
      H   14            1S( 0.75)
      H   15            1S( 0.77)
      H   16            1S( 0.76)
      H   17            1S( 0.76)
      H   18            1S( 0.78)


 NBO analysis skipped by request.
 Leave Link  607 at Mon Oct  4 15:51:36 2021, MaxMem=  805306368 cpu:      10.0
 (Enter /sw/target/amd/app/gaussian/Gaussian09RevA.02_gcc-4.9.2/g09/l9999.exe)
 1\1\GINC-HERMITE\SP\RTD-B3LYP-FC\6-31G(d)\C9H7N1O1\JSCHLEINITZ\04-Oct-
 2021\0\\#p TD(NStates=10, Root=1) b3lyp/6-31G* volume pop=NPA density=
 current Geom=AllCheck Guess=Read\\c1ccc(cc1)c1cnco1_conf_0\\0,1\C,0,1.
 3752266834,-0.1966786094,0.0339586944\C,0,0.5173772905,-1.2844226073,-
 0.1375791052\C,0,-0.8620644179,-1.0945267489,-0.1863346663\C,0,-1.4067
 11993,0.1951071229,-0.0632945455\C,0,-0.5352834691,1.2855033759,0.1092
 706301\C,0,0.8414309944,1.0889255818,0.1570675542\C,0,-2.8466162668,0.
 4093984584,-0.1122912899\C,0,-3.6704570681,1.4971990208,-0.0273597307\
 N,0,-4.9945856336,1.1006798832,-0.1419511433\C,0,-4.9246492893,-0.1836
 592819,-0.2887178186\O,0,-3.665663084,-0.6876656381,-0.282894559\H,0,2
 .4503961868,-0.3479212494,0.0715542982\H,0,0.9228135099,-2.2879887373,
 -0.2342443401\H,0,-1.5251135515,-1.9428004254,-0.3198071545\H,0,-0.938
 8434421,2.2894395701,0.206123848\H,0,1.5003932251,1.9424778711,0.29095
 08937\H,0,-3.407524083,2.5364026367,0.1078557864\H,0,-5.7304258445,-0.
 8923138419,-0.4131729115\\Version=AM64L-G09RevA.02\State=1-A\HF=-477.1
 34104\RMSD=6.773e-10\Dipole=0.2780137,-0.2180493,-0.0112134\Quadrupole
 =0.3677342,2.7402015,-3.1079356,4.2033102,0.6782732,0.9180492\PG=C01 [
 X(C9H7N1O1)]\\@


 GOORD'S AXIOM:  A MEETING IS AN EVENT AT WHICH
 THE MINUTES ARE KEPT AND THE HOURS ARE LOST.
 Job cpu time:  0 days  1 hours 10 minutes  0.4 seconds.
 File lengths (MBytes):  RWF=    108 Int=      0 D2E=      0 Chk=     15 Scr=      1
 Normal termination of Gaussian 09 at Mon Oct  4 15:51:46 2021.
