 Entering Gaussian System, Link 0=g09
 Input=C9H8LiN_47aa_conf_0.com
 Output=C9H8LiN_47aa_conf_0.log
 Initial command:
 /sw/target/amd/app/gaussian/Gaussian09RevA.02_gcc-4.9.2/g09/l1.exe /home/jschleinitz/gaussian/Gau-4135186.inp -scrdir=/home/jschleinitz/gaussian/
 Entering Link 1 = /sw/target/amd/app/gaussian/Gaussian09RevA.02_gcc-4.9.2/g09/l1.exe PID=   4135188.
  
 Copyright (c) 1988,1990,1992,1993,1995,1998,2003,2009, Gaussian, Inc.
                  All Rights Reserved.
  
 This is part of the Gaussian(R) 09 program.  It is based on
 the Gaussian(R) 03 system (copyright 2003, Gaussian, Inc.),
 the Gaussian(R) 98 system (copyright 1998, Gaussian, Inc.),
 the Gaussian(R) 94 system (copyright 1995, Gaussian, Inc.),
 the Gaussian 92(TM) system (copyright 1992, Gaussian, Inc.),
 the Gaussian 90(TM) system (copyright 1990, Gaussian, Inc.),
 the Gaussian 88(TM) system (copyright 1988, Gaussian, Inc.),
 the Gaussian 86(TM) system (copyright 1986, Carnegie Mellon
 University), and the Gaussian 82(TM) system (copyright 1983,
 Carnegie Mellon University). Gaussian is a federally registered
 trademark of Gaussian, Inc.
  
 This software contains proprietary and confidential information,
 including trade secrets, belonging to Gaussian, Inc.
  
 This software is provided under written license and may be
 used, copied, transmitted, or stored only in accord with that
 written license.
  
 The following legend is applicable only to US Government
 contracts under FAR:
  
                    RESTRICTED RIGHTS LEGEND
  
 Use, reproduction and disclosure by the US Government is
 subject to restrictions as set forth in subparagraphs (a)
 and (c) of the Commercial Computer Software - Restricted
 Rights clause in FAR 52.227-19.
  
 Gaussian, Inc.
 340 Quinnipiac St., Bldg. 40, Wallingford CT 06492
  
  
 ---------------------------------------------------------------
 Warning -- This program may not be used in any manner that
 competes with the business of Gaussian, Inc. or will provide
 assistance to any competitor of Gaussian, Inc.  The licensee
 of this program is prohibited from giving any competitor of
 Gaussian, Inc. access to this program.  By using this program,
 the user acknowledges that Gaussian, Inc. is engaged in the
 business of creating and licensing software in the field of
 computational chemistry and represents and warrants to the
 licensee that it is not a competitor of Gaussian, Inc. and that
 it will not use this program in any manner prohibited above.
 ---------------------------------------------------------------
  

 Cite this work as:
 Gaussian 09, Revision A.02,
 M. J. Frisch, G. W. Trucks, H. B. Schlegel, G. E. Scuseria, 
 M. A. Robb, J. R. Cheeseman, G. Scalmani, V. Barone, B. Mennucci, 
 G. A. Petersson, H. Nakatsuji, M. Caricato, X. Li, H. P. Hratchian, 
 A. F. Izmaylov, J. Bloino, G. Zheng, J. L. Sonnenberg, M. Hada, 
 M. Ehara, K. Toyota, R. Fukuda, J. Hasegawa, M. Ishida, T. Nakajima, 
 Y. Honda, O. Kitao, H. Nakai, T. Vreven, J. A. Montgomery, Jr., 
 J. E. Peralta, F. Ogliaro, M. Bearpark, J. J. Heyd, E. Brothers, 
 K. N. Kudin, V. N. Staroverov, R. Kobayashi, J. Normand, 
 K. Raghavachari, A. Rendell, J. C. Burant, S. S. Iyengar, J. Tomasi, 
 M. Cossi, N. Rega, J. M. Millam, M. Klene, J. E. Knox, J. B. Cross, 
 V. Bakken, C. Adamo, J. Jaramillo, R. Gomperts, R. E. Stratmann, 
 O. Yazyev, A. J. Austin, R. Cammi, C. Pomelli, J. W. Ochterski, 
 R. L. Martin, K. Morokuma, V. G. Zakrzewski, G. A. Voth, 
 P. Salvador, J. J. Dannenberg, S. Dapprich, A. D. Daniels, 
 O. Farkas, J. B. Foresman, J. V. Ortiz, J. Cioslowski, 
 and D. J. Fox, Gaussian, Inc., Wallingford CT, 2009.
 
 ******************************************
 Gaussian 09:  AM64L-G09RevA.02 11-Jun-2009
                 2-Oct-2021 
 ******************************************
 %nproc=3
 Will use up to    3 processors via shared memory.
 %mem=6gb
 %chk=C9H8LiN_47aa_conf_0.chk
 -----------------------------------
 #p opt b3lyp/6-31G* scf=(xqc,tight)
 -----------------------------------
 1/14=-1,18=20,19=15,26=3,38=1/1,3;
 2/9=110,12=2,17=6,18=5,40=1/2;
 3/5=1,6=6,7=1,11=2,16=1,25=1,30=1,71=1,74=-5/1,2,3;
 4//1;
 5/5=2,8=3,13=1,32=2,38=5/2,8;
 6/7=2,8=2,9=2,10=2,28=1/1;
 7//1,2,3,16;
 1/14=-1,18=20,19=15/3(2);
 2/9=110/2;
 99//99;
 2/9=110/2;
 3/5=1,6=6,7=1,11=2,16=1,25=1,30=1,71=1,74=-5/1,2,3;
 4/5=5,16=3/1;
 5/5=2,8=3,13=1,32=2,38=5/2,8;
 7//1,2,3,16;
 1/14=-1,18=20,19=15/3(-5);
 2/9=110/2;
 6/7=2,8=2,9=2,10=2,19=2,28=1/1;
 99/9=1/99;
 Leave Link    1 at Sat Oct  2 19:26:18 2021, MaxMem=  805306368 cpu:       0.1
 (Enter /sw/target/amd/app/gaussian/Gaussian09RevA.02_gcc-4.9.2/g09/l101.exe)
 ---------------------------
 Cn1c([Li])cc2c1cccc2_conf_0
 ---------------------------
 Symbolic Z-matrix:
 Charge =  0 Multiplicity = 1
 C                     1.03174  -0.12809   0.09053 
 N                     2.4901   -0.09884   0.09031 
 C                     3.26146   1.01413   0.09025 
 Li                    2.53654   2.90284   0.0904 
 C                     4.60583   0.65448   0.09007 
 C                     4.62724  -0.72356   0.08996 
 C                     3.32674  -1.1543    0.09017 
 C                     3.0066   -2.51435   0.09016 
 C                     4.06787  -3.43851   0.08987 
 C                     5.4078   -2.99041   0.08964 
 C                     5.69885  -1.61389   0.08972 
 H                     0.62254   0.90493   0.0906 
 H                     0.66808  -0.65708   0.99643 
 H                     0.66785  -0.65702  -0.81533 
 H                     5.457     1.32219   0.08996 
 H                     1.97859  -2.85237   0.09032 
 H                     3.85622  -4.49979   0.08985 
 H                     6.2158   -3.71021   0.08943 
 H                     6.72185  -1.26014   0.08958 
 
 NAtoms=     19 NQM=     19 NQMF=      0 NMic=      0 NMicF=      0 NTot=     19.
                    Isotopes and Nuclear Properties:
 (Nuclear quadrupole moments (NQMom) in fm**2, nuclear magnetic moments (NMagM)
  in nuclear magnetons)

  Atom         1           2           3           4           5           6           7           8           9          10
 IAtWgt=          12          14          12           7          12          12          12          12          12          12
 AtmWgt=  12.0000000  14.0030740  12.0000000   7.0160045  12.0000000  12.0000000  12.0000000  12.0000000  12.0000000  12.0000000
 NucSpn=           0           2           0           3           0           0           0           0           0           0
 AtZEff=   0.0000000   0.0000000   0.0000000   0.0000000   0.0000000   0.0000000   0.0000000   0.0000000   0.0000000   0.0000000
 NQMom=    0.0000000   2.0440000   0.0000000  -4.0100000   0.0000000   0.0000000   0.0000000   0.0000000   0.0000000   0.0000000
 NMagM=    0.0000000   0.4037610   0.0000000   3.2564240   0.0000000   0.0000000   0.0000000   0.0000000   0.0000000   0.0000000

  Atom        11          12          13          14          15          16          17          18          19
 IAtWgt=          12           1           1           1           1           1           1           1           1
 AtmWgt=  12.0000000   1.0078250   1.0078250   1.0078250   1.0078250   1.0078250   1.0078250   1.0078250   1.0078250
 NucSpn=           0           1           1           1           1           1           1           1           1
 AtZEff=   0.0000000   0.0000000   0.0000000   0.0000000   0.0000000   0.0000000   0.0000000   0.0000000   0.0000000
 NQMom=    0.0000000   0.0000000   0.0000000   0.0000000   0.0000000   0.0000000   0.0000000   0.0000000   0.0000000
 NMagM=    0.0000000   2.7928460   2.7928460   2.7928460   2.7928460   2.7928460   2.7928460   2.7928460   2.7928460
 Leave Link  101 at Sat Oct  2 19:26:20 2021, MaxMem=  805306368 cpu:       0.2
 (Enter /sw/target/amd/app/gaussian/Gaussian09RevA.02_gcc-4.9.2/g09/l103.exe)

 GradGradGradGradGradGradGradGradGradGradGradGradGradGradGradGradGradGrad
 Berny optimization.
 Initialization pass.
                           ----------------------------
                           !    Initial Parameters    !
                           ! (Angstroms and Degrees)  !
 --------------------------                            --------------------------
 ! Name  Definition              Value          Derivative Info.                !
 --------------------------------------------------------------------------------
 ! R1    R(1,2)                  1.4587         estimate D2E/DX2                !
 ! R2    R(1,12)                 1.1111         estimate D2E/DX2                !
 ! R3    R(1,13)                 1.1103         estimate D2E/DX2                !
 ! R4    R(1,14)                 1.1103         estimate D2E/DX2                !
 ! R5    R(2,3)                  1.3541         estimate D2E/DX2                !
 ! R6    R(2,7)                  1.3468         estimate D2E/DX2                !
 ! R7    R(3,4)                  2.0231         estimate D2E/DX2                !
 ! R8    R(3,5)                  1.3916         estimate D2E/DX2                !
 ! R9    R(5,6)                  1.3782         estimate D2E/DX2                !
 ! R10   R(5,15)                 1.0818         estimate D2E/DX2                !
 ! R11   R(6,7)                  1.37           estimate D2E/DX2                !
 ! R12   R(6,11)                 1.3932         estimate D2E/DX2                !
 ! R13   R(7,8)                  1.3972         estimate D2E/DX2                !
 ! R14   R(8,9)                  1.4072         estimate D2E/DX2                !
 ! R15   R(8,16)                 1.0822         estimate D2E/DX2                !
 ! R16   R(9,10)                 1.4129         estimate D2E/DX2                !
 ! R17   R(9,17)                 1.0822         estimate D2E/DX2                !
 ! R18   R(10,11)                1.407          estimate D2E/DX2                !
 ! R19   R(10,18)                1.0821         estimate D2E/DX2                !
 ! R20   R(11,19)                1.0824         estimate D2E/DX2                !
 ! A1    A(2,1,12)             110.4607         estimate D2E/DX2                !
 ! A2    A(2,1,13)             109.7032         estimate D2E/DX2                !
 ! A3    A(2,1,14)             109.7003         estimate D2E/DX2                !
 ! A4    A(12,1,13)            108.8006         estimate D2E/DX2                !
 ! A5    A(12,1,14)            108.7997         estimate D2E/DX2                !
 ! A6    A(13,1,14)            109.3516         estimate D2E/DX2                !
 ! A7    A(1,2,3)              125.8731         estimate D2E/DX2                !
 ! A8    A(1,2,7)              127.2541         estimate D2E/DX2                !
 ! A9    A(3,2,7)              106.8728         estimate D2E/DX2                !
 ! A10   A(2,3,4)              124.2778         estimate D2E/DX2                !
 ! A11   A(2,3,5)              109.7468         estimate D2E/DX2                !
 ! A12   A(4,3,5)              125.9753         estimate D2E/DX2                !
 ! A13   A(3,5,6)              105.8674         estimate D2E/DX2                !
 ! A14   A(3,5,15)             126.9099         estimate D2E/DX2                !
 ! A15   A(6,5,15)             127.2227         estimate D2E/DX2                !
 ! A16   A(5,6,7)              107.4353         estimate D2E/DX2                !
 ! A17   A(5,6,11)             130.6107         estimate D2E/DX2                !
 ! A18   A(7,6,11)             121.9539         estimate D2E/DX2                !
 ! A19   A(2,7,6)              110.0776         estimate D2E/DX2                !
 ! A20   A(2,7,8)              128.3516         estimate D2E/DX2                !
 ! A21   A(6,7,8)              121.5708         estimate D2E/DX2                !
 ! A22   A(7,8,9)              117.804          estimate D2E/DX2                !
 ! A23   A(7,8,16)             121.4467         estimate D2E/DX2                !
 ! A24   A(9,8,16)             120.7493         estimate D2E/DX2                !
 ! A25   A(8,9,10)             120.4598         estimate D2E/DX2                !
 ! A26   A(8,9,17)             119.7711         estimate D2E/DX2                !
 ! A27   A(10,9,17)            119.7692         estimate D2E/DX2                !
 ! A28   A(9,10,11)            120.4298         estimate D2E/DX2                !
 ! A29   A(9,10,18)            119.8135         estimate D2E/DX2                !
 ! A30   A(11,10,18)           119.7567         estimate D2E/DX2                !
 ! A31   A(6,11,10)            117.7818         estimate D2E/DX2                !
 ! A32   A(6,11,19)            121.204          estimate D2E/DX2                !
 ! A33   A(10,11,19)           121.0142         estimate D2E/DX2                !
 ! D1    D(12,1,2,3)             0.0022         estimate D2E/DX2                !
 ! D2    D(12,1,2,7)          -179.9999         estimate D2E/DX2                !
 ! D3    D(13,1,2,3)          -119.9305         estimate D2E/DX2                !
 ! D4    D(13,1,2,7)            60.0674         estimate D2E/DX2                !
 ! D5    D(14,1,2,3)           119.9318         estimate D2E/DX2                !
 ! D6    D(14,1,2,7)           -60.0703         estimate D2E/DX2                !
 ! D7    D(1,2,3,4)             -0.0021         estimate D2E/DX2                !
 ! D8    D(1,2,3,5)            179.9984         estimate D2E/DX2                !
 ! D9    D(7,2,3,4)            179.9997         estimate D2E/DX2                !
 ! D10   D(7,2,3,5)              0.0001         estimate D2E/DX2                !
 ! D11   D(1,2,7,6)            179.9991         estimate D2E/DX2                !
 ! D12   D(1,2,7,8)              0.0019         estimate D2E/DX2                !
 ! D13   D(3,2,7,6)             -0.0027         estimate D2E/DX2                !
 ! D14   D(3,2,7,8)           -179.9999         estimate D2E/DX2                !
 ! D15   D(2,3,5,6)              0.0024         estimate D2E/DX2                !
 ! D16   D(2,3,5,15)           179.9988         estimate D2E/DX2                !
 ! D17   D(4,3,5,6)           -179.9971         estimate D2E/DX2                !
 ! D18   D(4,3,5,15)            -0.0007         estimate D2E/DX2                !
 ! D19   D(3,5,6,7)             -0.0039         estimate D2E/DX2                !
 ! D20   D(3,5,6,11)           179.9972         estimate D2E/DX2                !
 ! D21   D(15,5,6,7)           179.9997         estimate D2E/DX2                !
 ! D22   D(15,5,6,11)            0.0008         estimate D2E/DX2                !
 ! D23   D(5,6,7,2)              0.0042         estimate D2E/DX2                !
 ! D24   D(5,6,7,8)           -179.9984         estimate D2E/DX2                !
 ! D25   D(11,6,7,2)          -179.9968         estimate D2E/DX2                !
 ! D26   D(11,6,7,8)             0.0006         estimate D2E/DX2                !
 ! D27   D(5,6,11,10)         -179.999          estimate D2E/DX2                !
 ! D28   D(5,6,11,19)            0.0006         estimate D2E/DX2                !
 ! D29   D(7,6,11,10)            0.0023         estimate D2E/DX2                !
 ! D30   D(7,6,11,19)         -179.9981         estimate D2E/DX2                !
 ! D31   D(2,7,8,9)            179.9941         estimate D2E/DX2                !
 ! D32   D(2,7,8,16)            -0.0026         estimate D2E/DX2                !
 ! D33   D(6,7,8,9)             -0.0028         estimate D2E/DX2                !
 ! D34   D(6,7,8,16)          -179.9995         estimate D2E/DX2                !
 ! D35   D(7,8,9,10)             0.0022         estimate D2E/DX2                !
 ! D36   D(7,8,9,17)           179.9998         estimate D2E/DX2                !
 ! D37   D(16,8,9,10)          179.9989         estimate D2E/DX2                !
 ! D38   D(16,8,9,17)           -0.0035         estimate D2E/DX2                !
 ! D39   D(8,9,10,11)            0.0006         estimate D2E/DX2                !
 ! D40   D(8,9,10,18)          179.9992         estimate D2E/DX2                !
 ! D41   D(17,9,10,11)        -179.997          estimate D2E/DX2                !
 ! D42   D(17,9,10,18)           0.0016         estimate D2E/DX2                !
 ! D43   D(9,10,11,6)           -0.0028         estimate D2E/DX2                !
 ! D44   D(9,10,11,19)         179.9976         estimate D2E/DX2                !
 ! D45   D(18,10,11,6)         179.9985         estimate D2E/DX2                !
 ! D46   D(18,10,11,19)         -0.0011         estimate D2E/DX2                !
 --------------------------------------------------------------------------------
 Trust Radius=3.00D-01 FncErr=1.00D-07 GrdErr=1.00D-06
 Number of steps in this run= 109 maximum allowed number of steps= 114.
 GradGradGradGradGradGradGradGradGradGradGradGradGradGradGradGradGradGrad

 Leave Link  103 at Sat Oct  2 19:26:21 2021, MaxMem=  805306368 cpu:       0.0
 (Enter /sw/target/amd/app/gaussian/Gaussian09RevA.02_gcc-4.9.2/g09/l202.exe)
                          Input orientation:                          
 ---------------------------------------------------------------------
 Center     Atomic      Atomic             Coordinates (Angstroms)
 Number     Number       Type             X           Y           Z
 ---------------------------------------------------------------------
      1          6           0        1.031740   -0.128087    0.090528
      2          7           0        2.490104   -0.098842    0.090310
      3          6           0        3.261463    1.014133    0.090252
      4          3           0        2.536536    2.902845    0.090398
      5          6           0        4.605829    0.654478    0.090067
      6          6           0        4.627235   -0.723563    0.089961
      7          6           0        3.326735   -1.154299    0.090169
      8          6           0        3.006599   -2.514352    0.090160
      9          6           0        4.067865   -3.438507    0.089867
     10          6           0        5.407795   -2.990412    0.089640
     11          6           0        5.698853   -1.613894    0.089717
     12          1           0        0.622540    0.904932    0.090604
     13          1           0        0.668076   -0.657077    0.996430
     14          1           0        0.667855   -0.657017   -0.815331
     15          1           0        5.457001    1.322185    0.089964
     16          1           0        1.978587   -2.852370    0.090316
     17          1           0        3.856215   -4.499794    0.089854
     18          1           0        6.215799   -3.710210    0.089428
     19          1           0        6.721851   -1.260145    0.089584
 ---------------------------------------------------------------------
                    Distance matrix (angstroms):
                    1          2          3          4          5
     1  C    0.000000
     2  N    1.458658   0.000000
     3  C    2.505262   1.354145   0.000000
     4  Li   3.383927   3.002045   2.023055   0.000000
     5  C    3.658760   2.245837   1.391643   3.055671   0.000000
     6  C    3.644473   2.226569   2.210186   4.185911   1.378207
     7  C    2.513984   1.346827   2.169414   4.133380   2.215345
     8  C    3.097472   2.470113   3.537678   5.437553   3.549510
     9  C    4.491875   3.693602   4.525074   6.523627   4.128187
    10  C    5.229032   4.107810   4.543471   6.555502   3.732074
    11  C    4.897915   3.548444   3.584326   5.513726   2.517978
    12  H    1.111113   2.120226   2.641182   2.766774   3.991155
    13  H    1.110288   2.110086   3.215550   4.121296   4.248243
    14  H    1.110297   2.110056   3.215529   4.121277   4.248224
    15  H    4.656848   3.289650   2.217044   3.320783   1.081817
    16  H    2.884135   2.800637   4.073772   5.782197   4.381824
    17  H    5.204756   4.608107   5.545911   7.519350   5.208497
    18  H    6.301276   5.188717   5.572030   7.567659   4.652151
    19  H    5.801631   4.388201   4.140849   5.903164   2.853652
                    6          7          8          9         10
     6  C    0.000000
     7  C    1.369976   0.000000
     8  C    2.415241   1.397223   0.000000
     9  C    2.771970   2.401433   1.407249   0.000000
    10  C    2.397474   2.775270   2.447934   1.412870   0.000000
    11  C    1.393217   2.416230   2.838848   2.447311   1.406953
    12  H    4.323145   3.398986   4.168362   5.543982   6.170282
    13  H    4.062148   2.852544   3.120814   4.485173   5.360192
    14  H    4.062102   2.852520   3.120790   4.485102   5.360107
    15  H    2.207622   3.266651   4.552306   4.959223   4.312878
    16  H    3.398111   2.168167   1.082157   2.169940   3.431986
    17  H    3.854140   3.387136   2.159590   1.082186   2.164633
    18  H    3.382838   3.857379   3.424769   2.165050   1.082118
    19  H    2.162253   3.396765   3.921242   3.433497   2.172687
                   11         12         13         14         15
    11  C    0.000000
    12  H    5.666872   0.000000
    13  H    5.200609   1.806230   0.000000
    14  H    5.200545   1.806227   1.811761   0.000000
    15  H    2.946023   4.852435   5.260510   5.260487   0.000000
    16  H    3.920994   3.994519   2.712524   2.712525   5.433808
    17  H    3.423994   6.298232   5.074701   5.074637   6.038043
    18  H    2.159114   7.251489   6.396992   6.396895   5.089280
    19  H    1.082435   6.472184   6.150955   6.150895   2.875460
                   16         17         18         19
    16  H    0.000000
    17  H    2.497898   0.000000
    18  H    4.323177   2.488188   0.000000
    19  H    5.003372   4.325182   2.501781   0.000000
 Stoichiometry    C9H8LiN
 Framework group  C1[X(C9H8LiN)]
 Deg. of freedom    51
 Full point group                 C1      NOp   1
 Largest Abelian subgroup         C1      NOp   1
 Largest concise Abelian subgroup C1      NOp   1
                         Standard orientation:                         
 ---------------------------------------------------------------------
 Center     Atomic      Atomic             Coordinates (Angstroms)
 Number     Number       Type             X           Y           Z
 ---------------------------------------------------------------------
      1          6           0        2.200315    1.612024    0.000440
      2          7           0        1.364165    0.416810    0.000222
      3          6           0        1.808404   -0.862393    0.000163
      4          3           0        3.761360   -1.390325    0.000309
      5          6           0        0.725333   -1.736252   -0.000021
      6          6           0       -0.400379   -0.941125   -0.000128
      7          6           0        0.018403    0.363273    0.000080
      8          6           0       -0.891425    1.423671    0.000071
      9          6           0       -2.263562    1.111279   -0.000222
     10          6           0       -2.691569   -0.235202   -0.000449
     11          6           0       -1.751298   -1.281818   -0.000372
     12          1           0        3.275962    1.333538    0.000516
     13          1           0        1.987426    2.217632    0.906341
     14          1           0        1.987606    2.217775   -0.905420
     15          1           0        0.762859   -2.817418   -0.000124
     16          1           0       -0.558395    2.453309    0.000228
     17          1           0       -2.996024    1.907913   -0.000235
     18          1           0       -3.749330   -0.463502   -0.000661
     19          1           0       -2.068666   -2.316682   -0.000504
 ---------------------------------------------------------------------
 Rotational constants (GHZ):      2.5319092      1.0635116      0.7526186
 Leave Link  202 at Sat Oct  2 19:26:21 2021, MaxMem=  805306368 cpu:       0.0
 (Enter /sw/target/amd/app/gaussian/Gaussian09RevA.02_gcc-4.9.2/g09/l301.exe)
 Standard basis: 6-31G(d) (6D, 7F)
 Ernie: Thresh=  0.10000D-02 Tol=  0.10000D-05 Strict=F.
 There are   181 symmetry adapted basis functions of A   symmetry.
 Integral buffers will be    131072 words long.
 Raffenetti 2 integral format.
 Two-electron integral symmetry is turned on.
   181 basis functions,   340 primitive gaussians,   181 cartesian basis functions
    36 alpha electrons       36 beta electrons
       nuclear repulsion energy       506.2307278619 Hartrees.
 IExCor=  402 DFT=T Ex+Corr=B3LYP ExCW=0 ScaHFX=  0.200000
 ScaDFX=  0.800000  0.720000  1.000000  0.810000 ScalE2=  1.000000  1.000000
 IRadAn=      0 IRanWt=     -1 IRanGd=            0 ICorTp=0
 NAtoms=   19 NActive=   19 NUniq=   19 SFac= 7.50D-01 NAtFMM=   80 NAOKFM=F Big=F
 Leave Link  301 at Sat Oct  2 19:26:22 2021, MaxMem=  805306368 cpu:       0.1
 (Enter /sw/target/amd/app/gaussian/Gaussian09RevA.02_gcc-4.9.2/g09/l302.exe)
 NPDir=0 NMtPBC=     1 NCelOv=     1 NCel=       1 NClECP=     1 NCelD=      1
         NCelK=      1 NCelE2=     1 NClLst=     1 CellRange=     0.0.
 One-electron integrals computed using PRISM.
 NBasis=   181 RedAO= T  NBF=   181
 NBsUse=   181 1.00D-06 NBFU=   181
 Precomputing XC quadrature grid using
 IXCGrd= 2 IRadAn=           0 IRanWt=          -1 IRanGd=           0 AccXCQ= 1.00D-10.
 NRdTot=    1222 NPtTot=      155164 NUsed=      163978 NTot=      164010
 NSgBfM=   181   181   181   181   181 NAtAll=    19    19.
 Leave Link  302 at Sat Oct  2 19:26:27 2021, MaxMem=  805306368 cpu:       1.2
 (Enter /sw/target/amd/app/gaussian/Gaussian09RevA.02_gcc-4.9.2/g09/l303.exe)
 DipDrv:  MaxL=1.
 Leave Link  303 at Sat Oct  2 19:26:28 2021, MaxMem=  805306368 cpu:       0.1
 (Enter /sw/target/amd/app/gaussian/Gaussian09RevA.02_gcc-4.9.2/g09/l401.exe)
 Harris functional with IExCor=  402 diagonalized for initial guess.
 ExpMin= 3.60D-02 ExpMax= 4.17D+03 ExpMxC= 6.27D+02 IAcc=3 IRadAn=         0 AccDes= 0.00D+00
 HarFok:  IExCor=  402 AccDes= 0.00D+00 IRadAn=         0 IDoV= 1
 ScaDFX=  1.000000  1.000000  1.000000  1.000000
 FoFCou: FMM=F IPFlag=           0 FMFlag=      100000 FMFlg1=           0
         NFxFlg=           0 DoJE=T BraDBF=F KetDBF=T FulRan=T
         Omega=  0.000000  0.000000  1.000000  0.000000  0.000000 ICntrl=     500 IOpCl=  0
         NMat0=    1 NMatS0=    1 NMatT0=    0 NMatD0=    1 NMtDS0=    0 NMtDT0=    0
         I1Cent=           4 NGrid=           0.
 Petite list used in FoFCou.
 Harris En= -410.152750551951    
 Initial guess orbital symmetries:
       Occupied  (A) (A) (A) (A) (A) (A) (A) (A) (A) (A) (A) (A)
                 (A) (A) (A) (A) (A) (A) (A) (A) (A) (A) (A) (A)
                 (A) (A) (A) (A) (A) (A) (A) (A) (A) (A) (A) (A)
       Virtual   (A) (A) (A) (A) (A) (A) (A) (A) (A) (A) (A) (A)
                 (A) (A) (A) (A) (A) (A) (A) (A) (A) (A) (A) (A)
                 (A) (A) (A) (A) (A) (A) (A) (A) (A) (A) (A) (A)
                 (A) (A) (A) (A) (A) (A) (A) (A) (A) (A) (A) (A)
                 (A) (A) (A) (A) (A) (A) (A) (A) (A) (A) (A) (A)
                 (A) (A) (A) (A) (A) (A) (A) (A) (A) (A) (A) (A)
                 (A) (A) (A) (A) (A) (A) (A) (A) (A) (A) (A) (A)
                 (A) (A) (A) (A) (A) (A) (A) (A) (A) (A) (A) (A)
                 (A) (A) (A) (A) (A) (A) (A) (A) (A) (A) (A) (A)
                 (A) (A) (A) (A) (A) (A) (A) (A) (A) (A) (A) (A)
                 (A) (A) (A) (A) (A) (A) (A) (A) (A) (A) (A) (A)
                 (A) (A) (A) (A) (A) (A) (A) (A) (A) (A) (A) (A)
                 (A)
 The electronic state of the initial guess is 1-A.
 Leave Link  401 at Sat Oct  2 19:26:59 2021, MaxMem=  805306368 cpu:      11.5
 (Enter /sw/target/amd/app/gaussian/Gaussian09RevA.02_gcc-4.9.2/g09/l502.exe)
 Closed shell SCF:
 Requested convergence on RMS density matrix=1.00D-08 within  64 cycles.
 Requested convergence on MAX density matrix=1.00D-06.
 Requested convergence on             energy=1.00D-06.
 No special actions if energy rises.
 Using DIIS extrapolation, IDIIS=  1040.
 Integral symmetry usage will be decided dynamically.
       163794 words used for storage of precomputed grid.
 Keep R1 ints in memory in canonical form, NReq=138939429.
 IEnd=      270066 IEndB=      270066 NGot=   805306368 MDV=   669418285
 LenX=   669418285 LenY=   669385083
 Symmetry not used in FoFDir.
 MinBra= 0 MaxBra= 2 Meth= 1.
 IRaf=       0 NMat=   1 IRICut=       1 DoRegI=T DoRafI=F ISym2E= 0 JSym2E=0.

 Cycle   1  Pass 1  IDiag  1:
 E= -409.672195346786    
 DIIS: error= 4.63D-02 at cycle   1 NSaved=   1.
 NSaved= 1 IEnMin= 1 EnMin= -409.672195346786     IErMin= 1 ErrMin= 4.63D-02
 ErrMax= 4.63D-02 EMaxC= 1.00D-01 BMatC= 2.82D-01 BMatP= 2.82D-01
 IDIUse=3 WtCom= 5.37D-01 WtEn= 4.63D-01
 Coeff-Com:  0.100D+01
 Coeff-En:   0.100D+01
 Coeff:      0.100D+01
 Gap=     0.176 Goal=   None    Shift=    0.000
 GapD=    0.176 DampG=1.000 DampE=0.500 DampFc=0.5000 IDamp=-1.
 Damping current iteration by 5.00D-01
 RMSDP=1.01D-02 MaxDP=4.34D-01              OVMax= 8.46D-01

 Cycle   2  Pass 1  IDiag  1:
 E= -409.592510345127     Delta-E=        0.079685001659 Rises=F Damp=T
 DIIS: error= 1.45D-02 at cycle   2 NSaved=   2.
 NSaved= 2 IEnMin= 1 EnMin= -409.672195346786     IErMin= 2 ErrMin= 1.45D-02
 ErrMax= 1.45D-02 EMaxC= 1.00D-01 BMatC= 6.32D-02 BMatP= 2.82D-01
 IDIUse=3 WtCom= 8.55D-01 WtEn= 1.45D-01
 Coeff-Com:  0.266D+00 0.734D+00
 Coeff-En:   0.578D+00 0.422D+00
 Coeff:      0.311D+00 0.689D+00
 Gap=     0.051 Goal=   None    Shift=    0.000
 RMSDP=5.03D-03 MaxDP=2.16D-01 DE= 7.97D-02 OVMax= 8.94D-01

 Cycle   3  Pass 1  IDiag  1:
 E= -409.941725841165     Delta-E=       -0.349215496037 Rises=F Damp=F
 DIIS: error= 1.74D-02 at cycle   3 NSaved=   3.
 NSaved= 3 IEnMin= 3 EnMin= -409.941725841165     IErMin= 2 ErrMin= 1.45D-02
 ErrMax= 1.74D-02 EMaxC= 1.00D-01 BMatC= 5.83D-02 BMatP= 6.32D-02
 IDIUse=3 WtCom= 8.26D-01 WtEn= 1.74D-01
 Coeff-Com:  0.683D-01 0.489D+00 0.443D+00
 Coeff-En:   0.000D+00 0.000D+00 0.100D+01
 Coeff:      0.564D-01 0.404D+00 0.540D+00
 Gap=     0.142 Goal=   None    Shift=    0.000
 RMSDP=2.25D-03 MaxDP=4.83D-02 DE=-3.49D-01 OVMax= 1.15D-01

 Cycle   4  Pass 1  IDiag  1:
 E= -410.001394736315     Delta-E=       -0.059668895150 Rises=F Damp=F
 DIIS: error= 7.06D-03 at cycle   4 NSaved=   4.
 NSaved= 4 IEnMin= 4 EnMin= -410.001394736315     IErMin= 4 ErrMin= 7.06D-03
 ErrMax= 7.06D-03 EMaxC= 1.00D-01 BMatC= 9.83D-03 BMatP= 5.83D-02
 IDIUse=3 WtCom= 9.29D-01 WtEn= 7.06D-02
 Coeff-Com: -0.383D-01 0.179D+00 0.297D+00 0.562D+00
 Coeff-En:   0.000D+00 0.000D+00 0.554D-01 0.945D+00
 Coeff:     -0.356D-01 0.166D+00 0.280D+00 0.589D+00
 Gap=     0.108 Goal=   None    Shift=    0.000
 RMSDP=9.79D-04 MaxDP=2.24D-02 DE=-5.97D-02 OVMax= 6.41D-02

 Cycle   5  Pass 1  IDiag  1:
 E= -410.011952063921     Delta-E=       -0.010557327606 Rises=F Damp=F
 DIIS: error= 4.37D-03 at cycle   5 NSaved=   5.
 NSaved= 5 IEnMin= 5 EnMin= -410.011952063921     IErMin= 5 ErrMin= 4.37D-03
 ErrMax= 4.37D-03 EMaxC= 1.00D-01 BMatC= 2.23D-03 BMatP= 9.83D-03
 IDIUse=3 WtCom= 9.56D-01 WtEn= 4.37D-02
 Coeff-Com: -0.318D-01 0.660D-01 0.493D-01 0.307D+00 0.610D+00
 Coeff-En:   0.000D+00 0.000D+00 0.000D+00 0.889D-01 0.911D+00
 Coeff:     -0.304D-01 0.631D-01 0.472D-01 0.297D+00 0.623D+00
 Gap=     0.099 Goal=   None    Shift=    0.000
 RMSDP=3.98D-04 MaxDP=9.25D-03 DE=-1.06D-02 OVMax= 2.32D-02

 Cycle   6  Pass 1  IDiag  1:
 E= -410.014776976055     Delta-E=       -0.002824912134 Rises=F Damp=F
 DIIS: error= 9.02D-04 at cycle   6 NSaved=   6.
 NSaved= 6 IEnMin= 6 EnMin= -410.014776976055     IErMin= 6 ErrMin= 9.02D-04
 ErrMax= 9.02D-04 EMaxC= 1.00D-01 BMatC= 2.68D-04 BMatP= 2.23D-03
 IDIUse=3 WtCom= 9.91D-01 WtEn= 9.02D-03
 Coeff-Com: -0.753D-02 0.831D-02-0.458D-01 0.321D-01 0.353D+00 0.660D+00
 Coeff-En:   0.000D+00 0.000D+00 0.000D+00 0.000D+00 0.000D+00 0.100D+01
 Coeff:     -0.746D-02 0.824D-02-0.453D-01 0.318D-01 0.350D+00 0.663D+00
 Gap=     0.096 Goal=   None    Shift=    0.000
 RMSDP=1.40D-04 MaxDP=3.48D-03 DE=-2.82D-03 OVMax= 1.07D-02

 Cycle   7  Pass 1  IDiag  1:
 E= -410.015108252618     Delta-E=       -0.000331276563 Rises=F Damp=F
 DIIS: error= 3.25D-04 at cycle   7 NSaved=   7.
 NSaved= 7 IEnMin= 7 EnMin= -410.015108252618     IErMin= 7 ErrMin= 3.25D-04
 ErrMax= 3.25D-04 EMaxC= 1.00D-01 BMatC= 2.04D-05 BMatP= 2.68D-04
 IDIUse=3 WtCom= 9.97D-01 WtEn= 3.25D-03
 Coeff-Com:  0.135D-02-0.214D-02-0.197D-01-0.125D-01 0.831D-01 0.276D+00
 Coeff-Com:  0.674D+00
 Coeff-En:   0.000D+00 0.000D+00 0.000D+00 0.000D+00 0.000D+00 0.000D+00
 Coeff-En:   0.100D+01
 Coeff:      0.135D-02-0.213D-02-0.196D-01-0.124D-01 0.828D-01 0.275D+00
 Coeff:      0.675D+00
 Gap=     0.096 Goal=   None    Shift=    0.000
 RMSDP=4.25D-05 MaxDP=1.11D-03 DE=-3.31D-04 OVMax= 3.58D-03

 Cycle   8  Pass 1  IDiag  1:
 E= -410.015122204375     Delta-E=       -0.000013951757 Rises=F Damp=F
 DIIS: error= 2.61D-04 at cycle   8 NSaved=   8.
 NSaved= 8 IEnMin= 8 EnMin= -410.015122204375     IErMin= 8 ErrMin= 2.61D-04
 ErrMax= 2.61D-04 EMaxC= 1.00D-01 BMatC= 9.40D-06 BMatP= 2.04D-05
 IDIUse=3 WtCom= 9.97D-01 WtEn= 2.61D-03
 Coeff-Com:  0.210D-02-0.168D-02-0.154D-02-0.679D-02 0.249D-02 0.711D-01
 Coeff-Com:  0.421D+00 0.514D+00
 Coeff-En:   0.000D+00 0.000D+00 0.000D+00 0.000D+00 0.000D+00 0.000D+00
 Coeff-En:   0.221D+00 0.779D+00
 Coeff:      0.210D-02-0.168D-02-0.153D-02-0.678D-02 0.248D-02 0.709D-01
 Coeff:      0.420D+00 0.514D+00
 Gap=     0.097 Goal=   None    Shift=    0.000
 RMSDP=2.07D-05 MaxDP=6.82D-04 DE=-1.40D-05 OVMax= 1.27D-03

 Cycle   9  Pass 1  IDiag  1:
 E= -410.015130574733     Delta-E=       -0.000008370359 Rises=F Damp=F
 DIIS: error= 7.40D-05 at cycle   9 NSaved=   9.
 NSaved= 9 IEnMin= 9 EnMin= -410.015130574733     IErMin= 9 ErrMin= 7.40D-05
 ErrMax= 7.40D-05 EMaxC= 1.00D-01 BMatC= 1.07D-06 BMatP= 9.40D-06
 IDIUse=1 WtCom= 1.00D+00 WtEn= 0.00D+00
 Coeff-Com:  0.121D-02-0.982D-03 0.112D-02-0.184D-02-0.181D-02 0.218D-01
 Coeff-Com:  0.171D+00 0.282D+00 0.527D+00
 Coeff:      0.121D-02-0.982D-03 0.112D-02-0.184D-02-0.181D-02 0.218D-01
 Coeff:      0.171D+00 0.282D+00 0.527D+00
 Gap=     0.097 Goal=   None    Shift=    0.000
 RMSDP=8.87D-06 MaxDP=2.21D-04 DE=-8.37D-06 OVMax= 5.51D-04

 Cycle  10  Pass 1  IDiag  1:
 E= -410.015131573838     Delta-E=       -0.000000999105 Rises=F Damp=F
 DIIS: error= 4.01D-05 at cycle  10 NSaved=  10.
 NSaved=10 IEnMin=10 EnMin= -410.015131573838     IErMin=10 ErrMin= 4.01D-05
 ErrMax= 4.01D-05 EMaxC= 1.00D-01 BMatC= 2.46D-07 BMatP= 1.07D-06
 IDIUse=1 WtCom= 1.00D+00 WtEn= 0.00D+00
 Coeff-Com:  0.267D-03-0.297D-03 0.159D-02 0.144D-02-0.457D-03-0.380D-02
 Coeff-Com: -0.700D-02 0.256D-01 0.310D+00 0.673D+00
 Coeff:      0.267D-03-0.297D-03 0.159D-02 0.144D-02-0.457D-03-0.380D-02
 Coeff:     -0.700D-02 0.256D-01 0.310D+00 0.673D+00
 Gap=     0.097 Goal=   None    Shift=    0.000
 RMSDP=4.11D-06 MaxDP=9.66D-05 DE=-9.99D-07 OVMax= 2.49D-04

 Cycle  11  Pass 1  IDiag  1:
 E= -410.015131859442     Delta-E=       -0.000000285604 Rises=F Damp=F
 DIIS: error= 8.23D-06 at cycle  11 NSaved=  11.
 NSaved=11 IEnMin=11 EnMin= -410.015131859442     IErMin=11 ErrMin= 8.23D-06
 ErrMax= 8.23D-06 EMaxC= 1.00D-01 BMatC= 1.81D-08 BMatP= 2.46D-07
 IDIUse=1 WtCom= 1.00D+00 WtEn= 0.00D+00
 Coeff-Com:  0.849D-04-0.132D-03 0.727D-03 0.868D-03 0.410D-03-0.211D-02
 Coeff-Com: -0.139D-01-0.752D-02 0.115D+00 0.349D+00 0.557D+00
 Coeff:      0.849D-04-0.132D-03 0.727D-03 0.868D-03 0.410D-03-0.211D-02
 Coeff:     -0.139D-01-0.752D-02 0.115D+00 0.349D+00 0.557D+00
 Gap=     0.097 Goal=   None    Shift=    0.000
 RMSDP=1.17D-06 MaxDP=3.40D-05 DE=-2.86D-07 OVMax= 5.93D-05

 Cycle  12  Pass 1  IDiag  1:
 E= -410.015131878474     Delta-E=       -0.000000019032 Rises=F Damp=F
 DIIS: error= 2.90D-06 at cycle  12 NSaved=  12.
 NSaved=12 IEnMin=12 EnMin= -410.015131878474     IErMin=12 ErrMin= 2.90D-06
 ErrMax= 2.90D-06 EMaxC= 1.00D-01 BMatC= 2.95D-09 BMatP= 1.81D-08
 IDIUse=1 WtCom= 1.00D+00 WtEn= 0.00D+00
 Coeff-Com:  0.489D-05-0.253D-04 0.135D-03 0.253D-03 0.422D-03-0.328D-03
 Coeff-Com: -0.673D-02-0.108D-01 0.109D-02 0.627D-01 0.313D+00 0.640D+00
 Coeff:      0.489D-05-0.253D-04 0.135D-03 0.253D-03 0.422D-03-0.328D-03
 Coeff:     -0.673D-02-0.108D-01 0.109D-02 0.627D-01 0.313D+00 0.640D+00
 Gap=     0.097 Goal=   None    Shift=    0.000
 RMSDP=4.75D-07 MaxDP=1.10D-05 DE=-1.90D-08 OVMax= 2.66D-05

 Cycle  13  Pass 1  IDiag  1:
 E= -410.015131882016     Delta-E=       -0.000000003542 Rises=F Damp=F
 DIIS: error= 7.67D-07 at cycle  13 NSaved=  13.
 NSaved=13 IEnMin=13 EnMin= -410.015131882016     IErMin=13 ErrMin= 7.67D-07
 ErrMax= 7.67D-07 EMaxC= 1.00D-01 BMatC= 9.85D-11 BMatP= 2.95D-09
 IDIUse=1 WtCom= 1.00D+00 WtEn= 0.00D+00
 Coeff-Com: -0.295D-05-0.145D-05 0.152D-04 0.574D-04 0.140D-03-0.641D-04
 Coeff-Com: -0.201D-02-0.432D-02-0.743D-02 0.141D-02 0.886D-01 0.255D+00
 Coeff-Com:  0.669D+00
 Coeff:     -0.295D-05-0.145D-05 0.152D-04 0.574D-04 0.140D-03-0.641D-04
 Coeff:     -0.201D-02-0.432D-02-0.743D-02 0.141D-02 0.886D-01 0.255D+00
 Coeff:      0.669D+00
 Gap=     0.097 Goal=   None    Shift=    0.000
 RMSDP=1.01D-07 MaxDP=2.92D-06 DE=-3.54D-09 OVMax= 6.03D-06

 Cycle  14  Pass 1  IDiag  1:
 E= -410.015131882119     Delta-E=       -0.000000000103 Rises=F Damp=F
 DIIS: error= 3.32D-07 at cycle  14 NSaved=  14.
 NSaved=14 IEnMin=14 EnMin= -410.015131882119     IErMin=14 ErrMin= 3.32D-07
 ErrMax= 3.32D-07 EMaxC= 1.00D-01 BMatC= 3.13D-11 BMatP= 9.85D-11
 IDIUse=1 WtCom= 1.00D+00 WtEn= 0.00D+00
 Coeff-Com: -0.180D-05 0.222D-05-0.104D-04 0.201D-05 0.540D-04 0.517D-04
 Coeff-Com: -0.297D-03-0.133D-02-0.461D-02-0.638D-02 0.194D-01 0.879D-01
 Coeff-Com:  0.422D+00 0.483D+00
 Coeff:     -0.180D-05 0.222D-05-0.104D-04 0.201D-05 0.540D-04 0.517D-04
 Coeff:     -0.297D-03-0.133D-02-0.461D-02-0.638D-02 0.194D-01 0.879D-01
 Coeff:      0.422D+00 0.483D+00
 Gap=     0.097 Goal=   None    Shift=    0.000
 RMSDP=3.94D-08 MaxDP=9.11D-07 DE=-1.03D-10 OVMax= 2.18D-06

 Cycle  15  Pass 1  IDiag  1:
 E= -410.015131882153     Delta-E=       -0.000000000034 Rises=F Damp=F
 DIIS: error= 8.61D-08 at cycle  15 NSaved=  15.
 NSaved=15 IEnMin=15 EnMin= -410.015131882153     IErMin=15 ErrMin= 8.61D-08
 ErrMax= 8.61D-08 EMaxC= 1.00D-01 BMatC= 1.46D-12 BMatP= 3.13D-11
 IDIUse=1 WtCom= 1.00D+00 WtEn= 0.00D+00
 Coeff-Com: -0.687D-06 0.941D-06-0.459D-05-0.377D-05 0.886D-06 0.681D-06
 Coeff-Com:  0.257D-04-0.837D-04-0.511D-03-0.123D-02-0.106D-02 0.710D-02
 Coeff-Com:  0.609D-01 0.140D+00 0.795D+00
 Coeff:     -0.687D-06 0.941D-06-0.459D-05-0.377D-05 0.886D-06 0.681D-06
 Coeff:      0.257D-04-0.837D-04-0.511D-03-0.123D-02-0.106D-02 0.710D-02
 Coeff:      0.609D-01 0.140D+00 0.795D+00
 Gap=     0.097 Goal=   None    Shift=    0.000
 RMSDP=1.26D-08 MaxDP=3.49D-07 DE=-3.39D-11 OVMax= 5.19D-07

 Cycle  16  Pass 1  IDiag  1:
 E= -410.015131882147     Delta-E=        0.000000000006 Rises=F Damp=F
 DIIS: error= 2.76D-08 at cycle  16 NSaved=  16.
 NSaved=16 IEnMin=15 EnMin= -410.015131882153     IErMin=16 ErrMin= 2.76D-08
 ErrMax= 2.76D-08 EMaxC= 1.00D-01 BMatC= 1.95D-13 BMatP= 1.46D-12
 IDIUse=1 WtCom= 1.00D+00 WtEn= 0.00D+00
 Coeff-Com: -0.268D-06 0.411D-06-0.184D-05-0.199D-05-0.233D-05-0.171D-05
 Coeff-Com:  0.268D-04 0.312D-04 0.346D-04-0.529D-04-0.129D-02-0.671D-03
 Coeff-Com:  0.590D-02 0.365D-01 0.361D+00 0.598D+00
 Coeff:     -0.268D-06 0.411D-06-0.184D-05-0.199D-05-0.233D-05-0.171D-05
 Coeff:      0.268D-04 0.312D-04 0.346D-04-0.529D-04-0.129D-02-0.671D-03
 Coeff:      0.590D-02 0.365D-01 0.361D+00 0.598D+00
 Gap=     0.097 Goal=   None    Shift=    0.000
 RMSDP=3.14D-09 MaxDP=1.11D-07 DE= 5.68D-12 OVMax= 1.86D-07

 SCF Done:  E(RB3LYP) =  -410.015131882     A.U. after   16 cycles
             Convg  =    0.3143D-08             -V/T =  2.0088
 KE= 4.064204430161D+02 PE=-1.965025354092D+03 EE= 6.423590513320D+02
 Leave Link  502 at Sat Oct  2 19:35:24 2021, MaxMem=  805306368 cpu:     151.0
 (Enter /sw/target/amd/app/gaussian/Gaussian09RevA.02_gcc-4.9.2/g09/l508.exe)
 QCSCF skips out because SCF is already converged.
 Leave Link  508 at Sat Oct  2 19:35:24 2021, MaxMem=  805306368 cpu:       0.0
 (Enter /sw/target/amd/app/gaussian/Gaussian09RevA.02_gcc-4.9.2/g09/l601.exe)
 Copying SCF densities to generalized density rwf, IOpCl= 0 IROHF=0.

 **********************************************************************

            Population analysis using the SCF density.

 **********************************************************************

 Orbital symmetries:
       Occupied  (A) (A) (A) (A) (A) (A) (A) (A) (A) (A) (A) (A)
                 (A) (A) (A) (A) (A) (A) (A) (A) (A) (A) (A) (A)
                 (A) (A) (A) (A) (A) (A) (A) (A) (A) (A) (A) (A)
       Virtual   (A) (A) (A) (A) (A) (A) (A) (A) (A) (A) (A) (A)
                 (A) (A) (A) (A) (A) (A) (A) (A) (A) (A) (A) (A)
                 (A) (A) (A) (A) (A) (A) (A) (A) (A) (A) (A) (A)
                 (A) (A) (A) (A) (A) (A) (A) (A) (A) (A) (A) (A)
                 (A) (A) (A) (A) (A) (A) (A) (A) (A) (A) (A) (A)
                 (A) (A) (A) (A) (A) (A) (A) (A) (A) (A) (A) (A)
                 (A) (A) (A) (A) (A) (A) (A) (A) (A) (A) (A) (A)
                 (A) (A) (A) (A) (A) (A) (A) (A) (A) (A) (A) (A)
                 (A) (A) (A) (A) (A) (A) (A) (A) (A) (A) (A) (A)
                 (A) (A) (A) (A) (A) (A) (A) (A) (A) (A) (A) (A)
                 (A) (A) (A) (A) (A) (A) (A) (A) (A) (A) (A) (A)
                 (A) (A) (A) (A) (A) (A) (A) (A) (A) (A) (A) (A)
                 (A)
 The electronic state is 1-A.
 Alpha  occ. eigenvalues --  -14.33816 -10.22001 -10.16676 -10.15230 -10.14885
 Alpha  occ. eigenvalues --  -10.14615 -10.14540 -10.13502 -10.13020 -10.11712
 Alpha  occ. eigenvalues --   -2.01219  -0.95692  -0.80750  -0.76037  -0.70994
 Alpha  occ. eigenvalues --   -0.67407  -0.65081  -0.56837  -0.54484  -0.52632
 Alpha  occ. eigenvalues --   -0.48336  -0.44272  -0.44224  -0.41611  -0.39824
 Alpha  occ. eigenvalues --   -0.39387  -0.37786  -0.36278  -0.35944  -0.31721
 Alpha  occ. eigenvalues --   -0.30416  -0.28693  -0.23588  -0.20564  -0.18238
 Alpha  occ. eigenvalues --   -0.15359
 Alpha virt. eigenvalues --   -0.05679  -0.00766  -0.00455   0.03726   0.05607
 Alpha virt. eigenvalues --    0.06756   0.09826   0.10361   0.11182   0.13249
 Alpha virt. eigenvalues --    0.14448   0.14705   0.16456   0.18020   0.18103
 Alpha virt. eigenvalues --    0.18559   0.20257   0.21382   0.22401   0.23111
 Alpha virt. eigenvalues --    0.25652   0.30617   0.30997   0.31903   0.34627
 Alpha virt. eigenvalues --    0.38137   0.40873   0.43524   0.43922   0.47793
 Alpha virt. eigenvalues --    0.48302   0.50456   0.52396   0.55546   0.56132
 Alpha virt. eigenvalues --    0.56645   0.58496   0.59734   0.60943   0.62064
 Alpha virt. eigenvalues --    0.62616   0.64280   0.64857   0.65190   0.65738
 Alpha virt. eigenvalues --    0.68873   0.69068   0.70490   0.72709   0.74744
 Alpha virt. eigenvalues --    0.75577   0.78713   0.82011   0.82876   0.83821
 Alpha virt. eigenvalues --    0.84666   0.85563   0.86035   0.87025   0.88828
 Alpha virt. eigenvalues --    0.90514   0.91090   0.93461   0.96192   0.96517
 Alpha virt. eigenvalues --    0.98185   1.00512   1.02430   1.03662   1.07648
 Alpha virt. eigenvalues --    1.08918   1.13511   1.15562   1.19911   1.20919
 Alpha virt. eigenvalues --    1.23152   1.28505   1.29004   1.35955   1.36634
 Alpha virt. eigenvalues --    1.37329   1.39560   1.45531   1.45627   1.48957
 Alpha virt. eigenvalues --    1.49396   1.51668   1.53643   1.53785   1.60765
 Alpha virt. eigenvalues --    1.62999   1.68860   1.81298   1.85415   1.89526
 Alpha virt. eigenvalues --    1.89893   1.93667   1.94304   1.97832   2.00553
 Alpha virt. eigenvalues --    2.01095   2.02714   2.05543   2.07048   2.09542
 Alpha virt. eigenvalues --    2.14437   2.17823   2.20061   2.20194   2.24059
 Alpha virt. eigenvalues --    2.24871   2.27218   2.30476   2.30772   2.32641
 Alpha virt. eigenvalues --    2.37085   2.42325   2.44529   2.49120   2.54234
 Alpha virt. eigenvalues --    2.59762   2.67086   2.67220   2.68469   2.71485
 Alpha virt. eigenvalues --    2.74295   2.80362   2.84573   2.88868   2.90443
 Alpha virt. eigenvalues --    2.98625   3.07101   3.16798   3.34051   3.52027
 Alpha virt. eigenvalues --    4.10126   4.12827   4.16217   4.22563   4.23498
 Alpha virt. eigenvalues --    4.35400   4.44184   4.46428   4.55457   4.84021
          Condensed to atoms (all electrons):
              1          2          3          4          5          6
     1  C    5.003891   0.318318  -0.056438  -0.018039   0.006016   0.008649
     2  N    0.318318   6.940225   0.386209  -0.053189  -0.107883  -0.029352
     3  C   -0.056438   0.386209   4.937939   0.363397   0.490354  -0.004749
     4  Li  -0.018039  -0.053189   0.363397   2.360318  -0.011464  -0.007966
     5  C    0.006016  -0.107883   0.490354  -0.011464   5.263415   0.463876
     6  C    0.008649  -0.029352  -0.004749  -0.007966   0.463876   4.641971
     7  C   -0.057346   0.257295  -0.129924   0.019226  -0.031462   0.472748
     8  C   -0.007001  -0.112501   0.005992  -0.000885   0.019450  -0.061965
     9  C   -0.000130   0.006084   0.000088   0.000207  -0.000294  -0.039492
    10  C    0.000006  -0.000579  -0.000782  -0.000296   0.011427   0.015931
    11  C   -0.000116   0.015643   0.016954  -0.000107  -0.145397   0.453004
    12  H    0.366840  -0.031045  -0.002831   0.013512  -0.000186   0.000173
    13  H    0.365431  -0.043876   0.001437   0.001279   0.000056  -0.000313
    14  H    0.365432  -0.043883   0.001437   0.001279   0.000056  -0.000313
    15  H   -0.000110   0.004639  -0.047493   0.002742   0.351073  -0.036847
    16  H    0.004844  -0.009462  -0.000242  -0.000111  -0.000267   0.005183
    17  H   -0.000002  -0.000121   0.000007   0.000006   0.000003   0.000981
    18  H   -0.000000   0.000007   0.000008   0.000010  -0.000260   0.001750
    19  H    0.000003  -0.000070  -0.000008   0.000213  -0.009816  -0.043073
              7          8          9         10         11         12
     1  C   -0.057346  -0.007001  -0.000130   0.000006  -0.000116   0.366840
     2  N    0.257295  -0.112501   0.006084  -0.000579   0.015643  -0.031045
     3  C   -0.129924   0.005992   0.000088  -0.000782   0.016954  -0.002831
     4  Li   0.019226  -0.000885   0.000207  -0.000296  -0.000107   0.013512
     5  C   -0.031462   0.019450  -0.000294   0.011427  -0.145397  -0.000186
     6  C    0.472748  -0.061965  -0.039492   0.015931   0.453004   0.000173
     7  C    4.811659   0.465242  -0.000190  -0.048689  -0.040444   0.001303
     8  C    0.465242   5.128062   0.522647  -0.022030  -0.067405   0.000016
     9  C   -0.000190   0.522647   4.898954   0.520384  -0.022312   0.000002
    10  C   -0.048689  -0.022030   0.520384   4.935979   0.474953  -0.000000
    11  C   -0.040444  -0.067405  -0.022312   0.474953   5.216455   0.000008
    12  H    0.001303   0.000016   0.000002  -0.000000   0.000008   0.566590
    13  H    0.001278   0.003355   0.000002  -0.000001  -0.000018  -0.029744
    14  H    0.001279   0.003357   0.000002  -0.000001  -0.000018  -0.029744
    15  H    0.008426  -0.000237   0.000006  -0.000042  -0.007377  -0.000012
    16  H   -0.037851   0.342422  -0.044643   0.004413   0.000568  -0.000054
    17  H    0.002926  -0.041391   0.354064  -0.042866   0.004697  -0.000000
    18  H    0.001337   0.004426  -0.043207   0.351738  -0.038539  -0.000000
    19  H    0.005857   0.000350   0.004698  -0.051526   0.355811  -0.000000
             13         14         15         16         17         18
     1  C    0.365431   0.365432  -0.000110   0.004844  -0.000002  -0.000000
     2  N   -0.043876  -0.043883   0.004639  -0.009462  -0.000121   0.000007
     3  C    0.001437   0.001437  -0.047493  -0.000242   0.000007   0.000008
     4  Li   0.001279   0.001279   0.002742  -0.000111   0.000006   0.000010
     5  C    0.000056   0.000056   0.351073  -0.000267   0.000003  -0.000260
     6  C   -0.000313  -0.000313  -0.036847   0.005183   0.000981   0.001750
     7  C    0.001278   0.001279   0.008426  -0.037851   0.002926   0.001337
     8  C    0.003355   0.003357  -0.000237   0.342422  -0.041391   0.004426
     9  C    0.000002   0.000002   0.000006  -0.044643   0.354064  -0.043207
    10  C   -0.000001  -0.000001  -0.000042   0.004413  -0.042866   0.351738
    11  C   -0.000018  -0.000018  -0.007377   0.000568   0.004697  -0.038539
    12  H   -0.029744  -0.029744  -0.000012  -0.000054  -0.000000  -0.000000
    13  H    0.581637  -0.042820   0.000004   0.000882  -0.000000  -0.000000
    14  H   -0.042820   0.581644   0.000004   0.000882  -0.000000  -0.000000
    15  H    0.000004   0.000004   0.631230   0.000005  -0.000000  -0.000003
    16  H    0.000882   0.000882   0.000005   0.636833  -0.005327  -0.000182
    17  H   -0.000000  -0.000000  -0.000000  -0.005327   0.628759  -0.005281
    18  H   -0.000000  -0.000000  -0.000003  -0.000182  -0.005281   0.630873
    19  H   -0.000000  -0.000000   0.003687   0.000019  -0.000182  -0.004770
             19
     1  C    0.000003
     2  N   -0.000070
     3  C   -0.000008
     4  Li   0.000213
     5  C   -0.009816
     6  C   -0.043073
     7  C    0.005857
     8  C    0.000350
     9  C    0.004698
    10  C   -0.051526
    11  C    0.355811
    12  H   -0.000000
    13  H   -0.000000
    14  H   -0.000000
    15  H    0.003687
    16  H    0.000019
    17  H   -0.000182
    18  H   -0.004770
    19  H    0.632103
 Mulliken atomic charges:
              1
     1  C   -0.300248
     2  N   -0.496459
     3  C    0.038646
     4  Li   0.329868
     5  C   -0.298695
     6  C    0.159806
     7  C    0.297330
     8  C   -0.181904
     9  C   -0.156870
    10  C   -0.148021
    11  C   -0.216361
    12  H    0.145172
    13  H    0.161410
    14  H    0.161407
    15  H    0.090303
    16  H    0.102090
    17  H    0.103728
    18  H    0.102093
    19  H    0.106705
 Sum of Mulliken atomic charges =  -0.00000
 Mulliken charges with hydrogens summed into heavy atoms:
              1
     1  C    0.167742
     2  N   -0.496459
     3  C    0.038646
     4  Li   0.329868
     5  C   -0.208392
     6  C    0.159806
     7  C    0.297330
     8  C   -0.079814
     9  C   -0.053142
    10  C   -0.045928
    11  C   -0.109656
 Sum of Mulliken charges with hydrogens summed into heavy atoms =  -0.00000
 Electronic spatial extent (au):  <R**2>=           1428.3214
 Charge=             -0.0000 electrons
 Dipole moment (field-independent basis, Debye):
    X=              8.2478    Y=             -0.7855    Z=              0.0008  Tot=              8.2851
 Quadrupole moment (field-independent basis, Debye-Ang):
   XX=            -24.5348   YY=            -53.6877   ZZ=            -66.0312
   XY=             -9.4831   XZ=              0.0038   YZ=              0.0003
 Traceless Quadrupole moment (field-independent basis, Debye-Ang):
   XX=             23.5498   YY=             -5.6031   ZZ=            -17.9466
   XY=             -9.4831   XZ=              0.0038   YZ=              0.0003
 Octapole moment (field-independent basis, Debye-Ang**2):
  XXX=            168.5449  YYY=             -2.5249  ZZZ=              0.0019  XYY=             22.3121
  XXY=            -54.3516  XXZ=              0.0124  XZZ=              2.0057  YZZ=              4.4858
  YYZ=              0.0017  XYZ=             -0.0045
 Hexadecapole moment (field-independent basis, Debye-Ang**3):
 XXXX=           -545.9527 YYYY=           -596.2534 ZZZZ=            -83.6986 XXXY=           -253.4334
 XXXZ=             -0.0116 YYYX=            -28.8727 YYYZ=             -0.0229 ZZZX=             -0.0927
 ZZZY=             -0.0256 XXYY=           -214.5068 XXZZ=           -255.4779 YYZZ=           -127.8860
 XXYZ=             -0.0262 YYXZ=             -0.0186 ZZXY=              7.7585
 N-N= 5.062307278619D+02 E-N=-1.965025349622D+03  KE= 4.064204430161D+02
 No NMR shielding tensors so no spin-rotation constants.
 Leave Link  601 at Sat Oct  2 19:35:26 2021, MaxMem=  805306368 cpu:       0.8
 (Enter /sw/target/amd/app/gaussian/Gaussian09RevA.02_gcc-4.9.2/g09/l701.exe)
 Compute integral first derivatives.
 ... and contract with generalized density number  0.
 Leave Link  701 at Sat Oct  2 19:35:29 2021, MaxMem=  805306368 cpu:       0.8
 (Enter /sw/target/amd/app/gaussian/Gaussian09RevA.02_gcc-4.9.2/g09/l702.exe)
 L702 exits ... SP integral derivatives will be done elsewhere.
 Leave Link  702 at Sat Oct  2 19:35:30 2021, MaxMem=  805306368 cpu:       0.1
 (Enter /sw/target/amd/app/gaussian/Gaussian09RevA.02_gcc-4.9.2/g09/l703.exe)
 Compute integral first derivatives, UseDBF=F ICtDFT=           0.
 Integral derivatives from FoFDir, PRISM(SPDF).
 Calling FoFJK, ICntrl=      2127 FMM=F ISym2X=0 I1Cent= 0 IOpClX= 0 NMat=1 NMatS=1 NMatT=0.
 FoFCou: FMM=F IPFlag=           0 FMFlag=      100000 FMFlg1=         800
         NFxFlg=           0 DoJE=F BraDBF=F KetDBF=F FulRan=T
         Omega=  0.000000  0.000000  1.000000  0.000000  0.000000 ICntrl=    2127 IOpCl=  0
         NMat0=    1 NMatS0=    1 NMatT0=    0 NMatD0=    1 NMtDS0=    0 NMtDT0=    0
         I1Cent=           0 NGrid=           0.
 Symmetry not used in FoFCou.
 Leave Link  703 at Sat Oct  2 19:38:11 2021, MaxMem=  805306368 cpu:      52.1
 (Enter /sw/target/amd/app/gaussian/Gaussian09RevA.02_gcc-4.9.2/g09/l716.exe)
 Dipole        = 3.24492425D+00-3.09025964D-01 3.16654556D-04
 ***** Axes restored to original set *****
 -------------------------------------------------------------------
 Center     Atomic                   Forces (Hartrees/Bohr)
 Number     Number              X              Y              Z
 -------------------------------------------------------------------
      1        6           0.004999589   -0.008062453   -0.000010796
      2        7          -0.019441685    0.008912926    0.000009865
      3        6           0.000281096    0.074523409    0.000005515
      4        3           0.005205430   -0.005121959   -0.000000745
      5        6          -0.018054364    0.033278658   -0.000000493
      6        6           0.052142703   -0.010057137   -0.000002298
      7        6          -0.036123440   -0.063596536   -0.000002772
      8        6           0.013523226   -0.014591005   -0.000007971
      9        6          -0.005861664    0.011819103    0.000005225
     10        6           0.000467374    0.014590569    0.000003506
     11        6          -0.004417686   -0.034216708   -0.000002923
     12        1           0.007464578   -0.009886651   -0.000000359
     13        1          -0.000545026    0.003656688   -0.007763067
     14        1          -0.000545146    0.003657727    0.007769116
     15        1           0.000069729    0.001554763   -0.000000083
     16        1          -0.003168653   -0.001630220    0.000001273
     17        1          -0.000805680   -0.003168195   -0.000001228
     18        1           0.002261054   -0.003073328   -0.000000402
     19        1           0.002548567    0.001410350   -0.000001362
 -------------------------------------------------------------------
 Cartesian Forces:  Max     0.074523409 RMS     0.017810374
 Leave Link  716 at Sat Oct  2 19:38:11 2021, MaxMem=  805306368 cpu:       0.1
 (Enter /sw/target/amd/app/gaussian/Gaussian09RevA.02_gcc-4.9.2/g09/l103.exe)

 GradGradGradGradGradGradGradGradGradGradGradGradGradGradGradGradGradGrad
 Berny optimization.
 Internal  Forces:  Max     0.054695810 RMS     0.011135610
 Search for a local minimum.
 Step number   1 out of a maximum of  109
 All quantities printed in internal units (Hartrees-Bohrs-Radians)
 RMS Force = .11136D-01 SwitMx=.10000D-02 MixMth= 1
 Mixed Optimization -- RFO/linear search
 Second derivative matrix not updated -- first step.
     Eigenvalues ---    0.00916   0.01681   0.01948   0.01968   0.01973
     Eigenvalues ---    0.02062   0.02079   0.02092   0.02243   0.02272
     Eigenvalues ---    0.02298   0.02306   0.02325   0.02361   0.07495
     Eigenvalues ---    0.07557   0.08448   0.16000   0.16000   0.16000
     Eigenvalues ---    0.16000   0.16000   0.16000   0.16000   0.16000
     Eigenvalues ---    0.22000   0.22609   0.23808   0.24585   0.25000
     Eigenvalues ---    0.25000   0.25000   0.32482   0.32569   0.32570
     Eigenvalues ---    0.35702   0.35731   0.35735   0.35740   0.35776
     Eigenvalues ---    0.37133   0.39700   0.41231   0.43186   0.44190
     Eigenvalues ---    0.44929   0.45517   0.46197   0.48761   0.52624
     Eigenvalues ---    0.540681000.000001000.000001000.000001000.00000
     Eigenvalues --- 1000.000001000.000001000.000001000.000001000.00000
     Eigenvalues --- 1000.000001000.000001000.000001000.000001000.00000
     Eigenvalues --- 1000.000001000.000001000.000001000.000001000.00000
     Eigenvalues --- 1000.000001000.000001000.000001000.000001000.00000
     Eigenvalues --- 1000.000001000.000001000.000001000.000001000.00000
     Eigenvalues --- 1000.000001000.000001000.000001000.000001000.00000
     Eigenvalues --- 1000.000001000.000001000.000001000.000001000.00000
     Eigenvalues --- 1000.000001000.000001000.000001000.000001000.00000
     Eigenvalues --- 1000.000001000.000001000.000001000.00000
 RFO step:  Lambda=-2.91957466D-02 EMin= 9.15852604D-03
 Linear search not attempted -- first point.
 Iteration  1 RMS(Cart)=  0.03995092 RMS(Int)=  0.00066019
 Iteration  2 RMS(Cart)=  0.00114638 RMS(Int)=  0.00013119
 Iteration  3 RMS(Cart)=  0.00000071 RMS(Int)=  0.00013119
 Variable       Old X    -DE/DX   Delta X   Delta X   Delta X     New X
                                 (Linear)    (Quad)   (Total)
    R1        2.75646  -0.01116   0.00000  -0.02786  -0.02786   2.72860
    R2        2.09970  -0.01194   0.00000  -0.03373  -0.03373   2.06597
    R3        2.09814  -0.00790   0.00000  -0.02225  -0.02225   2.07589
    R4        2.09816  -0.00790   0.00000  -0.02227  -0.02227   2.07589
    R5        2.55896   0.04520   0.00000   0.07759   0.07745   2.63641
    R6        2.54513   0.03811   0.00000   0.06793   0.06800   2.61313
    R7        3.82302  -0.00665   0.00000  -0.05848  -0.05848   3.76454
    R8        2.62982   0.00693   0.00000   0.00936   0.00920   2.63902
    R9        2.60443   0.05470   0.00000   0.10360   0.10365   2.70808
   R10        2.04434   0.00101   0.00000   0.00262   0.00262   2.04696
   R11        2.58888   0.03791   0.00000   0.07798   0.07829   2.66717
   R12        2.63280   0.01423   0.00000   0.03094   0.03108   2.66388
   R13        2.64037   0.00579   0.00000   0.01410   0.01407   2.65444
   R14        2.65931  -0.01069   0.00000  -0.02490  -0.02504   2.63427
   R15        2.04498   0.00352   0.00000   0.00911   0.00911   2.05409
   R16        2.66994   0.00074   0.00000  -0.00304  -0.00316   2.66678
   R17        2.04504   0.00326   0.00000   0.00845   0.00845   2.05348
   R18        2.65876  -0.01110   0.00000  -0.02570  -0.02567   2.63309
   R19        2.04491   0.00373   0.00000   0.00966   0.00966   2.05456
   R20        2.04550   0.00287   0.00000   0.00743   0.00743   2.05293
    A1        1.92790  -0.00682   0.00000  -0.03851  -0.03827   1.88963
    A2        1.91468   0.00514   0.00000   0.02836   0.02817   1.94285
    A3        1.91463   0.00514   0.00000   0.02841   0.02822   1.94285
    A4        1.89893   0.00010   0.00000  -0.00187  -0.00163   1.89729
    A5        1.89891   0.00010   0.00000  -0.00186  -0.00163   1.89729
    A6        1.90855  -0.00376   0.00000  -0.01500  -0.01558   1.89297
    A7        2.19690  -0.00252   0.00000  -0.01091  -0.01090   2.18600
    A8        2.22100  -0.01940   0.00000  -0.07138  -0.07137   2.14964
    A9        1.86528   0.02191   0.00000   0.08229   0.08226   1.94755
   A10        2.16906   0.01472   0.00000   0.05714   0.05727   2.22633
   A11        1.91544  -0.01787   0.00000  -0.07285  -0.07311   1.84233
   A12        2.19868   0.00315   0.00000   0.01571   0.01584   2.21453
   A13        1.84774   0.01743   0.00000   0.06119   0.06111   1.90885
   A14        2.21500  -0.00992   0.00000  -0.03697  -0.03693   2.17807
   A15        2.22045  -0.00751   0.00000  -0.02422  -0.02418   2.19627
   A16        1.87510  -0.00450   0.00000  -0.01640  -0.01629   1.85881
   A17        2.27959   0.02025   0.00000   0.06332   0.06302   2.34261
   A18        2.12850  -0.01575   0.00000  -0.04691  -0.04674   2.08176
   A19        1.92122  -0.01696   0.00000  -0.05422  -0.05398   1.86723
   A20        2.24016   0.01654   0.00000   0.04661   0.04640   2.28656
   A21        2.12181   0.00043   0.00000   0.00760   0.00758   2.12939
   A22        2.05607  -0.00027   0.00000  -0.00009  -0.00023   2.05584
   A23        2.11964   0.00070   0.00000   0.00306   0.00313   2.12278
   A24        2.10747  -0.00044   0.00000  -0.00297  -0.00290   2.10457
   A25        2.10242   0.00530   0.00000   0.00907   0.00886   2.11127
   A26        2.09040  -0.00282   0.00000  -0.00546  -0.00535   2.08505
   A27        2.09037  -0.00247   0.00000  -0.00361  -0.00350   2.08686
   A28        2.10190   0.00537   0.00000   0.00945   0.00942   2.11132
   A29        2.09114  -0.00350   0.00000  -0.00900  -0.00899   2.08215
   A30        2.09015  -0.00188   0.00000  -0.00045  -0.00043   2.08972
   A31        2.05568   0.00492   0.00000   0.02088   0.02111   2.07679
   A32        2.11541  -0.00297   0.00000  -0.01314  -0.01326   2.10215
   A33        2.11210  -0.00195   0.00000  -0.00774  -0.00786   2.10424
    D1        0.00004  -0.00000   0.00000  -0.00001  -0.00001   0.00002
    D2       -3.14159  -0.00000   0.00000  -0.00000  -0.00000   3.14159
    D3       -2.09318   0.00088   0.00000   0.00843   0.00875  -2.08444
    D4        1.04837   0.00088   0.00000   0.00844   0.00876   1.05713
    D5        2.09320  -0.00088   0.00000  -0.00842  -0.00874   2.08447
    D6       -1.04842  -0.00088   0.00000  -0.00841  -0.00873  -1.05715
    D7       -0.00004  -0.00000   0.00000  -0.00000  -0.00000  -0.00004
    D8        3.14156   0.00000   0.00000   0.00001   0.00001   3.14158
    D9        3.14159  -0.00000   0.00000  -0.00001  -0.00001   3.14158
   D10        0.00000   0.00000   0.00000   0.00001   0.00001   0.00001
   D11        3.14158   0.00000   0.00000   0.00002   0.00002  -3.14159
   D12        0.00003  -0.00000   0.00000  -0.00001  -0.00001   0.00003
   D13       -0.00005   0.00000   0.00000   0.00003   0.00003  -0.00002
   D14       -3.14159  -0.00000   0.00000   0.00000   0.00000  -3.14159
   D15        0.00004  -0.00000   0.00000  -0.00004  -0.00004   0.00000
   D16        3.14157  -0.00000   0.00000  -0.00000  -0.00000   3.14157
   D17       -3.14154  -0.00000   0.00000  -0.00002  -0.00002  -3.14157
   D18       -0.00001   0.00000   0.00000   0.00001   0.00001  -0.00000
   D19       -0.00007   0.00000   0.00000   0.00005   0.00005  -0.00002
   D20        3.14154   0.00000   0.00000   0.00002   0.00002   3.14157
   D21        3.14159   0.00000   0.00000   0.00002   0.00002  -3.14158
   D22        0.00001  -0.00000   0.00000  -0.00001  -0.00001   0.00000
   D23        0.00007  -0.00000   0.00000  -0.00005  -0.00005   0.00002
   D24       -3.14156  -0.00000   0.00000  -0.00003  -0.00003  -3.14159
   D25       -3.14154  -0.00000   0.00000  -0.00003  -0.00003  -3.14157
   D26        0.00001  -0.00000   0.00000  -0.00000  -0.00000   0.00001
   D27       -3.14158   0.00000   0.00000   0.00001   0.00001  -3.14157
   D28        0.00001   0.00000   0.00000   0.00001   0.00001   0.00002
   D29        0.00004  -0.00000   0.00000  -0.00003  -0.00002   0.00001
   D30       -3.14156  -0.00000   0.00000  -0.00002  -0.00002  -3.14158
   D31        3.14149   0.00000   0.00000   0.00006   0.00006   3.14154
   D32       -0.00004   0.00000   0.00000   0.00002   0.00002  -0.00002
   D33       -0.00005   0.00000   0.00000   0.00003   0.00003  -0.00002
   D34       -3.14158  -0.00000   0.00000  -0.00001  -0.00001  -3.14159
   D35        0.00004  -0.00000   0.00000  -0.00002  -0.00002   0.00002
   D36        3.14159  -0.00000   0.00000  -0.00001  -0.00001   3.14158
   D37        3.14157   0.00000   0.00000   0.00001   0.00001   3.14159
   D38       -0.00006   0.00000   0.00000   0.00003   0.00003  -0.00003
   D39        0.00001  -0.00000   0.00000  -0.00001  -0.00001   0.00000
   D40        3.14158   0.00000   0.00000   0.00001   0.00001   3.14159
   D41       -3.14154  -0.00000   0.00000  -0.00002  -0.00002  -3.14156
   D42        0.00003  -0.00000   0.00000  -0.00000  -0.00000   0.00003
   D43       -0.00005   0.00000   0.00000   0.00003   0.00003  -0.00002
   D44        3.14155   0.00000   0.00000   0.00002   0.00002   3.14157
   D45        3.14157   0.00000   0.00000   0.00001   0.00001   3.14158
   D46       -0.00002   0.00000   0.00000   0.00001   0.00001  -0.00001
         Item               Value     Threshold  Converged?
 Maximum Force            0.054696     0.000450     NO 
 RMS     Force            0.011136     0.000300     NO 
 Maximum Displacement     0.190891     0.001800     NO 
 RMS     Displacement     0.040033     0.001200     NO 
 Predicted change in Energy=-1.575076D-02
 GradGradGradGradGradGradGradGradGradGradGradGradGradGradGradGradGradGrad

 Leave Link  103 at Sat Oct  2 19:38:20 2021, MaxMem=  805306368 cpu:       2.6
 (Enter /sw/target/amd/app/gaussian/Gaussian09RevA.02_gcc-4.9.2/g09/l202.exe)
                          Input orientation:                          
 ---------------------------------------------------------------------
 Center     Atomic      Atomic             Coordinates (Angstroms)
 Number     Number       Type             X           Y           Z
 ---------------------------------------------------------------------
      1          6           0        1.053133   -0.144371    0.090530
      2          7           0        2.494926   -0.066139    0.090307
      3          6           0        3.237181    1.115149    0.090261
      4          3           0        2.546111    2.983550    0.090423
      5          6           0        4.575592    0.716534    0.090045
      6          6           0        4.645197   -0.714829    0.089954
      7          6           0        3.313000   -1.180999    0.090141
      8          6           0        3.003742   -2.551201    0.090115
      9          6           0        4.063594   -3.456704    0.089867
     10          6           0        5.401686   -3.008378    0.089671
     11          6           0        5.701988   -1.647754    0.089725
     12          1           0        0.654690    0.873702    0.090631
     13          1           0        0.681761   -0.668148    0.981859
     14          1           0        0.681485   -0.668071   -0.800732
     15          1           0        5.421890    1.392633    0.089937
     16          1           0        1.975416   -2.903426    0.090259
     17          1           0        3.855410   -4.523232    0.089851
     18          1           0        6.207386   -3.738384    0.089482
     19          1           0        6.734491   -1.309926    0.089591
 ---------------------------------------------------------------------
                    Distance matrix (angstroms):
                    1          2          3          4          5
     1  C    0.000000
     2  N    1.443914   0.000000
     3  C    2.521201   1.395129   0.000000
     4  Li   3.465960   3.050119   1.992110   0.000000
     5  C    3.626137   2.223004   1.396509   3.042722   0.000000
     6  C    3.637080   2.245989   2.308967   4.252549   1.433054
     7  C    2.486282   1.382808   2.297400   4.234571   2.279204
     8  C    3.098016   2.536617   3.673774   5.553638   3.626128
     9  C    4.475984   3.735860   4.645945   6.616618   4.204528
    10  C    5.206961   4.135943   4.657097   6.637583   3.815416
    11  C    4.885900   3.575857   3.702554   5.604332   2.618898
    12  H    1.093265   2.066342   2.593753   2.833538   3.924051
    13  H    1.098511   2.108281   3.241183   4.195874   4.227836
    14  H    1.098513   2.108279   3.241191   4.195870   4.227846
    15  H    4.631244   3.270342   2.202261   3.286506   1.083204
    16  H    2.909122   2.884456   4.212006   5.914574   4.457019
    17  H    5.198767   4.660106   5.672173   7.620108   5.289027
    18  H    6.283570   5.221853   5.690246   7.654367   4.744370
    19  H    5.799685   4.418248   4.255839   5.998038   2.960977
                    6          7          8          9         10
     6  C    0.000000
     7  C    1.411405   0.000000
     8  C    2.463055   1.404668   0.000000
     9  C    2.802881   2.396294   1.393996   0.000000
    10  C    2.415086   2.775233   2.441137   1.411200   0.000000
    11  C    1.409665   2.434157   2.845479   2.440622   1.393370
    12  H    4.295065   3.359823   4.153071   5.511175   6.132252
    13  H    4.062819   2.825173   3.119726   4.473086   5.343254
    14  H    4.062822   2.825177   3.119722   4.473065   5.343234
    15  H    2.246030   3.327311   4.626151   5.035975   4.401058
    16  H    3.452200   2.180799   1.086975   2.160233   3.427876
    17  H    3.889433   3.385960   2.148079   1.086656   2.164659
    18  H    3.403281   3.862342   3.416540   2.162218   1.087227
    19  H    2.172392   3.423919   3.931826   3.426711   2.158961
                   11         12         13         14         15
    11  C    0.000000
    12  H    5.642070   0.000000
    13  H    5.192130   1.781101   0.000000
    14  H    5.192124   1.781097   1.782591   0.000000
    15  H    3.053262   4.795361   5.245109   5.245115   0.000000
    16  H    3.932435   4.001376   2.732208   2.732203   5.507659
    17  H    3.417341   6.274671   5.072416   5.072396   6.119748
    18  H    2.150851   7.218294   6.383982   6.383956   5.190794
    19  H    1.086366   6.460047   6.151712   6.151710   3.004455
                   16         17         18         19
    16  H    0.000000
    17  H    2.481562   0.000000
    18  H    4.313551   2.479471   0.000000
    19  H    5.018769   4.314446   2.485005   0.000000
 Stoichiometry    C9H8LiN
 Framework group  C1[X(C9H8LiN)]
 Deg. of freedom    51
 Full point group                 C1      NOp   1
 Largest Abelian subgroup         C1      NOp   1
 Largest concise Abelian subgroup C1      NOp   1
                         Standard orientation:                         
 ---------------------------------------------------------------------
 Center     Atomic      Atomic             Coordinates (Angstroms)
 Number     Number       Type             X           Y           Z
 ---------------------------------------------------------------------
      1          6           0        2.115436    1.675266    0.000445
      2          7           0        1.367879    0.439933    0.000221
      3          6           0        1.925774   -0.838791    0.000175
      4          3           0        3.858811   -1.320318    0.000337
      5          6           0        0.842466   -1.720087   -0.000040
      6          6           0       -0.379389   -0.971278   -0.000131
      7          6           0       -0.014100    0.392036    0.000055
      8          6           0       -0.971998    1.419423    0.000029
      9          6           0       -2.317198    1.053824   -0.000218
     10          6           0       -2.700551   -0.304309   -0.000414
     11          6           0       -1.745521   -1.318900   -0.000360
     12          1           0        3.181057    1.430970    0.000545
     13          1           0        1.891874    2.277162    0.891774
     14          1           0        1.892094    2.277347   -0.890817
     15          1           0        0.924345   -2.800192   -0.000148
     16          1           0       -0.683740    2.467479    0.000174
     17          1           0       -3.081127    1.826633   -0.000235
     18          1           0       -3.757579   -0.558779   -0.000604
     19          1           0       -2.048027   -2.362299   -0.000494
 ---------------------------------------------------------------------
 Rotational constants (GHZ):      2.5064325      1.0358057      0.7363398
 Leave Link  202 at Sat Oct  2 19:38:21 2021, MaxMem=  805306368 cpu:       0.0
 (Enter /sw/target/amd/app/gaussian/Gaussian09RevA.02_gcc-4.9.2/g09/l301.exe)
 Standard basis: 6-31G(d) (6D, 7F)
 Ernie: Thresh=  0.10000D-02 Tol=  0.10000D-05 Strict=F.
 There are   181 symmetry adapted basis functions of A   symmetry.
 Integral buffers will be    131072 words long.
 Raffenetti 2 integral format.
 Two-electron integral symmetry is turned on.
   181 basis functions,   340 primitive gaussians,   181 cartesian basis functions
    36 alpha electrons       36 beta electrons
       nuclear repulsion energy       501.3133568968 Hartrees.
 IExCor=  402 DFT=T Ex+Corr=B3LYP ExCW=0 ScaHFX=  0.200000
 ScaDFX=  0.800000  0.720000  1.000000  0.810000 ScalE2=  1.000000  1.000000
 IRadAn=      0 IRanWt=     -1 IRanGd=            0 ICorTp=0
 NAtoms=   19 NActive=   19 NUniq=   19 SFac= 7.50D-01 NAtFMM=   80 NAOKFM=F Big=F
 Leave Link  301 at Sat Oct  2 19:38:21 2021, MaxMem=  805306368 cpu:       0.1
 (Enter /sw/target/amd/app/gaussian/Gaussian09RevA.02_gcc-4.9.2/g09/l302.exe)
 NPDir=0 NMtPBC=     1 NCelOv=     1 NCel=       1 NClECP=     1 NCelD=      1
         NCelK=      1 NCelE2=     1 NClLst=     1 CellRange=     0.0.
 One-electron integrals computed using PRISM.
 NBasis=   181 RedAO= T  NBF=   181
 NBsUse=   181 1.00D-06 NBFU=   181
 Precomputing XC quadrature grid using
 IXCGrd= 2 IRadAn=           0 IRanWt=          -1 IRanGd=           0 AccXCQ= 1.00D-10.
 NRdTot=    1222 NPtTot=      155164 NUsed=      163978 NTot=      164010
 NSgBfM=   181   181   181   181   181 NAtAll=    19    19.
 Leave Link  302 at Sat Oct  2 19:38:27 2021, MaxMem=  805306368 cpu:       1.2
 (Enter /sw/target/amd/app/gaussian/Gaussian09RevA.02_gcc-4.9.2/g09/l303.exe)
 DipDrv:  MaxL=1.
 Leave Link  303 at Sat Oct  2 19:38:27 2021, MaxMem=  805306368 cpu:       0.1
 (Enter /sw/target/amd/app/gaussian/Gaussian09RevA.02_gcc-4.9.2/g09/l401.exe)
 Initial guess read from the read-write file.
 B after Tr=     0.000000    0.000000    0.000000
         Rot=    1.000000    0.000000    0.000000    0.000000 Ang=   0.00 deg.
 Guess basis will be translated and rotated to current coordinates.
 Initial guess orbital symmetries:
       Occupied  (A) (A) (A) (A) (A) (A) (A) (A) (A) (A) (A) (A)
                 (A) (A) (A) (A) (A) (A) (A) (A) (A) (A) (A) (A)
                 (A) (A) (A) (A) (A) (A) (A) (A) (A) (A) (A) (A)
       Virtual   (A) (A) (A) (A) (A) (A) (A) (A) (A) (A) (A) (A)
                 (A) (A) (A) (A) (A) (A) (A) (A) (A) (A) (A) (A)
                 (A) (A) (A) (A) (A) (A) (A) (A) (A) (A) (A) (A)
                 (A) (A) (A) (A) (A) (A) (A) (A) (A) (A) (A) (A)
                 (A) (A) (A) (A) (A) (A) (A) (A) (A) (A) (A) (A)
                 (A) (A) (A) (A) (A) (A) (A) (A) (A) (A) (A) (A)
                 (A) (A) (A) (A) (A) (A) (A) (A) (A) (A) (A) (A)
                 (A) (A) (A) (A) (A) (A) (A) (A) (A) (A) (A) (A)
                 (A) (A) (A) (A) (A) (A) (A) (A) (A) (A) (A) (A)
                 (A) (A) (A) (A) (A) (A) (A) (A) (A) (A) (A) (A)
                 (A) (A) (A) (A) (A) (A) (A) (A) (A) (A) (A) (A)
                 (A) (A) (A) (A) (A) (A) (A) (A) (A) (A) (A) (A)
                 (A)
 The electronic state of the initial guess is 1-A.
 Generating alternative initial guess.
 Harris functional with IExCor=  402 diagonalized for initial guess.
 ExpMin= 3.60D-02 ExpMax= 4.17D+03 ExpMxC= 6.27D+02 IAcc=3 IRadAn=         0 AccDes= 0.00D+00
 HarFok:  IExCor=  402 AccDes= 0.00D+00 IRadAn=         0 IDoV= 1
 ScaDFX=  1.000000  1.000000  1.000000  1.000000
 FoFCou: FMM=F IPFlag=           0 FMFlag=      100000 FMFlg1=           0
         NFxFlg=           0 DoJE=T BraDBF=F KetDBF=T FulRan=T
         Omega=  0.000000  0.000000  1.000000  0.000000  0.000000 ICntrl=     500 IOpCl=  0
         NMat0=    1 NMatS0=    1 NMatT0=    0 NMatD0=    1 NMtDS0=    0 NMtDT0=    0
         I1Cent=           4 NGrid=           0.
 Petite list used in FoFCou.
 Harris En= -410.155073813882    
 Leave Link  401 at Sat Oct  2 19:39:01 2021, MaxMem=  805306368 cpu:      11.8
 (Enter /sw/target/amd/app/gaussian/Gaussian09RevA.02_gcc-4.9.2/g09/l502.exe)
 Closed shell SCF:
 Requested convergence on RMS density matrix=1.00D-08 within  64 cycles.
 Requested convergence on MAX density matrix=1.00D-06.
 Requested convergence on             energy=1.00D-06.
 No special actions if energy rises.
 Using DIIS extrapolation, IDIIS=  1040.
 Integral symmetry usage will be decided dynamically.
       163794 words used for storage of precomputed grid.
 Keep R1 ints in memory in canonical form, NReq=138939429.
 IEnd=      270066 IEndB=      270066 NGot=   805306368 MDV=   669418285
 LenX=   669418285 LenY=   669385083
 Symmetry not used in FoFDir.
 MinBra= 0 MaxBra= 2 Meth= 1.
 IRaf=       0 NMat=   1 IRICut=       1 DoRegI=T DoRafI=F ISym2E= 0 JSym2E=0.

 Cycle   1  Pass 1  IDiag  1:
 E= -410.021161134846    
 DIIS: error= 3.79D-03 at cycle   1 NSaved=   1.
 NSaved= 1 IEnMin= 1 EnMin= -410.021161134846     IErMin= 1 ErrMin= 3.79D-03
 ErrMax= 3.79D-03 EMaxC= 1.00D-01 BMatC= 5.86D-03 BMatP= 5.86D-03
 IDIUse=3 WtCom= 9.62D-01 WtEn= 3.79D-02
 Coeff-Com:  0.100D+01
 Coeff-En:   0.100D+01
 Coeff:      0.100D+01
 Gap=     0.102 Goal=   None    Shift=    0.000
 GapD=    0.102 DampG=1.000 DampE=1.000 DampFc=1.0000 IDamp=-1.
 RMSDP=1.03D-03 MaxDP=1.73D-02              OVMax= 3.08D-02

 Cycle   2  Pass 1  IDiag  1:
 E= -410.029085971831     Delta-E=       -0.007924836985 Rises=F Damp=F
 DIIS: error= 1.81D-03 at cycle   2 NSaved=   2.
 NSaved= 2 IEnMin= 2 EnMin= -410.029085971831     IErMin= 2 ErrMin= 1.81D-03
 ErrMax= 1.81D-03 EMaxC= 1.00D-01 BMatC= 1.15D-03 BMatP= 5.86D-03
 IDIUse=3 WtCom= 9.82D-01 WtEn= 1.81D-02
 Coeff-Com:  0.206D+00 0.794D+00
 Coeff-En:   0.000D+00 0.100D+01
 Coeff:      0.203D+00 0.797D+00
 Gap=     0.104 Goal=   None    Shift=    0.000
 RMSDP=4.12D-04 MaxDP=9.83D-03 DE=-7.92D-03 OVMax= 2.13D-02

 Cycle   3  Pass 1  IDiag  1:
 E= -410.028643123241     Delta-E=        0.000442848590 Rises=F Damp=F
 DIIS: error= 2.69D-03 at cycle   3 NSaved=   3.
 NSaved= 3 IEnMin= 2 EnMin= -410.029085971831     IErMin= 2 ErrMin= 1.81D-03
 ErrMax= 2.69D-03 EMaxC= 1.00D-01 BMatC= 1.49D-03 BMatP= 1.15D-03
 IDIUse=3 WtCom= 1.62D-01 WtEn= 8.38D-01
 Coeff-Com: -0.239D-01 0.538D+00 0.485D+00
 Coeff-En:   0.000D+00 0.569D+00 0.431D+00
 Coeff:     -0.387D-02 0.564D+00 0.440D+00
 Gap=     0.100 Goal=   None    Shift=    0.000
 RMSDP=2.53D-04 MaxDP=5.31D-03 DE= 4.43D-04 OVMax= 1.47D-02

 Cycle   4  Pass 1  IDiag  1:
 E= -410.030156793427     Delta-E=       -0.001513670186 Rises=F Damp=F
 DIIS: error= 3.44D-04 at cycle   4 NSaved=   4.
 NSaved= 4 IEnMin= 4 EnMin= -410.030156793427     IErMin= 4 ErrMin= 3.44D-04
 ErrMax= 3.44D-04 EMaxC= 1.00D-01 BMatC= 2.63D-05 BMatP= 1.15D-03
 IDIUse=3 WtCom= 9.97D-01 WtEn= 3.44D-03
 Coeff-Com: -0.178D-01 0.279D+00 0.240D+00 0.498D+00
 Coeff-En:   0.000D+00 0.000D+00 0.000D+00 0.100D+01
 Coeff:     -0.177D-01 0.278D+00 0.240D+00 0.500D+00
 Gap=     0.100 Goal=   None    Shift=    0.000
 RMSDP=3.72D-05 MaxDP=1.04D-03 DE=-1.51D-03 OVMax= 2.14D-03

 Cycle   5  Pass 1  IDiag  1:
 E= -410.030183486729     Delta-E=       -0.000026693302 Rises=F Damp=F
 DIIS: error= 1.10D-04 at cycle   5 NSaved=   5.
 NSaved= 5 IEnMin= 5 EnMin= -410.030183486729     IErMin= 5 ErrMin= 1.10D-04
 ErrMax= 1.10D-04 EMaxC= 1.00D-01 BMatC= 2.50D-06 BMatP= 2.63D-05
 IDIUse=3 WtCom= 9.99D-01 WtEn= 1.10D-03
 Coeff-Com: -0.625D-02 0.664D-01 0.649D-01 0.240D+00 0.635D+00
 Coeff-En:   0.000D+00 0.000D+00 0.000D+00 0.000D+00 0.100D+01
 Coeff:     -0.624D-02 0.663D-01 0.648D-01 0.239D+00 0.636D+00
 Gap=     0.100 Goal=   None    Shift=    0.000
 RMSDP=1.18D-05 MaxDP=2.79D-04 DE=-2.67D-05 OVMax= 5.26D-04

 Cycle   6  Pass 1  IDiag  1:
 E= -410.030185673498     Delta-E=       -0.000002186769 Rises=F Damp=F
 DIIS: error= 3.01D-05 at cycle   6 NSaved=   6.
 NSaved= 6 IEnMin= 6 EnMin= -410.030185673498     IErMin= 6 ErrMin= 3.01D-05
 ErrMax= 3.01D-05 EMaxC= 1.00D-01 BMatC= 2.87D-07 BMatP= 2.50D-06
 IDIUse=1 WtCom= 1.00D+00 WtEn= 0.00D+00
[...]
    14  H   -0.000709   0.002472  -0.000005  -0.000001  -0.000007  -0.023795
    15  H    0.006714  -0.000076  -0.000003  -0.000015  -0.003661  -0.000005
    16  H   -0.035984   0.357313  -0.040844   0.004073   0.000299  -0.000066
    17  H    0.002849  -0.038343   0.361586  -0.036487   0.004388  -0.000000
    18  H    0.000792   0.004393  -0.037918   0.364891  -0.035490  -0.000000
    19  H    0.004794   0.000396   0.004331  -0.043510   0.361686  -0.000000
             13         14         15         16         17         18
     1  C    0.371536   0.371562  -0.000093   0.004792   0.000001  -0.000000
     2  N   -0.038147  -0.038130   0.004762  -0.006805  -0.000100   0.000004
     3  C    0.001274   0.001260  -0.047259  -0.000154   0.000005   0.000005
     4  Li   0.000793   0.000808  -0.006084  -0.000109   0.000002   0.000009
     5  C   -0.000120  -0.000121   0.381062  -0.000175   0.000003  -0.000156
     6  C   -0.000165  -0.000164  -0.038057   0.003925   0.000825   0.001884
     7  C   -0.000715  -0.000709   0.006714  -0.035984   0.002849   0.000792
     8  C    0.002475   0.002472  -0.000076   0.357313  -0.038343   0.004393
     9  C   -0.000004  -0.000005  -0.000003  -0.040844   0.361586  -0.037918
    10  C   -0.000001  -0.000001  -0.000015   0.004073  -0.036487   0.364891
    11  C   -0.000007  -0.000007  -0.003661   0.000299   0.004388  -0.035490
    12  H   -0.023761  -0.023795  -0.000005  -0.000066  -0.000000  -0.000000
    13  H    0.550194  -0.040179   0.000004   0.000823  -0.000001   0.000000
    14  H   -0.040179   0.550214   0.000004   0.000822  -0.000001   0.000000
    15  H    0.000004   0.000004   0.511615   0.000003  -0.000000  -0.000001
    16  H    0.000823   0.000822   0.000003   0.559324  -0.004631  -0.000148
    17  H   -0.000001  -0.000001  -0.000000  -0.004631   0.554939  -0.004527
    18  H    0.000000   0.000000  -0.000001  -0.000148  -0.004527   0.560072
    19  H    0.000000   0.000000   0.001997   0.000016  -0.000151  -0.004551
             19
     1  C    0.000003
     2  N   -0.000077
     3  C   -0.000107
     4  Li   0.000092
     5  C   -0.005487
     6  C   -0.038570
     7  C    0.004794
     8  C    0.000396
     9  C    0.004331
    10  C   -0.043510
    11  C    0.361686
    12  H   -0.000000
    13  H    0.000000
    14  H    0.000000
    15  H    0.001997
    16  H    0.000016
    17  H   -0.000151
    18  H   -0.004551
    19  H    0.555372
 Mulliken atomic charges:
              1
     1  C   -0.333520
     2  N   -0.497904
     3  C    0.010489
     4  Li  -0.236445
     5  C   -0.189945
     6  C    0.138356
     7  C    0.305652
     8  C   -0.142016
     9  C   -0.130885
    10  C   -0.135516
    11  C   -0.186317
    12  H    0.225312
    13  H    0.176002
    14  H    0.175968
    15  H    0.189093
    16  H    0.157525
    17  H    0.159643
    18  H    0.150741
    19  H    0.163765
 Sum of Mulliken atomic charges =  -0.00000
 Mulliken charges with hydrogens summed into heavy atoms:
              1
     1  C    0.243762
     2  N   -0.497904
     3  C    0.010489
     4  Li  -0.236445
     5  C   -0.000851
     6  C    0.138356
     7  C    0.305652
     8  C    0.015510
     9  C    0.028758
    10  C    0.015226
    11  C   -0.022552
 Sum of Mulliken charges with hydrogens summed into heavy atoms =  -0.00000
 Electronic spatial extent (au):  <R**2>=           1519.5773
 Charge=              0.0000 electrons
 Dipole moment (field-independent basis, Debye):
    X=             -9.6921    Y=              4.9635    Z=             -0.0326  Tot=             10.8892
 Quadrupole moment (field-independent basis, Debye-Ang):
   XX=           -104.4201   YY=            -63.0296   ZZ=            -68.6665
   XY=             24.2082   XZ=             -0.1535   YZ=              0.0775
 Traceless Quadrupole moment (field-independent basis, Debye-Ang):
   XX=            -25.7147   YY=             15.6758   ZZ=             10.0389
   XY=             24.2082   XZ=             -0.1535   YZ=              0.0775
 Octapole moment (field-independent basis, Debye-Ang**2):
  XXX=           -343.7297  YYY=             60.8458  ZZZ=             -0.1411  XYY=            -76.1295
  XXY=            130.6031  XXZ=             -0.7465  XZZ=            -25.4361  YZZ=             15.8569
  YYZ=             -0.2083  XYZ=              0.3328
 Hexadecapole moment (field-independent basis, Debye-Ang**3):
 XXXX=          -3164.7856 YYYY=           -802.7542 ZZZZ=           -108.8576 XXXY=            719.1019
 XXXZ=             -3.7164 YYYX=            288.5546 YYYZ=              0.6099 ZZZX=             -0.7319
 ZZZY=              0.2749 XXYY=           -684.4590 XXZZ=           -387.8876 YYZZ=           -160.0113
 XXYZ=              1.5148 YYXZ=             -0.9094 ZZXY=             63.9577
 N-N= 5.013316875888D+02 E-N=-1.949924065671D+03  KE= 4.060882681747D+02
 No NMR shielding tensors so no spin-rotation constants.
 Leave Link  601 at Sun Oct  3 01:27:51 2021, MaxMem=  805306368 cpu:       0.7
 (Enter /sw/target/amd/app/gaussian/Gaussian09RevA.02_gcc-4.9.2/g09/l604.exe)
 Evaluate density.
 Using the total density.
 Monte-Carlo method of calculating molar volume:
 based on  0.001 e/bohr**3 density envelope.
 Number of points per bohr**3 =   20 CutOff= 1.00D-04
 Using the CI density.
 There are       502 points.  Will hold       502 in memory.
 LenV=   805180556 MDV=   805306368.
 Box volume =15905.406 fraction occupied=0.082
 Integrated density= 3.2740375167134140D+01 error=-3.9259624832865860D+01
 Molar volume = 1299.047 bohr**3/mol (115.926 cm**3/mol)
 Recommended a0 for SCRF calculation =  4.44 angstrom (  8.39 bohr)
 Leave Link  604 at Sun Oct  3 01:27:52 2021, MaxMem=  805306368 cpu:       0.3
 (Enter /sw/target/amd/app/gaussian/Gaussian09RevA.02_gcc-4.9.2/g09/l607.exe)
 ******************************Gaussian NBO Version 3.1******************************
             N A T U R A L   A T O M I C   O R B I T A L   A N D
          N A T U R A L   B O N D   O R B I T A L   A N A L Y S I S
 ******************************Gaussian NBO Version 3.1******************************
       /RESON  / : Allow strongly delocalized NBO set

 Analyzing the CI density

 Job title: Cn1c([Li])cc2c1cccc2_conf_0                                     

 Storage needed:     99566 in NPA ( 805304373 available)


 NATURAL POPULATIONS:  Natural atomic orbital occupancies 
                                                          
   NAO  Atom  No  lang   Type(AO)    Occupancy
 --------------------------------------------
     1    C    1  S      Cor( 1S)     1.99946
     2    C    1  S      Val( 2S)     1.08320
     3    C    1  S      Ryd( 3S)     0.00116
     4    C    1  S      Ryd( 4S)     0.00001
     5    C    1  px     Val( 2p)     1.17492
     6    C    1  px     Ryd( 3p)     0.00326
     7    C    1  py     Val( 2p)     0.95915
     8    C    1  py     Ryd( 3p)     0.00250
     9    C    1  pz     Val( 2p)     1.23946
    10    C    1  pz     Ryd( 3p)     0.00084
    11    C    1  dxy    Ryd( 3d)     0.00097
    12    C    1  dxz    Ryd( 3d)     0.00039
    13    C    1  dyz    Ryd( 3d)     0.00143
    14    C    1  dx2y2  Ryd( 3d)     0.00090
    15    C    1  dz2    Ryd( 3d)     0.00085

    16    N    2  S      Cor( 1S)     1.99929
    17    N    2  S      Val( 2S)     1.19671
    18    N    2  S      Ryd( 3S)     0.00087
    19    N    2  S      Ryd( 4S)     0.00002
    20    N    2  px     Val( 2p)     1.30027
    21    N    2  px     Ryd( 3p)     0.00231
    22    N    2  py     Val( 2p)     1.33872
    23    N    2  py     Ryd( 3p)     0.00212
    24    N    2  pz     Val( 2p)     1.52025
    25    N    2  pz     Ryd( 3p)     0.00206
    26    N    2  dxy    Ryd( 3d)     0.00099
    27    N    2  dxz    Ryd( 3d)     0.00059
    28    N    2  dyz    Ryd( 3d)     0.00076
    29    N    2  dx2y2  Ryd( 3d)     0.00111
    30    N    2  dz2    Ryd( 3d)     0.00050

    31    C    3  S      Cor( 1S)     1.99943
    32    C    3  S      Val( 2S)     1.25836
    33    C    3  S      Ryd( 3S)     0.00481
    34    C    3  S      Ryd( 4S)     0.00001
    35    C    3  px     Val( 2p)     1.47512
    36    C    3  px     Ryd( 3p)     0.00699
    37    C    3  py     Val( 2p)     0.77041
    38    C    3  py     Ryd( 3p)     0.00716
    39    C    3  pz     Val( 2p)     0.64273
    40    C    3  pz     Ryd( 3p)     0.00000
    41    C    3  dxy    Ryd( 3d)     0.00141
    42    C    3  dxz    Ryd( 3d)     0.00129
    43    C    3  dyz    Ryd( 3d)     0.00078
    44    C    3  dx2y2  Ryd( 3d)     0.00080
    45    C    3  dz2    Ryd( 3d)     0.00059

    46   Li    4  S      Cor( 1S)     1.99792
    47   Li    4  S      Val( 2S)     0.78192
    48   Li    4  S      Ryd( 3S)     0.00193
    49   Li    4  S      Ryd( 4S)     0.00000
    50   Li    4  px     Val( 2p)     0.18677
    51   Li    4  px     Ryd( 3p)     0.00066
    52   Li    4  py     Val( 2p)     0.07035
    53   Li    4  py     Ryd( 3p)     0.00000
    54   Li    4  pz     Val( 2p)     0.01194
    55   Li    4  pz     Ryd( 3p)     0.00010
    56   Li    4  dxy    Ryd( 3d)     0.00000
    57   Li    4  dxz    Ryd( 3d)     0.00000
    58   Li    4  dyz    Ryd( 3d)     0.00028
    59   Li    4  dx2y2  Ryd( 3d)     0.00000
    60   Li    4  dz2    Ryd( 3d)     0.00000

    61    C    5  S      Cor( 1S)     1.99907
    62    C    5  S      Val( 2S)     1.00019
    63    C    5  S      Ryd( 3S)     0.00069
    64    C    5  S      Ryd( 4S)     0.00006
    65    C    5  px     Val( 2p)     1.03993
    66    C    5  px     Ryd( 3p)     0.00437
    67    C    5  py     Val( 2p)     1.21727
    68    C    5  py     Ryd( 3p)     0.00338
    69    C    5  pz     Val( 2p)     0.89037
    70    C    5  pz     Ryd( 3p)     0.00063
    71    C    5  dxy    Ryd( 3d)     0.00073
    72    C    5  dxz    Ryd( 3d)     0.00053
    73    C    5  dyz    Ryd( 3d)     0.00056
    74    C    5  dx2y2  Ryd( 3d)     0.00123
    75    C    5  dz2    Ryd( 3d)     0.00042

    76    C    6  S      Cor( 1S)     1.99902
    77    C    6  S      Val( 2S)     0.88664
    78    C    6  S      Ryd( 3S)     0.00113
    79    C    6  S      Ryd( 4S)     0.00006
    80    C    6  px     Val( 2p)     1.11683
    81    C    6  px     Ryd( 3p)     0.00422
    82    C    6  py     Val( 2p)     1.06436
    83    C    6  py     Ryd( 3p)     0.00661
    84    C    6  pz     Val( 2p)     1.05395
    85    C    6  pz     Ryd( 3p)     0.00035
    86    C    6  dxy    Ryd( 3d)     0.00060
    87    C    6  dxz    Ryd( 3d)     0.00067
    88    C    6  dyz    Ryd( 3d)     0.00040
    89    C    6  dx2y2  Ryd( 3d)     0.00087
    90    C    6  dz2    Ryd( 3d)     0.00035

    91    C    7  S      Cor( 1S)     1.99901
    92    C    7  S      Val( 2S)     0.83237
    93    C    7  S      Ryd( 3S)     0.00206
    94    C    7  S      Ryd( 4S)     0.00007
    95    C    7  px     Val( 2p)     0.90137
    96    C    7  px     Ryd( 3p)     0.00466
    97    C    7  py     Val( 2p)     1.08190
    98    C    7  py     Ryd( 3p)     0.00615
    99    C    7  pz     Val( 2p)     0.98185
   100    C    7  pz     Ryd( 3p)     0.00089
   101    C    7  dxy    Ryd( 3d)     0.00090
   102    C    7  dxz    Ryd( 3d)     0.00138
   103    C    7  dyz    Ryd( 3d)     0.00060
   104    C    7  dx2y2  Ryd( 3d)     0.00122
   105    C    7  dz2    Ryd( 3d)     0.00038

   106    C    8  S      Cor( 1S)     1.99902
   107    C    8  S      Val( 2S)     0.95807
   108    C    8  S      Ryd( 3S)     0.00075
   109    C    8  S      Ryd( 4S)     0.00005
   110    C    8  px     Val( 2p)     1.07398
   111    C    8  px     Ryd( 3p)     0.00380
   112    C    8  py     Val( 2p)     1.19453
   113    C    8  py     Ryd( 3p)     0.00442
   114    C    8  pz     Val( 2p)     1.00815
   115    C    8  pz     Ryd( 3p)     0.00059
   116    C    8  dxy    Ryd( 3d)     0.00074
   117    C    8  dxz    Ryd( 3d)     0.00051
   118    C    8  dyz    Ryd( 3d)     0.00038
   119    C    8  dx2y2  Ryd( 3d)     0.00071
   120    C    8  dz2    Ryd( 3d)     0.00042

   121    C    9  S      Cor( 1S)     1.99913
   122    C    9  S      Val( 2S)     0.97090
   123    C    9  S      Ryd( 3S)     0.00056
   124    C    9  S      Ryd( 4S)     0.00003
   125    C    9  px     Val( 2p)     1.12318
   126    C    9  px     Ryd( 3p)     0.00470
   127    C    9  py     Val( 2p)     1.13022
   128    C    9  py     Ryd( 3p)     0.00502
   129    C    9  pz     Val( 2p)     0.93089
   130    C    9  pz     Ryd( 3p)     0.00058
   131    C    9  dxy    Ryd( 3d)     0.00091
   132    C    9  dxz    Ryd( 3d)     0.00051
   133    C    9  dyz    Ryd( 3d)     0.00045
   134    C    9  dx2y2  Ryd( 3d)     0.00063
   135    C    9  dz2    Ryd( 3d)     0.00044

   136    C   10  S      Cor( 1S)     1.99913
   137    C   10  S      Val( 2S)     0.96642
   138    C   10  S      Ryd( 3S)     0.00056
   139    C   10  S      Ryd( 4S)     0.00003
   140    C   10  px     Val( 2p)     1.19465
   141    C   10  px     Ryd( 3p)     0.00524
   142    C   10  py     Val( 2p)     1.06338
   143    C   10  py     Ryd( 3p)     0.00461
   144    C   10  pz     Val( 2p)     1.03061
   145    C   10  pz     Ryd( 3p)     0.00077
   146    C   10  dxy    Ryd( 3d)     0.00069
   147    C   10  dxz    Ryd( 3d)     0.00037
   148    C   10  dyz    Ryd( 3d)     0.00043
   149    C   10  dx2y2  Ryd( 3d)     0.00079
   150    C   10  dz2    Ryd( 3d)     0.00043

   151    C   11  S      Cor( 1S)     1.99903
   152    C   11  S      Val( 2S)     0.95982
   153    C   11  S      Ryd( 3S)     0.00065
   154    C   11  S      Ryd( 4S)     0.00004
   155    C   11  px     Val( 2p)     1.05791
   156    C   11  px     Ryd( 3p)     0.00388
   157    C   11  py     Val( 2p)     1.19770
   158    C   11  py     Ryd( 3p)     0.00466
   159    C   11  pz     Val( 2p)     0.91271
   160    C   11  pz     Ryd( 3p)     0.00049
   161    C   11  dxy    Ryd( 3d)     0.00067
   162    C   11  dxz    Ryd( 3d)     0.00059
   163    C   11  dyz    Ryd( 3d)     0.00038
   164    C   11  dx2y2  Ryd( 3d)     0.00090
   165    C   11  dz2    Ryd( 3d)     0.00041

   166    H   12  S      Val( 1S)     0.73446
   167    H   12  S      Ryd( 2S)     0.00059

   168    H   13  S      Val( 1S)     0.76310
   169    H   13  S      Ryd( 2S)     0.00096

   170    H   14  S      Val( 1S)     0.76313
   171    H   14  S      Ryd( 2S)     0.00096

   172    H   15  S      Val( 1S)     0.75052
   173    H   15  S      Ryd( 2S)     0.00005

   174    H   16  S      Val( 1S)     0.74905
   175    H   16  S      Ryd( 2S)     0.00066

   176    H   17  S      Val( 1S)     0.75107
   177    H   17  S      Ryd( 2S)     0.00051

   178    H   18  S      Val( 1S)     0.75018
   179    H   18  S      Ryd( 2S)     0.00054

   180    H   19  S      Val( 1S)     0.74967
   181    H   19  S      Ryd( 2S)     0.00067

 WARNING:  1 low occupancy (<1.9990e) core orbital  found on Li    4


 Summary of Natural Population Analysis:                  
                                                          
                                       Natural Population 
                Natural  -----------------------------------------------
    Atom  No    Charge         Core      Valence    Rydberg      Total
 -----------------------------------------------------------------------
      C    1   -0.46851      1.99946     4.45674    0.01231     6.46851
      N    2   -0.36657      1.99929     5.35595    0.01133     7.36657
      C    3   -0.16992      1.99943     4.14663    0.02385     6.16992
     Li    4   -0.05187      1.99792     1.05097    0.00297     3.05187
      C    5   -0.15944      1.99907     4.14777    0.01260     6.15944
      C    6   -0.13606      1.99902     4.12178    0.01526     6.13606
      C    7    0.18521      1.99901     3.79748    0.01830     5.81479
      C    8   -0.24612      1.99902     4.23473    0.01238     6.24612
      C    9   -0.16814      1.99913     4.15518    0.01383     6.16814
      C   10   -0.26810      1.99913     4.25506    0.01391     6.26810
      C   11   -0.13987      1.99903     4.12814    0.01269     6.13987
      H   12    0.26495      0.00000     0.73446    0.00059     0.73505
      H   13    0.23595      0.00000     0.76310    0.00096     0.76405
      H   14    0.23591      0.00000     0.76313    0.00096     0.76409
      H   15    0.24943      0.00000     0.75052    0.00005     0.75057
      H   16    0.25029      0.00000     0.74905    0.00066     0.74971
      H   17    0.24841      0.00000     0.75107    0.00051     0.75159
      H   18    0.24928      0.00000     0.75018    0.00054     0.75072
      H   19    0.24965      0.00000     0.74967    0.00067     0.75035
 =======================================================================
   * Total *   -0.00550     21.98952    49.86161    0.15437    72.00550

                                 Natural Population      
 --------------------------------------------------------
   Core                      21.98952 ( 99.9523% of  22)
   Valence                   49.86161 ( 99.7232% of  50)
   Natural Minimal Basis     71.85113 ( 99.7932% of  72)
   Natural Rydberg Basis      0.15437 (  0.2144% of  72)
 --------------------------------------------------------

    Atom  No          Natural Electron Configuration
 ----------------------------------------------------------------------------
      C    1      [core]2S( 1.08)2p( 3.37)3p( 0.01)
      N    2      [core]2S( 1.20)2p( 4.16)3p( 0.01)
      C    3      [core]2S( 1.26)2p( 2.89)3p( 0.01)
     Li    4      [core]2S( 0.78)2p( 0.27)
      C    5      [core]2S( 1.00)2p( 3.15)3p( 0.01)
      C    6      [core]2S( 0.89)2p( 3.24)3p( 0.01)
      C    7      [core]2S( 0.83)2p( 2.97)3p( 0.01)
      C    8      [core]2S( 0.96)2p( 3.28)3p( 0.01)
      C    9      [core]2S( 0.97)2p( 3.18)3p( 0.01)
      C   10      [core]2S( 0.97)2p( 3.29)3p( 0.01)
      C   11      [core]2S( 0.96)2p( 3.17)3p( 0.01)
      H   12            1S( 0.73)
      H   13            1S( 0.76)
      H   14            1S( 0.76)
      H   15            1S( 0.75)
      H   16            1S( 0.75)
      H   17            1S( 0.75)
      H   18            1S( 0.75)
      H   19            1S( 0.75)


 NBO analysis skipped by request.
 Leave Link  607 at Sun Oct  3 01:28:37 2021, MaxMem=  805306368 cpu:      16.8
 (Enter /sw/target/amd/app/gaussian/Gaussian09RevA.02_gcc-4.9.2/g09/l9999.exe)
 1\1\GINC-HERMITE\SP\RTD-B3LYP-FC\6-31G(d)\C9H8Li1N1\JSCHLEINITZ\03-Oct
 -2021\0\\#p TD(NStates=10, Root=1) b3lyp/6-31G* volume pop=NPA density
 =current Geom=AllCheck Guess=Read\\Cn1c([Li])cc2c1cccc2_conf_0\\0,1\C,
 0,1.0158371196,-0.1868530473,0.0904983619\N,0,2.4562928754,-0.08511843
 95,0.0903179093\C,0,3.1855011611,1.1108675408,0.0903144208\Li,0,2.9109
 457332,3.0298032785,0.0904843762\C,0,4.5290154454,0.732111068,0.090015
 6017\C,0,4.6356504959,-0.6976742903,0.0899363615\C,0,3.2955139217,-1.1
 815543927,0.090154785\C,0,3.0020219382,-2.551159639,0.0901433246\C,0,4
 .0698752539,-3.444759342,0.089904184\C,0,5.4027148312,-2.9861394886,0.
 0896942757\C,0,5.6913510604,-1.6257386214,0.0897085279\H,0,0.597147290
 2,0.8223561061,0.0906395951\H,0,0.6482578681,-0.7177149629,0.979632159
 5\H,0,0.6480047729,-0.7175740743,-0.7986161128\H,0,5.3738467053,1.4163
 701509,0.0898855658\H,0,1.9761478933,-2.9110014983,0.0902902643\H,0,3.
 8719042849,-4.5138093936,0.0898691981\H,0,6.2145774142,-3.7094323426,0
 .0895069077\H,0,6.7240728659,-1.2829738694,0.0895379218\\Version=AM64L
 -G09RevA.02\State=1-A\HF=-410.0315225\RMSD=5.340e-09\Dipole=0.4894726,
 -4.2560584,-0.0128186\Quadrupole=18.8026735,-26.2663551,7.4636816,7.27
 1371,0.0153768,-0.126923\PG=C01 [X(C9H8Li1N1)]\\@


 LIFE IS SO UNCERTAIN - EAT DESSERT FIRST.
 Job cpu time:  0 days  1 hours 12 minutes  6.6 seconds.
 File lengths (MBytes):  RWF=     94 Int=      0 D2E=      0 Chk=     15 Scr=      1
 Normal termination of Gaussian 09 at Sun Oct  3 01:28:49 2021.
