 Entering Gaussian System, Link 0=g09
 Input=C9H9NO_8b80_conf_0.com
 Output=C9H9NO_8b80_conf_0.log
 Initial command:
 /sw/target/amd/app/gaussian/Gaussian09RevA.02_gcc-4.9.2/g09/l1.exe /home/jschleinitz/gaussian/Gau-3842161.inp -scrdir=/home/jschleinitz/gaussian/
 Entering Link 1 = /sw/target/amd/app/gaussian/Gaussian09RevA.02_gcc-4.9.2/g09/l1.exe PID=   3842171.
  
 Copyright (c) 1988,1990,1992,1993,1995,1998,2003,2009, Gaussian, Inc.
                  All Rights Reserved.
  
 This is part of the Gaussian(R) 09 program.  It is based on
 the Gaussian(R) 03 system (copyright 2003, Gaussian, Inc.),
 the Gaussian(R) 98 system (copyright 1998, Gaussian, Inc.),
 the Gaussian(R) 94 system (copyright 1995, Gaussian, Inc.),
 the Gaussian 92(TM) system (copyright 1992, Gaussian, Inc.),
 the Gaussian 90(TM) system (copyright 1990, Gaussian, Inc.),
 the Gaussian 88(TM) system (copyright 1988, Gaussian, Inc.),
 the Gaussian 86(TM) system (copyright 1986, Carnegie Mellon
 University), and the Gaussian 82(TM) system (copyright 1983,
 Carnegie Mellon University). Gaussian is a federally registered
 trademark of Gaussian, Inc.
  
 This software contains proprietary and confidential information,
 including trade secrets, belonging to Gaussian, Inc.
  
 This software is provided under written license and may be
 used, copied, transmitted, or stored only in accord with that
 written license.
  
 The following legend is applicable only to US Government
 contracts under FAR:
  
                    RESTRICTED RIGHTS LEGEND
  
 Use, reproduction and disclosure by the US Government is
 subject to restrictions as set forth in subparagraphs (a)
 and (c) of the Commercial Computer Software - Restricted
 Rights clause in FAR 52.227-19.
  
 Gaussian, Inc.
 340 Quinnipiac St., Bldg. 40, Wallingford CT 06492
  
  
 ---------------------------------------------------------------
 Warning -- This program may not be used in any manner that
 competes with the business of Gaussian, Inc. or will provide
 assistance to any competitor of Gaussian, Inc.  The licensee
 of this program is prohibited from giving any competitor of
 Gaussian, Inc. access to this program.  By using this program,
 the user acknowledges that Gaussian, Inc. is engaged in the
 business of creating and licensing software in the field of
 computational chemistry and represents and warrants to the
 licensee that it is not a competitor of Gaussian, Inc. and that
 it will not use this program in any manner prohibited above.
 ---------------------------------------------------------------
  

 Cite this work as:
 Gaussian 09, Revision A.02,
 M. J. Frisch, G. W. Trucks, H. B. Schlegel, G. E. Scuseria, 
 M. A. Robb, J. R. Cheeseman, G. Scalmani, V. Barone, B. Mennucci, 
 G. A. Petersson, H. Nakatsuji, M. Caricato, X. Li, H. P. Hratchian, 
 A. F. Izmaylov, J. Bloino, G. Zheng, J. L. Sonnenberg, M. Hada, 
 M. Ehara, K. Toyota, R. Fukuda, J. Hasegawa, M. Ishida, T. Nakajima, 
 Y. Honda, O. Kitao, H. Nakai, T. Vreven, J. A. Montgomery, Jr., 
 J. E. Peralta, F. Ogliaro, M. Bearpark, J. J. Heyd, E. Brothers, 
 K. N. Kudin, V. N. Staroverov, R. Kobayashi, J. Normand, 
 K. Raghavachari, A. Rendell, J. C. Burant, S. S. Iyengar, J. Tomasi, 
 M. Cossi, N. Rega, J. M. Millam, M. Klene, J. E. Knox, J. B. Cross, 
 V. Bakken, C. Adamo, J. Jaramillo, R. Gomperts, R. E. Stratmann, 
 O. Yazyev, A. J. Austin, R. Cammi, C. Pomelli, J. W. Ochterski, 
 R. L. Martin, K. Morokuma, V. G. Zakrzewski, G. A. Voth, 
 P. Salvador, J. J. Dannenberg, S. Dapprich, A. D. Daniels, 
 O. Farkas, J. B. Foresman, J. V. Ortiz, J. Cioslowski, 
 and D. J. Fox, Gaussian, Inc., Wallingford CT, 2009.
 
 ******************************************
 Gaussian 09:  AM64L-G09RevA.02 11-Jun-2009
                 4-Oct-2021 
 ******************************************
 %nproc=3
 Will use up to    3 processors via shared memory.
 %mem=6gb
 %chk=C9H9NO_8b80_conf_0.chk
 -----------------------------------
 #p opt b3lyp/6-31G* scf=(xqc,tight)
 -----------------------------------
 1/14=-1,18=20,19=15,26=3,38=1/1,3;
 2/9=110,12=2,17=6,18=5,40=1/2;
 3/5=1,6=6,7=1,11=2,16=1,25=1,30=1,71=1,74=-5/1,2,3;
 4//1;
 5/5=2,8=3,13=1,32=2,38=5/2,8;
 6/7=2,8=2,9=2,10=2,28=1/1;
 7//1,2,3,16;
 1/14=-1,18=20,19=15/3(2);
 2/9=110/2;
 99//99;
 2/9=110/2;
 3/5=1,6=6,7=1,11=2,16=1,25=1,30=1,71=1,74=-5/1,2,3;
 4/5=5,16=3/1;
 5/5=2,8=3,13=1,32=2,38=5/2,8;
 7//1,2,3,16;
 1/14=-1,18=20,19=15/3(-5);
 2/9=110/2;
 6/7=2,8=2,9=2,10=2,19=2,28=1/1;
 99/9=1/99;
 Leave Link    1 at Mon Oct  4 03:10:08 2021, MaxMem=  805306368 cpu:       0.1
 (Enter /sw/target/amd/app/gaussian/Gaussian09RevA.02_gcc-4.9.2/g09/l101.exe)
 ----------------------
 O=C=NCCc1ccccc1_conf_0
 ----------------------
 Symbolic Z-matrix:
 Charge =  0 Multiplicity = 1
 O                     7.59713   0.19128  -3.03301 
 C                     6.87648   0.16315  -2.10682 
 N                     6.15764   0.13406  -1.17761 
 C                     6.8355   -0.21943   0.08277 
 C                     5.80657  -0.21212   1.22153 
 C                     6.43797  -0.51612   2.55966 
 C                     6.95303   0.51825   3.35373 
 C                     7.59148   0.23429   4.56314 
 C                     7.71148  -1.08407   4.99728 
 C                     7.18069  -2.11831   4.22899 
 C                     6.55046  -1.8374    3.01413 
 H                     7.63621   0.50069   0.29996 
 H                     7.29135  -1.21578   0.00319 
 H                     5.01336  -0.94199   1.01413 
 H                     5.30338   0.76245   1.268 
 H                     6.86141   1.55441   3.03567 
 H                     7.99747   1.0424    5.16635 
 H                     8.21549  -1.30493   5.93477 
 H                     7.26088  -3.14564   4.57539 
 H                     6.14748  -2.65897   2.42614 
 
 NAtoms=     20 NQM=     20 NQMF=      0 NMic=      0 NMicF=      0 NTot=     20.
                    Isotopes and Nuclear Properties:
 (Nuclear quadrupole moments (NQMom) in fm**2, nuclear magnetic moments (NMagM)
  in nuclear magnetons)

  Atom         1           2           3           4           5           6           7           8           9          10
 IAtWgt=          16          12          14          12          12          12          12          12          12          12
 AtmWgt=  15.9949146  12.0000000  14.0030740  12.0000000  12.0000000  12.0000000  12.0000000  12.0000000  12.0000000  12.0000000
 NucSpn=           0           0           2           0           0           0           0           0           0           0
 AtZEff=   0.0000000   0.0000000   0.0000000   0.0000000   0.0000000   0.0000000   0.0000000   0.0000000   0.0000000   0.0000000
 NQMom=    0.0000000   0.0000000   2.0440000   0.0000000   0.0000000   0.0000000   0.0000000   0.0000000   0.0000000   0.0000000
 NMagM=    0.0000000   0.0000000   0.4037610   0.0000000   0.0000000   0.0000000   0.0000000   0.0000000   0.0000000   0.0000000

  Atom        11          12          13          14          15          16          17          18          19          20
 IAtWgt=          12           1           1           1           1           1           1           1           1           1
 AtmWgt=  12.0000000   1.0078250   1.0078250   1.0078250   1.0078250   1.0078250   1.0078250   1.0078250   1.0078250   1.0078250
 NucSpn=           0           1           1           1           1           1           1           1           1           1
 AtZEff=   0.0000000   0.0000000   0.0000000   0.0000000   0.0000000   0.0000000   0.0000000   0.0000000   0.0000000   0.0000000
 NQMom=    0.0000000   0.0000000   0.0000000   0.0000000   0.0000000   0.0000000   0.0000000   0.0000000   0.0000000   0.0000000
 NMagM=    0.0000000   2.7928460   2.7928460   2.7928460   2.7928460   2.7928460   2.7928460   2.7928460   2.7928460   2.7928460
 Leave Link  101 at Mon Oct  4 03:10:09 2021, MaxMem=  805306368 cpu:       0.2
 (Enter /sw/target/amd/app/gaussian/Gaussian09RevA.02_gcc-4.9.2/g09/l103.exe)

 GradGradGradGradGradGradGradGradGradGradGradGradGradGradGradGradGradGrad
 Berny optimization.
 Initialization pass.
                           ----------------------------
                           !    Initial Parameters    !
                           ! (Angstroms and Degrees)  !
 --------------------------                            --------------------------
 ! Name  Definition              Value          Derivative Info.                !
 --------------------------------------------------------------------------------
 ! R1    R(1,2)                  1.1739         estimate D2E/DX2                !
 ! R2    R(2,3)                  1.1752         estimate D2E/DX2                !
 ! R3    R(3,4)                  1.4741         estimate D2E/DX2                !
 ! R4    R(4,5)                  1.5348         estimate D2E/DX2                !
 ! R5    R(4,12)                 1.0986         estimate D2E/DX2                !
 ! R6    R(4,13)                 1.0986         estimate D2E/DX2                !
 ! R7    R(5,6)                  1.5105         estimate D2E/DX2                !
 ! R8    R(5,14)                 1.0977         estimate D2E/DX2                !
 ! R9    R(5,15)                 1.0978         estimate D2E/DX2                !
 ! R10   R(6,7)                  1.402          estimate D2E/DX2                !
 ! R11   R(6,11)                 1.4018         estimate D2E/DX2                !
 ! R12   R(7,8)                  1.3968         estimate D2E/DX2                !
 ! R13   R(7,16)                 1.0877         estimate D2E/DX2                !
 ! R14   R(8,9)                  1.3932         estimate D2E/DX2                !
 ! R15   R(8,17)                 1.0871         estimate D2E/DX2                !
 ! R16   R(9,10)                 1.3934         estimate D2E/DX2                !
 ! R17   R(9,18)                 1.0871         estimate D2E/DX2                !
 ! R18   R(10,11)                1.3971         estimate D2E/DX2                !
 ! R19   R(10,19)                1.0871         estimate D2E/DX2                !
 ! R20   R(11,20)                1.0877         estimate D2E/DX2                !
 ! A1    A(2,3,4)              113.6229         estimate D2E/DX2                !
 ! A2    A(3,4,5)              108.9636         estimate D2E/DX2                !
 ! A3    A(3,4,12)             110.3049         estimate D2E/DX2                !
 ! A4    A(3,4,13)             110.2647         estimate D2E/DX2                !
 ! A5    A(5,4,12)             109.8051         estimate D2E/DX2                !
 ! A6    A(5,4,13)             109.6486         estimate D2E/DX2                !
 ! A7    A(12,4,13)            107.8422         estimate D2E/DX2                !
 ! A8    A(4,5,6)              112.0929         estimate D2E/DX2                !
 ! A9    A(4,5,14)             109.9439         estimate D2E/DX2                !
 ! A10   A(4,5,15)             110.0551         estimate D2E/DX2                !
 ! A11   A(6,5,14)             109.6104         estimate D2E/DX2                !
 ! A12   A(6,5,15)             109.4366         estimate D2E/DX2                !
 ! A13   A(14,5,15)            105.4888         estimate D2E/DX2                !
 ! A14   A(5,6,7)              120.4515         estimate D2E/DX2                !
 ! A15   A(5,6,11)             120.6935         estimate D2E/DX2                !
 ! A16   A(7,6,11)             118.835          estimate D2E/DX2                !
 ! A17   A(6,7,8)              120.5527         estimate D2E/DX2                !
 ! A18   A(6,7,16)             120.4126         estimate D2E/DX2                !
 ! A19   A(8,7,16)             119.0347         estimate D2E/DX2                !
 ! A20   A(7,8,9)              120.1041         estimate D2E/DX2                !
 ! A21   A(7,8,17)             120.0028         estimate D2E/DX2                !
 ! A22   A(9,8,17)             119.893          estimate D2E/DX2                !
 ! A23   A(8,9,10)             119.8506         estimate D2E/DX2                !
 ! A24   A(8,9,18)             120.0618         estimate D2E/DX2                !
 ! A25   A(10,9,18)            120.0873         estimate D2E/DX2                !
 ! A26   A(9,10,11)            120.134          estimate D2E/DX2                !
 ! A27   A(9,10,19)            119.8422         estimate D2E/DX2                !
 ! A28   A(11,10,19)           120.0235         estimate D2E/DX2                !
 ! A29   A(6,11,10)            120.5061         estimate D2E/DX2                !
 ! A30   A(6,11,20)            120.4617         estimate D2E/DX2                !
 ! A31   A(10,11,20)           119.0322         estimate D2E/DX2                !
 ! A32   L(1,2,3,4,-1)         179.8336         estimate D2E/DX2                !
 ! A33   L(1,2,3,4,-2)         180.0067         estimate D2E/DX2                !
 ! D1    D(2,3,4,5)            179.4328         estimate D2E/DX2                !
 ! D2    D(2,3,4,12)            58.8258         estimate D2E/DX2                !
 ! D3    D(2,3,4,13)           -60.1778         estimate D2E/DX2                !
 ! D4    D(3,4,5,6)           -177.873          estimate D2E/DX2                !
 ! D5    D(3,4,5,14)            59.9444         estimate D2E/DX2                !
 ! D6    D(3,4,5,15)           -55.834          estimate D2E/DX2                !
 ! D7    D(12,4,5,6)           -56.9595         estimate D2E/DX2                !
 ! D8    D(12,4,5,14)         -179.1421         estimate D2E/DX2                !
 ! D9    D(12,4,5,15)           65.0795         estimate D2E/DX2                !
 ! D10   D(13,4,5,6)            61.3589         estimate D2E/DX2                !
 ! D11   D(13,4,5,14)          -60.8236         estimate D2E/DX2                !
 ! D12   D(13,4,5,15)         -176.602          estimate D2E/DX2                !
 ! D13   D(4,5,6,7)             89.0554         estimate D2E/DX2                !
 ! D14   D(4,5,6,11)           -89.3012         estimate D2E/DX2                !
 ! D15   D(14,5,6,7)          -148.5722         estimate D2E/DX2                !
 ! D16   D(14,5,6,11)           33.0712         estimate D2E/DX2                !
 ! D17   D(15,5,6,7)           -33.336          estimate D2E/DX2                !
 ! D18   D(15,5,6,11)          148.3074         estimate D2E/DX2                !
 ! D19   D(5,6,7,8)           -177.0788         estimate D2E/DX2                !
 ! D20   D(5,6,7,16)             2.8805         estimate D2E/DX2                !
 ! D21   D(11,6,7,8)             1.308          estimate D2E/DX2                !
 ! D22   D(11,6,7,16)         -178.7327         estimate D2E/DX2                !
 ! D23   D(5,6,11,10)          177.5533         estimate D2E/DX2                !
 ! D24   D(5,6,11,20)           -2.4953         estimate D2E/DX2                !
 ! D25   D(7,6,11,10)           -0.8295         estimate D2E/DX2                !
 ! D26   D(7,6,11,20)          179.122          estimate D2E/DX2                !
 ! D27   D(6,7,8,9)             -0.5677         estimate D2E/DX2                !
 ! D28   D(6,7,8,17)           179.3092         estimate D2E/DX2                !
 ! D29   D(16,7,8,9)           179.4724         estimate D2E/DX2                !
 ! D30   D(16,7,8,17)           -0.6507         estimate D2E/DX2                !
 ! D31   D(7,8,9,10)            -0.6709         estimate D2E/DX2                !
 ! D32   D(7,8,9,18)           179.5111         estimate D2E/DX2                !
 ! D33   D(17,8,9,10)          179.452          estimate D2E/DX2                !
 ! D34   D(17,8,9,18)           -0.366          estimate D2E/DX2                !
 ! D35   D(8,9,10,11)            1.1477         estimate D2E/DX2                !
 ! D36   D(8,9,10,19)         -179.0567         estimate D2E/DX2                !
 ! D37   D(18,9,10,11)        -179.0344         estimate D2E/DX2                !
 ! D38   D(18,9,10,19)           0.7613         estimate D2E/DX2                !
 ! D39   D(9,10,11,6)           -0.3915         estimate D2E/DX2                !
 ! D40   D(9,10,11,20)         179.6564         estimate D2E/DX2                !
 ! D41   D(19,10,11,6)         179.8132         estimate D2E/DX2                !
 ! D42   D(19,10,11,20)         -0.1389         estimate D2E/DX2                !
 --------------------------------------------------------------------------------
 Trust Radius=3.00D-01 FncErr=1.00D-07 GrdErr=1.00D-06
 Number of steps in this run= 105 maximum allowed number of steps= 120.
 GradGradGradGradGradGradGradGradGradGradGradGradGradGradGradGradGradGrad

 Leave Link  103 at Mon Oct  4 03:10:10 2021, MaxMem=  805306368 cpu:       0.0
 (Enter /sw/target/amd/app/gaussian/Gaussian09RevA.02_gcc-4.9.2/g09/l202.exe)
                          Input orientation:                          
 ---------------------------------------------------------------------
 Center     Atomic      Atomic             Coordinates (Angstroms)
 Number     Number       Type             X           Y           Z
 ---------------------------------------------------------------------
      1          8           0        7.597128    0.191282   -3.033014
      2          6           0        6.876483    0.163153   -2.106825
      3          7           0        6.157640    0.134055   -1.177607
      4          6           0        6.835503   -0.219427    0.082768
      5          6           0        5.806573   -0.212125    1.221532
      6          6           0        6.437968   -0.516119    2.559665
      7          6           0        6.953034    0.518246    3.353726
      8          6           0        7.591480    0.234286    4.563143
      9          6           0        7.711477   -1.084075    4.997280
     10          6           0        7.180689   -2.118312    4.228992
     11          6           0        6.550463   -1.837396    3.014127
     12          1           0        7.636209    0.500695    0.299963
     13          1           0        7.291349   -1.215778    0.003188
     14          1           0        5.013362   -0.941988    1.014131
     15          1           0        5.303379    0.762446    1.267996
     16          1           0        6.861414    1.554408    3.035673
     17          1           0        7.997466    1.042398    5.166347
     18          1           0        8.215495   -1.304932    5.934772
     19          1           0        7.260883   -3.145637    4.575395
     20          1           0        6.147482   -2.658971    2.426137
 ---------------------------------------------------------------------
                    Distance matrix (angstroms):
                    1          2          3          4          5
     1  O    0.000000
     2  C    1.173860   0.000000
     3  N    2.349029   1.175172   0.000000
     4  C    3.233706   2.223143   1.474107   0.000000
     5  C    4.633572   3.516177   2.449276   1.534775   0.000000
     6  C    5.755182   4.736014   3.803749   2.526079   1.510520
     7  C    6.427458   5.472620   4.616626   3.355167   2.528649
     8  C    7.596281   6.708558   5.917952   4.566302   3.814648
     9  C    8.131742   7.260929   6.482860   5.066298   4.318012
    10  C    7.631800   6.740934   5.945678   4.573411   3.816616
    11  C    6.463664   5.507507   4.648823   3.360347   2.531457
    12  H    3.347536   2.546320   2.122217   1.098581   2.169094
    13  H    3.360333   2.554548   2.121703   1.098565   2.167082
    14  H    4.933511   3.799068   2.696471   2.170190   1.097679
    15  H    4.907769   3.771369   2.665635   2.171691   1.097794
    16  H    6.263254   5.327392   4.501603   3.444824   2.743071
    17  H    8.253132   7.411390   6.667518   5.365178   4.683525
    18  H    9.112750   8.283447   7.542637   6.109717   5.404791
    19  H    8.314804   7.466452   6.713460   5.378414   4.687100
    20  H    6.326749   5.389209   4.559393   3.451974   2.748517
                    6          7          8          9         10
     6  C    0.000000
     7  C    1.402048   0.000000
     8  C    2.430560   1.396759   0.000000
     9  C    2.808268   2.417423   1.393179   0.000000
    10  C    2.430084   2.787356   2.411456   1.393431   0.000000
    11  C    1.401772   2.413802   2.788374   2.418334   1.397138
    12  H    2.752443   3.129298   4.271730   4.958018   4.743834
    13  H    2.784485   3.787797   4.794367   5.013463   4.322526
    14  H    2.144653   3.371693   4.541563   4.813054   4.051712
    15  H    2.142528   2.670443   4.046276   4.807924   4.537681
    16  H    2.166327   1.087743   2.146831   3.395895   3.874896
    17  H    3.414060   2.156656   1.087072   2.152268   3.396446
    18  H    3.895276   3.402878   2.154055   1.087061   2.154552
    19  H    3.413901   3.874439   3.396074   2.151990   1.087117
    20  H    2.166570   3.406471   3.875933   3.396639   2.147117
                   11         12         13         14         15
    11  C    0.000000
    12  H    3.743287   0.000000
    13  H    3.162448   1.775749   0.000000
    14  H    2.676643   3.077449   2.507228   0.000000
    15  H    3.370960   2.539232   3.076547   1.747470   0.000000
    16  H    3.406096   3.032281   4.129739   3.705930   2.485831
    17  H    3.875446   4.909749   5.679452   5.484848   4.746959
    18  H    3.403823   5.945328   6.003806   5.882014   5.876501
    19  H    2.157254   5.631688   4.962898   4.752895   5.481224
    20  H    1.087709   4.089060   3.043341   2.495600   3.709433
                   16         17         18         19         20
    16  H    0.000000
    17  H    2.468307   0.000000
    18  H    4.291170   2.479511   0.000000
    19  H    4.961929   4.293182   2.479392   0.000000
    20  H    4.316688   4.962995   4.291924   2.468970   0.000000
 Stoichiometry    C9H9NO
 Framework group  C1[X(C9H9NO)]
 Deg. of freedom    54
 Full point group                 C1      NOp   1
 Largest Abelian subgroup         C1      NOp   1
 Largest concise Abelian subgroup C1      NOp   1
                         Standard orientation:                         
 ---------------------------------------------------------------------
 Center     Atomic      Atomic             Coordinates (Angstroms)
 Number     Number       Type             X           Y           Z
 ---------------------------------------------------------------------
      1          8           0       -4.599756    0.045037   -0.970901
      2          6           0       -3.722126    0.016488   -0.191865
      3          7           0       -2.841255   -0.012191    0.585485
      4          6           0       -1.504962   -0.032666   -0.036521
      5          6           0       -0.440551   -0.055073    1.068948
      6          6           0        0.961686   -0.024955    0.508150
      7          6           0        1.602250    1.197587    0.261561
      8          6           0        2.874806    1.229120   -0.313366
      9          6           0        3.525119    0.040244   -0.636808
     10          6           0        2.909063   -1.181365   -0.372615
     11          6           0        1.632088   -1.215063    0.193240
     12          1           0       -1.365508    0.854268   -0.669593
     13          1           0       -1.395152   -0.921230   -0.673107
     14          1           0       -0.568353   -0.948510    1.693716
     15          1           0       -0.581987    0.798152    1.745079
     16          1           0        1.114092    2.135993    0.515098
     17          1           0        3.358542    2.182364   -0.510981
     18          1           0        4.512172    0.065748   -1.091536
     19          1           0        3.423073   -2.109170   -0.610931
     20          1           0        1.165709   -2.178477    0.386724
 ---------------------------------------------------------------------
 Rotational constants (GHZ):      3.4398598      0.4296053      0.4166651
 Leave Link  202 at Mon Oct  4 03:10:10 2021, MaxMem=  805306368 cpu:       0.0
 (Enter /sw/target/amd/app/gaussian/Gaussian09RevA.02_gcc-4.9.2/g09/l301.exe)
 Standard basis: 6-31G(d) (6D, 7F)
 Ernie: Thresh=  0.10000D-02 Tol=  0.10000D-05 Strict=F.
 There are   183 symmetry adapted basis functions of A   symmetry.
 Integral buffers will be    131072 words long.
 Raffenetti 2 integral format.
 Two-electron integral symmetry is turned on.
   183 basis functions,   344 primitive gaussians,   183 cartesian basis functions
    39 alpha electrons       39 beta electrons
       nuclear repulsion energy       525.4195452359 Hartrees.
 IExCor=  402 DFT=T Ex+Corr=B3LYP ExCW=0 ScaHFX=  0.200000
 ScaDFX=  0.800000  0.720000  1.000000  0.810000 ScalE2=  1.000000  1.000000
 IRadAn=      0 IRanWt=     -1 IRanGd=            0 ICorTp=0
 NAtoms=   20 NActive=   20 NUniq=   20 SFac= 7.50D-01 NAtFMM=   80 NAOKFM=F Big=F
 Leave Link  301 at Mon Oct  4 03:10:10 2021, MaxMem=  805306368 cpu:       0.1
 (Enter /sw/target/amd/app/gaussian/Gaussian09RevA.02_gcc-4.9.2/g09/l302.exe)
 NPDir=0 NMtPBC=     1 NCelOv=     1 NCel=       1 NClECP=     1 NCelD=      1
         NCelK=      1 NCelE2=     1 NClLst=     1 CellRange=     0.0.
 One-electron integrals computed using PRISM.
 NBasis=   183 RedAO= T  NBF=   183
 NBsUse=   183 1.00D-06 NBFU=   183
 Precomputing XC quadrature grid using
 IXCGrd= 2 IRadAn=           0 IRanWt=          -1 IRanGd=           0 AccXCQ= 1.00D-10.
 NRdTot=    1259 NPtTot=      159828 NUsed=      168914 NTot=      168946
 NSgBfM=   182   182   182   182   182 NAtAll=    20    20.
 Leave Link  302 at Mon Oct  4 03:10:14 2021, MaxMem=  805306368 cpu:       1.2
 (Enter /sw/target/amd/app/gaussian/Gaussian09RevA.02_gcc-4.9.2/g09/l303.exe)
 DipDrv:  MaxL=1.
 Leave Link  303 at Mon Oct  4 03:10:15 2021, MaxMem=  805306368 cpu:       0.1
 (Enter /sw/target/amd/app/gaussian/Gaussian09RevA.02_gcc-4.9.2/g09/l401.exe)
 Harris functional with IExCor=  402 diagonalized for initial guess.
 ExpMin= 1.61D-01 ExpMax= 5.48D+03 ExpMxC= 8.25D+02 IAcc=1 IRadAn=         1 AccDes= 0.00D+00
 HarFok:  IExCor=  402 AccDes= 0.00D+00 IRadAn=         1 IDoV= 1
 ScaDFX=  1.000000  1.000000  1.000000  1.000000
 FoFCou: FMM=F IPFlag=           0 FMFlag=      100000 FMFlg1=           0
         NFxFlg=           0 DoJE=T BraDBF=F KetDBF=T FulRan=T
         Omega=  0.000000  0.000000  1.000000  0.000000  0.000000 ICntrl=     500 IOpCl=  0
         NMat0=    1 NMatS0=    1 NMatT0=    0 NMatD0=    1 NMtDS0=    0 NMtDT0=    0
         I1Cent=           4 NGrid=           0.
 Petite list used in FoFCou.
 Harris En= -478.412387145604    
 Initial guess orbital symmetries:
       Occupied  (A) (A) (A) (A) (A) (A) (A) (A) (A) (A) (A) (A)
                 (A) (A) (A) (A) (A) (A) (A) (A) (A) (A) (A) (A)
                 (A) (A) (A) (A) (A) (A) (A) (A) (A) (A) (A) (A)
                 (A) (A) (A)
       Virtual   (A) (A) (A) (A) (A) (A) (A) (A) (A) (A) (A) (A)
                 (A) (A) (A) (A) (A) (A) (A) (A) (A) (A) (A) (A)
                 (A) (A) (A) (A) (A) (A) (A) (A) (A) (A) (A) (A)
                 (A) (A) (A) (A) (A) (A) (A) (A) (A) (A) (A) (A)
                 (A) (A) (A) (A) (A) (A) (A) (A) (A) (A) (A) (A)
                 (A) (A) (A) (A) (A) (A) (A) (A) (A) (A) (A) (A)
                 (A) (A) (A) (A) (A) (A) (A) (A) (A) (A) (A) (A)
                 (A) (A) (A) (A) (A) (A) (A) (A) (A) (A) (A) (A)
                 (A) (A) (A) (A) (A) (A) (A) (A) (A) (A) (A) (A)
                 (A) (A) (A) (A) (A) (A) (A) (A) (A) (A) (A) (A)
                 (A) (A) (A) (A) (A) (A) (A) (A) (A) (A) (A) (A)
                 (A) (A) (A) (A) (A) (A) (A) (A) (A) (A) (A) (A)
 The electronic state of the initial guess is 1-A.
 Leave Link  401 at Mon Oct  4 03:10:28 2021, MaxMem=  805306368 cpu:       5.5
 (Enter /sw/target/amd/app/gaussian/Gaussian09RevA.02_gcc-4.9.2/g09/l502.exe)
 Closed shell SCF:
 Requested convergence on RMS density matrix=1.00D-08 within  64 cycles.
 Requested convergence on MAX density matrix=1.00D-06.
 Requested convergence on             energy=1.00D-06.
 No special actions if energy rises.
 Using DIIS extrapolation, IDIIS=  1040.
 Integral symmetry usage will be decided dynamically.
       168721 words used for storage of precomputed grid.
 Keep R1 ints in memory in canonical form, NReq=145125747.
 IEnd=      277207 IEndB=      277207 NGot=   805306368 MDV=   663333164
 LenX=   663333164 LenY=   663299234
 Symmetry not used in FoFDir.
 MinBra= 0 MaxBra= 2 Meth= 1.
 IRaf=       0 NMat=   1 IRICut=       1 DoRegI=T DoRafI=F ISym2E= 0 JSym2E=0.
 Integral accuracy reduced to 1.0D-05 until final iterations.

 Cycle   1  Pass 0  IDiag  1:
 E= -478.072257723889    
 DIIS: error= 3.69D-02 at cycle   1 NSaved=   1.
 NSaved= 1 IEnMin= 1 EnMin= -478.072257723889     IErMin= 1 ErrMin= 3.69D-02
 ErrMax= 3.69D-02 EMaxC= 1.00D-01 BMatC= 2.67D-01 BMatP= 2.67D-01
 IDIUse=3 WtCom= 6.31D-01 WtEn= 3.69D-01
 Coeff-Com:  0.100D+01
 Coeff-En:   0.100D+01
 Coeff:      0.100D+01
 Gap=     0.239 Goal=   None    Shift=    0.000
 GapD=    0.239 DampG=1.000 DampE=0.500 DampFc=0.5000 IDamp=-1.
 Damping current iteration by 5.00D-01
 RMSDP=6.23D-03 MaxDP=1.38D-01              OVMax= 1.61D-01

 Cycle   2  Pass 0  IDiag  1:
 E= -478.189932356712     Delta-E=       -0.117674632823 Rises=F Damp=T
 DIIS: error= 8.82D-03 at cycle   2 NSaved=   2.
 NSaved= 2 IEnMin= 2 EnMin= -478.189932356712     IErMin= 2 ErrMin= 8.82D-03
 ErrMax= 8.82D-03 EMaxC= 1.00D-01 BMatC= 1.82D-02 BMatP= 2.67D-01
 IDIUse=3 WtCom= 9.12D-01 WtEn= 8.82D-02
 Coeff-Com:  0.921D-01 0.908D+00
 Coeff-En:   0.123D+00 0.877D+00
 Coeff:      0.948D-01 0.905D+00
 Gap=     0.258 Goal=   None    Shift=    0.000
 RMSDP=1.32D-03 MaxDP=4.54D-02 DE=-1.18D-01 OVMax= 1.19D-01

 Cycle   3  Pass 0  IDiag  1:
 E= -478.333083904229     Delta-E=       -0.143151547518 Rises=F Damp=F
 DIIS: error= 8.85D-03 at cycle   3 NSaved=   3.
 NSaved= 3 IEnMin= 3 EnMin= -478.333083904229     IErMin= 2 ErrMin= 8.82D-03
 ErrMax= 8.85D-03 EMaxC= 1.00D-01 BMatC= 1.12D-02 BMatP= 1.82D-02
 IDIUse=3 WtCom= 9.11D-01 WtEn= 8.85D-02
 Coeff-Com: -0.332D-02 0.430D+00 0.573D+00
 Coeff-En:   0.000D+00 0.000D+00 0.100D+01
 Coeff:     -0.302D-02 0.392D+00 0.611D+00
 Gap=     0.238 Goal=   None    Shift=    0.000
 RMSDP=5.97D-04 MaxDP=2.87D-02 DE=-1.43D-01 OVMax= 3.31D-02

 Cycle   4  Pass 0  IDiag  1:
 E= -478.340680654214     Delta-E=       -0.007596749984 Rises=F Damp=F
 DIIS: error= 3.33D-03 at cycle   4 NSaved=   4.
 NSaved= 4 IEnMin= 4 EnMin= -478.340680654214     IErMin= 4 ErrMin= 3.33D-03
 ErrMax= 3.33D-03 EMaxC= 1.00D-01 BMatC= 2.21D-03 BMatP= 1.12D-02
 IDIUse=3 WtCom= 9.67D-01 WtEn= 3.33D-02
 Coeff-Com: -0.477D-02 0.722D-01 0.326D+00 0.607D+00
 Coeff-En:   0.000D+00 0.000D+00 0.163D+00 0.837D+00
 Coeff:     -0.461D-02 0.698D-01 0.320D+00 0.614D+00
 Gap=     0.237 Goal=   None    Shift=    0.000
 RMSDP=2.52D-04 MaxDP=7.45D-03 DE=-7.60D-03 OVMax= 1.03D-02

 Cycle   5  Pass 0  IDiag  1:
 E= -478.342472837700     Delta-E=       -0.001792183486 Rises=F Damp=F
 DIIS: error= 5.96D-04 at cycle   5 NSaved=   5.
 NSaved= 5 IEnMin= 5 EnMin= -478.342472837700     IErMin= 5 ErrMin= 5.96D-04
 ErrMax= 5.96D-04 EMaxC= 1.00D-01 BMatC= 7.06D-05 BMatP= 2.21D-03
 IDIUse=3 WtCom= 9.94D-01 WtEn= 5.96D-03
 Coeff-Com: -0.174D-02 0.977D-02 0.108D+00 0.268D+00 0.617D+00
 Coeff-En:   0.000D+00 0.000D+00 0.000D+00 0.000D+00 0.100D+01
 Coeff:     -0.173D-02 0.971D-02 0.107D+00 0.266D+00 0.619D+00
 Gap=     0.238 Goal=   None    Shift=    0.000
 RMSDP=6.10D-05 MaxDP=2.05D-03 DE=-1.79D-03 OVMax= 2.69D-03

 Cycle   6  Pass 0  IDiag  1:
 E= -478.342521543292     Delta-E=       -0.000048705592 Rises=F Damp=F
 DIIS: error= 4.26D-04 at cycle   6 NSaved=   6.
 NSaved= 6 IEnMin= 6 EnMin= -478.342521543292     IErMin= 6 ErrMin= 4.26D-04
 ErrMax= 4.26D-04 EMaxC= 1.00D-01 BMatC= 1.55D-05 BMatP= 7.06D-05
 IDIUse=3 WtCom= 9.96D-01 WtEn= 4.26D-03
 Coeff-Com: -0.836D-03 0.251D-02 0.544D-01 0.147D+00 0.404D+00 0.394D+00
 Coeff-En:   0.000D+00 0.000D+00 0.000D+00 0.000D+00 0.915D-01 0.908D+00
 Coeff:     -0.833D-03 0.250D-02 0.542D-01 0.146D+00 0.402D+00 0.396D+00
 Gap=     0.238 Goal=   None    Shift=    0.000
 RMSDP=2.16D-05 MaxDP=8.66D-04 DE=-4.87D-05 OVMax= 1.61D-03

 Cycle   7  Pass 0  IDiag  1:
 E= -478.342533054173     Delta-E=       -0.000011510882 Rises=F Damp=F
 DIIS: error= 1.26D-04 at cycle   7 NSaved=   7.
 NSaved= 7 IEnMin= 7 EnMin= -478.342533054173     IErMin= 7 ErrMin= 1.26D-04
 ErrMax= 1.26D-04 EMaxC= 1.00D-01 BMatC= 1.78D-06 BMatP= 1.55D-05
 IDIUse=3 WtCom= 9.99D-01 WtEn= 1.26D-03
 Coeff-Com: -0.222D-03-0.711D-04 0.154D-01 0.470D-01 0.151D+00 0.271D+00
 Coeff-Com:  0.515D+00
 Coeff-En:   0.000D+00 0.000D+00 0.000D+00 0.000D+00 0.000D+00 0.124D+00
 Coeff-En:   0.876D+00
 Coeff:     -0.222D-03-0.710D-04 0.154D-01 0.469D-01 0.151D+00 0.271D+00
 Coeff:      0.516D+00
 Gap=     0.238 Goal=   None    Shift=    0.000
 RMSDP=6.59D-06 MaxDP=2.59D-04 DE=-1.15D-05 OVMax= 3.63D-04

 Initial convergence to 1.0D-05 achieved.  Increase integral accuracy.
 Cycle   8  Pass 1  IDiag  1:
 E= -478.342536072232     Delta-E=       -0.000003018059 Rises=F Damp=F
 DIIS: error= 5.17D-05 at cycle   1 NSaved=   1.
 NSaved= 1 IEnMin= 1 EnMin= -478.342536072232     IErMin= 1 ErrMin= 5.17D-05
 ErrMax= 5.17D-05 EMaxC= 1.00D-01 BMatC= 9.54D-08 BMatP= 9.54D-08
 IDIUse=1 WtCom= 1.00D+00 WtEn= 0.00D+00
 Coeff-Com:  0.100D+01
 Coeff:      0.100D+01
 Gap=     0.238 Goal=   None    Shift=    0.000
 RMSDP=6.59D-06 MaxDP=2.59D-04 DE=-3.02D-06 OVMax= 1.01D-04

 Cycle   9  Pass 1  IDiag  1:
 E= -478.342536164249     Delta-E=       -0.000000092017 Rises=F Damp=F
 DIIS: error= 1.11D-05 at cycle   2 NSaved=   2.
 NSaved= 2 IEnMin= 2 EnMin= -478.342536164249     IErMin= 2 ErrMin= 1.11D-05
 ErrMax= 1.11D-05 EMaxC= 1.00D-01 BMatC= 3.89D-08 BMatP= 9.54D-08
 IDIUse=1 WtCom= 1.00D+00 WtEn= 0.00D+00
 Coeff-Com:  0.341D+00 0.659D+00
 Coeff:      0.341D+00 0.659D+00
 Gap=     0.238 Goal=   None    Shift=    0.000
 RMSDP=1.89D-06 MaxDP=5.21D-05 DE=-9.20D-08 OVMax= 8.97D-05

 Cycle  10  Pass 1  IDiag  1:
 E= -478.342536172476     Delta-E=       -0.000000008227 Rises=F Damp=F
 DIIS: error= 1.39D-05 at cycle   3 NSaved=   3.
 NSaved= 3 IEnMin= 3 EnMin= -478.342536172476     IErMin= 2 ErrMin= 1.11D-05
 ErrMax= 1.39D-05 EMaxC= 1.00D-01 BMatC= 3.09D-08 BMatP= 3.89D-08
 IDIUse=1 WtCom= 1.00D+00 WtEn= 0.00D+00
 Coeff-Com:  0.186D-01 0.467D+00 0.515D+00
 Coeff:      0.186D-01 0.467D+00 0.515D+00
 Gap=     0.238 Goal=   None    Shift=    0.000
 RMSDP=1.03D-06 MaxDP=3.12D-05 DE=-8.23D-09 OVMax= 5.61D-05

 Cycle  11  Pass 1  IDiag  1:
 E= -478.342536197657     Delta-E=       -0.000000025181 Rises=F Damp=F
 DIIS: error= 5.61D-06 at cycle   4 NSaved=   4.
 NSaved= 4 IEnMin= 4 EnMin= -478.342536197657     IErMin= 4 ErrMin= 5.61D-06
 ErrMax= 5.61D-06 EMaxC= 1.00D-01 BMatC= 3.97D-09 BMatP= 3.09D-08
 IDIUse=1 WtCom= 1.00D+00 WtEn= 0.00D+00
 Coeff-Com: -0.142D-01 0.265D+00 0.352D+00 0.397D+00
 Coeff:     -0.142D-01 0.265D+00 0.352D+00 0.397D+00
 Gap=     0.238 Goal=   None    Shift=    0.000
 RMSDP=3.02D-07 MaxDP=1.19D-05 DE=-2.52D-08 OVMax= 1.85D-05

 Cycle  12  Pass 1  IDiag  1:
 E= -478.342536200917     Delta-E=       -0.000000003260 Rises=F Damp=F
 DIIS: error= 9.69D-07 at cycle   5 NSaved=   5.
 NSaved= 5 IEnMin= 5 EnMin= -478.342536200917     IErMin= 5 ErrMin= 9.69D-07
 ErrMax= 9.69D-07 EMaxC= 1.00D-01 BMatC= 1.36D-10 BMatP= 3.97D-09
 IDIUse=1 WtCom= 1.00D+00 WtEn= 0.00D+00
 Coeff-Com: -0.894D-02 0.136D+00 0.186D+00 0.240D+00 0.447D+00
 Coeff:     -0.894D-02 0.136D+00 0.186D+00 0.240D+00 0.447D+00
 Gap=     0.238 Goal=   None    Shift=    0.000
 RMSDP=8.03D-08 MaxDP=1.80D-06 DE=-3.26D-09 OVMax= 5.25D-06

 Cycle  13  Pass 1  IDiag  1:
 E= -478.342536201040     Delta-E=       -0.000000000123 Rises=F Damp=F
 DIIS: error= 3.49D-07 at cycle   6 NSaved=   6.
 NSaved= 6 IEnMin= 6 EnMin= -478.342536201040     IErMin= 6 ErrMin= 3.49D-07
 ErrMax= 3.49D-07 EMaxC= 1.00D-01 BMatC= 1.27D-11 BMatP= 1.36D-10
 IDIUse=1 WtCom= 1.00D+00 WtEn= 0.00D+00
 Coeff-Com: -0.284D-02 0.327D-01 0.475D-01 0.705D-01 0.257D+00 0.595D+00
 Coeff:     -0.284D-02 0.327D-01 0.475D-01 0.705D-01 0.257D+00 0.595D+00
 Gap=     0.238 Goal=   None    Shift=    0.000
 RMSDP=2.25D-08 MaxDP=6.99D-07 DE=-1.23D-10 OVMax= 1.49D-06

 Cycle  14  Pass 1  IDiag  1:
 E= -478.342536201066     Delta-E=       -0.000000000026 Rises=F Damp=F
 DIIS: error= 7.24D-08 at cycle   7 NSaved=   7.
 NSaved= 7 IEnMin= 7 EnMin= -478.342536201066     IErMin= 7 ErrMin= 7.24D-08
 ErrMax= 7.24D-08 EMaxC= 1.00D-01 BMatC= 9.72D-13 BMatP= 1.27D-11
 IDIUse=1 WtCom= 1.00D+00 WtEn= 0.00D+00
 Coeff-Com: -0.694D-03 0.475D-02 0.797D-02 0.145D-01 0.931D-01 0.297D+00
 Coeff-Com:  0.583D+00
 Coeff:     -0.694D-03 0.475D-02 0.797D-02 0.145D-01 0.931D-01 0.297D+00
 Coeff:      0.583D+00
 Gap=     0.238 Goal=   None    Shift=    0.000
 RMSDP=6.24D-09 MaxDP=2.03D-07 DE=-2.65D-11 OVMax= 3.68D-07

 SCF Done:  E(RB3LYP) =  -478.342536201     A.U. after   14 cycles
             Convg  =    0.6240D-08             -V/T =  2.0091
 KE= 4.740372807991D+02 PE=-2.161927227726D+03 EE= 6.841278654896D+02
 Leave Link  502 at Mon Oct  4 03:15:24 2021, MaxMem=  805306368 cpu:      99.7
 (Enter /sw/target/amd/app/gaussian/Gaussian09RevA.02_gcc-4.9.2/g09/l508.exe)
 QCSCF skips out because SCF is already converged.
 Leave Link  508 at Mon Oct  4 03:15:25 2021, MaxMem=  805306368 cpu:       0.0
 (Enter /sw/target/amd/app/gaussian/Gaussian09RevA.02_gcc-4.9.2/g09/l601.exe)
 Copying SCF densities to generalized density rwf, IOpCl= 0 IROHF=0.

 **********************************************************************

            Population analysis using the SCF density.

 **********************************************************************

 Orbital symmetries:
       Occupied  (A) (A) (A) (A) (A) (A) (A) (A) (A) (A) (A) (A)
                 (A) (A) (A) (A) (A) (A) (A) (A) (A) (A) (A) (A)
                 (A) (A) (A) (A) (A) (A) (A) (A) (A) (A) (A) (A)
                 (A) (A) (A)
       Virtual   (A) (A) (A) (A) (A) (A) (A) (A) (A) (A) (A) (A)
                 (A) (A) (A) (A) (A) (A) (A) (A) (A) (A) (A) (A)
                 (A) (A) (A) (A) (A) (A) (A) (A) (A) (A) (A) (A)
                 (A) (A) (A) (A) (A) (A) (A) (A) (A) (A) (A) (A)
                 (A) (A) (A) (A) (A) (A) (A) (A) (A) (A) (A) (A)
                 (A) (A) (A) (A) (A) (A) (A) (A) (A) (A) (A) (A)
                 (A) (A) (A) (A) (A) (A) (A) (A) (A) (A) (A) (A)
                 (A) (A) (A) (A) (A) (A) (A) (A) (A) (A) (A) (A)
                 (A) (A) (A) (A) (A) (A) (A) (A) (A) (A) (A) (A)
                 (A) (A) (A) (A) (A) (A) (A) (A) (A) (A) (A) (A)
                 (A) (A) (A) (A) (A) (A) (A) (A) (A) (A) (A) (A)
                 (A) (A) (A) (A) (A) (A) (A) (A) (A) (A) (A) (A)
 The electronic state is 1-A.
 Alpha  occ. eigenvalues --  -19.19869 -14.35041 -10.31686 -10.24706 -10.20124
 Alpha  occ. eigenvalues --  -10.19660 -10.19374 -10.19365 -10.19307 -10.19298
 Alpha  occ. eigenvalues --  -10.19183  -1.10454  -0.97521  -0.85987  -0.79645
 Alpha  occ. eigenvalues --   -0.74715  -0.73414  -0.65147  -0.60888  -0.58348
 Alpha  occ. eigenvalues --   -0.53607  -0.51201  -0.49634  -0.49503  -0.46910
 Alpha  occ. eigenvalues --   -0.46064  -0.45523  -0.43118  -0.42243  -0.40625
 Alpha  occ. eigenvalues --   -0.40060  -0.36951  -0.35830  -0.34227  -0.34179
 Alpha  occ. eigenvalues --   -0.31509  -0.28243  -0.25324  -0.24753
 Alpha virt. eigenvalues --   -0.00995  -0.00522   0.01822   0.06478   0.08587
 Alpha virt. eigenvalues --    0.09912   0.11741   0.12305   0.14286   0.15641
 Alpha virt. eigenvalues --    0.15885   0.17208   0.18339   0.18948   0.20283
 Alpha virt. eigenvalues --    0.22382   0.24192   0.28647   0.30270   0.31829
 Alpha virt. eigenvalues --    0.33132   0.33924   0.41994   0.45490   0.49905
 Alpha virt. eigenvalues --    0.50424   0.51822   0.52095   0.54112   0.54236
 Alpha virt. eigenvalues --    0.54826   0.56232   0.58238   0.59257   0.59411
 Alpha virt. eigenvalues --    0.60202   0.60943   0.61840   0.63616   0.64108
 Alpha virt. eigenvalues --    0.66445   0.68630   0.69151   0.70357   0.75730
 Alpha virt. eigenvalues --    0.79147   0.81857   0.82232   0.83410   0.83456
 Alpha virt. eigenvalues --    0.83842   0.85505   0.85728   0.85891   0.86974
 Alpha virt. eigenvalues --    0.90969   0.93804   0.94024   0.94571   0.97077
 Alpha virt. eigenvalues --    0.99182   1.00908   1.02509   1.03699   1.04769
 Alpha virt. eigenvalues --    1.11065   1.12680   1.13411   1.16154   1.18063
 Alpha virt. eigenvalues --    1.18264   1.25696   1.32199   1.34689   1.40472
 Alpha virt. eigenvalues --    1.42275   1.42850   1.43490   1.46167   1.48008
 Alpha virt. eigenvalues --    1.48871   1.50654   1.50961   1.51404   1.53866
 Alpha virt. eigenvalues --    1.64495   1.66504   1.74158   1.79825   1.81069
 Alpha virt. eigenvalues --    1.82694   1.83601   1.88663   1.89041   1.90587
 Alpha virt. eigenvalues --    1.92900   1.95845   1.96316   1.97449   1.99147
 Alpha virt. eigenvalues --    2.05154   2.05604   2.09089   2.10557   2.13663
 Alpha virt. eigenvalues --    2.14211   2.15365   2.16493   2.24905   2.25595
 Alpha virt. eigenvalues --    2.26046   2.30430   2.34486   2.36965   2.39902
 Alpha virt. eigenvalues --    2.43517   2.53822   2.56929   2.61673   2.63055
 Alpha virt. eigenvalues --    2.65766   2.71911   2.73549   2.73726   2.74945
 Alpha virt. eigenvalues --    2.76743   2.88931   2.94570   2.97696   3.04669
 Alpha virt. eigenvalues --    3.14854   3.24413   3.40602   3.89765   4.08795
 Alpha virt. eigenvalues --    4.11114   4.14097   4.19862   4.32570   4.38531
 Alpha virt. eigenvalues --    4.42134   4.46956   4.68152   4.69999
          Condensed to atoms (all electrons):
              1          2          3          4          5          6
     1  O    7.823693   0.618262  -0.036936  -0.004993   0.000030   0.000002
     2  C    0.618262   4.227420   0.595892  -0.053279   0.002631  -0.000060
     3  N   -0.036936   0.595892   6.729882   0.264390  -0.053857   0.004078
     4  C   -0.004993  -0.053279   0.264390   4.958503   0.365477  -0.040565
     5  C    0.000030   0.002631  -0.053857   0.365477   5.196078   0.325077
     6  C    0.000002  -0.000060   0.004078  -0.040565   0.325077   4.681731
     7  C   -0.000000  -0.000004   0.000015  -0.004408  -0.056312   0.546219
     8  C   -0.000000   0.000000   0.000001  -0.000061   0.006381  -0.019807
     9  C    0.000000   0.000000  -0.000000   0.000023   0.000434  -0.035028
    10  C   -0.000000   0.000000   0.000001  -0.000047   0.006334  -0.019758
    11  C   -0.000000  -0.000002   0.000009  -0.003828  -0.055735   0.546143
    12  H    0.001220  -0.005790  -0.041025   0.370787  -0.044269   0.002138
    13  H    0.001183  -0.005625  -0.040877   0.369979  -0.042656   0.001732
    14  H   -0.000002   0.000121   0.001596  -0.035728   0.360201  -0.028842
    15  H   -0.000002   0.000209   0.001419  -0.036180   0.361688  -0.029727
    16  H    0.000000  -0.000001  -0.000033   0.000195  -0.008600  -0.046457
    17  H   -0.000000  -0.000000  -0.000000  -0.000001  -0.000178   0.003805
    18  H    0.000000   0.000000   0.000000   0.000000   0.000006   0.000688
    19  H   -0.000000  -0.000000  -0.000000  -0.000001  -0.000177   0.003790
    20  H    0.000000  -0.000001  -0.000028   0.000172  -0.008549  -0.046428
              7          8          9         10         11         12
     1  O   -0.000000  -0.000000   0.000000  -0.000000  -0.000000   0.001220
     2  C   -0.000004   0.000000   0.000000   0.000000  -0.000002  -0.005790
     3  N    0.000015   0.000001  -0.000000   0.000001   0.000009  -0.041025
     4  C   -0.004408  -0.000061   0.000023  -0.000047  -0.003828   0.370787
     5  C   -0.056312   0.006381   0.000434   0.006334  -0.055735  -0.044269
     6  C    0.546219  -0.019807  -0.035028  -0.019758   0.546143   0.002138
     7  C    4.957483   0.524870  -0.036529  -0.045866  -0.038841   0.004184
     8  C    0.524870   4.863222   0.552690  -0.026719  -0.045811  -0.000151
     9  C   -0.036529   0.552690   4.847213   0.552923  -0.036563  -0.000006
    10  C   -0.045866  -0.026719   0.552923   4.863428   0.524568  -0.000013
    11  C   -0.038841  -0.045811  -0.036563   0.524568   4.957495   0.000016
    12  H    0.004184  -0.000151  -0.000006  -0.000013   0.000016   0.583995
    13  H    0.000035  -0.000006  -0.000006  -0.000125   0.003805  -0.039705
    14  H    0.003829  -0.000203   0.000010   0.000139  -0.004854   0.005568
    15  H   -0.004800   0.000153   0.000010  -0.000200   0.003788  -0.004844
    16  H    0.356158  -0.044939   0.004861   0.000374   0.005729   0.000703
    17  H   -0.039592   0.356482  -0.043067   0.004649   0.000839   0.000003
    18  H    0.004797  -0.043309   0.358934  -0.043263   0.004785  -0.000000
    19  H    0.000839   0.004652  -0.043053   0.356483  -0.039574   0.000000
    20  H    0.005724   0.000375   0.004850  -0.044952   0.356149   0.000031
             13         14         15         16         17         18
     1  O    0.001183  -0.000002  -0.000002   0.000000  -0.000000   0.000000
     2  C   -0.005625   0.000121   0.000209  -0.000001  -0.000000   0.000000
     3  N   -0.040877   0.001596   0.001419  -0.000033  -0.000000   0.000000
     4  C    0.369979  -0.035728  -0.036180   0.000195  -0.000001   0.000000
     5  C   -0.042656   0.360201   0.361688  -0.008600  -0.000178   0.000006
     6  C    0.001732  -0.028842  -0.029727  -0.046457   0.003805   0.000688
     7  C    0.000035   0.003829  -0.004800   0.356158  -0.039592   0.004797
     8  C   -0.000006  -0.000203   0.000153  -0.044939   0.356482  -0.043309
     9  C   -0.000006   0.000010   0.000010   0.004861  -0.043067   0.358934
    10  C   -0.000125   0.000139  -0.000200   0.000374   0.004649  -0.043263
    11  C    0.003805  -0.004854   0.003788   0.005729   0.000839   0.004785
    12  H   -0.039705   0.005568  -0.004844   0.000703   0.000003  -0.000000
    13  H    0.584727  -0.005546   0.005545   0.000023   0.000000  -0.000000
    14  H   -0.005546   0.574568  -0.034634   0.000055   0.000003  -0.000000
    15  H    0.005545  -0.034634   0.572782   0.004987  -0.000007  -0.000000
    16  H    0.000023   0.000055   0.004987   0.606030  -0.005588  -0.000187
    17  H    0.000000   0.000003  -0.000007  -0.005588   0.597106  -0.005700
    18  H   -0.000000  -0.000000  -0.000000  -0.000187  -0.005700   0.598582
    19  H    0.000002  -0.000006   0.000003   0.000018  -0.000192  -0.005698
    20  H    0.000654   0.004938   0.000048  -0.000166   0.000018  -0.000186
             19         20
     1  O   -0.000000   0.000000
     2  C   -0.000000  -0.000001
     3  N   -0.000000  -0.000028
     4  C   -0.000001   0.000172
     5  C   -0.000177  -0.008549
     6  C    0.003790  -0.046428
     7  C    0.000839   0.005724
     8  C    0.004652   0.000375
     9  C   -0.043053   0.004850
    10  C    0.356483  -0.044952
    11  C   -0.039574   0.356149
    12  H    0.000000   0.000031
    13  H    0.000002   0.000654
    14  H   -0.000006   0.004938
    15  H    0.000003   0.000048
    16  H    0.000018  -0.000166
    17  H   -0.000192   0.000018
    18  H   -0.005698  -0.000186
    19  H    0.597148  -0.005579
    20  H   -0.005579   0.606328
 Mulliken atomic charges:
              1
     1  O   -0.402457
     2  C    0.620227
     3  N   -0.424526
     4  C   -0.150436
     5  C   -0.354005
     6  C    0.151271
     7  C   -0.177803
     8  C   -0.127820
     9  C   -0.127696
    10  C   -0.127956
    11  C   -0.178118
    12  H    0.167158
    13  H    0.166862
    14  H    0.158787
    15  H    0.159761
    16  H    0.126834
    17  H    0.131420
    18  H    0.130550
    19  H    0.131346
    20  H    0.126601
 Sum of Mulliken atomic charges =  -0.00000
 Mulliken charges with hydrogens summed into heavy atoms:
              1
     1  O   -0.402457
     2  C    0.620227
     3  N   -0.424526
     4  C    0.183585
     5  C   -0.035457
     6  C    0.151271
     7  C   -0.050969
     8  C    0.003600
     9  C    0.002854
    10  C    0.003390
    11  C   -0.051517
 Sum of Mulliken charges with hydrogens summed into heavy atoms =  -0.00000
 Electronic spatial extent (au):  <R**2>=           2556.5341
 Charge=             -0.0000 electrons
 Dipole moment (field-independent basis, Debye):
    X=              2.3390    Y=             -0.0412    Z=             -0.1166  Tot=              2.3422
 Quadrupole moment (field-independent basis, Debye-Ang):
   XX=            -73.2361   YY=            -58.2986   ZZ=            -66.5851
   XY=              0.2279   XZ=             -4.2691   YZ=              0.2003
 Traceless Quadrupole moment (field-independent basis, Debye-Ang):
   XX=             -7.1961   YY=              7.7413   ZZ=             -0.5452
   XY=              0.2279   XZ=             -4.2691   YZ=              0.2003
 Octapole moment (field-independent basis, Debye-Ang**2):
  XXX=             60.3943  YYY=              0.1522  ZZZ=             -1.9572  XYY=             -1.4892
  XXY=             -0.5339  XXZ=              2.9787  XZZ=             -4.4112  YZZ=              0.0177
  YYZ=             -1.4015  XYZ=             -0.1922
 Hexadecapole moment (field-independent basis, Debye-Ang**3):
 XXXX=          -3016.8471 YYYY=           -307.2901 ZZZZ=           -216.4119 XXXY=              4.5677
 XXXZ=           -143.5886 YYYX=             -0.1755 YYYZ=              0.4399 ZZZX=             16.5410
 ZZZY=             -0.0419 XXYY=           -487.5518 XXZZ=           -541.3590 YYZZ=            -91.6820
 XXYZ=              2.1148 YYXZ=              0.9219 ZZXY=             -0.2398
 N-N= 5.254195452359D+02 E-N=-2.161927227965D+03  KE= 4.740372807991D+02
 No NMR shielding tensors so no spin-rotation constants.
 Leave Link  601 at Mon Oct  4 03:15:28 2021, MaxMem=  805306368 cpu:       0.8
 (Enter /sw/target/amd/app/gaussian/Gaussian09RevA.02_gcc-4.9.2/g09/l701.exe)
 Compute integral first derivatives.
 ... and contract with generalized density number  0.
 Leave Link  701 at Mon Oct  4 03:15:32 2021, MaxMem=  805306368 cpu:       0.9
 (Enter /sw/target/amd/app/gaussian/Gaussian09RevA.02_gcc-4.9.2/g09/l702.exe)
 L702 exits ... SP integral derivatives will be done elsewhere.
 Leave Link  702 at Mon Oct  4 03:15:32 2021, MaxMem=  805306368 cpu:       0.1
 (Enter /sw/target/amd/app/gaussian/Gaussian09RevA.02_gcc-4.9.2/g09/l703.exe)
 Compute integral first derivatives, UseDBF=F ICtDFT=           0.
 Integral derivatives from FoFDir, PRISM(SPDF).
 Calling FoFJK, ICntrl=      2127 FMM=F ISym2X=0 I1Cent= 0 IOpClX= 0 NMat=1 NMatS=1 NMatT=0.
 FoFCou: FMM=F IPFlag=           0 FMFlag=      100000 FMFlg1=         800
         NFxFlg=           0 DoJE=F BraDBF=F KetDBF=F FulRan=T
         Omega=  0.000000  0.000000  1.000000  0.000000  0.000000 ICntrl=    2127 IOpCl=  0
         NMat0=    1 NMatS0=    1 NMatT0=    0 NMatD0=    1 NMtDS0=    0 NMtDT0=    0
         I1Cent=           0 NGrid=           0.
 Symmetry not used in FoFCou.
 Leave Link  703 at Mon Oct  4 03:17:01 2021, MaxMem=  805306368 cpu:      40.1
 (Enter /sw/target/amd/app/gaussian/Gaussian09RevA.02_gcc-4.9.2/g09/l716.exe)
 Dipole        = 9.20214582D-01-1.61991194D-02-4.58795068D-02
 ***** Axes restored to original set *****
 -------------------------------------------------------------------
 Center     Atomic                   Forces (Hartrees/Bohr)
 Number     Number              X              Y              Z
 -------------------------------------------------------------------
      1        8           0.001672317    0.001658745   -0.010799451
      2        6           0.049306140    0.004208551   -0.076771084
      3        7          -0.041487357   -0.004162332    0.066216518
      4        6          -0.012025823   -0.000964847    0.019073937
      5        6          -0.003739307   -0.000362285    0.006101529
      6        6          -0.000329306    0.000081331   -0.000496509
      7        6           0.002571342   -0.001951423    0.003311964
      8        6          -0.000157198    0.001886284   -0.001294314
      9        6           0.001076372   -0.000770004    0.002723422
     10        6          -0.000387424   -0.001250550   -0.001813090
     11        6           0.002639422    0.000080311    0.003916414
     12        1          -0.001152590   -0.000720333   -0.000253084
     13        1          -0.000411237    0.001221632    0.000012197
     14        1           0.002246367   -0.000616959   -0.003070165
     15        1           0.002811029    0.000721167   -0.003100922
     16        1          -0.000752381   -0.000497035   -0.001763709
     17        1          -0.000413641    0.000287278   -0.000228134
     18        1          -0.000507452    0.000022532    0.000140612
     19        1          -0.000165188   -0.000090821   -0.000532764
     20        1          -0.000794083    0.001218758   -0.001373367
 -------------------------------------------------------------------
 Cartesian Forces:  Max     0.076771084 RMS     0.015946487
 Leave Link  716 at Mon Oct  4 03:17:01 2021, MaxMem=  805306368 cpu:       0.0
 (Enter /sw/target/amd/app/gaussian/Gaussian09RevA.02_gcc-4.9.2/g09/l103.exe)

 GradGradGradGradGradGradGradGradGradGradGradGradGradGradGradGradGradGrad
 Berny optimization.
 Internal  Forces:  Max     0.100572483 RMS     0.011490608
 Search for a local minimum.
 Step number   1 out of a maximum of  105
 All quantities printed in internal units (Hartrees-Bohrs-Radians)
 RMS Force = .11491D-01 SwitMx=.10000D-02 MixMth= 1
 Mixed Optimization -- RFO/linear search
 Second derivative matrix not updated -- first step.
     Eigenvalues ---    0.00306   0.00627   0.00711   0.01485   0.02073
     Eigenvalues ---    0.02094   0.02099   0.02126   0.02149   0.02155
     Eigenvalues ---    0.02166   0.02177   0.04058   0.04666   0.04666
     Eigenvalues ---    0.05075   0.05346   0.05838   0.09348   0.10998
     Eigenvalues ---    0.12819   0.13619   0.16000   0.16000   0.16000
     Eigenvalues ---    0.16000   0.16000   0.21881   0.21990   0.21999
     Eigenvalues ---    0.21999   0.23470   0.24989   0.25000   0.28987
     Eigenvalues ---    0.31298   0.33840   0.33841   0.33927   0.33940
     Eigenvalues ---    0.35075   0.35079   0.35148   0.35153   0.35154
     Eigenvalues ---    0.35253   0.41743   0.41907   0.45483   0.46127
     Eigenvalues ---    0.46130   0.46645   1.18358   1.191371000.00000
     Eigenvalues --- 1000.000001000.000001000.000001000.000001000.00000
     Eigenvalues --- 1000.000001000.000001000.000001000.000001000.00000
     Eigenvalues --- 1000.000001000.000001000.000001000.000001000.00000
     Eigenvalues --- 1000.000001000.000001000.000001000.000001000.00000
     Eigenvalues --- 1000.000001000.000001000.000001000.000001000.00000
     Eigenvalues --- 1000.000001000.000001000.000001000.000001000.00000
     Eigenvalues --- 1000.000001000.000001000.000001000.000001000.00000
     Eigenvalues --- 1000.000001000.000001000.000001000.000001000.00000
 RFO step:  Lambda=-1.90020875D-02 EMin= 3.05946466D-03
 Linear search not attempted -- first point.
 Iteration  1 RMS(Cart)=  0.08991327 RMS(Int)=  0.00863898
 Iteration  2 RMS(Cart)=  0.01433562 RMS(Int)=  0.00027331
 Iteration  3 RMS(Cart)=  0.00038396 RMS(Int)=  0.00007575
 Iteration  4 RMS(Cart)=  0.00000033 RMS(Int)=  0.00007575
 Variable       Old X    -DE/DX   Delta X   Delta X   Delta X     New X
                                 (Linear)    (Quad)   (Total)
    R1        2.21827   0.00959   0.00000   0.00792   0.00792   2.22619
    R2        2.22075   0.10057   0.00000   0.08363   0.08363   2.30438
    R3        2.78566   0.01430   0.00000   0.03849   0.03849   2.82415
    R4        2.90030  -0.00088   0.00000  -0.00285  -0.00285   2.89745
    R5        2.07602  -0.00136   0.00000  -0.00381  -0.00381   2.07220
    R6        2.07599  -0.00128   0.00000  -0.00358  -0.00358   2.07241
    R7        2.85447   0.00365   0.00000   0.01101   0.01101   2.86547
    R8        2.07431  -0.00063   0.00000  -0.00176  -0.00176   2.07255
    R9        2.07453  -0.00078   0.00000  -0.00218  -0.00218   2.07235
   R10        2.64949  -0.00041   0.00000  -0.00117  -0.00117   2.64832
   R11        2.64896  -0.00040   0.00000  -0.00119  -0.00119   2.64778
   R12        2.63949  -0.00046   0.00000  -0.00092  -0.00092   2.63857
   R13        2.05554   0.00011   0.00000   0.00029   0.00029   2.05583
   R14        2.63273   0.00227   0.00000   0.00500   0.00500   2.63772
   R15        2.05427  -0.00007   0.00000  -0.00018  -0.00018   2.05409
   R16        2.63320   0.00195   0.00000   0.00431   0.00431   2.63752
   R17        2.05425  -0.00012   0.00000  -0.00032  -0.00032   2.05393
   R18        2.64021  -0.00069   0.00000  -0.00146  -0.00146   2.63875
   R19        2.05435  -0.00010   0.00000  -0.00026  -0.00026   2.05409
   R20        2.05547   0.00011   0.00000   0.00031   0.00031   2.05578
    A1        1.98309   0.04258   0.00000   0.15830   0.15830   2.14140
    A2        1.90177   0.00645   0.00000   0.02867   0.02866   1.93044
    A3        1.92518  -0.00193   0.00000  -0.00616  -0.00618   1.91900
    A4        1.92448  -0.00220   0.00000  -0.00819  -0.00823   1.91625
    A5        1.91646  -0.00171   0.00000  -0.00686  -0.00689   1.90957
    A6        1.91373  -0.00137   0.00000  -0.00489  -0.00491   1.90882
    A7        1.88220   0.00063   0.00000  -0.00313  -0.00320   1.87900
    A8        1.95639   0.00082   0.00000   0.00113   0.00122   1.95761
    A9        1.91888  -0.00273   0.00000  -0.02324  -0.02330   1.89558
   A10        1.92082  -0.00317   0.00000  -0.02583  -0.02588   1.89494
   A11        1.91306   0.00147   0.00000   0.01454   0.01444   1.92750
   A12        1.91003   0.00193   0.00000   0.01810   0.01801   1.92804
   A13        1.84113   0.00175   0.00000   0.01643   0.01583   1.85696
   A14        2.10227   0.00121   0.00000   0.00510   0.00511   2.10738
   A15        2.10650   0.00049   0.00000   0.00242   0.00243   2.10893
   A16        2.07406  -0.00170   0.00000  -0.00762  -0.00763   2.06643
   A17        2.10404   0.00166   0.00000   0.00626   0.00624   2.11028
   A18        2.10160  -0.00285   0.00000  -0.01442  -0.01443   2.08717
   A19        2.07755   0.00119   0.00000   0.00816   0.00816   2.08571
   A20        2.09621  -0.00020   0.00000  -0.00021  -0.00023   2.09599
   A21        2.09444  -0.00039   0.00000  -0.00263  -0.00263   2.09182
   A22        2.09253   0.00059   0.00000   0.00285   0.00285   2.09538
   A23        2.09179  -0.00136   0.00000  -0.00450  -0.00451   2.08728
   A24        2.09547   0.00073   0.00000   0.00249   0.00250   2.09797
   A25        2.09592   0.00064   0.00000   0.00201   0.00202   2.09793
   A26        2.09673  -0.00026   0.00000  -0.00060  -0.00062   2.09611
   A27        2.09164   0.00069   0.00000   0.00342   0.00342   2.09506
   A28        2.09481  -0.00043   0.00000  -0.00280  -0.00280   2.09201
   A29        2.10323   0.00188   0.00000   0.00703   0.00701   2.11024
   A30        2.10245  -0.00299   0.00000  -0.01494  -0.01494   2.08751
   A31        2.07750   0.00110   0.00000   0.00791   0.00791   2.08542
   A32        3.13869   0.01220   0.00000   0.18579   0.18579   3.32448
   A33        3.14171  -0.00006   0.00000  -0.00093  -0.00093   3.14078
    D1        3.13169  -0.00007   0.00000   0.00017   0.00018   3.13188
    D2        1.02670  -0.00085   0.00000  -0.00572  -0.00570   1.02101
    D3       -1.05030   0.00096   0.00000   0.00716   0.00712  -1.04318
    D4       -3.10447  -0.00027   0.00000  -0.00739  -0.00738  -3.11185
    D5        1.04623  -0.00078   0.00000  -0.01029  -0.01019   1.03603
    D6       -0.97449   0.00051   0.00000  -0.00174  -0.00182  -0.97631
    D7       -0.99413   0.00033   0.00000  -0.00125  -0.00126  -0.99539
    D8       -3.12662  -0.00017   0.00000  -0.00415  -0.00407  -3.13069
    D9        1.13585   0.00112   0.00000   0.00440   0.00430   1.14015
   D10        1.07092  -0.00074   0.00000  -0.01213  -0.01212   1.05879
   D11       -1.06157  -0.00124   0.00000  -0.01503  -0.01494  -1.07651
   D12       -3.08229   0.00005   0.00000  -0.00648  -0.00657  -3.08886
   D13        1.55431  -0.00017   0.00000  -0.00292  -0.00293   1.55138
   D14       -1.55860  -0.00002   0.00000   0.00116   0.00117  -1.55743
   D15       -2.59307  -0.00206   0.00000  -0.02151  -0.02167  -2.61474
   D16        0.57720  -0.00190   0.00000  -0.01743  -0.01757   0.55963
   D17       -0.58182   0.00195   0.00000   0.01644   0.01658  -0.56524
   D18        2.58845   0.00210   0.00000   0.02052   0.02068   2.60913
   D19       -3.09061  -0.00042   0.00000  -0.01029  -0.01027  -3.10088
   D20        0.05028  -0.00010   0.00000  -0.00214  -0.00218   0.04809
   D21        0.02283  -0.00054   0.00000  -0.01413  -0.01411   0.00871
   D22       -3.11947  -0.00022   0.00000  -0.00599  -0.00602  -3.12550
   D23        3.09889   0.00023   0.00000   0.00518   0.00516   3.10405
   D24       -0.04355   0.00003   0.00000  -0.00005  -0.00002  -0.04357
   D25       -0.01448   0.00034   0.00000   0.00899   0.00896  -0.00552
   D26        3.12627   0.00013   0.00000   0.00376   0.00378   3.13005
   D27       -0.00991   0.00024   0.00000   0.00626   0.00628  -0.00363
   D28        3.12954   0.00045   0.00000   0.01147   0.01149   3.14103
   D29        3.13239  -0.00008   0.00000  -0.00176  -0.00180   3.13059
   D30       -0.01136   0.00014   0.00000   0.00345   0.00341  -0.00794
   D31       -0.01171   0.00027   0.00000   0.00689   0.00690  -0.00481
   D32        3.13306   0.00025   0.00000   0.00629   0.00631   3.13936
   D33        3.13203   0.00006   0.00000   0.00169   0.00168   3.13371
   D34       -0.00639   0.00004   0.00000   0.00109   0.00109  -0.00530
   D35        0.02003  -0.00049   0.00000  -0.01207  -0.01205   0.00798
   D36       -3.12513  -0.00016   0.00000  -0.00414  -0.00411  -3.12924
   D37       -3.12474  -0.00047   0.00000  -0.01146  -0.01146  -3.13620
   D38        0.01329  -0.00015   0.00000  -0.00354  -0.00352   0.00977
   D39       -0.00683   0.00018   0.00000   0.00406   0.00406  -0.00278
   D40        3.13560   0.00038   0.00000   0.00922   0.00924  -3.13835
   D41        3.13833  -0.00015   0.00000  -0.00389  -0.00388   3.13445
   D42       -0.00242   0.00005   0.00000   0.00127   0.00130  -0.00112
         Item               Value     Threshold  Converged?
 Maximum Force            0.100572     0.000450     NO 
 RMS     Force            0.011491     0.000300     NO 
 Maximum Displacement     0.579654     0.001800     NO 
 RMS     Displacement     0.099675     0.001200     NO 
 Predicted change in Energy=-1.021968D-02
 GradGradGradGradGradGradGradGradGradGradGradGradGradGradGradGradGradGrad

 Leave Link  103 at Mon Oct  4 03:17:10 2021, MaxMem=  805306368 cpu:       2.9
 (Enter /sw/target/amd/app/gaussian/Gaussian09RevA.02_gcc-4.9.2/g09/l202.exe)
                          Input orientation:                          
 ---------------------------------------------------------------------
 Center     Atomic      Atomic             Coordinates (Angstroms)
 Number     Number       Type             X           Y           Z
 ---------------------------------------------------------------------
      1          8           0        7.310114    0.286717   -3.339754
      2          6           0        6.888036    0.175342   -2.245564
      3          7           0        6.255252    0.112426   -1.205069
      4          6           0        6.887739   -0.230178    0.104908
      5          6           0        5.843896   -0.217194    1.227909
      6          6           0        6.456265   -0.520149    2.581615
      7          6           0        6.966734    0.509517    3.383619
      8          6           0        7.574802    0.229824    4.609016
      9          6           0        7.677870   -1.089061    5.054260
     10          6           0        7.164665   -2.123335    4.270096
     11          6           0        6.560839   -1.838797    3.043609
     12          1           0        7.681515    0.489942    0.336846
     13          1           0        7.347053   -1.224334    0.046799
     14          1           0        5.063017   -0.949107    0.988370
     15          1           0        5.355138    0.764443    1.239131
     16          1           0        6.882330    1.541762    3.050657
     17          1           0        7.965329    1.041788    5.217063
     18          1           0        8.152694   -1.309067    6.006874
     19          1           0        7.230720   -3.151975    4.615142
     20          1           0        6.161468   -2.652354    2.441864
 ---------------------------------------------------------------------
                    Distance matrix (angstroms):
                    1          2          3          4          5
     1  O    0.000000
     2  C    1.178052   0.000000
     3  N    2.387465   1.219427   0.000000
     4  C    3.508743   2.385197   1.494476   0.000000
     5  C    4.823615   3.648195   2.489427   1.533267   0.000000
     6  C    6.036779   4.896100   3.844417   2.530678   1.516344
     7  C    6.735821   5.639642   4.660467   3.362043   2.536919
     8  C    7.953378   6.889112   5.963101   4.579371   3.824623
     9  C    8.513957   7.450501   6.530437   5.085083   4.331809
    10  C    7.983691   6.914785   5.983568   4.583614   3.825272
    11  C    6.769530   5.669141   4.685287   3.366077   2.537788
    12  H    3.700895   2.719820   2.134068   1.096562   2.161221
    13  H    3.708555   2.724833   2.132166   1.096673   2.160748
    14  H    5.030841   3.879873   2.712832   2.151040   1.096745
    15  H    5.001633   3.852261   2.685041   2.150488   1.096641
    16  H    6.526522   5.469652   4.532928   3.437621   2.737642
    17  H    8.615019   7.589604   6.710579   5.377103   4.690295
    18  H    9.519239   8.479714   7.591643   6.131665   5.418601
    19  H    8.666676   7.632677   6.744087   5.384862   4.691436
    20  H    6.586701   5.522295   4.577436   3.443220   2.739442
                    6          7          8          9         10
     6  C    0.000000
     7  C    1.401428   0.000000
     8  C    2.433914   1.396271   0.000000
     9  C    2.816016   2.419133   1.395823   0.000000
    10  C    2.433722   2.785126   2.412558   1.395714   0.000000
    11  C    1.401144   2.407268   2.785285   2.419211   1.396367
    12  H    2.749638   3.129555   4.281411   4.974661   4.750453
    13  H    2.777530   3.779583   4.793773   5.020199   4.321771
    14  H    2.159532   3.389534   4.561580   4.836166   4.070069
    15  H    2.159844   2.694636   4.070486   4.835884   4.560746
    16  H    2.157084   1.087896   2.151553   3.401255   3.872942
    17  H    3.415041   2.154535   1.086977   2.156306   3.399385
    18  H    3.902904   3.405174   2.157812   1.086892   2.157691
    19  H    3.414896   3.872062   3.399263   2.156011   1.086977
    20  H    2.157020   3.395996   3.873114   3.401173   2.151441
                   11         12         13         14         15
    11  C    0.000000
    12  H    3.742392   0.000000
    13  H    3.158570   1.770518   0.000000
    14  H    2.694258   3.058084   2.485785   0.000000
    15  H    3.389206   2.510279   3.056896   1.756266   0.000000
    16  H    3.395819   3.018243   4.109795   3.710439   2.493626
    17  H    3.872244   4.919512   5.678839   5.501720   4.765917
    18  H    3.405225   5.967215   6.014876   5.904325   5.903994
    19  H    2.154738   5.636540   4.959747   4.764981   5.500327
    20  H    1.087874   4.076232   3.030047   2.494051   3.710962
                   16         17         18         19         20
    16  H    0.000000
    17  H    2.473090   0.000000
    18  H    4.298868   2.487052   0.000000
    19  H    4.959854   4.299954   2.486616   0.000000
    20  H    4.298940   4.960074   4.298686   2.473067   0.000000
 Stoichiometry    C9H9NO
 Framework group  C1[X(C9H9NO)]
 Deg. of freedom    54
 Full point group                 C1      NOp   1
 Largest Abelian subgroup         C1      NOp   1
 Largest concise Abelian subgroup C1      NOp   1
                         Standard orientation:                         
 ---------------------------------------------------------------------
 Center     Atomic      Atomic             Coordinates (Angstroms)
 Number     Number       Type             X           Y           Z
 ---------------------------------------------------------------------
      1          8           0       -4.905362    0.034764   -0.739852
      2          6           0       -3.835283    0.012125   -0.247688
      3          7           0       -2.838769   -0.011064    0.454753
      4          6           0       -1.454503   -0.027951   -0.108256
      5          6           0       -0.414072   -0.042129    1.017893
      6          6           0        1.005519   -0.017723    0.485479
      7          6           0        1.656854    1.198119    0.237501
      8          6           0        2.946035    1.224996   -0.298093
      9          6           0        3.607290    0.031098   -0.590790
     10          6           0        2.974111   -1.187046   -0.339342
     11          6           0        1.683316   -1.208589    0.192847
     12          1           0       -1.296457    0.854783   -0.739327
     13          1           0       -1.320638   -0.915570   -0.738259
     14          1           0       -0.576884   -0.935035    1.633571
     15          1           0       -0.593823    0.820764    1.670371
     16          1           0        1.154363    2.134175    0.471636
     17          1           0        3.434920    2.177851   -0.484045
     18          1           0        4.610040    0.049889   -1.009684
     19          1           0        3.486799   -2.121225   -0.553773
     20          1           0        1.200364   -2.163700    0.387754
 ---------------------------------------------------------------------
 Rotational constants (GHZ):      3.7281100      0.4065412      0.3915927
 Leave Link  202 at Mon Oct  4 03:17:10 2021, MaxMem=  805306368 cpu:       0.0
 (Enter /sw/target/amd/app/gaussian/Gaussian09RevA.02_gcc-4.9.2/g09/l301.exe)
 Standard basis: 6-31G(d) (6D, 7F)
 Ernie: Thresh=  0.10000D-02 Tol=  0.10000D-05 Strict=F.
 There are   183 symmetry adapted basis functions of A   symmetry.
 Integral buffers will be    131072 words long.
 Raffenetti 2 integral format.
 Two-electron integral symmetry is turned on.
   183 basis functions,   344 primitive gaussians,   183 cartesian basis functions
    39 alpha electrons       39 beta electrons
       nuclear repulsion energy       519.7885943025 Hartrees.
 IExCor=  402 DFT=T Ex+Corr=B3LYP ExCW=0 ScaHFX=  0.200000
 ScaDFX=  0.800000  0.720000  1.000000  0.810000 ScalE2=  1.000000  1.000000
 IRadAn=      0 IRanWt=     -1 IRanGd=            0 ICorTp=0
 NAtoms=   20 NActive=   20 NUniq=   20 SFac= 7.50D-01 NAtFMM=   80 NAOKFM=F Big=F
 Leave Link  301 at Mon Oct  4 03:17:12 2021, MaxMem=  805306368 cpu:       0.1
 (Enter /sw/target/amd/app/gaussian/Gaussian09RevA.02_gcc-4.9.2/g09/l302.exe)
 NPDir=0 NMtPBC=     1 NCelOv=     1 NCel=       1 NClECP=     1 NCelD=      1
         NCelK=      1 NCelE2=     1 NClLst=     1 CellRange=     0.0.
 One-electron integrals computed using PRISM.
 NBasis=   183 RedAO= T  NBF=   183
 NBsUse=   183 1.00D-06 NBFU=   183
 Precomputing XC quadrature grid using
 IXCGrd= 2 IRadAn=           0 IRanWt=          -1 IRanGd=           0 AccXCQ= 1.00D-10.
 NRdTot=    1259 NPtTot=      160120 NUsed=      169206 NTot=      169238
 NSgBfM=   182   182   182   182   182 NAtAll=    20    20.
 Leave Link  302 at Mon Oct  4 03:17:16 2021, MaxMem=  805306368 cpu:       1.2
 (Enter /sw/target/amd/app/gaussian/Gaussian09RevA.02_gcc-4.9.2/g09/l303.exe)
 DipDrv:  MaxL=1.
 Leave Link  303 at Mon Oct  4 03:17:16 2021, MaxMem=  805306368 cpu:       0.1
 (Enter /sw/target/amd/app/gaussian/Gaussian09RevA.02_gcc-4.9.2/g09/l401.exe)
 Initial guess read from the read-write file.
 B after Tr=     0.000000    0.000000    0.000000
         Rot=    1.000000    0.000000    0.000000    0.000000 Ang=   0.00 deg.
 Guess basis will be translated and rotated to current coordinates.
 Initial guess orbital symmetries:
       Occupied  (A) (A) (A) (A) (A) (A) (A) (A) (A) (A) (A) (A)
                 (A) (A) (A) (A) (A) (A) (A) (A) (A) (A) (A) (A)
                 (A) (A) (A) (A) (A) (A) (A) (A) (A) (A) (A) (A)
                 (A) (A) (A)
       Virtual   (A) (A) (A) (A) (A) (A) (A) (A) (A) (A) (A) (A)
                 (A) (A) (A) (A) (A) (A) (A) (A) (A) (A) (A) (A)
                 (A) (A) (A) (A) (A) (A) (A) (A) (A) (A) (A) (A)
                 (A) (A) (A) (A) (A) (A) (A) (A) (A) (A) (A) (A)
                 (A) (A) (A) (A) (A) (A) (A) (A) (A) (A) (A) (A)
                 (A) (A) (A) (A) (A) (A) (A) (A) (A) (A) (A) (A)
                 (A) (A) (A) (A) (A) (A) (A) (A) (A) (A) (A) (A)
                 (A) (A) (A) (A) (A) (A) (A) (A) (A) (A) (A) (A)
                 (A) (A) (A) (A) (A) (A) (A) (A) (A) (A) (A) (A)
                 (A) (A) (A) (A) (A) (A) (A) (A) (A) (A) (A) (A)
                 (A) (A) (A) (A) (A) (A) (A) (A) (A) (A) (A) (A)
                 (A) (A) (A) (A) (A) (A) (A) (A) (A) (A) (A) (A)
 The electronic state of the initial guess is 1-A.
 Generating alternative initial guess.
 Harris functional with IExCor=  402 diagonalized for initial guess.
 ExpMin= 1.61D-01 ExpMax= 5.48D+03 ExpMxC= 8.25D+02 IAcc=1 IRadAn=         1 AccDes= 0.00D+00
 HarFok:  IExCor=  402 AccDes= 0.00D+00 IRadAn=         1 IDoV= 1
 ScaDFX=  1.000000  1.000000  1.000000  1.000000
 FoFCou: FMM=F IPFlag=           0 FMFlag=      100000 FMFlg1=           0
         NFxFlg=           0 DoJE=T BraDBF=F KetDBF=T FulRan=T
         Omega=  0.000000  0.000000  1.000000  0.000000  0.000000 ICntrl=     500 IOpCl=  0
         NMat0=    1 NMatS0=    1 NMatT0=    0 NMatD0=    1 NMtDS0=    0 NMtDT0=    0
         I1Cent=           4 NGrid=           0.
 Petite list used in FoFCou.
 Harris En= -478.418366114499    
 Leave Link  401 at Mon Oct  4 03:17:29 2021, MaxMem=  805306368 cpu:       5.7
 (Enter /sw/target/amd/app/gaussian/Gaussian09RevA.02_gcc-4.9.2/g09/l502.exe)
 Closed shell SCF:
 Requested convergence on RMS density matrix=1.00D-08 within  64 cycles.
 Requested convergence on MAX density matrix=1.00D-06.
 Requested convergence on             energy=1.00D-06.
 No special actions if energy rises.
 Using DIIS extrapolation, IDIIS=  1040.
 Integral symmetry usage will be decided dynamically.
       169013 words used for storage of precomputed grid.
 Keep R1 ints in memory in canonical form, NReq=145126039.
 IEnd=      277499 IEndB=      277499 NGot=   805306368 MDV=   663332872
 LenX=   663332872 LenY=   663298942
 Symmetry not used in FoFDir.
 MinBra= 0 MaxBra= 2 Meth= 1.
 IRaf=       0 NMat=   1 IRICut=       1 DoRegI=T DoRafI=F ISym2E= 0 JSym2E=0.
 Integral accuracy reduced to 1.0D-05 until final iterations.

 Cycle   1  Pass 0  IDiag  1:
 E= -478.287263445655    
 DIIS: error= 2.27D-02 at cycle   1 NSaved=   1.
 NSaved= 1 IEnMin= 1 EnMin= -478.287263445655     IErMin= 1 ErrMin= 2.27D-02
 ErrMax= 2.27D-02 EMaxC= 1.00D-01 BMatC= 4.03D-02 BMatP= 4.03D-02
 IDIUse=3 WtCom= 7.73D-01 WtEn= 2.27D-01
 Coeff-Com:  0.100D+01
 Coeff-En:   0.100D+01
 Coeff:      0.100D+01
 Recover alternate guess density for next cycle.
 RMSDP=3.55D-03 MaxDP=8.48D-02              OVMax= 0.00D+00

 Cycle   2  Pass 0  IDiag  1:
 E= -478.084719524650     Delta-E=        0.202543921005 Rises=F Damp=F
 Switch densities from cycles 1 and 2 for lowest energy.
 DIIS: error= 4.29D-02 at cycle   2 NSaved=   2.
 NSaved= 2 IEnMin= 1 EnMin= -478.287263445655     IErMin= 1 ErrMin= 2.27D-02
 ErrMax= 4.29D-02 EMaxC= 1.00D+00 BMatC= 2.63D-01 BMatP= 4.03D-02
 IDIUse=1 WtCom= 1.00D+00 WtEn= 0.00D+00
 Coeff-Com:  0.885D+00 0.115D+00
 Coeff:      0.885D+00 0.115D+00
 Gap=     0.245 Goal=   None    Shift=    0.000
 RMSDP=1.90D-03 MaxDP=7.92D-02 DE= 2.03D-01 OVMax= 8.72D-02

 Cycle   3  Pass 0  IDiag  1:
 E= -478.343483268434     Delta-E=       -0.258763743784 Rises=F Damp=F
 DIIS: error= 7.17D-03 at cycle   3 NSaved=   3.
 NSaved= 3 IEnMin= 3 EnMin= -478.343483268434     IErMin= 3 ErrMin= 7.17D-03
 ErrMax= 7.17D-03 EMaxC= 1.00D+00 BMatC= 1.03D-02 BMatP= 4.03D-02
 IDIUse=1 WtCom= 1.00D+00 WtEn= 0.00D+00
 Coeff-Com:  0.307D-01 0.142D+00 0.828D+00
 Coeff:      0.307D-01 0.142D+00 0.828D+00
 Gap=     0.237 Goal=   None    Shift=    0.000
 RMSDP=5.77D-04 MaxDP=2.45D-02 DE=-2.59D-01 OVMax= 2.75D-02

 Cycle   4  Pass 0  IDiag  1:
 E= -478.348940568313     Delta-E=       -0.005457299879 Rises=F Damp=F
 DIIS: error= 4.63D-03 at cycle   4 NSaved=   4.
 NSaved= 4 IEnMin= 4 EnMin= -478.348940568313     IErMin= 4 ErrMin= 4.63D-03
 ErrMax= 4.63D-03 EMaxC= 1.00D+00 BMatC= 4.00D-03 BMatP= 1.03D-02
 IDIUse=1 WtCom= 1.00D+00 WtEn= 0.00D+00
 Coeff-Com: -0.282D-01 0.656D-01 0.492D+00 0.470D+00
 Coeff:     -0.282D-01 0.656D-01 0.492D+00 0.470D+00
 Gap=     0.238 Goal=   None    Shift=    0.000
 RMSDP=2.85D-04 MaxDP=1.12D-02 DE=-5.46D-03 OVMax= 1.20D-02

 Cycle   5  Pass 0  IDiag  1:
 E= -478.352129270727     Delta-E=       -0.003188702413 Rises=F Damp=F
 DIIS: error= 5.96D-04 at cycle   5 NSaved=   5.
 NSaved= 5 IEnMin= 5 EnMin= -478.352129270727     IErMin= 5 ErrMin= 5.96D-04
 ErrMax= 5.96D-04 EMaxC= 1.00D+00 BMatC= 8.07D-05 BMatP= 4.00D-03
 IDIUse=1 WtCom= 1.00D+00 WtEn= 0.00D+00
 Coeff-Com: -0.850D-02 0.920D-02 0.101D+00 0.169D+00 0.729D+00
 Coeff:     -0.850D-02 0.920D-02 0.101D+00 0.169D+00 0.729D+00
 Gap=     0.237 Goal=   None    Shift=    0.000
 RMSDP=7.31D-05 MaxDP=2.26D-03 DE=-3.19D-03 OVMax= 3.65D-03

 Cycle   6  Pass 0  IDiag  1:
 E= -478.352174529650     Delta-E=       -0.000045258923 Rises=F Damp=F
 DIIS: error= 5.61D-04 at cycle   6 NSaved=   6.
 NSaved= 6 IEnMin= 6 EnMin= -478.352174529650     IErMin= 6 ErrMin= 5.61D-04
 ErrMax= 5.61D-04 EMaxC= 1.00D+00 BMatC= 3.77D-05 BMatP= 8.07D-05
 IDIUse=1 WtCom= 1.00D+00 WtEn= 0.00D+00
 Coeff-Com: -0.420D-02 0.328D-02 0.452D-01 0.934D-01 0.497D+00 0.365D+00
 Coeff:     -0.420D-02 0.328D-02 0.452D-01 0.934D-01 0.497D+00 0.365D+00
 Gap=     0.237 Goal=   None    Shift=    0.000
 RMSDP=3.22D-05 MaxDP=1.23D-03 DE=-4.53D-05 OVMax= 2.40D-03

 Cycle   7  Pass 0  IDiag  1:
 E= -478.352204089569     Delta-E=       -0.000029559919 Rises=F Damp=F
 DIIS: error= 1.69D-04 at cycle   7 NSaved=   7.
 NSaved= 7 IEnMin= 7 EnMin= -478.352204089569     IErMin= 7 ErrMin= 1.69D-04
 ErrMax= 1.69D-04 EMaxC= 1.00D+00 BMatC= 3.44D-06 BMatP= 3.77D-05
 IDIUse=1 WtCom= 1.00D+00 WtEn= 0.00D+00
 Coeff-Com: -0.931D-03 0.806D-04 0.638D-02 0.222D-01 0.160D+00 0.244D+00
 Coeff-Com:  0.568D+00
 Coeff:     -0.931D-03 0.806D-04 0.638D-02 0.222D-01 0.160D+00 0.244D+00
 Coeff:      0.568D+00
 Gap=     0.237 Goal=   None    Shift=    0.000
 RMSDP=8.97D-06 MaxDP=3.43D-04 DE=-2.96D-05 OVMax= 6.11D-04

 Initial convergence to 1.0D-05 achieved.  Increase integral accuracy.
 Cycle   8  Pass 1  IDiag  1:
 E= -478.352184685905     Delta-E=        0.000019403664 Rises=F Damp=F
 DIIS: error= 6.00D-05 at cycle   1 NSaved=   1.
 NSaved= 1 IEnMin= 1 EnMin= -478.352184685905     IErMin= 1 ErrMin= 6.00D-05
 ErrMax= 6.00D-05 EMaxC= 1.00D+00 BMatC= 1.96D-07 BMatP= 1.96D-07
 IDIUse=1 WtCom= 1.00D+00 WtEn= 0.00D+00
 Coeff-Com:  0.100D+01
 Coeff:      0.100D+01
 Gap=     0.237 Goal=   None    Shift=    0.000
 RMSDP=8.97D-06 MaxDP=3.43D-04 DE= 1.94D-05 OVMax= 2.42D-04

 Cycle   9  Pass 1  IDiag  1:
 E= -478.352184665086     Delta-E=        0.000000020819 Rises=F Damp=F
 DIIS: error= 4.60D-05 at cycle   2 NSaved=   2.
 NSaved= 2 IEnMin= 1 EnMin= -478.352184685905     IErMin= 2 ErrMin= 4.60D-05
 ErrMax= 4.60D-05 EMaxC= 1.00D+00 BMatC= 2.47D-07 BMatP= 1.96D-07
 IDIUse=1 WtCom= 1.00D+00 WtEn= 0.00D+00
 Coeff-Com:  0.534D+00 0.466D+00
 Coeff:      0.534D+00 0.466D+00
 Gap=     0.237 Goal=   None    Shift=    0.000
 RMSDP=3.58D-06 MaxDP=1.10D-04 DE= 2.08D-08 OVMax= 2.24D-04

 Cycle  10  Pass 1  IDiag  1:
 E= -478.352184887018     Delta-E=       -0.000000221932 Rises=F Damp=F
[...]
     3  N   -0.040416   0.003102   0.003092  -0.000026  -0.000000   0.000000
     4  C    0.373123  -0.042915  -0.042958   0.000064  -0.000001   0.000000
     5  C   -0.043385   0.351640   0.351561  -0.009379  -0.000170   0.000006
     6  C    0.001122  -0.027792  -0.027798  -0.045908   0.003883   0.000640
     7  C   -0.000575   0.003884  -0.003486   0.357313  -0.038998   0.004715
     8  C    0.000021  -0.000169   0.000071  -0.044198   0.359410  -0.042050
     9  C    0.000005   0.000001   0.000001   0.004911  -0.042126   0.361119
    10  C   -0.000233   0.000072  -0.000169   0.000296   0.004614  -0.042051
    11  C    0.005053  -0.003500   0.003875   0.006110   0.000761   0.004715
    12  H   -0.040165   0.006005  -0.005931   0.000724   0.000002  -0.000000
    13  H    0.578558  -0.005926   0.006010   0.000028   0.000000  -0.000000
    14  H   -0.005926   0.582180  -0.032283   0.000090   0.000003  -0.000000
    15  H    0.006010  -0.032283   0.582358   0.005280  -0.000006  -0.000000
    16  H    0.000028   0.000090   0.005280   0.600367  -0.005762  -0.000174
    17  H    0.000000   0.000003  -0.000006  -0.005762   0.588495  -0.005637
    18  H   -0.000000  -0.000000  -0.000000  -0.000174  -0.005637   0.587774
    19  H    0.000002  -0.000006   0.000003   0.000017  -0.000182  -0.005638
    20  H    0.000714   0.005298   0.000090  -0.000171   0.000017  -0.000174
             19         20
     1  O   -0.000000   0.000000
     2  C    0.000000   0.000000
     3  N   -0.000000  -0.000025
     4  C   -0.000001   0.000066
     5  C   -0.000170  -0.009391
     6  C    0.003883  -0.045874
     7  C    0.000761   0.006111
     8  C    0.004614   0.000296
     9  C   -0.042129   0.004911
    10  C    0.359406  -0.044206
    11  C   -0.038993   0.357309
    12  H    0.000000   0.000028
    13  H    0.000002   0.000714
    14  H   -0.000006   0.005298
    15  H    0.000003   0.000090
    16  H    0.000017  -0.000171
    17  H   -0.000182   0.000017
    18  H   -0.005638  -0.000174
    19  H    0.588499  -0.005762
    20  H   -0.005762   0.600319
 Mulliken atomic charges:
              1
     1  O   -0.412188
     2  C    0.599818
     3  N   -0.424953
     4  C   -0.127668
     5  C   -0.354304
     6  C    0.156290
     7  C   -0.181655
     8  C   -0.134622
     9  C   -0.130252
    10  C   -0.134608
    11  C   -0.181679
    12  H    0.168355
    13  H    0.168438
    14  H    0.160025
    15  H    0.159999
    16  H    0.130417
    17  H    0.135696
    18  H    0.136754
    19  H    0.135695
    20  H    0.130443
 Sum of Mulliken atomic charges =  -0.00000
 Mulliken charges with hydrogens summed into heavy atoms:
              1
     1  O   -0.412188
     2  C    0.599818
     3  N   -0.424953
     4  C    0.209125
     5  C   -0.034279
     6  C    0.156290
     7  C   -0.051239
     8  C    0.001074
     9  C    0.006502
    10  C    0.001087
    11  C   -0.051236
 Sum of Mulliken charges with hydrogens summed into heavy atoms =  -0.00000
 Electronic spatial extent (au):  <R**2>=           2722.1498
 Charge=              0.0000 electrons
 Dipole moment (field-independent basis, Debye):
    X=              2.9981    Y=              0.0015    Z=             -0.3788  Tot=              3.0220
 Quadrupole moment (field-independent basis, Debye-Ang):
   XX=            -78.8140   YY=            -58.8993   ZZ=            -65.1021
   XY=              0.0111   XZ=             -2.4280   YZ=              0.0154
 Traceless Quadrupole moment (field-independent basis, Debye-Ang):
   XX=            -11.2089   YY=              8.7059   ZZ=              2.5031
   XY=              0.0111   XZ=             -2.4280   YZ=              0.0154
 Octapole moment (field-independent basis, Debye-Ang**2):
  XXX=            103.4125  YYY=              0.0233  ZZZ=             -1.4541  XYY=             -3.0492
  XXY=             -0.0896  XXZ=             -1.8609  XZZ=            -14.3442  YZZ=              0.0009
  YYZ=             -0.8191  XYZ=             -0.0147
 Hexadecapole moment (field-independent basis, Debye-Ang**3):
 XXXX=          -3545.5546 YYYY=           -308.8133 ZZZZ=           -162.5703 XXXY=              0.7942
 XXXZ=           -109.2804 YYYX=             -0.0726 YYYZ=              0.0285 ZZZX=             13.2804
 ZZZY=              0.0037 XXYY=           -531.2305 XXZZ=           -550.9633 YYZZ=            -84.0948
 XXYZ=              0.1690 YYXZ=             -0.6366 ZZXY=             -0.0513
 N-N= 5.195103915744D+02 E-N=-2.149893770794D+03  KE= 4.740142817255D+02
 No NMR shielding tensors so no spin-rotation constants.
 Leave Link  601 at Mon Oct  4 08:31:40 2021, MaxMem=  805306368 cpu:       0.7
 (Enter /sw/target/amd/app/gaussian/Gaussian09RevA.02_gcc-4.9.2/g09/l604.exe)
 Evaluate density.
 Using the total density.
 Monte-Carlo method of calculating molar volume:
 based on  0.001 e/bohr**3 density envelope.
 Number of points per bohr**3 =   20 CutOff= 1.00D-04
 Using the CI density.
 There are       395 points.  Will hold       395 in memory.
 LenV=   805198831 MDV=   805306368.
 Box volume = 7737.556 fraction occupied=0.167
 Integrated density= 3.8468936179521364D+01 error=-3.9531063820478636D+01
 Molar volume = 1292.857 bohr**3/mol (115.373 cm**3/mol)
 Recommended a0 for SCRF calculation =  4.44 angstrom (  8.38 bohr)
 Leave Link  604 at Mon Oct  4 08:31:41 2021, MaxMem=  805306368 cpu:       0.3
 (Enter /sw/target/amd/app/gaussian/Gaussian09RevA.02_gcc-4.9.2/g09/l607.exe)
 ******************************Gaussian NBO Version 3.1******************************
             N A T U R A L   A T O M I C   O R B I T A L   A N D
          N A T U R A L   B O N D   O R B I T A L   A N A L Y S I S
 ******************************Gaussian NBO Version 3.1******************************
       /RESON  / : Allow strongly delocalized NBO set

 Analyzing the CI density

 Job title: O=C=NCCc1ccccc1_conf_0                                          

 Storage needed:    101870 in NPA ( 805304168 available)


 NATURAL POPULATIONS:  Natural atomic orbital occupancies 
                                                          
   NAO  Atom  No  lang   Type(AO)    Occupancy
 --------------------------------------------
     1    O    1  S      Cor( 1S)     1.99981
     2    O    1  S      Val( 2S)     1.71379
     3    O    1  S      Ryd( 3S)     0.00232
     4    O    1  S      Ryd( 4S)     0.00000
     5    O    1  px     Val( 2p)     1.54928
     6    O    1  px     Ryd( 3p)     0.00093
     7    O    1  py     Val( 2p)     1.64972
     8    O    1  py     Ryd( 3p)     0.00157
     9    O    1  pz     Val( 2p)     1.58326
    10    O    1  pz     Ryd( 3p)     0.00126
    11    O    1  dxy    Ryd( 3d)     0.00542
    12    O    1  dxz    Ryd( 3d)     0.00553
    13    O    1  dyz    Ryd( 3d)     0.00034
    14    O    1  dx2y2  Ryd( 3d)     0.00429
    15    O    1  dz2    Ryd( 3d)     0.00189

    16    C    2  S      Cor( 1S)     1.99926
    17    C    2  S      Val( 2S)     0.69762
    18    C    2  S      Ryd( 3S)     0.00092
    19    C    2  S      Ryd( 4S)     0.00038
    20    C    2  px     Val( 2p)     0.81348
    21    C    2  px     Ryd( 3p)     0.01315
    22    C    2  py     Val( 2p)     0.82916
    23    C    2  py     Ryd( 3p)     0.00054
    24    C    2  pz     Val( 2p)     0.77920
    25    C    2  pz     Ryd( 3p)     0.00396
    26    C    2  dxy    Ryd( 3d)     0.00374
    27    C    2  dxz    Ryd( 3d)     0.00248
    28    C    2  dyz    Ryd( 3d)     0.00041
    29    C    2  dx2y2  Ryd( 3d)     0.00072
    30    C    2  dz2    Ryd( 3d)     0.00088

    31    N    3  S      Cor( 1S)     1.99912
    32    N    3  S      Val( 2S)     1.27648
    33    N    3  S      Ryd( 3S)     0.00252
    34    N    3  S      Ryd( 4S)     0.00005
    35    N    3  px     Val( 2p)     1.26867
    36    N    3  px     Ryd( 3p)     0.00219
    37    N    3  py     Val( 2p)     1.49677
    38    N    3  py     Ryd( 3p)     0.00339
    39    N    3  pz     Val( 2p)     1.51207
    40    N    3  pz     Ryd( 3p)     0.00324
    41    N    3  dxy    Ryd( 3d)     0.00095
    42    N    3  dxz    Ryd( 3d)     0.00126
    43    N    3  dyz    Ryd( 3d)     0.00100
    44    N    3  dx2y2  Ryd( 3d)     0.00065
    45    N    3  dz2    Ryd( 3d)     0.00144

    46    C    4  S      Cor( 1S)     1.99922
    47    C    4  S      Val( 2S)     1.03369
    48    C    4  S      Ryd( 3S)     0.00247
    49    C    4  S      Ryd( 4S)     0.00003
    50    C    4  px     Val( 2p)     0.83936
    51    C    4  px     Ryd( 3p)     0.00207
    52    C    4  py     Val( 2p)     1.25352
    53    C    4  py     Ryd( 3p)     0.00238
    54    C    4  pz     Val( 2p)     1.11275
    55    C    4  pz     Ryd( 3p)     0.00174
    56    C    4  dxy    Ryd( 3d)     0.00084
    57    C    4  dxz    Ryd( 3d)     0.00113
    58    C    4  dyz    Ryd( 3d)     0.00145
    59    C    4  dx2y2  Ryd( 3d)     0.00144
    60    C    4  dz2    Ryd( 3d)     0.00057

    61    C    5  S      Cor( 1S)     1.99927
    62    C    5  S      Val( 2S)     1.03747
    63    C    5  S      Ryd( 3S)     0.00077
    64    C    5  S      Ryd( 4S)     0.00002
    65    C    5  px     Val( 2p)     1.03877
    66    C    5  px     Ryd( 3p)     0.00292
    67    C    5  py     Val( 2p)     1.26415
    68    C    5  py     Ryd( 3p)     0.00626
    69    C    5  pz     Val( 2p)     1.12667
    70    C    5  pz     Ryd( 3p)     0.00132
    71    C    5  dxy    Ryd( 3d)     0.00033
    72    C    5  dxz    Ryd( 3d)     0.00086
    73    C    5  dyz    Ryd( 3d)     0.00118
    74    C    5  dx2y2  Ryd( 3d)     0.00091
    75    C    5  dz2    Ryd( 3d)     0.00030

    76    C    6  S      Cor( 1S)     1.99906
    77    C    6  S      Val( 2S)     0.89057
    78    C    6  S      Ryd( 3S)     0.00098
    79    C    6  S      Ryd( 4S)     0.00005
    80    C    6  px     Val( 2p)     1.04656
    81    C    6  px     Ryd( 3p)     0.00528
    82    C    6  py     Val( 2p)     1.08281
    83    C    6  py     Ryd( 3p)     0.00473
    84    C    6  pz     Val( 2p)     0.98832
    85    C    6  pz     Ryd( 3p)     0.00455
    86    C    6  dxy    Ryd( 3d)     0.00085
    87    C    6  dxz    Ryd( 3d)     0.00050
    88    C    6  dyz    Ryd( 3d)     0.00084
    89    C    6  dx2y2  Ryd( 3d)     0.00070
    90    C    6  dz2    Ryd( 3d)     0.00040

    91    C    7  S      Cor( 1S)     1.99907
    92    C    7  S      Val( 2S)     0.96206
    93    C    7  S      Ryd( 3S)     0.00062
    94    C    7  S      Ryd( 4S)     0.00005
    95    C    7  px     Val( 2p)     1.08149
    96    C    7  px     Ryd( 3p)     0.00431
    97    C    7  py     Val( 2p)     1.15213
    98    C    7  py     Ryd( 3p)     0.00471
    99    C    7  pz     Val( 2p)     1.01451
   100    C    7  pz     Ryd( 3p)     0.00480
   101    C    7  dxy    Ryd( 3d)     0.00078
   102    C    7  dxz    Ryd( 3d)     0.00056
   103    C    7  dyz    Ryd( 3d)     0.00047
   104    C    7  dx2y2  Ryd( 3d)     0.00072
   105    C    7  dz2    Ryd( 3d)     0.00051

   106    C    8  S      Cor( 1S)     1.99915
   107    C    8  S      Val( 2S)     0.97059
   108    C    8  S      Ryd( 3S)     0.00062
   109    C    8  S      Ryd( 4S)     0.00003
   110    C    8  px     Val( 2p)     1.07460
   111    C    8  px     Ryd( 3p)     0.00504
   112    C    8  py     Val( 2p)     1.15791
   113    C    8  py     Ryd( 3p)     0.00501
   114    C    8  pz     Val( 2p)     1.00749
   115    C    8  pz     Ryd( 3p)     0.00483
   116    C    8  dxy    Ryd( 3d)     0.00077
   117    C    8  dxz    Ryd( 3d)     0.00055
   118    C    8  dyz    Ryd( 3d)     0.00048
   119    C    8  dx2y2  Ryd( 3d)     0.00073
   120    C    8  dz2    Ryd( 3d)     0.00051

   121    C    9  S      Cor( 1S)     1.99914
   122    C    9  S      Val( 2S)     0.97406
   123    C    9  S      Ryd( 3S)     0.00057
   124    C    9  S      Ryd( 4S)     0.00003
   125    C    9  px     Val( 2p)     1.16632
   126    C    9  px     Ryd( 3p)     0.00460
   127    C    9  py     Val( 2p)     1.05389
   128    C    9  py     Ryd( 3p)     0.00502
   129    C    9  pz     Val( 2p)     1.00846
   130    C    9  pz     Ryd( 3p)     0.00423
   131    C    9  dxy    Ryd( 3d)     0.00068
   132    C    9  dxz    Ryd( 3d)     0.00048
   133    C    9  dyz    Ryd( 3d)     0.00074
   134    C    9  dx2y2  Ryd( 3d)     0.00079
   135    C    9  dz2    Ryd( 3d)     0.00039

   136    C   10  S      Cor( 1S)     1.99915
   137    C   10  S      Val( 2S)     0.97059
   138    C   10  S      Ryd( 3S)     0.00062
   139    C   10  S      Ryd( 4S)     0.00003
   140    C   10  px     Val( 2p)     1.07490
   141    C   10  px     Ryd( 3p)     0.00504
   142    C   10  py     Val( 2p)     1.15748
   143    C   10  py     Ryd( 3p)     0.00501
   144    C   10  pz     Val( 2p)     1.00763
   145    C   10  pz     Ryd( 3p)     0.00483
   146    C   10  dxy    Ryd( 3d)     0.00077
   147    C   10  dxz    Ryd( 3d)     0.00055
   148    C   10  dyz    Ryd( 3d)     0.00048
   149    C   10  dx2y2  Ryd( 3d)     0.00073
   150    C   10  dz2    Ryd( 3d)     0.00051

   151    C   11  S      Cor( 1S)     1.99907
   152    C   11  S      Val( 2S)     0.96207
   153    C   11  S      Ryd( 3S)     0.00062
   154    C   11  S      Ryd( 4S)     0.00005
   155    C   11  px     Val( 2p)     1.08118
   156    C   11  px     Ryd( 3p)     0.00431
   157    C   11  py     Val( 2p)     1.15258
   158    C   11  py     Ryd( 3p)     0.00471
   159    C   11  pz     Val( 2p)     1.01431
   160    C   11  pz     Ryd( 3p)     0.00480
   161    C   11  dxy    Ryd( 3d)     0.00078
   162    C   11  dxz    Ryd( 3d)     0.00056
   163    C   11  dyz    Ryd( 3d)     0.00047
   164    C   11  dx2y2  Ryd( 3d)     0.00072
   165    C   11  dz2    Ryd( 3d)     0.00051

   166    H   12  S      Val( 1S)     0.75868
   167    H   12  S      Ryd( 2S)     0.00218

   168    H   13  S      Val( 1S)     0.75858
   169    H   13  S      Ryd( 2S)     0.00218

   170    H   14  S      Val( 1S)     0.74896
   171    H   14  S      Ryd( 2S)     0.00235

   172    H   15  S      Val( 1S)     0.74897
   173    H   15  S      Ryd( 2S)     0.00235

   174    H   16  S      Val( 1S)     0.77148
   175    H   16  S      Ryd( 2S)     0.00109

   176    H   17  S      Val( 1S)     0.76776
   177    H   17  S      Ryd( 2S)     0.00088

   178    H   18  S      Val( 1S)     0.76776
   179    H   18  S      Ryd( 2S)     0.00084

   180    H   19  S      Val( 1S)     0.76776
   181    H   19  S      Ryd( 2S)     0.00088

   182    H   20  S      Val( 1S)     0.77147
   183    H   20  S      Ryd( 2S)     0.00109


 Summary of Natural Population Analysis:                  
                                                          
                                       Natural Population 
                Natural  -----------------------------------------------
    Atom  No    Charge         Core      Valence    Rydberg      Total
 -----------------------------------------------------------------------
      O    1   -0.51940      1.99981     6.49605    0.02354     8.51940
      C    2    0.85410      1.99926     3.11945    0.02719     5.14590
      N    3   -0.56982      1.99912     5.55399    0.01670     7.56982
      C    4   -0.25265      1.99922     4.23932    0.01411     6.25265
      C    5   -0.48121      1.99927     4.46705    0.01488     6.48121
      C    6   -0.02620      1.99906     4.00826    0.01888     6.02620
      C    7   -0.22679      1.99907     4.21019    0.01753     6.22679
      C    8   -0.22831      1.99915     4.21059    0.01857     6.22831
      C    9   -0.21941      1.99914     4.20273    0.01754     6.21941
      C   10   -0.22832      1.99915     4.21060    0.01857     6.22832
      C   11   -0.22674      1.99907     4.21014    0.01753     6.22674
      H   12    0.23914      0.00000     0.75868    0.00218     0.76086
      H   13    0.23924      0.00000     0.75858    0.00218     0.76076
      H   14    0.24869      0.00000     0.74896    0.00235     0.75131
      H   15    0.24868      0.00000     0.74897    0.00235     0.75132
      H   16    0.22743      0.00000     0.77148    0.00109     0.77257
      H   17    0.23136      0.00000     0.76776    0.00088     0.76864
      H   18    0.23140      0.00000     0.76776    0.00084     0.76860
      H   19    0.23136      0.00000     0.76776    0.00088     0.76864
      H   20    0.22744      0.00000     0.77147    0.00109     0.77256
 =======================================================================
   * Total *   -0.00000     21.99131    55.78979    0.21890    78.00000

                                 Natural Population      
 --------------------------------------------------------
   Core                      21.99131 ( 99.9605% of  22)
   Valence                   55.78979 ( 99.6246% of  56)
   Natural Minimal Basis     77.78110 ( 99.7194% of  78)
   Natural Rydberg Basis      0.21890 (  0.2806% of  78)
 --------------------------------------------------------

    Atom  No          Natural Electron Configuration
 ----------------------------------------------------------------------------
      O    1      [core]2S( 1.71)2p( 4.78)3d( 0.02)
      C    2      [core]2S( 0.70)2p( 2.42)3p( 0.02)3d( 0.01)
      N    3      [core]2S( 1.28)2p( 4.28)3p( 0.01)3d( 0.01)
      C    4      [core]2S( 1.03)2p( 3.21)3p( 0.01)3d( 0.01)
      C    5      [core]2S( 1.04)2p( 3.43)3p( 0.01)
      C    6      [core]2S( 0.89)2p( 3.12)3p( 0.01)
      C    7      [core]2S( 0.96)2p( 3.25)3p( 0.01)
      C    8      [core]2S( 0.97)2p( 3.24)3p( 0.01)
      C    9      [core]2S( 0.97)2p( 3.23)3p( 0.01)
      C   10      [core]2S( 0.97)2p( 3.24)3p( 0.01)
      C   11      [core]2S( 0.96)2p( 3.25)3p( 0.01)
      H   12            1S( 0.76)
      H   13            1S( 0.76)
      H   14            1S( 0.75)
      H   15            1S( 0.75)
      H   16            1S( 0.77)
      H   17            1S( 0.77)
      H   18            1S( 0.77)
      H   19            1S( 0.77)
      H   20            1S( 0.77)


 NBO analysis skipped by request.
 Leave Link  607 at Mon Oct  4 08:32:07 2021, MaxMem=  805306368 cpu:      11.0
 (Enter /sw/target/amd/app/gaussian/Gaussian09RevA.02_gcc-4.9.2/g09/l9999.exe)
 1\1\GINC-HERMITE\SP\RTD-B3LYP-FC\6-31G(d)\C9H9N1O1\JSCHLEINITZ\04-Oct-
 2021\0\\#p TD(NStates=10, Root=1) b3lyp/6-31G* volume pop=NPA density=
 current Geom=AllCheck Guess=Read\\O=C=NCCc1ccccc1_conf_0\\0,1\O,0,6.96
 72731555,0.3217546211,-3.4757460843\C,0,6.7637324653,0.1780184766,-2.3
 210573649\N,0,6.416060333,0.059048383,-1.1722905443\C,0,6.9904886036,-
 0.2347217386,0.1248134312\C,0,5.9042848139,-0.2124918552,1.2129922205\
 C,0,6.4791328542,-0.5176457612,2.5793289574\C,0,6.9739777052,0.5091202
 59,3.3949764971\C,0,7.5437247,0.2262966459,4.6369199126\C,0,7.62746303
 4,-1.0934082288,5.0843488992\C,0,7.135999682,-2.1256334365,4.283242876
 \C,0,6.5671591649,-1.837684189,3.0420521851\H,0,7.7667719793,0.5032023
 759,0.362714586\H,0,7.4707582519,-1.2209164117,0.1027830268\H,0,5.1317
 916951,-0.9432520466,0.9471819536\H,0,5.4268206081,0.7741224523,1.2065
 988286\H,0,6.905105362,1.540894527,3.0561099224\H,0,7.917460584,1.0370
 310585,5.2568688474\H,0,8.0675353971,-1.3153430629,6.0528071629\H,0,7.
 1906622235,-3.1554621677,4.6264251686\H,0,6.1792734999,-2.6467192776,2
 .426320451\\Version=AM64L-G09RevA.02\State=1-A\HF=-478.3551582\RMSD=7.
 928e-09\Dipole=0.2339941,-0.2141493,1.1458402\Quadrupole=2.1988734,6.0
 622291,-8.2611025,0.5711197,1.1044144,2.0493925\PG=C01 [X(C9H9N1O1)]\\
 @


 THE MOST BEAUTIFUL EXPERIENCE WE CAN HAVE IS THE MYSTERIOUS.
 IT IS THE FUNDAMENTAL EMOTION WHICH STANDS AT AT THE CRADLE 
 OF TRUE ART AND TRUE SCIENCE.

                                    -- ALBERT EINSTEIN
 Job cpu time:  0 days  1 hours 24 minutes 12.9 seconds.
 File lengths (MBytes):  RWF=    114 Int=      0 D2E=      0 Chk=     16 Scr=      1
 Normal termination of Gaussian 09 at Mon Oct  4 08:32:21 2021.
