 Entering Gaussian System, Link 0=g09
 Input=C9H9NO_14a5_conf_0.com
 Output=C9H9NO_14a5_conf_0.log
 Initial command:
 /sw/target/amd/app/gaussian/Gaussian09RevA.02_gcc-4.9.2/g09/l1.exe /home/jschleinitz/gaussian/Gau-2855287.inp -scrdir=/home/jschleinitz/gaussian/
 Entering Link 1 = /sw/target/amd/app/gaussian/Gaussian09RevA.02_gcc-4.9.2/g09/l1.exe PID=   2855289.
  
 Copyright (c) 1988,1990,1992,1993,1995,1998,2003,2009, Gaussian, Inc.
                  All Rights Reserved.
  
 This is part of the Gaussian(R) 09 program.  It is based on
 the Gaussian(R) 03 system (copyright 2003, Gaussian, Inc.),
 the Gaussian(R) 98 system (copyright 1998, Gaussian, Inc.),
 the Gaussian(R) 94 system (copyright 1995, Gaussian, Inc.),
 the Gaussian 92(TM) system (copyright 1992, Gaussian, Inc.),
 the Gaussian 90(TM) system (copyright 1990, Gaussian, Inc.),
 the Gaussian 88(TM) system (copyright 1988, Gaussian, Inc.),
 the Gaussian 86(TM) system (copyright 1986, Carnegie Mellon
 University), and the Gaussian 82(TM) system (copyright 1983,
 Carnegie Mellon University). Gaussian is a federally registered
 trademark of Gaussian, Inc.
  
 This software contains proprietary and confidential information,
 including trade secrets, belonging to Gaussian, Inc.
  
 This software is provided under written license and may be
 used, copied, transmitted, or stored only in accord with that
 written license.
  
 The following legend is applicable only to US Government
 contracts under FAR:
  
                    RESTRICTED RIGHTS LEGEND
  
 Use, reproduction and disclosure by the US Government is
 subject to restrictions as set forth in subparagraphs (a)
 and (c) of the Commercial Computer Software - Restricted
 Rights clause in FAR 52.227-19.
  
 Gaussian, Inc.
 340 Quinnipiac St., Bldg. 40, Wallingford CT 06492
  
  
 ---------------------------------------------------------------
 Warning -- This program may not be used in any manner that
 competes with the business of Gaussian, Inc. or will provide
 assistance to any competitor of Gaussian, Inc.  The licensee
 of this program is prohibited from giving any competitor of
 Gaussian, Inc. access to this program.  By using this program,
 the user acknowledges that Gaussian, Inc. is engaged in the
 business of creating and licensing software in the field of
 computational chemistry and represents and warrants to the
 licensee that it is not a competitor of Gaussian, Inc. and that
 it will not use this program in any manner prohibited above.
 ---------------------------------------------------------------
  

 Cite this work as:
 Gaussian 09, Revision A.02,
 M. J. Frisch, G. W. Trucks, H. B. Schlegel, G. E. Scuseria, 
 M. A. Robb, J. R. Cheeseman, G. Scalmani, V. Barone, B. Mennucci, 
 G. A. Petersson, H. Nakatsuji, M. Caricato, X. Li, H. P. Hratchian, 
 A. F. Izmaylov, J. Bloino, G. Zheng, J. L. Sonnenberg, M. Hada, 
 M. Ehara, K. Toyota, R. Fukuda, J. Hasegawa, M. Ishida, T. Nakajima, 
 Y. Honda, O. Kitao, H. Nakai, T. Vreven, J. A. Montgomery, Jr., 
 J. E. Peralta, F. Ogliaro, M. Bearpark, J. J. Heyd, E. Brothers, 
 K. N. Kudin, V. N. Staroverov, R. Kobayashi, J. Normand, 
 K. Raghavachari, A. Rendell, J. C. Burant, S. S. Iyengar, J. Tomasi, 
 M. Cossi, N. Rega, J. M. Millam, M. Klene, J. E. Knox, J. B. Cross, 
 V. Bakken, C. Adamo, J. Jaramillo, R. Gomperts, R. E. Stratmann, 
 O. Yazyev, A. J. Austin, R. Cammi, C. Pomelli, J. W. Ochterski, 
 R. L. Martin, K. Morokuma, V. G. Zakrzewski, G. A. Voth, 
 P. Salvador, J. J. Dannenberg, S. Dapprich, A. D. Daniels, 
 O. Farkas, J. B. Foresman, J. V. Ortiz, J. Cioslowski, 
 and D. J. Fox, Gaussian, Inc., Wallingford CT, 2009.
 
 ******************************************
 Gaussian 09:  AM64L-G09RevA.02 11-Jun-2009
                30-Sep-2021 
 ******************************************
 %nproc=3
 Will use up to    3 processors via shared memory.
 %mem=6gb
 %chk=C9H9NO_14a5_conf_0.chk
 -----------------------------------
 #p opt b3lyp/6-31G* scf=(xqc,tight)
 -----------------------------------
 1/14=-1,18=20,19=15,26=3,38=1/1,3;
 2/9=110,12=2,17=6,18=5,40=1/2;
 3/5=1,6=6,7=1,11=2,16=1,25=1,30=1,71=1,74=-5/1,2,3;
 4//1;
 5/5=2,8=3,13=1,32=2,38=5/2,8;
 6/7=2,8=2,9=2,10=2,28=1/1;
 7//1,2,3,16;
 1/14=-1,18=20,19=15/3(2);
 2/9=110/2;
 99//99;
 2/9=110/2;
 3/5=1,6=6,7=1,11=2,16=1,25=1,30=1,71=1,74=-5/1,2,3;
 4/5=5,16=3/1;
 5/5=2,8=3,13=1,32=2,38=5/2,8;
 7//1,2,3,16;
 1/14=-1,18=20,19=15/3(-5);
 2/9=110/2;
 6/7=2,8=2,9=2,10=2,19=2,28=1/1;
 99/9=1/99;
 Leave Link    1 at Thu Sep 30 10:27:34 2021, MaxMem=  805306368 cpu:       0.1
 (Enter /sw/target/amd/app/gaussian/Gaussian09RevA.02_gcc-4.9.2/g09/l101.exe)
 ---------------------------
 COc1ccc2c(c1)cc[nH]2_conf_0
 ---------------------------
 Symbolic Z-matrix:
 Charge =  0 Multiplicity = 1
 C                     3.13377   0.85215  -0.76583 
 O                     2.48583  -0.24119  -0.12715 
 C                     3.13531  -0.78902   0.9479 
 C                     2.65231  -2.03776   1.34358 
 C                     3.21437  -2.7363    2.41751 
 C                     4.27701  -2.1286    3.09205 
 C                     4.77349  -0.87461   2.73713 
 C                     4.19063  -0.1919    1.64805 
 C                     5.83102  -0.57309   3.64015 
 C                     5.961    -1.63602   4.50495 
 N                     5.01882  -2.56982   4.16435 
 H                     2.57199   1.08804  -1.67481 
 H                     4.15464   0.5902   -1.06452 
 H                     3.124     1.74203  -0.12853 
 H                     1.82377  -2.48385   0.79737 
 H                     2.83482  -3.71033   2.70697 
 H                     4.57478   0.78611   1.38614 
 H                     6.43292   0.32586   3.65164 
 H                     6.63936  -1.80733   5.32961 
 H                     4.88121  -3.45693   4.62924 
 
 NAtoms=     20 NQM=     20 NQMF=      0 NMic=      0 NMicF=      0 NTot=     20.
                    Isotopes and Nuclear Properties:
 (Nuclear quadrupole moments (NQMom) in fm**2, nuclear magnetic moments (NMagM)
  in nuclear magnetons)

  Atom         1           2           3           4           5           6           7           8           9          10
 IAtWgt=          12          16          12          12          12          12          12          12          12          12
 AtmWgt=  12.0000000  15.9949146  12.0000000  12.0000000  12.0000000  12.0000000  12.0000000  12.0000000  12.0000000  12.0000000
 NucSpn=           0           0           0           0           0           0           0           0           0           0
 AtZEff=   0.0000000   0.0000000   0.0000000   0.0000000   0.0000000   0.0000000   0.0000000   0.0000000   0.0000000   0.0000000
 NQMom=    0.0000000   0.0000000   0.0000000   0.0000000   0.0000000   0.0000000   0.0000000   0.0000000   0.0000000   0.0000000
 NMagM=    0.0000000   0.0000000   0.0000000   0.0000000   0.0000000   0.0000000   0.0000000   0.0000000   0.0000000   0.0000000

  Atom        11          12          13          14          15          16          17          18          19          20
 IAtWgt=          14           1           1           1           1           1           1           1           1           1
 AtmWgt=  14.0030740   1.0078250   1.0078250   1.0078250   1.0078250   1.0078250   1.0078250   1.0078250   1.0078250   1.0078250
 NucSpn=           2           1           1           1           1           1           1           1           1           1
 AtZEff=   0.0000000   0.0000000   0.0000000   0.0000000   0.0000000   0.0000000   0.0000000   0.0000000   0.0000000   0.0000000
 NQMom=    2.0440000   0.0000000   0.0000000   0.0000000   0.0000000   0.0000000   0.0000000   0.0000000   0.0000000   0.0000000
 NMagM=    0.4037610   2.7928460   2.7928460   2.7928460   2.7928460   2.7928460   2.7928460   2.7928460   2.7928460   2.7928460
 Leave Link  101 at Thu Sep 30 10:27:34 2021, MaxMem=  805306368 cpu:       0.2
 (Enter /sw/target/amd/app/gaussian/Gaussian09RevA.02_gcc-4.9.2/g09/l103.exe)

 GradGradGradGradGradGradGradGradGradGradGradGradGradGradGradGradGradGrad
 Berny optimization.
 Initialization pass.
                           ----------------------------
                           !    Initial Parameters    !
                           ! (Angstroms and Degrees)  !
 --------------------------                            --------------------------
 ! Name  Definition              Value          Derivative Info.                !
 --------------------------------------------------------------------------------
 ! R1    R(1,2)                  1.4224         estimate D2E/DX2                !
 ! R2    R(1,12)                 1.0943         estimate D2E/DX2                !
 ! R3    R(1,13)                 1.0955         estimate D2E/DX2                !
 ! R4    R(1,14)                 1.0946         estimate D2E/DX2                !
 ! R5    R(2,3)                  1.3703         estimate D2E/DX2                !
 ! R6    R(3,4)                  1.3961         estimate D2E/DX2                !
 ! R7    R(3,8)                  1.4002         estimate D2E/DX2                !
 ! R8    R(4,5)                  1.399          estimate D2E/DX2                !
 ! R9    R(4,15)                 1.088          estimate D2E/DX2                !
 ! R10   R(5,6)                  1.3977         estimate D2E/DX2                !
 ! R11   R(5,16)                 1.0847         estimate D2E/DX2                !
 ! R12   R(6,7)                  1.3946         estimate D2E/DX2                !
 ! R13   R(6,11)                 1.3765         estimate D2E/DX2                !
 ! R14   R(7,8)                  1.4114         estimate D2E/DX2                !
 ! R15   R(7,9)                  1.4229         estimate D2E/DX2                !
 ! R16   R(8,17)                 1.0829         estimate D2E/DX2                !
 ! R17   R(9,10)                 1.3764         estimate D2E/DX2                !
 ! R18   R(9,18)                 1.0819         estimate D2E/DX2                !
 ! R19   R(10,11)                1.3696         estimate D2E/DX2                !
 ! R20   R(10,19)                1.0815         estimate D2E/DX2                !
 ! R21   R(11,20)                1.011          estimate D2E/DX2                !
 ! A1    A(2,1,12)             107.7476         estimate D2E/DX2                !
 ! A2    A(2,1,13)             111.2932         estimate D2E/DX2                !
 ! A3    A(2,1,14)             111.0647         estimate D2E/DX2                !
 ! A4    A(12,1,13)            107.6668         estimate D2E/DX2                !
 ! A5    A(12,1,14)            107.6859         estimate D2E/DX2                !
 ! A6    A(13,1,14)            111.1904         estimate D2E/DX2                !
 ! A7    A(1,2,3)              116.3391         estimate D2E/DX2                !
 ! A8    A(2,3,4)              114.5794         estimate D2E/DX2                !
 ! A9    A(2,3,8)              125.384          estimate D2E/DX2                !
 ! A10   A(4,3,8)              120.0315         estimate D2E/DX2                !
 ! A11   A(3,4,5)              121.6789         estimate D2E/DX2                !
 ! A12   A(3,4,15)             119.2014         estimate D2E/DX2                !
 ! A13   A(5,4,15)             119.1172         estimate D2E/DX2                !
 ! A14   A(4,5,6)              117.3121         estimate D2E/DX2                !
 ! A15   A(4,5,16)             120.8398         estimate D2E/DX2                !
 ! A16   A(6,5,16)             121.8481         estimate D2E/DX2                !
 ! A17   A(5,6,7)              122.6011         estimate D2E/DX2                !
 ! A18   A(5,6,11)             130.2643         estimate D2E/DX2                !
 ! A19   A(7,6,11)             107.1344         estimate D2E/DX2                !
 ! A20   A(6,7,8)              118.9674         estimate D2E/DX2                !
 ! A21   A(6,7,9)              107.0744         estimate D2E/DX2                !
 ! A22   A(8,7,9)              133.9581         estimate D2E/DX2                !
 ! A23   A(3,8,7)              119.3958         estimate D2E/DX2                !
 ! A24   A(3,8,17)             122.113          estimate D2E/DX2                !
 ! A25   A(7,8,17)             118.4899         estimate D2E/DX2                !
 ! A26   A(7,9,10)             107.774          estimate D2E/DX2                !
 ! A27   A(7,9,18)             126.6045         estimate D2E/DX2                !
 ! A28   A(10,9,18)            125.6213         estimate D2E/DX2                !
 ! A29   A(9,10,11)            107.7771         estimate D2E/DX2                !
 ! A30   A(9,10,19)            131.3494         estimate D2E/DX2                !
 ! A31   A(11,10,19)           120.8736         estimate D2E/DX2                !
 ! A32   A(6,11,10)            110.2377         estimate D2E/DX2                !
 ! A33   A(6,11,20)            124.4816         estimate D2E/DX2                !
 ! A34   A(10,11,20)           125.2806         estimate D2E/DX2                !
 ! D1    D(12,1,2,3)           172.3543         estimate D2E/DX2                !
 ! D2    D(13,1,2,3)            54.5319         estimate D2E/DX2                !
 ! D3    D(14,1,2,3)           -69.9294         estimate D2E/DX2                !
 ! D4    D(1,2,3,4)           -165.1684         estimate D2E/DX2                !
 ! D5    D(1,2,3,8)             15.658          estimate D2E/DX2                !
 ! D6    D(2,3,4,5)            179.453          estimate D2E/DX2                !
 ! D7    D(2,3,4,15)             0.0385         estimate D2E/DX2                !
 ! D8    D(8,3,4,5)             -1.3253         estimate D2E/DX2                !
 ! D9    D(8,3,4,15)           179.2603         estimate D2E/DX2                !
 ! D10   D(2,3,8,7)           -179.7073         estimate D2E/DX2                !
 ! D11   D(2,3,8,17)             0.7147         estimate D2E/DX2                !
 ! D12   D(4,3,8,7)              1.1607         estimate D2E/DX2                !
 ! D13   D(4,3,8,17)          -178.4172         estimate D2E/DX2                !
 ! D14   D(3,4,5,6)              0.5557         estimate D2E/DX2                !
 ! D15   D(3,4,5,16)          -179.3726         estimate D2E/DX2                !
 ! D16   D(15,4,5,6)           179.9706         estimate D2E/DX2                !
 ! D17   D(15,4,5,16)            0.0424         estimate D2E/DX2                !
 ! D18   D(4,5,6,7)              0.3651         estimate D2E/DX2                !
 ! D19   D(4,5,6,11)          -179.7588         estimate D2E/DX2                !
 ! D20   D(16,5,6,7)          -179.7074         estimate D2E/DX2                !
 ! D21   D(16,5,6,11)            0.1687         estimate D2E/DX2                !
 ! D22   D(5,6,7,8)             -0.5031         estimate D2E/DX2                !
 ! D23   D(5,6,7,9)            179.4113         estimate D2E/DX2                !
 ! D24   D(11,6,7,8)           179.5959         estimate D2E/DX2                !
 ! D25   D(11,6,7,9)            -0.4897         estimate D2E/DX2                !
 ! D26   D(5,6,11,10)         -179.5244         estimate D2E/DX2                !
 ! D27   D(5,6,11,20)            0.4114         estimate D2E/DX2                !
 ! D28   D(7,6,11,10)            0.3663         estimate D2E/DX2                !
 ! D29   D(7,6,11,20)         -179.6979         estimate D2E/DX2                !
 ! D30   D(6,7,8,3)             -0.2706         estimate D2E/DX2                !
 ! D31   D(6,7,8,17)           179.3226         estimate D2E/DX2                !
 ! D32   D(9,7,8,3)            179.8431         estimate D2E/DX2                !
 ! D33   D(9,7,8,17)            -0.5636         estimate D2E/DX2                !
 ! D34   D(6,7,9,10)             0.4429         estimate D2E/DX2                !
 ! D35   D(6,7,9,18)          -179.723          estimate D2E/DX2                !
 ! D36   D(8,7,9,10)          -179.6612         estimate D2E/DX2                !
 ! D37   D(8,7,9,18)             0.1729         estimate D2E/DX2                !
 ! D38   D(7,9,10,11)           -0.2217         estimate D2E/DX2                !
 ! D39   D(7,9,10,19)          179.8002         estimate D2E/DX2                !
 ! D40   D(18,9,10,11)         179.9422         estimate D2E/DX2                !
 ! D41   D(18,9,10,19)          -0.036          estimate D2E/DX2                !
 ! D42   D(9,10,11,6)           -0.0879         estimate D2E/DX2                !
 ! D43   D(9,10,11,20)         179.977          estimate D2E/DX2                !
 ! D44   D(19,10,11,6)         179.893          estimate D2E/DX2                !
 ! D45   D(19,10,11,20)         -0.0421         estimate D2E/DX2                !
 --------------------------------------------------------------------------------
 Trust Radius=3.00D-01 FncErr=1.00D-07 GrdErr=1.00D-06
 Number of steps in this run= 110 maximum allowed number of steps= 120.
 GradGradGradGradGradGradGradGradGradGradGradGradGradGradGradGradGradGrad

 Leave Link  103 at Thu Sep 30 10:27:35 2021, MaxMem=  805306368 cpu:       0.0
 (Enter /sw/target/amd/app/gaussian/Gaussian09RevA.02_gcc-4.9.2/g09/l202.exe)
                          Input orientation:                          
 ---------------------------------------------------------------------
 Center     Atomic      Atomic             Coordinates (Angstroms)
 Number     Number       Type             X           Y           Z
 ---------------------------------------------------------------------
      1          6           0        3.133768    0.852148   -0.765829
      2          8           0        2.485833   -0.241194   -0.127146
      3          6           0        3.135313   -0.789022    0.947904
      4          6           0        2.652308   -2.037763    1.343580
      5          6           0        3.214369   -2.736295    2.417513
      6          6           0        4.277013   -2.128602    3.092052
      7          6           0        4.773495   -0.874613    2.737133
      8          6           0        4.190631   -0.191901    1.648053
      9          6           0        5.831018   -0.573087    3.640145
     10          6           0        5.960996   -1.636019    4.504948
     11          7           0        5.018819   -2.569822    4.164349
     12          1           0        2.571986    1.088036   -1.674809
     13          1           0        4.154641    0.590196   -1.064516
     14          1           0        3.124004    1.742031   -0.128532
     15          1           0        1.823772   -2.483850    0.797370
     16          1           0        2.834824   -3.710335    2.706974
     17          1           0        4.574785    0.786106    1.386142
     18          1           0        6.432924    0.325864    3.651644
     19          1           0        6.639365   -1.807335    5.329614
     20          1           0        4.881209   -3.456933    4.629241
 ---------------------------------------------------------------------
                    Distance matrix (angstroms):
                    1          2          3          4          5
     1  C    0.000000
     2  O    1.422369   0.000000
     3  C    2.372830   1.370282   0.000000
     4  C    3.610124   2.327747   1.396140   0.000000
     5  C    4.797613   3.637524   2.440876   1.398997   0.000000
     6  C    5.007507   4.139308   2.774045   2.388530   1.397679
     7  C    4.235699   3.720042   2.427407   2.791835   2.449263
     8  C    2.834400   2.461726   1.400164   2.422055   2.831801
     9  C    5.359016   5.049049   3.815968   4.186130   3.608483
    10  C    6.478062   5.956391   4.621088   4.593808   3.621043
    11  N    6.290465   5.500496   4.130903   3.720242   2.516980
    12  H    1.094298   2.041945   3.274036   4.346003   5.637842
    13  H    1.095452   2.086815   2.644071   3.868088   4.906546
    14  H    1.094593   2.083374   2.750468   4.083682   5.152273
    15  H    3.910059   2.514469   2.148311   1.088030   2.149965
    16  H    5.741601   4.493213   3.423257   2.165561   1.084710
    17  H    2.590727   2.776528   2.178339   3.416426   3.914303
    18  H    5.538544   5.493664   4.407655   5.020653   4.610748
    19  H    7.517744   7.034262   5.702168   5.642533   4.590631
    20  H    7.122395   6.221095   4.870128   4.216351   2.861716
                    6          7          8          9         10
     6  C    0.000000
     7  C    1.394614   0.000000
     8  C    2.417314   1.411355   0.000000
     9  C    2.266046   1.422921   2.608563   0.000000
    10  C    2.252712   2.261652   3.658076   1.376446   0.000000
    11  N    1.376507   2.229543   3.559796   2.218425   1.369560
    12  H    5.998070   5.306964   3.911478   6.452082   7.556141
    13  H    4.968289   4.120823   2.823296   5.128090   6.264015
    14  H    5.165597   4.216596   2.834438   5.185617   6.397569
    15  H    3.377892   3.879843   3.402750   5.271660   5.619749
    16  H    2.174874   3.435211   3.916492   4.437377   4.160343
    17  H    3.390328   2.150035   1.082899   2.916515   4.185119
    18  H    3.314438   2.243030   3.051285   1.081914   2.190851
    19  H    3.269648   3.327521   4.707421   2.243011   1.081483
    20  H    2.119544   3.203132   4.474910   3.193277   2.120641
                   11         12         13         14         15
    11  N    0.000000
    12  H    7.311818   0.000000
    13  H    6.170377   1.767795   0.000000
    14  H    6.372694   1.767316   1.806931   0.000000
    15  H    4.642441   4.407931   4.283612   4.517296   0.000000
    16  H    2.862612   6.503343   5.870318   6.152399   2.484568
    17  H    4.379253   3.670393   2.494119   2.304950   4.313622
    18  H    3.263060   6.622602   5.244293   5.219599   6.106198
    19  H    2.136679   8.601667   7.266836   7.399129   6.647468
    20  H    1.010954   8.107423   7.023250   7.263154   4.997804
                   16         17         18         19         20
    16  H    0.000000
    17  H    4.999005   0.000000
    18  H    5.489047   2.965974   0.000000
    19  H    4.997417   5.151640   2.721900   0.000000
    20  H    2.819046   5.349297   4.203935   2.510539   0.000000
 Stoichiometry    C9H9NO
 Framework group  C1[X(C9H9NO)]
 Deg. of freedom    54
 Full point group                 C1      NOp   1
 Largest Abelian subgroup         C1      NOp   1
 Largest concise Abelian subgroup C1      NOp   1
                         Standard orientation:                         
 ---------------------------------------------------------------------
 Center     Atomic      Atomic             Coordinates (Angstroms)
 Number     Number       Type             X           Y           Z
 ---------------------------------------------------------------------
      1          6           0       -3.428767   -0.977038    0.165416
      2          8           0       -2.812833    0.274292   -0.113751
      3          6           0       -1.443336    0.299885   -0.075109
      4          6           0       -0.887501    1.579770   -0.028735
      5          6           0        0.496266    1.778272    0.025857
      6          6           0        1.308062    0.640527    0.020284
      7          6           0        0.789267   -0.652393   -0.044209
      8          6           0       -0.610490   -0.825461   -0.095666
      9          6           0        1.895744   -1.547052   -0.043697
     10          6           0        3.045283   -0.793585    0.030128
     11          7           0        2.678870    0.525464    0.069446
     12          1           0       -4.508121   -0.809884    0.232801
     13          1           0       -3.093938   -1.379336    1.127736
     14          1           0       -3.252876   -1.691590   -0.644900
     15          1           0       -1.547023    2.445119   -0.025488
     16          1           0        0.913142    2.778627    0.071668
     17          1           0       -1.004588   -1.832246   -0.156833
     18          1           0        1.852108   -2.627103   -0.089771
     19          1           0        4.087484   -1.081105    0.057623
     20          1           0        3.317218    1.307388    0.125426
 ---------------------------------------------------------------------
 Rotational constants (GHZ):      2.8888975      0.7524659      0.6007576
 Leave Link  202 at Thu Sep 30 10:27:35 2021, MaxMem=  805306368 cpu:       0.0
 (Enter /sw/target/amd/app/gaussian/Gaussian09RevA.02_gcc-4.9.2/g09/l301.exe)
 Standard basis: 6-31G(d) (6D, 7F)
 Ernie: Thresh=  0.10000D-02 Tol=  0.10000D-05 Strict=F.
 There are   183 symmetry adapted basis functions of A   symmetry.
 Integral buffers will be    131072 words long.
 Raffenetti 2 integral format.
 Two-electron integral symmetry is turned on.
   183 basis functions,   344 primitive gaussians,   183 cartesian basis functions
    39 alpha electrons       39 beta electrons
       nuclear repulsion energy       571.5309582491 Hartrees.
 IExCor=  402 DFT=T Ex+Corr=B3LYP ExCW=0 ScaHFX=  0.200000
 ScaDFX=  0.800000  0.720000  1.000000  0.810000 ScalE2=  1.000000  1.000000
 IRadAn=      0 IRanWt=     -1 IRanGd=            0 ICorTp=0
 NAtoms=   20 NActive=   20 NUniq=   20 SFac= 7.50D-01 NAtFMM=   80 NAOKFM=F Big=F
 Leave Link  301 at Thu Sep 30 10:27:35 2021, MaxMem=  805306368 cpu:       0.1
 (Enter /sw/target/amd/app/gaussian/Gaussian09RevA.02_gcc-4.9.2/g09/l302.exe)
 NPDir=0 NMtPBC=     1 NCelOv=     1 NCel=       1 NClECP=     1 NCelD=      1
         NCelK=      1 NCelE2=     1 NClLst=     1 CellRange=     0.0.
 One-electron integrals computed using PRISM.
 NBasis=   183 RedAO= T  NBF=   183
 NBsUse=   183 1.00D-06 NBFU=   183
 Precomputing XC quadrature grid using
 IXCGrd= 2 IRadAn=           0 IRanWt=          -1 IRanGd=           0 AccXCQ= 1.00D-10.
 NRdTot=    1258 NPtTot=      159682 NUsed=      168761 NTot=      168793
 NSgBfM=   183   183   183   183   183 NAtAll=    20    20.
 Leave Link  302 at Thu Sep 30 10:27:38 2021, MaxMem=  805306368 cpu:       1.2
 (Enter /sw/target/amd/app/gaussian/Gaussian09RevA.02_gcc-4.9.2/g09/l303.exe)
 DipDrv:  MaxL=1.
 Leave Link  303 at Thu Sep 30 10:27:38 2021, MaxMem=  805306368 cpu:       0.1
 (Enter /sw/target/amd/app/gaussian/Gaussian09RevA.02_gcc-4.9.2/g09/l401.exe)
 Harris functional with IExCor=  402 diagonalized for initial guess.
 ExpMin= 1.61D-01 ExpMax= 5.48D+03 ExpMxC= 8.25D+02 IAcc=1 IRadAn=         1 AccDes= 0.00D+00
 HarFok:  IExCor=  402 AccDes= 0.00D+00 IRadAn=         1 IDoV= 1
 ScaDFX=  1.000000  1.000000  1.000000  1.000000
 FoFCou: FMM=F IPFlag=           0 FMFlag=      100000 FMFlg1=           0
         NFxFlg=           0 DoJE=T BraDBF=F KetDBF=T FulRan=T
         Omega=  0.000000  0.000000  1.000000  0.000000  0.000000 ICntrl=     500 IOpCl=  0
         NMat0=    1 NMatS0=    1 NMatT0=    0 NMatD0=    1 NMtDS0=    0 NMtDT0=    0
         I1Cent=           4 NGrid=           0.
 Petite list used in FoFCou.
 Harris En= -478.391173343761    
 Initial guess orbital symmetries:
       Occupied  (A) (A) (A) (A) (A) (A) (A) (A) (A) (A) (A) (A)
                 (A) (A) (A) (A) (A) (A) (A) (A) (A) (A) (A) (A)
                 (A) (A) (A) (A) (A) (A) (A) (A) (A) (A) (A) (A)
                 (A) (A) (A)
       Virtual   (A) (A) (A) (A) (A) (A) (A) (A) (A) (A) (A) (A)
                 (A) (A) (A) (A) (A) (A) (A) (A) (A) (A) (A) (A)
                 (A) (A) (A) (A) (A) (A) (A) (A) (A) (A) (A) (A)
                 (A) (A) (A) (A) (A) (A) (A) (A) (A) (A) (A) (A)
                 (A) (A) (A) (A) (A) (A) (A) (A) (A) (A) (A) (A)
                 (A) (A) (A) (A) (A) (A) (A) (A) (A) (A) (A) (A)
                 (A) (A) (A) (A) (A) (A) (A) (A) (A) (A) (A) (A)
                 (A) (A) (A) (A) (A) (A) (A) (A) (A) (A) (A) (A)
                 (A) (A) (A) (A) (A) (A) (A) (A) (A) (A) (A) (A)
                 (A) (A) (A) (A) (A) (A) (A) (A) (A) (A) (A) (A)
                 (A) (A) (A) (A) (A) (A) (A) (A) (A) (A) (A) (A)
                 (A) (A) (A) (A) (A) (A) (A) (A) (A) (A) (A) (A)
 The electronic state of the initial guess is 1-A.
 Leave Link  401 at Thu Sep 30 10:27:46 2021, MaxMem=  805306368 cpu:       5.4
 (Enter /sw/target/amd/app/gaussian/Gaussian09RevA.02_gcc-4.9.2/g09/l502.exe)
 Closed shell SCF:
 Requested convergence on RMS density matrix=1.00D-08 within  64 cycles.
 Requested convergence on MAX density matrix=1.00D-06.
 Requested convergence on             energy=1.00D-06.
 No special actions if energy rises.
 Using DIIS extrapolation, IDIIS=  1040.
 Integral symmetry usage will be decided dynamically.
       168568 words used for storage of precomputed grid.
 Keep R1 ints in memory in canonical form, NReq=145125594.
 IEnd=      277054 IEndB=      277054 NGot=   805306368 MDV=   663333317
 LenX=   663333317 LenY=   663299387
 Symmetry not used in FoFDir.
 MinBra= 0 MaxBra= 2 Meth= 1.
 IRaf=       0 NMat=   1 IRICut=       1 DoRegI=T DoRafI=F ISym2E= 0 JSym2E=0.
 Integral accuracy reduced to 1.0D-05 until final iterations.

 Cycle   1  Pass 0  IDiag  1:
 E= -478.079818495229    
 DIIS: error= 4.06D-02 at cycle   1 NSaved=   1.
 NSaved= 1 IEnMin= 1 EnMin= -478.079818495229     IErMin= 1 ErrMin= 4.06D-02
 ErrMax= 4.06D-02 EMaxC= 1.00D-01 BMatC= 2.35D-01 BMatP= 2.35D-01
 IDIUse=3 WtCom= 5.94D-01 WtEn= 4.06D-01
 Coeff-Com:  0.100D+01
 Coeff-En:   0.100D+01
 Coeff:      0.100D+01
 Gap=     0.204 Goal=   None    Shift=    0.000
 GapD=    0.204 DampG=1.000 DampE=0.500 DampFc=0.5000 IDamp=-1.
 Damping current iteration by 5.00D-01
 RMSDP=6.60D-03 MaxDP=1.49D-01              OVMax= 2.13D-01

 Cycle   2  Pass 0  IDiag  1:
 E= -478.196981474713     Delta-E=       -0.117162979483 Rises=F Damp=T
 DIIS: error= 7.40D-03 at cycle   2 NSaved=   2.
 NSaved= 2 IEnMin= 2 EnMin= -478.196981474713     IErMin= 2 ErrMin= 7.40D-03
 ErrMax= 7.40D-03 EMaxC= 1.00D-01 BMatC= 1.36D-02 BMatP= 2.35D-01
 IDIUse=3 WtCom= 9.26D-01 WtEn= 7.40D-02
 Coeff-Com:  0.272D-01 0.973D+00
 Coeff-En:   0.507D-01 0.949D+00
 Coeff:      0.289D-01 0.971D+00
 Gap=     0.278 Goal=   None    Shift=    0.000
 RMSDP=2.26D-03 MaxDP=4.06D-02 DE=-1.17D-01 OVMax= 1.44D-01

 Cycle   3  Pass 0  IDiag  1:
 E= -478.318967495201     Delta-E=       -0.121986020488 Rises=F Damp=F
 DIIS: error= 7.69D-03 at cycle   3 NSaved=   3.
 NSaved= 3 IEnMin= 3 EnMin= -478.318967495201     IErMin= 2 ErrMin= 7.40D-03
 ErrMax= 7.69D-03 EMaxC= 1.00D-01 BMatC= 1.49D-02 BMatP= 1.36D-02
 IDIUse=3 WtCom= 9.23D-01 WtEn= 7.69D-02
 Coeff-Com: -0.265D-01 0.526D+00 0.500D+00
 Coeff-En:   0.000D+00 0.000D+00 0.100D+01
 Coeff:     -0.244D-01 0.486D+00 0.539D+00
 Gap=     0.187 Goal=   None    Shift=    0.000
 RMSDP=1.11D-03 MaxDP=2.94D-02 DE=-1.22D-01 OVMax= 7.37D-02

 Cycle   4  Pass 0  IDiag  1:
 E= -478.330179925137     Delta-E=       -0.011212429936 Rises=F Damp=F
 DIIS: error= 4.19D-03 at cycle   4 NSaved=   4.
 NSaved= 4 IEnMin= 4 EnMin= -478.330179925137     IErMin= 4 ErrMin= 4.19D-03
 ErrMax= 4.19D-03 EMaxC= 1.00D-01 BMatC= 4.26D-03 BMatP= 1.36D-02
 IDIUse=3 WtCom= 9.58D-01 WtEn= 4.19D-02
 Coeff-Com: -0.174D-01 0.107D+00 0.355D+00 0.555D+00
 Coeff-En:   0.000D+00 0.000D+00 0.260D+00 0.740D+00
 Coeff:     -0.167D-01 0.103D+00 0.351D+00 0.563D+00
 Gap=     0.188 Goal=   None    Shift=    0.000
 RMSDP=4.24D-04 MaxDP=1.04D-02 DE=-1.12D-02 OVMax= 3.02D-02

 Cycle   5  Pass 0  IDiag  1:
 E= -478.334373379820     Delta-E=       -0.004193454683 Rises=F Damp=F
 DIIS: error= 7.88D-04 at cycle   5 NSaved=   5.
 NSaved= 5 IEnMin= 5 EnMin= -478.334373379820     IErMin= 5 ErrMin= 7.88D-04
 ErrMax= 7.88D-04 EMaxC= 1.00D-01 BMatC= 1.83D-04 BMatP= 4.26D-03
 IDIUse=3 WtCom= 9.92D-01 WtEn= 7.88D-03
 Coeff-Com: -0.722D-02 0.310D-01 0.162D+00 0.303D+00 0.511D+00
 Coeff-En:   0.000D+00 0.000D+00 0.000D+00 0.000D+00 0.100D+01
 Coeff:     -0.717D-02 0.307D-01 0.161D+00 0.301D+00 0.515D+00
 Gap=     0.188 Goal=   None    Shift=    0.000
 RMSDP=1.01D-04 MaxDP=3.40D-03 DE=-4.19D-03 OVMax= 6.74D-03

 Cycle   6  Pass 0  IDiag  1:
 E= -478.334533749094     Delta-E=       -0.000160369274 Rises=F Damp=F
 DIIS: error= 3.59D-04 at cycle   6 NSaved=   6.
 NSaved= 6 IEnMin= 6 EnMin= -478.334533749094     IErMin= 6 ErrMin= 3.59D-04
 ErrMax= 3.59D-04 EMaxC= 1.00D-01 BMatC= 2.24D-05 BMatP= 1.83D-04
 IDIUse=3 WtCom= 9.96D-01 WtEn= 3.59D-03
 Coeff-Com: -0.166D-02 0.243D-02 0.419D-01 0.914D-01 0.297D+00 0.569D+00
 Coeff-En:   0.000D+00 0.000D+00 0.000D+00 0.000D+00 0.104D+00 0.896D+00
 Coeff:     -0.165D-02 0.242D-02 0.418D-01 0.911D-01 0.296D+00 0.570D+00
 Gap=     0.188 Goal=   None    Shift=    0.000
 RMSDP=3.17D-05 MaxDP=8.99D-04 DE=-1.60D-04 OVMax= 2.03D-03

 Cycle   7  Pass 0  IDiag  1:
 E= -478.334555391685     Delta-E=       -0.000021642590 Rises=F Damp=F
 DIIS: error= 8.08D-05 at cycle   7 NSaved=   7.
 NSaved= 7 IEnMin= 7 EnMin= -478.334555391685     IErMin= 7 ErrMin= 8.08D-05
 ErrMax= 8.08D-05 EMaxC= 1.00D-01 BMatC= 1.25D-06 BMatP= 2.24D-05
 IDIUse=1 WtCom= 1.00D+00 WtEn= 0.00D+00
 Coeff-Com: -0.671D-03 0.265D-03 0.184D-01 0.413D-01 0.153D+00 0.328D+00
 Coeff-Com:  0.459D+00
 Coeff:     -0.671D-03 0.265D-03 0.184D-01 0.413D-01 0.153D+00 0.328D+00
 Coeff:      0.459D+00
 Gap=     0.188 Goal=   None    Shift=    0.000
 RMSDP=7.34D-06 MaxDP=2.85D-04 DE=-2.16D-05 OVMax= 4.05D-04

 Initial convergence to 1.0D-05 achieved.  Increase integral accuracy.
 Cycle   8  Pass 1  IDiag  1:
 E= -478.334531191844     Delta-E=        0.000024199840 Rises=F Damp=F
 DIIS: error= 2.72D-05 at cycle   1 NSaved=   1.
 NSaved= 1 IEnMin= 1 EnMin= -478.334531191844     IErMin= 1 ErrMin= 2.72D-05
 ErrMax= 2.72D-05 EMaxC= 1.00D-01 BMatC= 1.47D-07 BMatP= 1.47D-07
 IDIUse=1 WtCom= 1.00D+00 WtEn= 0.00D+00
 Coeff-Com:  0.100D+01
 Coeff:      0.100D+01
 Gap=     0.188 Goal=   None    Shift=    0.000
 RMSDP=7.34D-06 MaxDP=2.85D-04 DE= 2.42D-05 OVMax= 2.54D-04

 Cycle   9  Pass 1  IDiag  1:
 E= -478.334531137561     Delta-E=        0.000000054283 Rises=F Damp=F
 DIIS: error= 2.87D-05 at cycle   2 NSaved=   2.
 NSaved= 2 IEnMin= 1 EnMin= -478.334531191844     IErMin= 1 ErrMin= 2.72D-05
 ErrMax= 2.87D-05 EMaxC= 1.00D-01 BMatC= 2.09D-07 BMatP= 1.47D-07
 IDIUse=1 WtCom= 1.00D+00 WtEn= 0.00D+00
 Coeff-Com:  0.555D+00 0.445D+00
 Coeff:      0.555D+00 0.445D+00
 Gap=     0.188 Goal=   None    Shift=    0.000
 RMSDP=3.67D-06 MaxDP=1.14D-04 DE= 5.43D-08 OVMax= 2.43D-04

 Cycle  10  Pass 1  IDiag  1:
 E= -478.334531335674     Delta-E=       -0.000000198113 Rises=F Damp=F
 DIIS: error= 1.10D-05 at cycle   3 NSaved=   3.
 NSaved= 3 IEnMin= 3 EnMin= -478.334531335674     IErMin= 3 ErrMin= 1.10D-05
 ErrMax= 1.10D-05 EMaxC= 1.00D-01 BMatC= 2.56D-08 BMatP= 1.47D-07
 IDIUse=1 WtCom= 1.00D+00 WtEn= 0.00D+00
 Coeff-Com:  0.233D-01 0.256D+00 0.721D+00
 Coeff:      0.233D-01 0.256D+00 0.721D+00
 Gap=     0.188 Goal=   None    Shift=    0.000
 RMSDP=1.21D-06 MaxDP=3.12D-05 DE=-1.98D-07 OVMax= 8.58D-05

 Cycle  11  Pass 1  IDiag  1:
 E= -478.334531360900     Delta-E=       -0.000000025226 Rises=F Damp=F
 DIIS: error= 3.03D-06 at cycle   4 NSaved=   4.
 NSaved= 4 IEnMin= 4 EnMin= -478.334531360900     IErMin= 4 ErrMin= 3.03D-06
 ErrMax= 3.03D-06 EMaxC= 1.00D-01 BMatC= 3.69D-09 BMatP= 2.56D-08
 IDIUse=1 WtCom= 1.00D+00 WtEn= 0.00D+00
 Coeff-Com: -0.139D-01 0.136D+00 0.446D+00 0.431D+00
 Coeff:     -0.139D-01 0.136D+00 0.446D+00 0.431D+00
 Gap=     0.188 Goal=   None    Shift=    0.000
 RMSDP=3.46D-07 MaxDP=1.29D-05 DE=-2.52D-08 OVMax= 2.07D-05

 Cycle  12  Pass 1  IDiag  1:
 E= -478.334531364244     Delta-E=       -0.000000003345 Rises=F Damp=F
 DIIS: error= 4.34D-07 at cycle   5 NSaved=   5.
 NSaved= 5 IEnMin= 5 EnMin= -478.334531364244     IErMin= 5 ErrMin= 4.34D-07
 ErrMax= 4.34D-07 EMaxC= 1.00D-01 BMatC= 7.32D-11 BMatP= 3.69D-09
 IDIUse=1 WtCom= 1.00D+00 WtEn= 0.00D+00
 Coeff-Com: -0.795D-02 0.486D-01 0.163D+00 0.200D+00 0.597D+00
 Coeff:     -0.795D-02 0.486D-01 0.163D+00 0.200D+00 0.597D+00
 Gap=     0.188 Goal=   None    Shift=    0.000
 RMSDP=6.60D-08 MaxDP=1.53D-06 DE=-3.34D-09 OVMax= 2.78D-06

 Cycle  13  Pass 1  IDiag  1:
 E= -478.334531364314     Delta-E=       -0.000000000070 Rises=F Damp=F
 DIIS: error= 2.18D-07 at cycle   6 NSaved=   6.
 NSaved= 6 IEnMin= 6 EnMin= -478.334531364314     IErMin= 6 ErrMin= 2.18D-07
 ErrMax= 2.18D-07 EMaxC= 1.00D-01 BMatC= 1.36D-11 BMatP= 7.32D-11
 IDIUse=1 WtCom= 1.00D+00 WtEn= 0.00D+00
 Coeff-Com: -0.367D-02 0.194D-01 0.646D-01 0.887D-01 0.356D+00 0.475D+00
 Coeff:     -0.367D-02 0.194D-01 0.646D-01 0.887D-01 0.356D+00 0.475D+00
 Gap=     0.188 Goal=   None    Shift=    0.000
 RMSDP=2.58D-08 MaxDP=7.79D-07 DE=-6.96D-11 OVMax= 1.46D-06

 Cycle  14  Pass 1  IDiag  1:
 E= -478.334531364318     Delta-E=       -0.000000000004 Rises=F Damp=F
 DIIS: error= 4.66D-08 at cycle   7 NSaved=   7.
 NSaved= 7 IEnMin= 7 EnMin= -478.334531364318     IErMin= 7 ErrMin= 4.66D-08
 ErrMax= 4.66D-08 EMaxC= 1.00D-01 BMatC= 7.41D-13 BMatP= 1.36D-11
 IDIUse=1 WtCom= 1.00D+00 WtEn= 0.00D+00
 Coeff-Com: -0.356D-03 0.105D-02 0.241D-02 0.809D-02 0.553D-01 0.212D+00
 Coeff-Com:  0.722D+00
 Coeff:     -0.356D-03 0.105D-02 0.241D-02 0.809D-02 0.553D-01 0.212D+00
 Coeff:      0.722D+00
 Gap=     0.188 Goal=   None    Shift=    0.000
 RMSDP=7.72D-09 MaxDP=1.45D-07 DE=-3.87D-12 OVMax= 4.40D-07

 SCF Done:  E(RB3LYP) =  -478.334531364     A.U. after   14 cycles
             Convg  =    0.7722D-08             -V/T =  2.0093
 KE= 4.739492004132D+02 PE=-2.255006894579D+03 EE= 7.311922045522D+02
 Leave Link  502 at Thu Sep 30 10:31:22 2021, MaxMem=  805306368 cpu:     108.9
 (Enter /sw/target/amd/app/gaussian/Gaussian09RevA.02_gcc-4.9.2/g09/l508.exe)
 QCSCF skips out because SCF is already converged.
 Leave Link  508 at Thu Sep 30 10:31:22 2021, MaxMem=  805306368 cpu:       0.0
 (Enter /sw/target/amd/app/gaussian/Gaussian09RevA.02_gcc-4.9.2/g09/l601.exe)
 Copying SCF densities to generalized density rwf, IOpCl= 0 IROHF=0.

 **********************************************************************

            Population analysis using the SCF density.

 **********************************************************************

 Orbital symmetries:
       Occupied  (A) (A) (A) (A) (A) (A) (A) (A) (A) (A) (A) (A)
                 (A) (A) (A) (A) (A) (A) (A) (A) (A) (A) (A) (A)
                 (A) (A) (A) (A) (A) (A) (A) (A) (A) (A) (A) (A)
                 (A) (A) (A)
       Virtual   (A) (A) (A) (A) (A) (A) (A) (A) (A) (A) (A) (A)
                 (A) (A) (A) (A) (A) (A) (A) (A) (A) (A) (A) (A)
                 (A) (A) (A) (A) (A) (A) (A) (A) (A) (A) (A) (A)
                 (A) (A) (A) (A) (A) (A) (A) (A) (A) (A) (A) (A)
                 (A) (A) (A) (A) (A) (A) (A) (A) (A) (A) (A) (A)
                 (A) (A) (A) (A) (A) (A) (A) (A) (A) (A) (A) (A)
                 (A) (A) (A) (A) (A) (A) (A) (A) (A) (A) (A) (A)
                 (A) (A) (A) (A) (A) (A) (A) (A) (A) (A) (A) (A)
                 (A) (A) (A) (A) (A) (A) (A) (A) (A) (A) (A) (A)
                 (A) (A) (A) (A) (A) (A) (A) (A) (A) (A) (A) (A)
                 (A) (A) (A) (A) (A) (A) (A) (A) (A) (A) (A) (A)
                 (A) (A) (A) (A) (A) (A) (A) (A) (A) (A) (A) (A)
 The electronic state is 1-A.
 Alpha  occ. eigenvalues --  -19.16293 -14.37219 -10.22997 -10.22957 -10.21353
 Alpha  occ. eigenvalues --  -10.20370 -10.18493 -10.17439 -10.17390 -10.17309
 Alpha  occ. eigenvalues --  -10.16585  -1.04762  -0.97538  -0.83020  -0.77400
 Alpha  occ. eigenvalues --   -0.73789  -0.71085  -0.68654  -0.61101  -0.58912
 Alpha  occ. eigenvalues --   -0.57127  -0.53633  -0.50346  -0.48134  -0.45843
 Alpha  occ. eigenvalues --   -0.45341  -0.43366  -0.41416  -0.41304  -0.39686
 Alpha  occ. eigenvalues --   -0.38949  -0.38065  -0.35181  -0.34361  -0.31687
 Alpha  occ. eigenvalues --   -0.28683  -0.26756  -0.19948  -0.19143
 Alpha virt. eigenvalues --   -0.00361   0.04882   0.07852   0.08071   0.10785
 Alpha virt. eigenvalues --    0.11814   0.13811   0.14274   0.16142   0.16472
 Alpha virt. eigenvalues --    0.17413   0.18652   0.19506   0.19839   0.22336
 Alpha virt. eigenvalues --    0.26394   0.27310   0.29125   0.32436   0.34956
 Alpha virt. eigenvalues --    0.38279   0.41024   0.45276   0.49406   0.52137
 Alpha virt. eigenvalues --    0.52680   0.52854   0.54061   0.55880   0.56683
 Alpha virt. eigenvalues --    0.57404   0.58594   0.59285   0.60086   0.61307
 Alpha virt. eigenvalues --    0.61956   0.63154   0.63476   0.64912   0.65480
 Alpha virt. eigenvalues --    0.66514   0.70017   0.73842   0.75918   0.78087
 Alpha virt. eigenvalues --    0.81659   0.82248   0.82801   0.84751   0.85172
 Alpha virt. eigenvalues --    0.85729   0.87157   0.88027   0.88853   0.90847
 Alpha virt. eigenvalues --    0.92877   0.94546   0.95322   0.96476   1.00529
 Alpha virt. eigenvalues --    1.03740   1.04695   1.06005   1.06708   1.12923
 Alpha virt. eigenvalues --    1.17717   1.20833   1.22368   1.24295   1.25367
 Alpha virt. eigenvalues --    1.30355   1.33585   1.35721   1.38784   1.39578
 Alpha virt. eigenvalues --    1.41652   1.42282   1.46419   1.48204   1.48701
 Alpha virt. eigenvalues --    1.49881   1.51081   1.54145   1.57522   1.62515
 Alpha virt. eigenvalues --    1.70483   1.76568   1.80673   1.82399   1.87676
 Alpha virt. eigenvalues --    1.88885   1.90540   1.91829   1.95080   1.95745
 Alpha virt. eigenvalues --    1.99882   2.00665   2.02557   2.05655   2.08937
 Alpha virt. eigenvalues --    2.11059   2.12541   2.13011   2.14645   2.21253
 Alpha virt. eigenvalues --    2.23009   2.25153   2.25324   2.26994   2.30047
 Alpha virt. eigenvalues --    2.33627   2.34873   2.39568   2.41633   2.43155
 Alpha virt. eigenvalues --    2.50212   2.52107   2.57636   2.61130   2.64147
 Alpha virt. eigenvalues --    2.66560   2.69717   2.72641   2.75047   2.79706
 Alpha virt. eigenvalues --    2.83076   2.90305   2.93120   3.01288   3.09203
 Alpha virt. eigenvalues --    3.11482   3.27872   3.46974   4.00325   4.06189
 Alpha virt. eigenvalues --    4.10915   4.14637   4.16076   4.25707   4.33635
 Alpha virt. eigenvalues --    4.39512   4.44995   4.53399   4.84001
          Condensed to atoms (all electrons):
              1          2          3          4          5          6
     1  C    4.891721   0.253716  -0.046005   0.004001  -0.000144   0.000009
     2  O    0.253716   8.208092   0.271910  -0.053025   0.003360   0.000273
     3  C   -0.046005   0.271910   4.556885   0.521460  -0.010503  -0.042278
     4  C    0.004001  -0.053025   0.521460   4.992574   0.516852  -0.006186
     5  C   -0.000144   0.003360  -0.010503   0.516852   5.073559   0.474816
     6  C    0.000009   0.000273  -0.042278  -0.006186   0.474816   4.751271
     7  C    0.000520   0.002766   0.021435  -0.031507  -0.055063   0.486577
     8  C   -0.007788  -0.057537   0.429074  -0.060025  -0.066632  -0.054231
     9  C   -0.000009  -0.000032   0.005946  -0.000168   0.017387  -0.016710
    10  C    0.000000   0.000000  -0.000221   0.000035   0.003695  -0.114853
    11  N   -0.000000  -0.000000  -0.000268   0.005339  -0.096174   0.260835
    12  H    0.382443  -0.031739   0.003295  -0.000098   0.000004  -0.000000
    13  H    0.360623  -0.036455  -0.002729   0.000404  -0.000020  -0.000009
    14  H    0.365869  -0.037035  -0.005434  -0.000148   0.000006   0.000001
    15  H   -0.000179   0.000082  -0.033482   0.342607  -0.040981   0.003440
    16  H    0.000003  -0.000055   0.003742  -0.037736   0.348260  -0.039145
    17  H    0.005229  -0.006835  -0.049589   0.004544   0.000511   0.005685
    18  H   -0.000000   0.000000  -0.000058   0.000002  -0.000175   0.008358
    19  H   -0.000000  -0.000000   0.000003   0.000001  -0.000132   0.005628
    20  H    0.000000  -0.000000  -0.000007  -0.000073  -0.004462  -0.027989
              7          8          9         10         11         12
     1  C    0.000520  -0.007788  -0.000009   0.000000  -0.000000   0.382443
     2  O    0.002766  -0.057537  -0.000032   0.000000  -0.000000  -0.031739
     3  C    0.021435   0.429074   0.005946  -0.000221  -0.000268   0.003295
     4  C   -0.031507  -0.060025  -0.000168   0.000035   0.005339  -0.000098
     5  C   -0.055063  -0.066632   0.017387   0.003695  -0.096174   0.000004
     6  C    0.486577  -0.054231  -0.016710  -0.114853   0.260835  -0.000000
     7  C    4.663527   0.430939   0.441879   0.000755  -0.042235   0.000007
     8  C    0.430939   5.393543  -0.102690   0.011338   0.014238   0.000194
     9  C    0.441879  -0.102690   5.116311   0.535947  -0.085451  -0.000000
    10  C    0.000755   0.011338   0.535947   4.874927   0.357065  -0.000000
    11  N   -0.042235   0.014238  -0.085451   0.357065   6.994729  -0.000000
    12  H    0.000007   0.000194  -0.000000  -0.000000  -0.000000   0.553693
    13  H   -0.000317   0.006986  -0.000007   0.000000   0.000000  -0.032132
    14  H   -0.000144   0.003673  -0.000003   0.000000   0.000000  -0.037260
    15  H    0.000379   0.007574   0.000005   0.000003  -0.000096  -0.000032
    16  H    0.004678   0.000381  -0.000283  -0.000063  -0.006029  -0.000000
    17  H   -0.035547   0.345724  -0.006581  -0.000155  -0.000130  -0.000127
    18  H   -0.035353  -0.007138   0.364146  -0.053981   0.004550   0.000000
    19  H    0.001833  -0.000150  -0.030842   0.367593  -0.048393  -0.000000
    20  H    0.007139  -0.000152   0.005300  -0.033430   0.320854   0.000000
             13         14         15         16         17         18
     1  C    0.360623   0.365869  -0.000179   0.000003   0.005229  -0.000000
     2  O   -0.036455  -0.037035   0.000082  -0.000055  -0.006835   0.000000
     3  C   -0.002729  -0.005434  -0.033482   0.003742  -0.049589  -0.000058
     4  C    0.000404  -0.000148   0.342607  -0.037736   0.004544   0.000002
     5  C   -0.000020   0.000006  -0.040981   0.348260   0.000511  -0.000175
     6  C   -0.000009   0.000001   0.003440  -0.039145   0.005685   0.008358
     7  C   -0.000317  -0.000144   0.000379   0.004678  -0.035547  -0.035353
     8  C    0.006986   0.003673   0.007574   0.000381   0.345724  -0.007138
     9  C   -0.000007  -0.000003   0.000005  -0.000283  -0.006581   0.364146
    10  C    0.000000   0.000000   0.000003  -0.000063  -0.000155  -0.053981
    11  N    0.000000   0.000000  -0.000096  -0.006029  -0.000130   0.004550
    12  H   -0.032132  -0.037260  -0.000032  -0.000000  -0.000127   0.000000
    13  H    0.599326  -0.047337   0.000037   0.000000   0.001340  -0.000000
    14  H   -0.047337   0.607153   0.000029  -0.000000   0.002378  -0.000001
    15  H    0.000037   0.000029   0.596113  -0.006022  -0.000162  -0.000000
    16  H    0.000000  -0.000000  -0.006022   0.607569   0.000018   0.000003
    17  H    0.001340   0.002378  -0.000162   0.000018   0.608006   0.002883
    18  H   -0.000000  -0.000001  -0.000000   0.000003   0.002883   0.596516
    19  H    0.000000   0.000000  -0.000000   0.000001  -0.000001  -0.001112
    20  H   -0.000000  -0.000000  -0.000002   0.002849   0.000005  -0.000119
             19         20
     1  C   -0.000000   0.000000
     2  O   -0.000000  -0.000000
     3  C    0.000003  -0.000007
     4  C    0.000001  -0.000073
     5  C   -0.000132  -0.004462
     6  C    0.005628  -0.027989
     7  C    0.001833   0.007139
     8  C   -0.000150  -0.000152
     9  C   -0.030842   0.005300
    10  C    0.367593  -0.033430
    11  N   -0.048393   0.320854
    12  H   -0.000000   0.000000
    13  H    0.000000  -0.000000
    14  H    0.000000  -0.000000
    15  H   -0.000000  -0.000002
    16  H    0.000001   0.002849
    17  H   -0.000001   0.000005
    18  H   -0.001112  -0.000119
    19  H    0.558192  -0.002369
    20  H   -0.002369   0.408912
 Mulliken atomic charges:
              1
     1  C   -0.210008
     2  O   -0.517486
     3  C    0.376825
     4  C   -0.198853
     5  C   -0.164163
     6  C    0.304510
     7  C    0.137731
     8  C   -0.287319
     9  C   -0.244144
    10  C    0.051345
    11  N   -0.678835
    12  H    0.161754
    13  H    0.150293
    14  H    0.148252
    15  H    0.130689
    16  H    0.121832
    17  H    0.122805
    18  H    0.121481
    19  H    0.149748
    20  H    0.323545
 Sum of Mulliken atomic charges =  -0.00000
 Mulliken charges with hydrogens summed into heavy atoms:
              1
     1  C    0.250290
     2  O   -0.517486
     3  C    0.376825
     4  C   -0.068164
     5  C   -0.042331
     6  C    0.304510
     7  C    0.137731
     8  C   -0.164514
     9  C   -0.122664
    10  C    0.201093
    11  N   -0.355290
 Sum of Mulliken charges with hydrogens summed into heavy atoms =  -0.00000
 Electronic spatial extent (au):  <R**2>=           1831.0498
 Charge=             -0.0000 electrons
 Dipole moment (field-independent basis, Debye):
    X=              1.7642    Y=             -0.1279    Z=              0.4328  Tot=              1.8210
 Quadrupole moment (field-independent basis, Debye-Ang):
   XX=            -49.4314   YY=            -56.8385   ZZ=            -67.5855
   XY=              7.9812   XZ=             -0.5255   YZ=              0.3869
 Traceless Quadrupole moment (field-independent basis, Debye-Ang):
   XX=              8.5204   YY=              1.1133   ZZ=             -9.6337
   XY=              7.9812   XZ=             -0.5255   YZ=              0.3869
 Octapole moment (field-independent basis, Debye-Ang**2):
  XXX=             25.2116  YYY=              6.7608  ZZZ=              0.4696  XYY=              2.9320
  XXY=             -3.9054  XXZ=              5.9509  XZZ=             -7.3645  YZZ=              0.1039
  YYZ=             -0.0932  XYZ=              0.9807
 Hexadecapole moment (field-independent basis, Debye-Ang**3):
 XXXX=          -1490.1486 YYYY=           -510.3664 ZZZZ=            -77.1311 XXXY=             85.7232
 XXXZ=             -4.3222 YYYX=             12.2476 YYYZ=              3.1883 ZZZX=              0.3302
 ZZZY=             -0.7333 XXYY=           -347.0352 XXZZ=           -325.4934 YYZZ=           -113.9995
 XXYZ=              1.3756 YYXZ=              1.9834 ZZXY=              7.4391
 N-N= 5.715309582491D+02 E-N=-2.255006900826D+03  KE= 4.739492004132D+02
 No NMR shielding tensors so no spin-rotation constants.
 Leave Link  601 at Thu Sep 30 10:31:24 2021, MaxMem=  805306368 cpu:       0.8
 (Enter /sw/target/amd/app/gaussian/Gaussian09RevA.02_gcc-4.9.2/g09/l701.exe)
 Compute integral first derivatives.
 ... and contract with generalized density number  0.
 Leave Link  701 at Thu Sep 30 10:31:25 2021, MaxMem=  805306368 cpu:       0.8
 (Enter /sw/target/amd/app/gaussian/Gaussian09RevA.02_gcc-4.9.2/g09/l702.exe)
 L702 exits ... SP integral derivatives will be done elsewhere.
 Leave Link  702 at Thu Sep 30 10:31:26 2021, MaxMem=  805306368 cpu:       0.1
 (Enter /sw/target/amd/app/gaussian/Gaussian09RevA.02_gcc-4.9.2/g09/l703.exe)
 Compute integral first derivatives, UseDBF=F ICtDFT=           0.
 Integral derivatives from FoFDir, PRISM(SPDF).
 Calling FoFJK, ICntrl=      2127 FMM=F ISym2X=0 I1Cent= 0 IOpClX= 0 NMat=1 NMatS=1 NMatT=0.
 FoFCou: FMM=F IPFlag=           0 FMFlag=      100000 FMFlg1=         800
         NFxFlg=           0 DoJE=F BraDBF=F KetDBF=F FulRan=T
         Omega=  0.000000  0.000000  1.000000  0.000000  0.000000 ICntrl=    2127 IOpCl=  0
         NMat0=    1 NMatS0=    1 NMatT0=    0 NMatD0=    1 NMtDS0=    0 NMtDT0=    0
         I1Cent=           0 NGrid=           0.
 Symmetry not used in FoFCou.
 Leave Link  703 at Thu Sep 30 10:32:41 2021, MaxMem=  805306368 cpu:      46.0
 (Enter /sw/target/amd/app/gaussian/Gaussian09RevA.02_gcc-4.9.2/g09/l716.exe)
 Dipole        = 6.94090620D-01-5.03258136D-02 1.70281328D-01
 ***** Axes restored to original set *****
 -------------------------------------------------------------------
 Center     Atomic                   Forces (Hartrees/Bohr)
 Number     Number              X              Y              Z
 -------------------------------------------------------------------
      1        6          -0.005926791   -0.000745709   -0.002785594
      2        8           0.003790191    0.005448568   -0.005748570
      3        6           0.009673490    0.010006654    0.005478492
      4        6          -0.003689288   -0.023787887    0.012336382
      5        6          -0.003862601    0.008457961   -0.009044350
      6        6          -0.006869961   -0.017152490    0.003977784
      7        6          -0.003350227    0.014216512   -0.012345805
      8        6          -0.001555455    0.001954224   -0.003777437
      9        6           0.012423942    0.006577596    0.007686392
     10        6          -0.000557596    0.007980466   -0.005840032
     11        7          -0.004391926   -0.018617757    0.008580282
     12        1          -0.002864176   -0.003023484    0.001715110
     13        1           0.002683568    0.001115336    0.003116886
     14        1           0.003635305    0.001697097    0.001344593
     15        1           0.001424754    0.002465703   -0.000809435
     16        1          -0.000703388   -0.000932912    0.000078051
     17        1          -0.000641237    0.001050568   -0.002553899
     18        1           0.000131557    0.000016644   -0.000050569
     19        1          -0.000053047    0.000956898   -0.000656281
     20        1           0.000702885    0.002316013   -0.000701997
 -------------------------------------------------------------------
 Cartesian Forces:  Max     0.023787887 RMS     0.006909231
 Leave Link  716 at Thu Sep 30 10:32:42 2021, MaxMem=  805306368 cpu:       0.1
 (Enter /sw/target/amd/app/gaussian/Gaussian09RevA.02_gcc-4.9.2/g09/l103.exe)

 GradGradGradGradGradGradGradGradGradGradGradGradGradGradGradGradGradGrad
 Berny optimization.
 Internal  Forces:  Max     0.021630866 RMS     0.004014004
 Search for a local minimum.
 Step number   1 out of a maximum of  110
 All quantities printed in internal units (Hartrees-Bohrs-Radians)
 RMS Force = .40140D-02 SwitMx=.10000D-02 MixMth= 1
 Mixed Optimization -- RFO/linear search
 Second derivative matrix not updated -- first step.
     Eigenvalues ---    0.01396   0.01935   0.01994   0.02018   0.02039
     Eigenvalues ---    0.02050   0.02085   0.02086   0.02103   0.02107
     Eigenvalues ---    0.02111   0.02117   0.02125   0.02155   0.02283
     Eigenvalues ---    0.09977   0.10542   0.15999   0.16000   0.16000
     Eigenvalues ---    0.16000   0.16000   0.16000   0.16000   0.16000
     Eigenvalues ---    0.16000   0.22186   0.22522   0.23512   0.24082
     Eigenvalues ---    0.24720   0.24997   0.25000   0.34190   0.34287
     Eigenvalues ---    0.34321   0.35041   0.35431   0.35646   0.35764
     Eigenvalues ---    0.35816   0.38701   0.39758   0.41202   0.42106
     Eigenvalues ---    0.44019   0.44967   0.45780   0.45813   0.46051
     Eigenvalues ---    0.46815   0.48801   0.50141   0.509221000.00000
     Eigenvalues --- 1000.000001000.000001000.000001000.000001000.00000
     Eigenvalues --- 1000.000001000.000001000.000001000.000001000.00000
     Eigenvalues --- 1000.000001000.000001000.000001000.000001000.00000
     Eigenvalues --- 1000.000001000.000001000.000001000.000001000.00000
     Eigenvalues --- 1000.000001000.000001000.000001000.000001000.00000
     Eigenvalues --- 1000.000001000.000001000.000001000.000001000.00000
     Eigenvalues --- 1000.000001000.000001000.000001000.000001000.00000
     Eigenvalues --- 1000.000001000.000001000.000001000.000001000.00000
     Eigenvalues --- 1000.000001000.000001000.000001000.000001000.00000
 RFO step:  Lambda=-4.89405738D-03 EMin= 1.39587650D-02
 Linear search not attempted -- first point.
 Iteration  1 RMS(Cart)=  0.04498543 RMS(Int)=  0.00104461
 Iteration  2 RMS(Cart)=  0.00143047 RMS(Int)=  0.00007130
 Iteration  3 RMS(Cart)=  0.00000178 RMS(Int)=  0.00007128
 Iteration  4 RMS(Cart)=  0.00000000 RMS(Int)=  0.00007128
 Variable       Old X    -DE/DX   Delta X   Delta X   Delta X     New X
                                 (Linear)    (Quad)   (Total)
    R1        2.68789  -0.00339   0.00000  -0.00795  -0.00795   2.67993
    R2        2.06792  -0.00061   0.00000  -0.00174  -0.00174   2.06618
    R3        2.07010   0.00138   0.00000   0.00399   0.00399   2.07410
    R4        2.06848   0.00213   0.00000   0.00612   0.00612   2.07460
    R5        2.58946   0.00302   0.00000   0.00588   0.00588   2.59534
    R6        2.63832   0.01675   0.00000   0.03456   0.03458   2.67290
    R7        2.64593  -0.00733   0.00000  -0.01642  -0.01643   2.62949
    R8        2.64372  -0.01009   0.00000  -0.02260  -0.02257   2.62115
    R9        2.05608  -0.00169   0.00000  -0.00476  -0.00476   2.05132
   R10        2.64123   0.00102   0.00000   0.00273   0.00274   2.64397
   R11        2.04980   0.00110   0.00000   0.00308   0.00308   2.05288
   R12        2.63544   0.02163   0.00000   0.04959   0.04952   2.68495
   R13        2.60122   0.00561   0.00000   0.01242   0.01245   2.61367
   R14        2.66707  -0.00090   0.00000  -0.00122  -0.00125   2.66583
   R15        2.68893   0.00845   0.00000   0.01990   0.01984   2.70877
   R16        2.04638   0.00134   0.00000   0.00371   0.00371   2.05009
   R17        2.60111   0.00020   0.00000  -0.00175  -0.00172   2.59939
   R18        2.04452   0.00009   0.00000   0.00024   0.00024   2.04476
   R19        2.58809   0.01131   0.00000   0.02064   0.02072   2.60881
   R20        2.04371  -0.00069   0.00000  -0.00189  -0.00189   2.04182
   R21        1.91043  -0.00245   0.00000  -0.00529  -0.00529   1.90513
    A1        1.88055  -0.00579   0.00000  -0.03196  -0.03189   1.84866
    A2        1.94243   0.00020   0.00000  -0.00029  -0.00026   1.94217
    A3        1.93844   0.00265   0.00000   0.01428   0.01434   1.95279
    A4        1.87914   0.00407   0.00000   0.02816   0.02820   1.90734
    A5        1.87947   0.00265   0.00000   0.01888   0.01899   1.89846
    A6        1.94064  -0.00372   0.00000  -0.02805  -0.02802   1.91262
    A7        2.03050   0.00474   0.00000   0.01859   0.01859   2.04909
    A8        1.99979   0.00108   0.00000   0.00518   0.00520   2.00499
    A9        2.18836  -0.00577   0.00000  -0.02168  -0.02166   2.16671
   A10        2.09494   0.00469   0.00000   0.01648   0.01644   2.11138
   A11        2.12370   0.00013   0.00000  -0.00209  -0.00211   2.12159
   A12        2.08046  -0.00254   0.00000  -0.01391  -0.01394   2.06652
   A13        2.07899   0.00241   0.00000   0.01611   0.01609   2.09507
   A14        2.04748   0.00044   0.00000   0.00296   0.00295   2.05044
   A15        2.10905  -0.00060   0.00000  -0.00381  -0.00381   2.10524
   A16        2.12665   0.00017   0.00000   0.00085   0.00085   2.12750
   A17        2.13979  -0.00273   0.00000  -0.00980  -0.00982   2.12997
   A18        2.27354   0.00268   0.00000   0.00447   0.00452   2.27806
   A19        1.86985   0.00006   0.00000   0.00533   0.00529   1.87514
   A20        2.07637   0.00140   0.00000   0.00807   0.00806   2.08443
   A21        1.86880  -0.00086   0.00000  -0.00075  -0.00085   1.86795
   A22        2.33801  -0.00054   0.00000  -0.00732  -0.00720   2.33081
   A23        2.08385  -0.00390   0.00000  -0.01522  -0.01531   2.06854
   A24        2.13127  -0.00050   0.00000  -0.00721  -0.00717   2.12410
   A25        2.06804   0.00440   0.00000   0.02247   0.02251   2.09054
   A26        1.88101  -0.00300   0.00000  -0.01651  -0.01658   1.86443
   A27        2.20966   0.00152   0.00000   0.00839   0.00842   2.21808
   A28        2.19251   0.00148   0.00000   0.00814   0.00816   2.20067
   A29        1.88106   0.00947   0.00000   0.03613   0.03620   1.91726
   A30        2.29248  -0.00569   0.00000  -0.02389  -0.02392   2.26856
   A31        2.10964  -0.00377   0.00000  -0.01225  -0.01228   2.09736
   A32        1.92401  -0.00567   0.00000  -0.02409  -0.02403   1.89999
   A33        2.17261   0.00339   0.00000   0.01541   0.01537   2.18799
   A34        2.18656   0.00228   0.00000   0.00868   0.00865   2.19521
    D1        3.00815  -0.00002   0.00000  -0.00571  -0.00565   3.00250
    D2        0.95176  -0.00155   0.00000  -0.02025  -0.02025   0.93151
    D3       -1.22050   0.00119   0.00000   0.00593   0.00587  -1.21463
    D4       -2.88273  -0.00194   0.00000  -0.07593  -0.07589  -2.95862
    D5        0.27328  -0.00193   0.00000  -0.07456  -0.07459   0.19869
    D6        3.13205   0.00063   0.00000   0.02433   0.02441  -3.12673
    D7        0.00067   0.00027   0.00000   0.01113   0.01133   0.01201
    D8       -0.02313   0.00054   0.00000   0.02270   0.02282  -0.00031
    D9        3.12868   0.00017   0.00000   0.00951   0.00974   3.13842
   D10       -3.13648  -0.00046   0.00000  -0.01674  -0.01661   3.13009
   D11        0.01247  -0.00057   0.00000  -0.02186  -0.02177  -0.00930
   D12        0.02026  -0.00042   0.00000  -0.01520  -0.01513   0.00513
   D13       -3.11397  -0.00054   0.00000  -0.02031  -0.02029  -3.13426
   D14        0.00970  -0.00045   0.00000  -0.01539  -0.01523  -0.00553
   D15       -3.13064  -0.00038   0.00000  -0.01306  -0.01298   3.13956
   D16        3.14108  -0.00012   0.00000  -0.00237  -0.00212   3.13896
   D17        0.00074  -0.00004   0.00000  -0.00004   0.00013   0.00087
   D18        0.00637  -0.00003   0.00000   0.00022   0.00031   0.00668
   D19       -3.13738  -0.00007   0.00000  -0.00206  -0.00205  -3.13944
   D20       -3.13649  -0.00010   0.00000  -0.00214  -0.00198  -3.13846
   D21        0.00294  -0.00014   0.00000  -0.00442  -0.00434  -0.00139
   D22       -0.00878   0.00017   0.00000   0.00676   0.00679  -0.00199
   D23        3.13132   0.00026   0.00000   0.01023   0.01028  -3.14159
   D24        3.13454   0.00020   0.00000   0.00858   0.00867  -3.13998
   D25       -0.00855   0.00029   0.00000   0.01205   0.01215   0.00361
   D26       -3.13329  -0.00017   0.00000  -0.00604  -0.00595  -3.13924
   D27        0.00718  -0.00010   0.00000  -0.00336  -0.00328   0.00390
   D28        0.00639  -0.00021   0.00000  -0.00806  -0.00806  -0.00166
   D29       -3.13632  -0.00014   0.00000  -0.00539  -0.00539   3.14147
   D30       -0.00472   0.00003   0.00000   0.00082   0.00075  -0.00397
   D31        3.12977   0.00013   0.00000   0.00563   0.00568   3.13545
   D32        3.13885  -0.00009   0.00000  -0.00381  -0.00386   3.13499
   D33       -0.00984   0.00001   0.00000   0.00101   0.00107  -0.00877
   D34        0.00773  -0.00031   0.00000  -0.01203  -0.01193  -0.00420
   D35       -3.13676  -0.00016   0.00000  -0.00605  -0.00597   3.14045
   D36       -3.13568  -0.00020   0.00000  -0.00779  -0.00772   3.13978
   D37        0.00302  -0.00005   0.00000  -0.00181  -0.00177   0.00125
   D38       -0.00387   0.00017   0.00000   0.00710   0.00713   0.00326
   D39        3.13811   0.00012   0.00000   0.00481   0.00484  -3.14024
   D40        3.14058   0.00002   0.00000   0.00119   0.00125  -3.14135
   D41       -0.00063  -0.00004   0.00000  -0.00110  -0.00104  -0.00167
   D42       -0.00153   0.00000   0.00000   0.00050   0.00050  -0.00103
   D43        3.14119  -0.00007   0.00000  -0.00220  -0.00218   3.13901
   D44        3.13973   0.00005   0.00000   0.00249   0.00253  -3.14093
   D45       -0.00074  -0.00002   0.00000  -0.00021  -0.00015  -0.00089
         Item               Value     Threshold  Converged?
 Maximum Force            0.021631     0.000450     NO 
 RMS     Force            0.004014     0.000300     NO 
 Maximum Displacement     0.198661     0.001800     NO 
 RMS     Displacement     0.045155     0.001200     NO 
 Predicted change in Energy=-2.522442D-03
 GradGradGradGradGradGradGradGradGradGradGradGradGradGradGradGradGradGrad

 Leave Link  103 at Thu Sep 30 10:32:48 2021, MaxMem=  805306368 cpu:       2.6
 (Enter /sw/target/amd/app/gaussian/Gaussian09RevA.02_gcc-4.9.2/g09/l202.exe)
                          Input orientation:                          
 ---------------------------------------------------------------------
 Center     Atomic      Atomic             Coordinates (Angstroms)
 Number     Number       Type             X           Y           Z
 ---------------------------------------------------------------------
      1          6           0        3.118952    0.884300   -0.743443
      2          8           0        2.525058   -0.257487   -0.147800
      3          6           0        3.167670   -0.814198    0.930777
      4          6           0        2.666317   -2.072690    1.337564
      5          6           0        3.201495   -2.751050    2.422610
      6          6           0        4.265550   -2.146727    3.100946
      7          6           0        4.786185   -0.882942    2.712996
      8          6           0        4.221204   -0.209649    1.609578
      9          6           0        5.855324   -0.574187    3.616491
     10          6           0        5.944833   -1.623880    4.500929
     11          7           0        4.991826   -2.575383    4.197179
     12          1           0        2.545534    1.080299   -1.653526
     13          1           0        4.166993    0.695323   -1.009046
     14          1           0        3.057762    1.764918   -0.090754
     15          1           0        1.841292   -2.504635    0.779803
     16          1           0        2.803348   -3.716132    2.722985
     17          1           0        4.610539    0.758213    1.311952
     18          1           0        6.476282    0.311939    3.614073
     19          1           0        6.618148   -1.775773    5.332206
     20          1           0        4.846760   -3.442647    4.690310
 ---------------------------------------------------------------------
                    Distance matrix (angstroms):
                    1          2          3          4          5
     1  C    0.000000
     2  O    1.418160   0.000000
     3  C    2.385432   1.373392   0.000000
     4  C    3.644072   2.349728   1.414437   0.000000
     5  C    4.821460   3.644507   2.445016   1.387052   0.000000
     6  C    5.028036   4.141605   2.773195   2.381710   1.399128
     7  C    4.224901   3.699736   2.408448   2.793055   2.466859
     8  C    2.819290   2.442862   1.391468   2.441841   2.856492
     9  C    5.350135   5.035957   3.807119   4.196283   3.634130
    10  C    6.463746   5.930646   4.595019   4.577878   3.621577
    11  N    6.315600   5.507851   4.135057   3.719958   2.526903
    12  H    1.093377   2.014274   3.264169   4.347706   5.632442
    13  H    1.097564   2.084596   2.653340   3.926895   4.958421
    14  H    1.097832   2.092164   2.776229   4.113461   5.170264
    15  H    3.929068   2.525403   2.153984   1.085514   2.147018
    16  H    5.768857   4.503452   3.430154   2.153850   1.086337
    17  H    2.542712   2.740758   2.167866   3.434336   3.941306
    18  H    5.530571   5.485263   4.406266   5.038331   4.639582
    19  H    7.498925   7.006357   5.674769   5.626925   4.592432
    20  H    7.157756   6.240421   4.884893   4.227531   2.885770
                    6          7          8          9         10
     6  C    0.000000
     7  C    1.420816   0.000000
     8  C    2.445080   1.410694   0.000000
     9  C    2.294788   1.433420   2.613606   0.000000
    10  C    2.247957   2.255694   3.651144   1.375535   0.000000
    11  N    1.383093   2.260407   3.589739   2.255574   1.380523
    12  H    5.998097   5.285958   3.888404   6.439342   7.532936
    13  H    4.997900   4.089978   2.771120   5.085048   6.236926
    14  H    5.191019   4.226065   2.853707   5.200138   6.395521
    15  H    3.375327   3.878082   3.408734   5.280709   5.609060
    16  H    2.178055   3.458136   3.942767   4.470429   4.172233
    17  H    3.429022   2.164986   1.084859   2.938653   4.198128
    18  H    3.345994   2.257456   3.061933   1.082041   2.194618
    19  H    3.263563   3.318659   4.696386   2.229212   1.080484
    20  H    2.131500   3.235047   4.509380   3.224648   2.132965
                   11         12         13         14         15
    11  N    0.000000
    12  H    7.319775   0.000000
    13  H    6.203438   1.786810   0.000000
    14  H    6.400405   1.781386   1.793791   0.000000
    15  H    4.648583   4.389624   4.341497   4.524020   0.000000
    16  H    2.874716   6.498159   5.937047   6.166341   2.483794
    17  H    4.425242   3.627954   2.363836   2.322102   4.312550
    18  H    3.298522   6.617308   5.181991   5.246253   6.119584
    19  H    2.138361   8.575767   7.233668   7.390625   6.638822
    20  H    1.008152   8.123850   7.075842   7.292313   5.020435
                   16         17         18         19         20
    16  H    0.000000
    17  H    5.027595   0.000000
    18  H    5.523571   2.996651   0.000000
    19  H    5.012557   5.158877   2.707517   0.000000
    20  H    2.849684   5.395955   4.232085   2.515614   0.000000
 Stoichiometry    C9H9NO
 Framework group  C1[X(C9H9NO)]
 Deg. of freedom    54
 Full point group                 C1      NOp   1
 Largest Abelian subgroup         C1      NOp   1
 Largest concise Abelian subgroup C1      NOp   1
                         Standard orientation:                         
 ---------------------------------------------------------------------
 Center     Atomic      Atomic             Coordinates (Angstroms)
 Number     Number       Type             X           Y           Z
 ---------------------------------------------------------------------
      1          6           0       -3.437793   -0.975012    0.104354
      2          8           0       -2.804559    0.279599   -0.085763
      3          6           0       -1.432059    0.307576   -0.044926
      4          6           0       -0.864176    1.602455   -0.007099
      5          6           0        0.509596    1.792169    0.018838
      6          6           0        1.319169    0.651065    0.013079
      7          6           0        0.773340   -0.660141   -0.026030
      8          6           0       -0.627051   -0.827315   -0.057865
      9          6           0        1.877170   -1.574593   -0.020626
     10          6           0        3.023349   -0.814909    0.014770
     11          7           0        2.696421    0.526176    0.036056
     12          1           0       -4.507571   -0.762465    0.180987
     13          1           0       -3.096866   -1.457113    1.029554
     14          1           0       -3.271682   -1.650181   -0.745227
     15          1           0       -1.531197    2.458835   -0.001287
     16          1           0        0.929465    2.793721    0.045890
     17          1           0       -1.049819   -1.825770   -0.093573
     18          1           0        1.829274   -2.655341   -0.043027
     19          1           0        4.059315   -1.121564    0.028334
     20          1           0        3.351330    1.292089    0.065079
 ---------------------------------------------------------------------
 Rotational constants (GHZ):      2.8403340      0.7547750      0.5991829
 Leave Link  202 at Thu Sep 30 10:32:48 2021, MaxMem=  805306368 cpu:       0.0
 (Enter /sw/target/amd/app/gaussian/Gaussian09RevA.02_gcc-4.9.2/g09/l301.exe)
 Standard basis: 6-31G(d) (6D, 7F)
 Ernie: Thresh=  0.10000D-02 Tol=  0.10000D-05 Strict=F.
 There are   183 symmetry adapted basis functions of A   symmetry.
 Integral buffers will be    131072 words long.
 Raffenetti 2 integral format.
 Two-electron integral symmetry is turned on.
   183 basis functions,   344 primitive gaussians,   183 cartesian basis functions
    39 alpha electrons       39 beta electrons
       nuclear repulsion energy       570.1780784954 Hartrees.
 IExCor=  402 DFT=T Ex+Corr=B3LYP ExCW=0 ScaHFX=  0.200000
 ScaDFX=  0.800000  0.720000  1.000000  0.810000 ScalE2=  1.000000  1.000000
 IRadAn=      0 IRanWt=     -1 IRanGd=            0 ICorTp=0
 NAtoms=   20 NActive=   20 NUniq=   20 SFac= 7.50D-01 NAtFMM=   80 NAOKFM=F Big=F
 Leave Link  301 at Thu Sep 30 10:32:48 2021, MaxMem=  805306368 cpu:       0.1
 (Enter /sw/target/amd/app/gaussian/Gaussian09RevA.02_gcc-4.9.2/g09/l302.exe)
 NPDir=0 NMtPBC=     1 NCelOv=     1 NCel=       1 NClECP=     1 NCelD=      1
         NCelK=      1 NCelE2=     1 NClLst=     1 CellRange=     0.0.
 One-electron integrals computed using PRISM.
 NBasis=   183 RedAO= T  NBF=   183
 NBsUse=   183 1.00D-06 NBFU=   183
 Precomputing XC quadrature grid using
 IXCGrd= 2 IRadAn=           0 IRanWt=          -1 IRanGd=           0 AccXCQ= 1.00D-10.
 NRdTot=    1258 NPtTot=      159682 NUsed=      168761 NTot=      168793
 NSgBfM=   182   182   182   182   182 NAtAll=    20    20.
 Leave Link  302 at Thu Sep 30 10:32:51 2021, MaxMem=  805306368 cpu:       1.2
 (Enter /sw/target/amd/app/gaussian/Gaussian09RevA.02_gcc-4.9.2/g09/l303.exe)
 DipDrv:  MaxL=1.
 Leave Link  303 at Thu Sep 30 10:32:52 2021, MaxMem=  805306368 cpu:       0.1
 (Enter /sw/target/amd/app/gaussian/Gaussian09RevA.02_gcc-4.9.2/g09/l401.exe)
 Initial guess read from the read-write file.
 B after Tr=     0.000000    0.000000    0.000000
         Rot=    1.000000    0.000000    0.000000    0.000000 Ang=   0.00 deg.
 Guess basis will be translated and rotated to current coordinates.
 Initial guess orbital symmetries:
       Occupied  (A) (A) (A) (A) (A) (A) (A) (A) (A) (A) (A) (A)
                 (A) (A) (A) (A) (A) (A) (A) (A) (A) (A) (A) (A)
                 (A) (A) (A) (A) (A) (A) (A) (A) (A) (A) (A) (A)
                 (A) (A) (A)
       Virtual   (A) (A) (A) (A) (A) (A) (A) (A) (A) (A) (A) (A)
                 (A) (A) (A) (A) (A) (A) (A) (A) (A) (A) (A) (A)
                 (A) (A) (A) (A) (A) (A) (A) (A) (A) (A) (A) (A)
                 (A) (A) (A) (A) (A) (A) (A) (A) (A) (A) (A) (A)
                 (A) (A) (A) (A) (A) (A) (A) (A) (A) (A) (A) (A)
                 (A) (A) (A) (A) (A) (A) (A) (A) (A) (A) (A) (A)
                 (A) (A) (A) (A) (A) (A) (A) (A) (A) (A) (A) (A)
                 (A) (A) (A) (A) (A) (A) (A) (A) (A) (A) (A) (A)
                 (A) (A) (A) (A) (A) (A) (A) (A) (A) (A) (A) (A)
                 (A) (A) (A) (A) (A) (A) (A) (A) (A) (A) (A) (A)
                 (A) (A) (A) (A) (A) (A) (A) (A) (A) (A) (A) (A)
                 (A) (A) (A) (A) (A) (A) (A) (A) (A) (A) (A) (A)
 The electronic state of the initial guess is 1-A.
 Generating alternative initial guess.
 Harris functional with IExCor=  402 diagonalized for initial guess.
 ExpMin= 1.61D-01 ExpMax= 5.48D+03 ExpMxC= 8.25D+02 IAcc=1 IRadAn=         1 AccDes= 0.00D+00
 HarFok:  IExCor=  402 AccDes= 0.00D+00 IRadAn=         1 IDoV= 1
 ScaDFX=  1.000000  1.000000  1.000000  1.000000
 FoFCou: FMM=F IPFlag=           0 FMFlag=      100000 FMFlg1=           0
         NFxFlg=           0 DoJE=T BraDBF=F KetDBF=T FulRan=T
         Omega=  0.000000  0.000000  1.000000  0.000000  0.000000 ICntrl=     500 IOpCl=  0
         NMat0=    1 NMatS0=    1 NMatT0=    0 NMatD0=    1 NMtDS0=    0 NMtDT0=    0
         I1Cent=           4 NGrid=           0.
 Petite list used in FoFCou.
 Harris En= -478.390685959630    
 Leave Link  401 at Thu Sep 30 10:33:00 2021, MaxMem=  805306368 cpu:       5.5
 (Enter /sw/target/amd/app/gaussian/Gaussian09RevA.02_gcc-4.9.2/g09/l502.exe)
 Closed shell SCF:
 Requested convergence on RMS density matrix=1.00D-08 within  64 cycles.
 Requested convergence on MAX density matrix=1.00D-06.
 Requested convergence on             energy=1.00D-06.
 No special actions if energy rises.
 Using DIIS extrapolation, IDIIS=  1040.
 Integral symmetry usage will be decided dynamically.
       168568 words used for storage of precomputed grid.
 Keep R1 ints in memory in canonical form, NReq=145125594.
 IEnd=      277054 IEndB=      277054 NGot=   805306368 MDV=   663333317
 LenX=   663333317 LenY=   663299387
 Symmetry not used in FoFDir.
 MinBra= 0 MaxBra= 2 Meth= 1.
 IRaf=       0 NMat=   1 IRICut=       1 DoRegI=T DoRafI=F ISym2E= 0 JSym2E=0.
 Integral accuracy reduced to 1.0D-05 until final iterations.

 Cycle   1  Pass 0  IDiag  1:
 E= -478.332401809221    
 DIIS: error= 2.38D-03 at cycle   1 NSaved=   1.
 NSaved= 1 IEnMin= 1 EnMin= -478.332401809221     IErMin= 1 ErrMin= 2.38D-03
 ErrMax= 2.38D-03 EMaxC= 1.00D-01 BMatC= 2.40D-03 BMatP= 2.40D-03
 IDIUse=3 WtCom= 9.76D-01 WtEn= 2.38D-02
 Coeff-Com:  0.100D+01
 Coeff-En:   0.100D+01
 Coeff:      0.100D+01
 Gap=     0.197 Goal=   None    Shift=    0.000
 GapD=    0.197 DampG=1.000 DampE=1.000 DampFc=1.0000 IDamp=-1.
 RMSDP=5.41D-04 MaxDP=9.95D-03              OVMax= 2.36D-02

 Cycle   2  Pass 0  IDiag  1:
 E= -478.336875663276     Delta-E=       -0.004473854055 Rises=F Damp=F
 DIIS: error= 6.50D-04 at cycle   2 NSaved=   2.
 NSaved= 2 IEnMin= 2 EnMin= -478.336875663276     IErMin= 2 ErrMin= 6.50D-04
 ErrMax= 6.50D-04 EMaxC= 1.00D-01 BMatC= 1.28D-04 BMatP= 2.40D-03
 IDIUse=3 WtCom= 9.93D-01 WtEn= 6.50D-03
 Coeff-Com:  0.164D-01 0.984D+00
 Coeff-En:   0.000D+00 0.100D+01
 Coeff:      0.163D-01 0.984D+00
 Gap=     0.191 Goal=   None    Shift=    0.000
 RMSDP=1.43D-04 MaxDP=3.81D-03 DE=-4.47D-03 OVMax= 5.87D-03

 Cycle   3  Pass 0  IDiag  1:
 E= -478.336809931368     Delta-E=        0.000065731909 Rises=F Damp=F
 DIIS: error= 9.73D-04 at cycle   3 NSaved=   3.
 NSaved= 3 IEnMin= 2 EnMin= -478.336875663276     IErMin= 2 ErrMin= 6.50D-04
 ErrMax= 9.73D-04 EMaxC= 1.00D-01 BMatC= 2.18D-04 BMatP= 1.28D-04
 IDIUse=3 WtCom= 2.43D-01 WtEn= 7.57D-01
 Coeff-Com: -0.428D-01 0.593D+00 0.450D+00
 Coeff-En:   0.000D+00 0.595D+00 0.405D+00
 Coeff:     -0.104D-01 0.595D+00 0.416D+00
 Gap=     0.190 Goal=   None    Shift=    0.000
 RMSDP=8.75D-05 MaxDP=2.44D-03 DE= 6.57D-05 OVMax= 3.92D-03

 Cycle   4  Pass 0  IDiag  1:
 E= -478.337015966139     Delta-E=       -0.000206034771 Rises=F Damp=F
 DIIS: error= 8.09D-05 at cycle   4 NSaved=   4.
 NSaved= 4 IEnMin= 4 EnMin= -478.337015966139     IErMin= 4 ErrMin= 8.09D-05
 ErrMax= 8.09D-05 EMaxC= 1.00D-01 BMatC= 1.51D-06 BMatP= 1.28D-04
 IDIUse=1 WtCom= 1.00D+00 WtEn= 0.00D+00
 Coeff-Com: -0.155D-01 0.161D+00 0.140D+00 0.715D+00
 Coeff:     -0.155D-01 0.161D+00 0.140D+00 0.715D+00
 Gap=     0.190 Goal=   None    Shift=    0.000
 RMSDP=1.28D-05 MaxDP=3.44D-04 DE=-2.06D-04 OVMax= 8.24D-04

 Cycle   5  Pass 0  IDiag  1:
 E= -478.337016498787     Delta-E=       -0.000000532649 Rises=F Damp=F
 DIIS: error= 5.55D-05 at cycle   5 NSaved=   5.
 NSaved= 5 IEnMin= 5 EnMin= -478.337016498787     IErMin= 5 ErrMin= 5.55D-05
 ErrMax= 5.55D-05 EMaxC= 1.00D-01 BMatC= 1.09D-06 BMatP= 1.51D-06
 IDIUse=1 WtCom= 1.00D+00 WtEn= 0.00D+00
 Coeff-Com: -0.488D-02 0.335D-01 0.392D-01 0.467D+00 0.465D+00
 Coeff:     -0.488D-02 0.335D-01 0.392D-01 0.467D+00 0.465D+00
 Gap=     0.190 Goal=   None    Shift=    0.000
 RMSDP=6.87D-06 MaxDP=1.79D-04 DE=-5.33D-07 OVMax= 4.74D-04

 Initial convergence to 1.0D-05 achieved.  Increase integral accuracy.
 Cycle   6  Pass 1  IDiag  1:
 E= -478.336970070600     Delta-E=        0.000046428187 Rises=F Damp=F
 DIIS: error= 2.88D-05 at cycle   1 NSaved=   1.
 NSaved= 1 IEnMin= 1 EnMin= -478.336970070600     IErMin= 1 ErrMin= 2.88D-05
 ErrMax= 2.88D-05 EMaxC= 1.00D-01 BMatC= 1.19D-07 BMatP= 1.19D-07
 IDIUse=1 WtCom= 1.00D+00 WtEn= 0.00D+00
 Coeff-Com:  0.100D+01
 Coeff:      0.100D+01
 Gap=     0.190 Goal=   None    Shift=    0.000
 RMSDP=6.87D-06 MaxDP=1.79D-04 DE= 4.64D-05 OVMax= 2.59D-04

 Cycle   7  Pass 1  IDiag  1:
 E= -478.336970081680     Delta-E=       -0.000000011080 Rises=F Damp=F
 DIIS: error= 2.63D-05 at cycle   2 NSaved=   2.
 NSaved= 2 IEnMin= 2 EnMin= -478.336970081680     IErMin= 2 ErrMin= 2.63D-05
 ErrMax= 2.63D-05 EMaxC= 1.00D-01 BMatC= 1.30D-07 BMatP= 1.19D-07
 IDIUse=1 WtCom= 1.00D+00 WtEn= 0.00D+00
 Coeff-Com:  0.515D+00 0.485D+00
 Coeff:      0.515D+00 0.485D+00
 Gap=     0.190 Goal=   None    Shift=    0.000
 RMSDP=3.32D-06 MaxDP=8.49D-05 DE=-1.11D-08 OVMax= 2.48D-04

 Cycle   8  Pass 1  IDiag  1:
 E= -478.336970183707     Delta-E=       -0.000000102026 Rises=F Damp=F
 DIIS: error= 1.37D-05 at cycle   3 NSaved=   3.
 NSaved= 3 IEnMin= 3 EnMin= -478.336970183707     IErMin= 3 ErrMin= 1.37D-05
 ErrMax= 1.37D-05 EMaxC= 1.00D-01 BMatC= 3.35D-08 BMatP= 1.19D-07
 IDIUse=1 WtCom= 1.00D+00 WtEn= 0.00D+00
 Coeff-Com: -0.794D-02 0.335D+00 0.673D+00
 Coeff:     -0.794D-02 0.335D+00 0.673D+00
 Gap=     0.190 Goal=   None    Shift=    0.000
[...]
     5  C    0.000003   0.000003  -0.039222   0.349513   0.000423  -0.000148
     6  C    0.000004   0.000004   0.003699  -0.041483   0.005055   0.007491
     7  C   -0.000200  -0.000200   0.000341   0.004920  -0.032122  -0.036183
     8  C    0.003437   0.003437   0.007501   0.000439   0.344941  -0.006746
     9  C   -0.000000  -0.000000   0.000004  -0.000300  -0.006418   0.364328
    10  C    0.000000   0.000000   0.000003  -0.000028  -0.000096  -0.051896
    11  N   -0.000000  -0.000000  -0.000095  -0.006483  -0.000111   0.004343
    12  H   -0.031218  -0.031224  -0.000028  -0.000000  -0.000054   0.000000
    13  H    0.577565  -0.045060   0.000024  -0.000000   0.001640  -0.000001
    14  H   -0.045060   0.577565   0.000024  -0.000000   0.001640  -0.000001
    15  H    0.000024   0.000024   0.609997  -0.006630  -0.000173  -0.000000
    16  H   -0.000000  -0.000000  -0.006630   0.625150   0.000018   0.000003
    17  H    0.001640   0.001640  -0.000173   0.000018   0.609402   0.002549
    18  H   -0.000001  -0.000001  -0.000000   0.000003   0.002549   0.591942
    19  H    0.000000   0.000000  -0.000000   0.000001  -0.000001  -0.001235
    20  H   -0.000000  -0.000000  -0.000002   0.002697   0.000004  -0.000103
             19         20
     1  C   -0.000000   0.000000
     2  O   -0.000000  -0.000000
     3  C    0.000003  -0.000005
     4  C    0.000002  -0.000069
     5  C   -0.000130  -0.003887
     6  C    0.006078  -0.027174
     7  C    0.002055   0.006626
     8  C   -0.000172  -0.000122
     9  C   -0.031861   0.004701
    10  C    0.369554  -0.031694
    11  N   -0.050098   0.320271
    12  H   -0.000000   0.000000
    13  H    0.000000  -0.000000
    14  H    0.000000  -0.000000
    15  H   -0.000000  -0.000002
    16  H    0.000001   0.002697
    17  H   -0.000001   0.000004
    18  H   -0.001235  -0.000103
    19  H    0.570261  -0.002181
    20  H   -0.002181   0.398227
 Mulliken atomic charges:
              1
     1  C   -0.222268
     2  O   -0.458817
     3  C    0.367005
     4  C   -0.224077
     5  C   -0.189085
     6  C    0.313443
     7  C    0.107850
     8  C   -0.283819
     9  C   -0.211703
    10  C    0.011883
    11  N   -0.658100
    12  H    0.174400
    13  H    0.166342
    14  H    0.166346
    15  H    0.116000
    16  H    0.106885
    17  H    0.121594
    18  H    0.125687
    19  H    0.137723
    20  H    0.332710
 Sum of Mulliken atomic charges =  -0.00000
 Mulliken charges with hydrogens summed into heavy atoms:
              1
     1  C    0.284821
     2  O   -0.458817
     3  C    0.367005
     4  C   -0.108077
     5  C   -0.082201
     6  C    0.313443
     7  C    0.107850
     8  C   -0.162224
     9  C   -0.086016
    10  C    0.149607
    11  N   -0.325390
 Sum of Mulliken charges with hydrogens summed into heavy atoms =  -0.00000
 Electronic spatial extent (au):  <R**2>=           1836.6491
 Charge=             -0.0000 electrons
 Dipole moment (field-independent basis, Debye):
    X=              0.3158    Y=             -1.0171    Z=              0.0014  Tot=              1.0651
 Quadrupole moment (field-independent basis, Debye-Ang):
   XX=            -46.6762   YY=            -58.7219   ZZ=            -67.9027
   XY=              9.5273   XZ=              0.0041   YZ=              0.0019
 Traceless Quadrupole moment (field-independent basis, Debye-Ang):
   XX=             11.0907   YY=             -0.9550   ZZ=            -10.1357
   XY=              9.5273   XZ=              0.0041   YZ=              0.0019
 Octapole moment (field-independent basis, Debye-Ang**2):
  XXX=              4.0437  YYY=             -0.0011  ZZZ=              0.0012  XYY=              1.9184
  XXY=             -2.6970  XXZ=              0.0176  XZZ=             -8.5437  YZZ=             -0.8330
  YYZ=              0.0015  XYZ=              0.0071
 Hexadecapole moment (field-independent basis, Debye-Ang**3):
 XXXX=          -1461.4363 YYYY=           -529.2704 ZZZZ=            -74.7935 XXXY=            107.4259
 XXXZ=              0.0532 YYYX=             14.6474 YYYZ=              0.0042 ZZZX=              0.0030
 ZZZY=              0.0006 XXYY=           -347.6742 XXZZ=           -325.4186 YYZZ=           -117.0989
 XXYZ=              0.0234 YYXZ=              0.0095 ZZXY=              8.9514
 N-N= 5.701709896945D+02 E-N=-2.252005963107D+03  KE= 4.739981223862D+02
 No NMR shielding tensors so no spin-rotation constants.
 Leave Link  601 at Thu Sep 30 14:00:26 2021, MaxMem=  805306368 cpu:       0.8
 (Enter /sw/target/amd/app/gaussian/Gaussian09RevA.02_gcc-4.9.2/g09/l604.exe)
 Evaluate density.
 Using the total density.
 Monte-Carlo method of calculating molar volume:
 based on  0.001 e/bohr**3 density envelope.
 Number of points per bohr**3 =   20 CutOff= 1.00D-04
 Using the CI density.
 There are       370 points.  Will hold       370 in memory.
 LenV=   805203506 MDV=   805306368.
 Box volume = 6375.445 fraction occupied=0.219
 Integrated density= 5.4500781367454017D+01 error=-2.3499218632545983D+01
 Molar volume = 1395.705 bohr**3/mol (124.551 cm**3/mol)
 Recommended a0 for SCRF calculation =  4.54 angstrom (  8.58 bohr)
 Leave Link  604 at Thu Sep 30 14:00:27 2021, MaxMem=  805306368 cpu:       0.3
 (Enter /sw/target/amd/app/gaussian/Gaussian09RevA.02_gcc-4.9.2/g09/l607.exe)
 ******************************Gaussian NBO Version 3.1******************************
             N A T U R A L   A T O M I C   O R B I T A L   A N D
          N A T U R A L   B O N D   O R B I T A L   A N A L Y S I S
 ******************************Gaussian NBO Version 3.1******************************
       /RESON  / : Allow strongly delocalized NBO set

 Analyzing the CI density

 Job title: COc1ccc2c(c1)cc[nH]2_conf_0                                     

 Storage needed:    101870 in NPA ( 805304168 available)


 NATURAL POPULATIONS:  Natural atomic orbital occupancies 
                                                          
   NAO  Atom  No  lang   Type(AO)    Occupancy
 --------------------------------------------
     1    C    1  S      Cor( 1S)     1.99943
     2    C    1  S      Val( 2S)     1.10139
     3    C    1  S      Ryd( 3S)     0.00151
     4    C    1  S      Ryd( 4S)     0.00003
     5    C    1  px     Val( 2p)     1.12866
     6    C    1  px     Ryd( 3p)     0.00245
     7    C    1  py     Val( 2p)     0.84918
     8    C    1  py     Ryd( 3p)     0.00344
     9    C    1  pz     Val( 2p)     1.23125
    10    C    1  pz     Ryd( 3p)     0.00030
    11    C    1  dxy    Ryd( 3d)     0.00142
    12    C    1  dxz    Ryd( 3d)     0.00049
    13    C    1  dyz    Ryd( 3d)     0.00188
    14    C    1  dx2y2  Ryd( 3d)     0.00169
    15    C    1  dz2    Ryd( 3d)     0.00110

    16    O    2  S      Cor( 1S)     1.99976
    17    O    2  S      Val( 2S)     1.59978
    18    O    2  S      Ryd( 3S)     0.00079
    19    O    2  S      Ryd( 4S)     0.00005
    20    O    2  px     Val( 2p)     1.48165
    21    O    2  px     Ryd( 3p)     0.00136
    22    O    2  py     Val( 2p)     1.61950
    23    O    2  py     Ryd( 3p)     0.00178
    24    O    2  pz     Val( 2p)     1.73122
    25    O    2  pz     Ryd( 3p)     0.00219
    26    O    2  dxy    Ryd( 3d)     0.00134
    27    O    2  dxz    Ryd( 3d)     0.00085
    28    O    2  dyz    Ryd( 3d)     0.00122
    29    O    2  dx2y2  Ryd( 3d)     0.00134
    30    O    2  dz2    Ryd( 3d)     0.00076

    31    C    3  S      Cor( 1S)     1.99880
    32    C    3  S      Val( 2S)     0.84243
    33    C    3  S      Ryd( 3S)     0.00141
    34    C    3  S      Ryd( 4S)     0.00013
    35    C    3  px     Val( 2p)     0.73659
    36    C    3  px     Ryd( 3p)     0.00749
    37    C    3  py     Val( 2p)     1.09031
    38    C    3  py     Ryd( 3p)     0.00549
    39    C    3  pz     Val( 2p)     0.96063
    40    C    3  pz     Ryd( 3p)     0.00148
    41    C    3  dxy    Ryd( 3d)     0.00126
    42    C    3  dxz    Ryd( 3d)     0.00167
    43    C    3  dyz    Ryd( 3d)     0.00141
    44    C    3  dx2y2  Ryd( 3d)     0.00184
    45    C    3  dz2    Ryd( 3d)     0.00050

    46    C    4  S      Cor( 1S)     1.99909
    47    C    4  S      Val( 2S)     0.95061
    48    C    4  S      Ryd( 3S)     0.00080
    49    C    4  S      Ryd( 4S)     0.00004
    50    C    4  px     Val( 2p)     1.11079
    51    C    4  px     Ryd( 3p)     0.00519
    52    C    4  py     Val( 2p)     1.11962
    53    C    4  py     Ryd( 3p)     0.00474
    54    C    4  pz     Val( 2p)     1.15265
    55    C    4  pz     Ryd( 3p)     0.00543
    56    C    4  dxy    Ryd( 3d)     0.00075
    57    C    4  dxz    Ryd( 3d)     0.00064
    58    C    4  dyz    Ryd( 3d)     0.00036
    59    C    4  dx2y2  Ryd( 3d)     0.00056
    60    C    4  dz2    Ryd( 3d)     0.00047

    61    C    5  S      Cor( 1S)     1.99903
    62    C    5  S      Val( 2S)     0.94021
    63    C    5  S      Ryd( 3S)     0.00077
    64    C    5  S      Ryd( 4S)     0.00004
    65    C    5  px     Val( 2p)     1.08270
    66    C    5  px     Ryd( 3p)     0.00455
    67    C    5  py     Val( 2p)     1.15785
    68    C    5  py     Ryd( 3p)     0.00406
    69    C    5  pz     Val( 2p)     1.12324
    70    C    5  pz     Ryd( 3p)     0.00543
    71    C    5  dxy    Ryd( 3d)     0.00079
    72    C    5  dxz    Ryd( 3d)     0.00073
    73    C    5  dyz    Ryd( 3d)     0.00040
    74    C    5  dx2y2  Ryd( 3d)     0.00057
    75    C    5  dz2    Ryd( 3d)     0.00044

    76    C    6  S      Cor( 1S)     1.99898
    77    C    6  S      Val( 2S)     0.83194
    78    C    6  S      Ryd( 3S)     0.00159
    79    C    6  S      Ryd( 4S)     0.00009
    80    C    6  px     Val( 2p)     0.87135
    81    C    6  px     Ryd( 3p)     0.00488
    82    C    6  py     Val( 2p)     1.09416
    83    C    6  py     Ryd( 3p)     0.00634
    84    C    6  pz     Val( 2p)     1.01094
    85    C    6  pz     Ryd( 3p)     0.00184
    86    C    6  dxy    Ryd( 3d)     0.00079
    87    C    6  dxz    Ryd( 3d)     0.00139
    88    C    6  dyz    Ryd( 3d)     0.00110
    89    C    6  dx2y2  Ryd( 3d)     0.00124
    90    C    6  dz2    Ryd( 3d)     0.00041

    91    C    7  S      Cor( 1S)     1.99904
    92    C    7  S      Val( 2S)     0.86962
    93    C    7  S      Ryd( 3S)     0.00083
    94    C    7  S      Ryd( 4S)     0.00006
    95    C    7  px     Val( 2p)     1.09349
    96    C    7  px     Ryd( 3p)     0.00430
    97    C    7  py     Val( 2p)     1.06136
    98    C    7  py     Ryd( 3p)     0.00654
    99    C    7  pz     Val( 2p)     1.05852
   100    C    7  pz     Ryd( 3p)     0.00190
   101    C    7  dxy    Ryd( 3d)     0.00066
   102    C    7  dxz    Ryd( 3d)     0.00098
   103    C    7  dyz    Ryd( 3d)     0.00055
   104    C    7  dx2y2  Ryd( 3d)     0.00073
   105    C    7  dz2    Ryd( 3d)     0.00038

   106    C    8  S      Cor( 1S)     1.99898
   107    C    8  S      Val( 2S)     0.94531
   108    C    8  S      Ryd( 3S)     0.00073
   109    C    8  S      Ryd( 4S)     0.00005
   110    C    8  px     Val( 2p)     1.08132
   111    C    8  px     Ryd( 3p)     0.00362
   112    C    8  py     Val( 2p)     1.17327
   113    C    8  py     Ryd( 3p)     0.00321
   114    C    8  pz     Val( 2p)     1.11070
   115    C    8  pz     Ryd( 3p)     0.00474
   116    C    8  dxy    Ryd( 3d)     0.00078
   117    C    8  dxz    Ryd( 3d)     0.00055
   118    C    8  dyz    Ryd( 3d)     0.00045
   119    C    8  dx2y2  Ryd( 3d)     0.00058
   120    C    8  dz2    Ryd( 3d)     0.00045

   121    C    9  S      Cor( 1S)     1.99904
   122    C    9  S      Val( 2S)     0.96217
   123    C    9  S      Ryd( 3S)     0.00054
   124    C    9  S      Ryd( 4S)     0.00003
   125    C    9  px     Val( 2p)     1.03497
   126    C    9  px     Ryd( 3p)     0.00404
   127    C    9  py     Val( 2p)     1.19602
   128    C    9  py     Ryd( 3p)     0.00358
   129    C    9  pz     Val( 2p)     1.07108
   130    C    9  pz     Ryd( 3p)     0.00177
   131    C    9  dxy    Ryd( 3d)     0.00068
   132    C    9  dxz    Ryd( 3d)     0.00081
   133    C    9  dyz    Ryd( 3d)     0.00048
   134    C    9  dx2y2  Ryd( 3d)     0.00078
   135    C    9  dz2    Ryd( 3d)     0.00044

   136    C   10  S      Cor( 1S)     1.99916
   137    C   10  S      Val( 2S)     0.93100
   138    C   10  S      Ryd( 3S)     0.00111
   139    C   10  S      Ryd( 4S)     0.00008
   140    C   10  px     Val( 2p)     1.17811
   141    C   10  px     Ryd( 3p)     0.00417
   142    C   10  py     Val( 2p)     0.83760
   143    C   10  py     Ryd( 3p)     0.00657
   144    C   10  pz     Val( 2p)     1.14543
   145    C   10  pz     Ryd( 3p)     0.00524
   146    C   10  dxy    Ryd( 3d)     0.00074
   147    C   10  dxz    Ryd( 3d)     0.00064
   148    C   10  dyz    Ryd( 3d)     0.00105
   149    C   10  dx2y2  Ryd( 3d)     0.00145
   150    C   10  dz2    Ryd( 3d)     0.00052

   151    N   11  S      Cor( 1S)     1.99933
   152    N   11  S      Val( 2S)     1.24070
   153    N   11  S      Ryd( 3S)     0.00018
   154    N   11  S      Ryd( 4S)     0.00002
   155    N   11  px     Val( 2p)     1.33833
   156    N   11  px     Ryd( 3p)     0.00262
   157    N   11  py     Val( 2p)     1.36000
   158    N   11  py     Ryd( 3p)     0.00210
   159    N   11  pz     Val( 2p)     1.56599
   160    N   11  pz     Ryd( 3p)     0.00273
   161    N   11  dxy    Ryd( 3d)     0.00096
   162    N   11  dxz    Ryd( 3d)     0.00067
   163    N   11  dyz    Ryd( 3d)     0.00066
   164    N   11  dx2y2  Ryd( 3d)     0.00051
   165    N   11  dz2    Ryd( 3d)     0.00065

   166    H   12  S      Val( 1S)     0.76949
   167    H   12  S      Ryd( 2S)     0.00054

   168    H   13  S      Val( 1S)     0.78490
   169    H   13  S      Ryd( 2S)     0.00190

   170    H   14  S      Val( 1S)     0.78490
   171    H   14  S      Ryd( 2S)     0.00190

   172    H   15  S      Val( 1S)     0.76204
   173    H   15  S      Ryd( 2S)     0.00103

   174    H   16  S      Val( 1S)     0.77085
   175    H   16  S      Ryd( 2S)     0.00099

   176    H   17  S      Val( 1S)     0.76899
   177    H   17  S      Ryd( 2S)     0.00112

   178    H   18  S      Val( 1S)     0.76163
   179    H   18  S      Ryd( 2S)     0.00058

   180    H   19  S      Val( 1S)     0.77281
   181    H   19  S      Ryd( 2S)     0.00049

   182    H   20  S      Val( 1S)     0.56703
   183    H   20  S      Ryd( 2S)     0.00157

 WARNING:  1 low occupancy (<1.9990e) core orbital  found on  C    3
           1 low occupancy (<1.9990e) core orbital  found on  C    6
           1 low occupancy (<1.9990e) core orbital  found on  C    8


 Summary of Natural Population Analysis:                  
                                                          
                                       Natural Population 
                Natural  -----------------------------------------------
    Atom  No    Charge         Core      Valence    Rydberg      Total
 -----------------------------------------------------------------------
      C    1   -0.32419      1.99943     4.31047    0.01430     6.32419
      O    2   -0.44359      1.99976     6.43214    0.01169     8.44359
      C    3    0.34855      1.99880     3.62997    0.02268     5.65145
      C    4   -0.35175      1.99909     4.33367    0.01900     6.35175
      C    5   -0.32079      1.99903     4.30400    0.01776     6.32079
      C    6    0.17295      1.99898     3.80839    0.01968     5.82705
      C    7   -0.09896      1.99904     4.08299    0.01693     6.09896
      C    8   -0.32473      1.99898     4.31060    0.01515     6.32473
      C    9   -0.27641      1.99904     4.26423    0.01314     6.27641
      C   10   -0.11287      1.99916     4.09214    0.02157     6.11287
      N   11   -0.51545      1.99933     5.50502    0.01110     7.51545
      H   12    0.22997      0.00000     0.76949    0.00054     0.77003
      H   13    0.21320      0.00000     0.78490    0.00190     0.78680
      H   14    0.21320      0.00000     0.78490    0.00190     0.78680
      H   15    0.23693      0.00000     0.76204    0.00103     0.76307
      H   16    0.22816      0.00000     0.77085    0.00099     0.77184
      H   17    0.22988      0.00000     0.76899    0.00112     0.77012
      H   18    0.23779      0.00000     0.76163    0.00058     0.76221
      H   19    0.22671      0.00000     0.77281    0.00049     0.77329
      H   20    0.43140      0.00000     0.56703    0.00157     0.56860
 =======================================================================
   * Total *    0.00000     21.99063    55.81627    0.19311    78.00000

                                 Natural Population      
 --------------------------------------------------------
   Core                      21.99063 ( 99.9574% of  22)
   Valence                   55.81627 ( 99.6719% of  56)
   Natural Minimal Basis     77.80689 ( 99.7524% of  78)
   Natural Rydberg Basis      0.19311 (  0.2476% of  78)
 --------------------------------------------------------

    Atom  No          Natural Electron Configuration
 ----------------------------------------------------------------------------
      C    1      [core]2S( 1.10)2p( 3.21)3p( 0.01)3d( 0.01)
      O    2      [core]2S( 1.60)2p( 4.83)3p( 0.01)3d( 0.01)
      C    3      [core]2S( 0.84)2p( 2.79)3p( 0.01)3d( 0.01)
      C    4      [core]2S( 0.95)2p( 3.38)3p( 0.02)
      C    5      [core]2S( 0.94)2p( 3.36)3p( 0.01)
      C    6      [core]2S( 0.83)2p( 2.98)3p( 0.01)
      C    7      [core]2S( 0.87)2p( 3.21)3p( 0.01)
      C    8      [core]2S( 0.95)2p( 3.37)3p( 0.01)
      C    9      [core]2S( 0.96)2p( 3.30)3p( 0.01)
      C   10      [core]2S( 0.93)2p( 3.16)3p( 0.02)
      N   11      [core]2S( 1.24)2p( 4.26)3p( 0.01)
      H   12            1S( 0.77)
      H   13            1S( 0.78)
      H   14            1S( 0.78)
      H   15            1S( 0.76)
      H   16            1S( 0.77)
      H   17            1S( 0.77)
      H   18            1S( 0.76)
      H   19            1S( 0.77)
      H   20            1S( 0.57)


 NBO analysis skipped by request.
 Leave Link  607 at Thu Sep 30 14:00:44 2021, MaxMem=  805306368 cpu:       9.9
 (Enter /sw/target/amd/app/gaussian/Gaussian09RevA.02_gcc-4.9.2/g09/l9999.exe)
 1\1\GINC-HERMITE\SP\RTD-B3LYP-FC\6-31G(d)\C9H9N1O1\JSCHLEINITZ\30-Sep-
 2021\0\\#p TD(NStates=10, Root=1) b3lyp/6-31G* volume pop=NPA density=
 current Geom=AllCheck Guess=Read\\COc1ccc2c(c1)cc[nH]2_conf_0\\0,1\C,0
 ,3.0841336064,0.9062404015,-0.7233435533\O,0,2.6067105981,-0.328938650
 2,-0.2261010252\C,0,3.2189088047,-0.8522575733,0.8859876429\C,0,2.6827
 682595,-2.0895115694,1.3196445776\C,0,3.1935418599,-2.7435901534,2.428
 1262477\C,0,4.2592319623,-2.1432294997,3.1093530346\C,0,4.8109687716,-
 0.9040501231,2.6914256734\C,0,4.2771343544,-0.2528225321,1.559841817\C
 ,0,5.8720336451,-0.5917433286,3.6067411687\C,0,5.931956384,-1.61303403
 61,4.5208965356\N,0,4.9632196777,-2.5516194816,4.2278333974\H,0,2.4701
 785908,1.1389181355,-1.5960906631\H,0,4.1377524622,0.841354747,-1.0294
 013329\H,0,2.9787005712,1.7109678201,0.0177637845\H,0,1.8570792291,-2.
 5095688723,0.7544098728\H,0,2.7743510637,-3.6927342619,2.7521432592\H,
 0,4.6939687894,0.6938784219,1.2353340602\H,0,6.5102049311,0.2811813071
 ,3.5885505807\H,0,6.5912857807,-1.7523728958,5.3664952219\H,0,4.796944
 2334,-3.399455451,4.7462203268\\Version=AM64L-G09RevA.02\State=1-A\HF=
 -478.3373805\RMSD=7.978e-09\Dipole=0.301103,0.2708538,0.1075116\Quadru
 pole=-5.6581622,3.0375113,2.6206508,-0.3134704,2.3378074,-9.1211698\PG
 =C01 [X(C9H9N1O1)]\\@


 MICRO CREDO - NEVER TRUST A COMPUTER BIGGER
               BIGGER THAN YOU CAN LIFT.
 Job cpu time:  0 days  1 hours 24 minutes 27.4 seconds.
 File lengths (MBytes):  RWF=    114 Int=      0 D2E=      0 Chk=     16 Scr=      1
 Normal termination of Gaussian 09 at Thu Sep 30 14:00:48 2021.
