 Entering Gaussian System, Link 0=g09
 Input=mol_inp035.com
 Output=mol_inp035.log
 Initial command:
 /sw/target/amd/app/gaussian/Gaussian09RevA.02_gcc-4.9.2/g09/l1.exe /home/jschleinitz/optim_react/035/Gau-2804540.inp -scrdir=/home/jschleinitz/optim_react/035/
 Entering Link 1 = /sw/target/amd/app/gaussian/Gaussian09RevA.02_gcc-4.9.2/g09/l1.exe PID=   2804542.
  
 Copyright (c) 1988,1990,1992,1993,1995,1998,2003,2009, Gaussian, Inc.
                  All Rights Reserved.
  
 This is part of the Gaussian(R) 09 program.  It is based on
 the Gaussian(R) 03 system (copyright 2003, Gaussian, Inc.),
 the Gaussian(R) 98 system (copyright 1998, Gaussian, Inc.),
 the Gaussian(R) 94 system (copyright 1995, Gaussian, Inc.),
 the Gaussian 92(TM) system (copyright 1992, Gaussian, Inc.),
 the Gaussian 90(TM) system (copyright 1990, Gaussian, Inc.),
 the Gaussian 88(TM) system (copyright 1988, Gaussian, Inc.),
 the Gaussian 86(TM) system (copyright 1986, Carnegie Mellon
 University), and the Gaussian 82(TM) system (copyright 1983,
 Carnegie Mellon University). Gaussian is a federally registered
 trademark of Gaussian, Inc.
  
 This software contains proprietary and confidential information,
 including trade secrets, belonging to Gaussian, Inc.
  
 This software is provided under written license and may be
 used, copied, transmitted, or stored only in accord with that
 written license.
  
 The following legend is applicable only to US Government
 contracts under FAR:
  
                    RESTRICTED RIGHTS LEGEND
  
 Use, reproduction and disclosure by the US Government is
 subject to restrictions as set forth in subparagraphs (a)
 and (c) of the Commercial Computer Software - Restricted
 Rights clause in FAR 52.227-19.
  
 Gaussian, Inc.
 340 Quinnipiac St., Bldg. 40, Wallingford CT 06492
  
  
 ---------------------------------------------------------------
 Warning -- This program may not be used in any manner that
 competes with the business of Gaussian, Inc. or will provide
 assistance to any competitor of Gaussian, Inc.  The licensee
 of this program is prohibited from giving any competitor of
 Gaussian, Inc. access to this program.  By using this program,
 the user acknowledges that Gaussian, Inc. is engaged in the
 business of creating and licensing software in the field of
 computational chemistry and represents and warrants to the
 licensee that it is not a competitor of Gaussian, Inc. and that
 it will not use this program in any manner prohibited above.
 ---------------------------------------------------------------
  

 Cite this work as:
 Gaussian 09, Revision A.02,
 M. J. Frisch, G. W. Trucks, H. B. Schlegel, G. E. Scuseria, 
 M. A. Robb, J. R. Cheeseman, G. Scalmani, V. Barone, B. Mennucci, 
 G. A. Petersson, H. Nakatsuji, M. Caricato, X. Li, H. P. Hratchian, 
 A. F. Izmaylov, J. Bloino, G. Zheng, J. L. Sonnenberg, M. Hada, 
 M. Ehara, K. Toyota, R. Fukuda, J. Hasegawa, M. Ishida, T. Nakajima, 
 Y. Honda, O. Kitao, H. Nakai, T. Vreven, J. A. Montgomery, Jr., 
 J. E. Peralta, F. Ogliaro, M. Bearpark, J. J. Heyd, E. Brothers, 
 K. N. Kudin, V. N. Staroverov, R. Kobayashi, J. Normand, 
 K. Raghavachari, A. Rendell, J. C. Burant, S. S. Iyengar, J. Tomasi, 
 M. Cossi, N. Rega, J. M. Millam, M. Klene, J. E. Knox, J. B. Cross, 
 V. Bakken, C. Adamo, J. Jaramillo, R. Gomperts, R. E. Stratmann, 
 O. Yazyev, A. J. Austin, R. Cammi, C. Pomelli, J. W. Ochterski, 
 R. L. Martin, K. Morokuma, V. G. Zakrzewski, G. A. Voth, 
 P. Salvador, J. J. Dannenberg, S. Dapprich, A. D. Daniels, 
 O. Farkas, J. B. Foresman, J. V. Ortiz, J. Cioslowski, 
 and D. J. Fox, Gaussian, Inc., Wallingford CT, 2009.
 
 ******************************************
 Gaussian 09:  AM64L-G09RevA.02 11-Jun-2009
                 3-Sep-2021 
 ******************************************
 %chk=opt.chk
 %mem=2gb
 %nproc=1
 Will use up to    1 processors via shared memory.
 ----------------------------------
 #p b3lyp 6-31G* opt scf(xqc,tight)
 ----------------------------------
 1/14=-1,18=20,19=15,26=3,38=1/1,3;
 2/9=110,12=2,17=6,18=5,40=1/2;
 3/5=1,6=6,7=1,11=2,16=1,25=1,30=1,71=1,74=-5/1,2,3;
 4//1;
 5/5=2,8=3,13=1,32=2,38=5/2,8;
 6/7=2,8=2,9=2,10=2,28=1/1;
 7//1,2,3,16;
 1/14=-1,18=20,19=15/3(2);
 2/9=110/2;
 99//99;
 2/9=110/2;
 3/5=1,6=6,7=1,11=2,16=1,25=1,30=1,71=1,74=-5/1,2,3;
 4/5=5,16=3/1;
 5/5=2,8=3,13=1,32=2,38=5/2,8;
 7//1,2,3,16;
 1/14=-1,18=20,19=15/3(-5);
 2/9=110/2;
 6/7=2,8=2,9=2,10=2,19=2,28=1/1;
 99/9=1/99;
 Leave Link    1 at Fri Sep  3 00:07:47 2021, MaxMem=  268435456 cpu:       0.1
 (Enter /sw/target/amd/app/gaussian/Gaussian09RevA.02_gcc-4.9.2/g09/l101.exe)
 ---------------
 opt calculation
 ---------------
 Symbolic Z-matrix:
 Charge =  0 Multiplicity = 1
 C                     5.0705    0.59044  -0.69861 
 O                     4.37232  -0.34248   0.11631 
 C                     3.00731  -0.34318   0.02294 
 C                     2.36509  -1.23668   0.8878 
 C                     0.97363  -1.34056   0.89929 
 C                     0.22659  -0.53432   0.04647 
 O                    -1.16391  -0.70675   0.04415 
 C                    -1.93743   0.4086    0.36181 
 O                    -1.47782   1.50773   0.65665 
 N                    -3.30145   0.14099   0.30387 
 C                    -4.23742   1.23719   0.46209 
 C                    -3.83526  -1.11157  -0.20147 
 C                     0.84883   0.34402  -0.83833 
 C                     2.24349   0.44477  -0.84255 
 H                     6.13888   0.48547  -0.48646 
 H                     4.78301   1.61939  -0.45815 
 H                     4.91983   0.37498  -1.76155 
 H                     2.95701  -1.85581   1.5573 
 H                     0.48321  -2.03985   1.56886 
 H                    -5.08221   0.90227   1.07096 
 H                    -4.59491   1.53731  -0.52742 
 H                    -3.77511   2.10035   0.94821 
 H                    -3.12437  -1.93401  -0.09409 
 H                    -4.07551  -0.98439  -1.26108 
 H                    -4.74387  -1.36494   0.35261 
 H                     0.25937   0.95557  -1.51492 
 H                     2.70022   1.14548  -1.53296 
 
 NAtoms=     27 NQM=     27 NQMF=      0 NMic=      0 NMicF=      0 NTot=     27.
                    Isotopes and Nuclear Properties:
 (Nuclear quadrupole moments (NQMom) in fm**2, nuclear magnetic moments (NMagM)
  in nuclear magnetons)

  Atom         1           2           3           4           5           6           7           8           9          10
 IAtWgt=          12          16          12          12          12          12          16          12          16          14
 AtmWgt=  12.0000000  15.9949146  12.0000000  12.0000000  12.0000000  12.0000000  15.9949146  12.0000000  15.9949146  14.0030740
 NucSpn=           0           0           0           0           0           0           0           0           0           2
 AtZEff=   0.0000000   0.0000000   0.0000000   0.0000000   0.0000000   0.0000000   0.0000000   0.0000000   0.0000000   0.0000000
 NQMom=    0.0000000   0.0000000   0.0000000   0.0000000   0.0000000   0.0000000   0.0000000   0.0000000   0.0000000   2.0440000
 NMagM=    0.0000000   0.0000000   0.0000000   0.0000000   0.0000000   0.0000000   0.0000000   0.0000000   0.0000000   0.4037610

  Atom        11          12          13          14          15          16          17          18          19          20
 IAtWgt=          12          12          12          12           1           1           1           1           1           1
 AtmWgt=  12.0000000  12.0000000  12.0000000  12.0000000   1.0078250   1.0078250   1.0078250   1.0078250   1.0078250   1.0078250
 NucSpn=           0           0           0           0           1           1           1           1           1           1
 AtZEff=   0.0000000   0.0000000   0.0000000   0.0000000   0.0000000   0.0000000   0.0000000   0.0000000   0.0000000   0.0000000
 NQMom=    0.0000000   0.0000000   0.0000000   0.0000000   0.0000000   0.0000000   0.0000000   0.0000000   0.0000000   0.0000000
 NMagM=    0.0000000   0.0000000   0.0000000   0.0000000   2.7928460   2.7928460   2.7928460   2.7928460   2.7928460   2.7928460

  Atom        21          22          23          24          25          26          27
 IAtWgt=           1           1           1           1           1           1           1
 AtmWgt=   1.0078250   1.0078250   1.0078250   1.0078250   1.0078250   1.0078250   1.0078250
 NucSpn=           1           1           1           1           1           1           1
 AtZEff=   0.0000000   0.0000000   0.0000000   0.0000000   0.0000000   0.0000000   0.0000000
 NQMom=    0.0000000   0.0000000   0.0000000   0.0000000   0.0000000   0.0000000   0.0000000
 NMagM=    2.7928460   2.7928460   2.7928460   2.7928460   2.7928460   2.7928460   2.7928460
 Leave Link  101 at Fri Sep  3 00:07:47 2021, MaxMem=  268435456 cpu:       0.1
 (Enter /sw/target/amd/app/gaussian/Gaussian09RevA.02_gcc-4.9.2/g09/l103.exe)

 GradGradGradGradGradGradGradGradGradGradGradGradGradGradGradGradGradGrad
 Berny optimization.
 Initialization pass.
                           ----------------------------
                           !    Initial Parameters    !
                           ! (Angstroms and Degrees)  !
 --------------------------                            --------------------------
 ! Name  Definition              Value          Derivative Info.                !
 --------------------------------------------------------------------------------
 ! R1    R(1,2)                  1.4219         estimate D2E/DX2                !
 ! R2    R(1,15)                 1.0943         estimate D2E/DX2                !
 ! R3    R(1,16)                 1.0951         estimate D2E/DX2                !
 ! R4    R(1,17)                 1.095          estimate D2E/DX2                !
 ! R5    R(2,3)                  1.3682         estimate D2E/DX2                !
 ! R6    R(3,4)                  1.3996         estimate D2E/DX2                !
 ! R7    R(3,14)                 1.3976         estimate D2E/DX2                !
 ! R8    R(4,5)                  1.3954         estimate D2E/DX2                !
 ! R9    R(4,18)                 1.0872         estimate D2E/DX2                !
 ! R10   R(5,6)                  1.3912         estimate D2E/DX2                !
 ! R11   R(5,19)                 1.0853         estimate D2E/DX2                !
 ! R12   R(6,7)                  1.4011         estimate D2E/DX2                !
 ! R13   R(6,13)                 1.3934         estimate D2E/DX2                !
 ! R14   R(7,8)                  1.394          estimate D2E/DX2                !
 ! R15   R(8,9)                  1.2273         estimate D2E/DX2                !
 ! R16   R(8,10)                 1.3912         estimate D2E/DX2                !
 ! R17   R(10,11)                1.4501         estimate D2E/DX2                !
 ! R18   R(10,12)                1.4523         estimate D2E/DX2                !
 ! R19   R(11,20)                1.0939         estimate D2E/DX2                !
 ! R20   R(11,21)                1.0941         estimate D2E/DX2                !
 ! R21   R(11,22)                1.0932         estimate D2E/DX2                !
 ! R22   R(12,23)                1.0924         estimate D2E/DX2                !
 ! R23   R(12,24)                1.0939         estimate D2E/DX2                !
 ! R24   R(12,25)                1.094          estimate D2E/DX2                !
 ! R25   R(13,14)                1.3983         estimate D2E/DX2                !
 ! R26   R(13,26)                1.0859         estimate D2E/DX2                !
 ! R27   R(14,27)                1.0846         estimate D2E/DX2                !
 ! A1    A(2,1,15)             107.778          estimate D2E/DX2                !
 ! A2    A(2,1,16)             111.2062         estimate D2E/DX2                !
 ! A3    A(2,1,17)             111.0808         estimate D2E/DX2                !
 ! A4    A(15,1,16)            107.6901         estimate D2E/DX2                !
 ! A5    A(15,1,17)            107.6785         estimate D2E/DX2                !
 ! A6    A(16,1,17)            111.2182         estimate D2E/DX2                !
 ! A7    A(1,2,3)              116.8132         estimate D2E/DX2                !
 ! A8    A(2,3,4)              114.5799         estimate D2E/DX2                !
 ! A9    A(2,3,14)             125.9592         estimate D2E/DX2                !
 ! A10   A(4,3,14)             119.4598         estimate D2E/DX2                !
 ! A11   A(3,4,5)              120.6774         estimate D2E/DX2                !
 ! A12   A(3,4,18)             119.6218         estimate D2E/DX2                !
 ! A13   A(5,4,18)             119.7008         estimate D2E/DX2                !
 ! A14   A(4,5,6)              119.1621         estimate D2E/DX2                !
 ! A15   A(4,5,19)             120.2428         estimate D2E/DX2                !
 ! A16   A(6,5,19)             120.5947         estimate D2E/DX2                !
 ! A17   A(5,6,7)              117.5546         estimate D2E/DX2                !
 ! A18   A(5,6,13)             120.9829         estimate D2E/DX2                !
 ! A19   A(7,6,13)             121.3119         estimate D2E/DX2                !
 ! A20   A(6,7,8)              116.8617         estimate D2E/DX2                !
 ! A21   A(7,8,9)              124.2973         estimate D2E/DX2                !
 ! A22   A(7,8,10)             112.374          estimate D2E/DX2                !
 ! A23   A(9,8,10)             123.3283         estimate D2E/DX2                !
 ! A24   A(8,10,11)            118.8741         estimate D2E/DX2                !
 ! A25   A(8,10,12)            122.7352         estimate D2E/DX2                !
 ! A26   A(11,10,12)           116.9169         estimate D2E/DX2                !
 ! A27   A(10,11,20)           109.1332         estimate D2E/DX2                !
 ! A28   A(10,11,21)           108.6384         estimate D2E/DX2                !
 ! A29   A(10,11,22)           111.8658         estimate D2E/DX2                !
 ! A30   A(20,11,21)           109.5766         estimate D2E/DX2                !
 ! A31   A(20,11,22)           108.7131         estimate D2E/DX2                !
 ! A32   A(21,11,22)           108.8906         estimate D2E/DX2                !
 ! A33   A(10,12,23)           112.082          estimate D2E/DX2                !
 ! A34   A(10,12,24)           108.5111         estimate D2E/DX2                !
 ! A35   A(10,12,25)           109.196          estimate D2E/DX2                !
 ! A36   A(23,12,24)           109.006          estimate D2E/DX2                !
 ! A37   A(23,12,25)           108.4421         estimate D2E/DX2                !
 ! A38   A(24,12,25)           109.5795         estimate D2E/DX2                !
 ! A39   A(6,13,14)            119.5208         estimate D2E/DX2                !
 ! A40   A(6,13,26)            120.5461         estimate D2E/DX2                !
 ! A41   A(14,13,26)           119.9303         estimate D2E/DX2                !
 ! A42   A(3,14,13)            120.1721         estimate D2E/DX2                !
 ! A43   A(3,14,27)            121.8912         estimate D2E/DX2                !
 ! A44   A(13,14,27)           117.9367         estimate D2E/DX2                !
 ! D1    D(15,1,2,3)           178.328          estimate D2E/DX2                !
 ! D2    D(16,1,2,3)            60.5081         estimate D2E/DX2                !
 ! D3    D(17,1,2,3)           -63.9373         estimate D2E/DX2                !
 ! D4    D(1,2,3,4)           -177.2749         estimate D2E/DX2                !
 ! D5    D(1,2,3,14)             3.1201         estimate D2E/DX2                !
 ! D6    D(2,3,4,5)            179.9435         estimate D2E/DX2                !
 ! D7    D(2,3,4,18)            -0.0526         estimate D2E/DX2                !
 ! D8    D(14,3,4,5)            -0.4237         estimate D2E/DX2                !
 ! D9    D(14,3,4,18)          179.5802         estimate D2E/DX2                !
 ! D10   D(2,3,14,13)          179.8822         estimate D2E/DX2                !
 ! D11   D(2,3,14,27)           -0.0417         estimate D2E/DX2                !
 ! D12   D(4,3,14,13)            0.2948         estimate D2E/DX2                !
 ! D13   D(4,3,14,27)         -179.6292         estimate D2E/DX2                !
 ! D14   D(3,4,5,6)             -0.5714         estimate D2E/DX2                !
 ! D15   D(3,4,5,19)           179.6525         estimate D2E/DX2                !
 ! D16   D(18,4,5,6)           179.4247         estimate D2E/DX2                !
 ! D17   D(18,4,5,19)           -0.3513         estimate D2E/DX2                !
 ! D18   D(4,5,6,7)            177.3172         estimate D2E/DX2                !
 ! D19   D(4,5,6,13)             1.7205         estimate D2E/DX2                !
 ! D20   D(19,5,6,7)            -2.9075         estimate D2E/DX2                !
 ! D21   D(19,5,6,13)         -178.5042         estimate D2E/DX2                !
 ! D22   D(5,6,7,8)            121.4748         estimate D2E/DX2                !
 ! D23   D(13,6,7,8)           -62.9437         estimate D2E/DX2                !
 ! D24   D(5,6,13,14)           -1.8521         estimate D2E/DX2                !
 ! D25   D(5,6,13,26)          178.7619         estimate D2E/DX2                !
 ! D26   D(7,6,13,14)         -177.2825         estimate D2E/DX2                !
 ! D27   D(7,6,13,26)            3.3315         estimate D2E/DX2                !
 ! D28   D(6,7,8,9)             -1.075          estimate D2E/DX2                !
 ! D29   D(6,7,8,10)           178.7195         estimate D2E/DX2                !
 ! D30   D(7,8,10,11)         -173.198          estimate D2E/DX2                !
 ! D31   D(7,8,10,12)           -7.4856         estimate D2E/DX2                !
 ! D32   D(9,8,10,11)            6.5988         estimate D2E/DX2                !
 ! D33   D(9,8,10,12)          172.3112         estimate D2E/DX2                !
 ! D34   D(8,10,11,20)        -140.0935         estimate D2E/DX2                !
 ! D35   D(8,10,11,21)         100.4803         estimate D2E/DX2                !
 ! D36   D(8,10,11,22)         -19.7531         estimate D2E/DX2                !
 ! D37   D(12,10,11,20)         53.3694         estimate D2E/DX2                !
 ! D38   D(12,10,11,21)        -66.0568         estimate D2E/DX2                !
 ! D39   D(12,10,11,22)        173.7099         estimate D2E/DX2                !
 ! D40   D(8,10,12,23)          25.9974         estimate D2E/DX2                !
 ! D41   D(8,10,12,24)         -94.4303         estimate D2E/DX2                !
 ! D42   D(8,10,12,25)         146.1784         estimate D2E/DX2                !
 ! D43   D(11,10,12,23)       -168.0288         estimate D2E/DX2                !
 ! D44   D(11,10,12,24)         71.5435         estimate D2E/DX2                !
 ! D45   D(11,10,12,25)        -47.8478         estimate D2E/DX2                !
 ! D46   D(6,13,14,3)            0.8258         estimate D2E/DX2                !
 ! D47   D(6,13,14,27)        -179.2473         estimate D2E/DX2                !
 ! D48   D(26,13,14,3)        -179.7843         estimate D2E/DX2                !
 ! D49   D(26,13,14,27)          0.1426         estimate D2E/DX2                !
 --------------------------------------------------------------------------------
 Trust Radius=3.00D-01 FncErr=1.00D-07 GrdErr=1.00D-06
 Number of steps in this run= 130 maximum allowed number of steps= 162.
 GradGradGradGradGradGradGradGradGradGradGradGradGradGradGradGradGradGrad

 Leave Link  103 at Fri Sep  3 00:07:47 2021, MaxMem=  268435456 cpu:       0.0
 (Enter /sw/target/amd/app/gaussian/Gaussian09RevA.02_gcc-4.9.2/g09/l202.exe)
                          Input orientation:                          
 ---------------------------------------------------------------------
 Center     Atomic      Atomic             Coordinates (Angstroms)
 Number     Number       Type             X           Y           Z
 ---------------------------------------------------------------------
      1          6           0        5.070496    0.590436   -0.698614
      2          8           0        4.372323   -0.342482    0.116310
      3          6           0        3.007312   -0.343178    0.022943
      4          6           0        2.365087   -1.236681    0.887797
      5          6           0        0.973630   -1.340564    0.899287
      6          6           0        0.226586   -0.534322    0.046468
      7          8           0       -1.163906   -0.706750    0.044154
      8          6           0       -1.937434    0.408599    0.361806
      9          8           0       -1.477824    1.507725    0.656653
     10          7           0       -3.301449    0.140993    0.303868
     11          6           0       -4.237422    1.237186    0.462086
     12          6           0       -3.835263   -1.111572   -0.201465
     13          6           0        0.848827    0.344023   -0.838327
     14          6           0        2.243494    0.444768   -0.842552
     15          1           0        6.138876    0.485465   -0.486457
     16          1           0        4.783010    1.619391   -0.458151
     17          1           0        4.919825    0.374980   -1.761552
     18          1           0        2.957011   -1.855805    1.557295
     19          1           0        0.483205   -2.039850    1.568860
     20          1           0       -5.082208    0.902271    1.070961
     21          1           0       -4.594908    1.537307   -0.527417
     22          1           0       -3.775106    2.100353    0.948207
     23          1           0       -3.124374   -1.934011   -0.094086
     24          1           0       -4.075511   -0.984392   -1.261082
     25          1           0       -4.743867   -1.364939    0.352607
     26          1           0        0.259371    0.955574   -1.514916
     27          1           0        2.700221    1.145476   -1.532960
 ---------------------------------------------------------------------
                    Distance matrix (angstroms):
                    1          2          3          4          5
     1  C    0.000000
     2  O    1.421929   0.000000
     3  C    2.376764   1.368201   0.000000
     4  C    3.629641   2.328901   1.399562   0.000000
     5  C    4.802745   3.627718   2.428707   1.395377   0.000000
     6  C    5.028289   4.150761   2.787387   2.402983   1.391187
     7  O    6.411097   5.548669   4.187087   3.666927   2.387893
     8  C    7.090038   6.359043   5.013034   4.636302   3.438423
     9  O    6.749716   6.159501   4.893248   4.727913   3.765800
    10  N    8.443721   7.691274   6.333546   5.860767   4.563533
    11  C    9.402279   8.760287   7.428093   7.063595   5.830180
    12  C    9.080558   8.249664   6.889240   6.296545   4.938577
    13  C    4.231162   3.714518   2.423446   2.788758   2.423368
    14  C    2.834410   2.463959   1.397626   2.415815   2.798923
    15  H    1.094288   2.041944   3.279151   4.369879   5.651056
    16  H    1.095089   2.085094   2.690025   3.976817   5.011521
    17  H    1.094970   2.083477   2.712541   4.017859   5.059210
    18  H    3.942086   2.523825   2.155181   1.087160   2.152266
    19  H    5.753528   4.485109   3.411696   2.156480   1.085286
    20  H   10.310482   9.583784   8.251656   7.750540   6.460105
    21  H    9.713182   9.184728   7.850660   7.624918   6.428549
    22  H    9.123406   8.546350   7.268298   6.988663   5.864537
    23  H    8.596172   7.666661   6.335773   5.620013   4.258240
    24  H    9.297629   8.583423   7.226774   6.794309   5.503442
    25  H   10.062320   9.176392   7.825180   7.130225   5.743625
    26  H    4.893526   4.611098   3.406310   3.874668   3.407461
    27  H    2.573404   2.780294   2.175139   3.412778   3.882955
                    6          7          8          9         10
     6  C    0.000000
     7  O    1.401144   0.000000
     8  C    2.381495   1.394006   0.000000
     9  O    2.728973   2.318965   1.227295   0.000000
    10  N    3.601296   2.314133   1.391225   2.306084   0.000000
    11  C    4.820617   3.660609   2.446744   2.779645   1.450075
    12  C    4.110147   2.712998   2.495987   3.626927   1.452322
    13  C    1.393390   2.435978   3.034426   3.000412   4.309364
    14  C    2.411823   3.704405   4.351086   4.150386   5.670357
    15  H    6.023217   7.418460   8.121099   7.769545   9.479610
    16  H    5.064990   6.405392   6.877697   6.360291   8.253776
    17  H    5.110994   6.437585   7.178564   6.932585   8.479980
    18  H    3.388825   4.537828   5.523795   5.638462   6.687795
    19  H    2.156420   2.610528   3.648476   4.154882   4.547514
    20  H    5.594343   4.358483   3.261321   3.678289   2.083045
    21  H    5.278996   4.139355   3.021071   3.334533   2.076960
    22  H    4.875262   3.938973   2.565723   2.390338   2.116274
    23  H    3.634256   2.317049   2.665424   3.888481   2.120227
    24  H    4.518881   3.202838   3.024163   4.078766   2.077193
    25  H    5.048668   3.653009   3.319878   4.360238   2.085851
    26  H    2.158422   2.686957   2.940615   2.835212   4.080558
    27  H    3.381595   4.566126   5.063691   4.730929   6.356333
                   11         12         13         14         15
    11  C    0.000000
    12  C    2.473600   0.000000
    13  C    5.325293   4.946216   0.000000
    14  C    6.658249   6.307493   1.398307   0.000000
    15  H   10.446644  10.105206   5.303625   3.911836   0.000000
    16  H    9.075302   9.044262   4.153179   2.824295   1.767756
    17  H    9.462724   9.016389   4.174485   2.830579   1.767529
    18  H    7.907335   7.055644   3.875911   3.400148   4.447778
    19  H    5.852199   4.758668   3.407503   3.884180   6.525960
    20  H    1.093874   2.688774   6.255733   7.585298  11.336314
    21  H    1.094068   2.774863   5.581652   6.932294  10.785276
    22  H    1.093209   3.412012   5.259007   6.493945  10.146584
    23  H    3.406566   1.092382   4.640006   5.918851   9.582047
    24  H    2.816191   1.093930   5.117862   6.492110  10.348634
    25  H    2.653211   1.093962   5.968006   7.316192  11.070778
    26  H    4.920263   4.771192   1.085922   2.156326   5.987262
    27  H    7.219384   7.041285   2.133659   1.084553   3.654467
                   16         17         18         19         20
    16  H    0.000000
    17  H    1.807244   0.000000
    18  H    4.412854   4.454636   0.000000
    19  H    5.998928   6.050343   2.480670   0.000000
    20  H   10.008745  10.408738   8.513081   6.314887   0.000000
    21  H    9.378533   9.664587   8.537606   6.555735   1.787609
    22  H    8.686226   9.269387   7.832214   5.971575   1.777353
    23  H    8.676747   8.533523   6.302096   3.973816   3.637986
    24  H    9.268105   9.111226   7.626203   5.468497   3.164073
    25  H   10.016234  10.044099   7.809977   5.408979   2.402238
    26  H    4.692623   4.702951   4.961814   4.304921   5.934818
    27  H    2.391196   2.360627   4.315473   4.968174   8.210101
                   21         22         23         24         25
    21  H    0.000000
    22  H    1.779484   0.000000
    23  H    3.794772   4.217336   0.000000
    24  H    2.677126   3.806160   1.779977   0.000000
    25  H    3.036390   3.647120   1.773735   1.787598   0.000000
    26  H    4.987744   4.863589   4.670994   4.755954   5.822784
    27  H    7.374521   6.999846   6.743849   7.107798   8.079108
                   26         27
    26  H    0.000000
    27  H    2.448293   0.000000
 Stoichiometry    C10H13NO3
 Framework group  C1[X(C10H13NO3)]
 Deg. of freedom    75
 Full point group                 C1      NOp   1
 Largest Abelian subgroup         C1      NOp   1
 Largest concise Abelian subgroup C1      NOp   1
                         Standard orientation:                         
 ---------------------------------------------------------------------
 Center     Atomic      Atomic             Coordinates (Angstroms)
 Number     Number       Type             X           Y           Z
 ---------------------------------------------------------------------
      1          6           0        4.925670   -0.924283    0.207561
      2          8           0        4.217184    0.218001   -0.256247
      3          6           0        2.861675    0.221011   -0.070346
      4          6           0        2.204305    1.338688   -0.597068
      5          6           0        0.820164    1.471185   -0.480128
      6          6           0        0.094866    0.470196    0.158124
      7          8           0       -1.284673    0.664353    0.307726
      8          6           0       -2.121045   -0.296072   -0.259124
      9          8           0       -1.725578   -1.273839   -0.886684
     10          7           0       -3.466880   -0.027301   -0.031096
     11          6           0       -4.454655   -1.011682   -0.428601
     12          6           0       -3.917141    1.038568    0.846643
     13          6           0        0.734151   -0.638262    0.709640
     14          6           0        2.121173   -0.765737    0.586422
     15          1           0        5.982343   -0.785663   -0.040822
     16          1           0        4.582285   -1.834509   -0.295225
     17          1           0        4.849638   -1.019880    1.295697
     18          1           0        2.778582    2.111164   -1.102443
     19          1           0        0.318302    2.343563   -0.886251
     20          1           0       -5.321002   -0.498109   -0.855503
     21          1           0       -4.762443   -1.575533    0.457019
     22          1           0       -4.058666   -1.708625   -1.171951
     23          1           0       -3.181333    1.841838    0.928147
     24          1           0       -4.096656    0.617706    1.840289
     25          1           0       -4.847077    1.459675    0.453399
     26          1           0        0.163081   -1.405574    1.223777
     27          1           0        2.590655   -1.644738    1.014438
 ---------------------------------------------------------------------
 Rotational constants (GHZ):      2.2740654      0.2820709      0.2662471
 Leave Link  202 at Fri Sep  3 00:07:47 2021, MaxMem=  268435456 cpu:       0.0
 (Enter /sw/target/amd/app/gaussian/Gaussian09RevA.02_gcc-4.9.2/g09/l301.exe)
 Standard basis: 6-31G(d) (6D, 7F)
 Ernie: Thresh=  0.10000D-02 Tol=  0.10000D-05 Strict=F.
 There are   236 symmetry adapted basis functions of A   symmetry.
 Integral buffers will be    131072 words long.
 Raffenetti 2 integral format.
 Two-electron integral symmetry is turned on.
   236 basis functions,   444 primitive gaussians,   236 cartesian basis functions
    52 alpha electrons       52 beta electrons
       nuclear repulsion energy       872.0642428871 Hartrees.
 IExCor=  402 DFT=T Ex+Corr=B3LYP ExCW=0 ScaHFX=  0.200000
 ScaDFX=  0.800000  0.720000  1.000000  0.810000 ScalE2=  1.000000  1.000000
 IRadAn=      0 IRanWt=     -1 IRanGd=            0 ICorTp=0
 NAtoms=   27 NActive=   27 NUniq=   27 SFac= 7.50D-01 NAtFMM=   80 NAOKFM=F Big=F
 Leave Link  301 at Fri Sep  3 00:07:47 2021, MaxMem=  268435456 cpu:       0.1
 (Enter /sw/target/amd/app/gaussian/Gaussian09RevA.02_gcc-4.9.2/g09/l302.exe)
 NPDir=0 NMtPBC=     1 NCelOv=     1 NCel=       1 NClECP=     1 NCelD=      1
         NCelK=      1 NCelE2=     1 NClLst=     1 CellRange=     0.0.
 One-electron integrals computed using PRISM.
 NBasis=   236 RedAO= T  NBF=   236
 NBsUse=   236 1.00D-06 NBFU=   236
 Precomputing XC quadrature grid using
 IXCGrd= 2 IRadAn=           0 IRanWt=          -1 IRanGd=           0 AccXCQ= 1.00D-10.
 NRdTot=    1718 NPtTot=      218974 NUsed=      231364 NTot=      231396
 NSgBfM=   235   235   235   235   235 NAtAll=    27    27.
 Leave Link  302 at Fri Sep  3 00:07:48 2021, MaxMem=  268435456 cpu:       1.1
 (Enter /sw/target/amd/app/gaussian/Gaussian09RevA.02_gcc-4.9.2/g09/l303.exe)
 DipDrv:  MaxL=1.
 Leave Link  303 at Fri Sep  3 00:07:48 2021, MaxMem=  268435456 cpu:       0.1
 (Enter /sw/target/amd/app/gaussian/Gaussian09RevA.02_gcc-4.9.2/g09/l401.exe)
 Harris functional with IExCor=  402 diagonalized for initial guess.
 ExpMin= 1.61D-01 ExpMax= 5.48D+03 ExpMxC= 8.25D+02 IAcc=1 IRadAn=         1 AccDes= 0.00D+00
 HarFok:  IExCor=  402 AccDes= 0.00D+00 IRadAn=         1 IDoV= 1
 ScaDFX=  1.000000  1.000000  1.000000  1.000000
 FoFCou: FMM=F IPFlag=           0 FMFlag=      100000 FMFlg1=           0
         NFxFlg=           0 DoJE=T BraDBF=F KetDBF=T FulRan=T
         Omega=  0.000000  0.000000  1.000000  0.000000  0.000000 ICntrl=     500 IOpCl=  0
         NMat0=    1 NMatS0=    1 NMatT0=    0 NMatD0=    1 NMtDS0=    0 NMtDT0=    0
         I1Cent=           4 NGrid=           0.
 Petite list used in FoFCou.
 Harris En= -669.396799311724    
 Initial guess orbital symmetries:
       Occupied  (A) (A) (A) (A) (A) (A) (A) (A) (A) (A) (A) (A)
                 (A) (A) (A) (A) (A) (A) (A) (A) (A) (A) (A) (A)
                 (A) (A) (A) (A) (A) (A) (A) (A) (A) (A) (A) (A)
                 (A) (A) (A) (A) (A) (A) (A) (A) (A) (A) (A) (A)
                 (A) (A) (A) (A)
       Virtual   (A) (A) (A) (A) (A) (A) (A) (A) (A) (A) (A) (A)
                 (A) (A) (A) (A) (A) (A) (A) (A) (A) (A) (A) (A)
                 (A) (A) (A) (A) (A) (A) (A) (A) (A) (A) (A) (A)
                 (A) (A) (A) (A) (A) (A) (A) (A) (A) (A) (A) (A)
                 (A) (A) (A) (A) (A) (A) (A) (A) (A) (A) (A) (A)
                 (A) (A) (A) (A) (A) (A) (A) (A) (A) (A) (A) (A)
                 (A) (A) (A) (A) (A) (A) (A) (A) (A) (A) (A) (A)
                 (A) (A) (A) (A) (A) (A) (A) (A) (A) (A) (A) (A)
                 (A) (A) (A) (A) (A) (A) (A) (A) (A) (A) (A) (A)
                 (A) (A) (A) (A) (A) (A) (A) (A) (A) (A) (A) (A)
                 (A) (A) (A) (A) (A) (A) (A) (A) (A) (A) (A) (A)
                 (A) (A) (A) (A) (A) (A) (A) (A) (A) (A) (A) (A)
                 (A) (A) (A) (A) (A) (A) (A) (A) (A) (A) (A) (A)
                 (A) (A) (A) (A) (A) (A) (A) (A) (A) (A) (A) (A)
                 (A) (A) (A) (A) (A) (A) (A) (A) (A) (A) (A) (A)
                 (A) (A) (A) (A)
 The electronic state of the initial guess is 1-A.
 Leave Link  401 at Fri Sep  3 00:07:55 2021, MaxMem=  268435456 cpu:       6.0
 (Enter /sw/target/amd/app/gaussian/Gaussian09RevA.02_gcc-4.9.2/g09/l502.exe)
 Closed shell SCF:
 Requested convergence on RMS density matrix=1.00D-08 within  64 cycles.
 Requested convergence on MAX density matrix=1.00D-06.
 Requested convergence on             energy=1.00D-06.
 No special actions if energy rises.
 Using DIIS extrapolation, IDIIS=  1040.
 Integral symmetry usage will be decided dynamically.
       231108 words used for storage of precomputed grid.
 IEnd=      406938 IEndB=      406938 NGot=   268435456 MDV=   268088675
 LenX=   268088675 LenY=   268032538
 Fock matrices will be formed incrementally for  20 cycles.
 Integral accuracy reduced to 1.0D-05 until final iterations.

 Cycle   1  Pass 0  IDiag  1:
 FoFCou: FMM=F IPFlag=           0 FMFlag=      100000 FMFlg1=           0
         NFxFlg=           0 DoJE=F BraDBF=F KetDBF=F FulRan=T
         Omega=  0.000000  0.000000  1.000000  0.000000  0.000000 ICntrl=       0 IOpCl=  0
         NMat0=    1 NMatS0=    1 NMatT0=    0 NMatD0=    1 NMtDS0=    0 NMtDT0=    0
         I1Cent=           0 NGrid=           0.
 Symmetry not used in FoFCou.
 E= -668.952434469498    
 DIIS: error= 3.74D-02 at cycle   1 NSaved=   1.
 NSaved= 1 IEnMin= 1 EnMin= -668.952434469498     IErMin= 1 ErrMin= 3.74D-02
 ErrMax= 3.74D-02 EMaxC= 1.00D-01 BMatC= 3.84D-01 BMatP= 3.84D-01
 IDIUse=3 WtCom= 6.26D-01 WtEn= 3.74D-01
 Coeff-Com:  0.100D+01
 Coeff-En:   0.100D+01
 Coeff:      0.100D+01
 Gap=     0.252 Goal=   None    Shift=    0.000
 GapD=    0.252 DampG=1.000 DampE=0.500 DampFc=0.5000 IDamp=-1.
 Damping current iteration by 5.00D-01
 RMSDP=5.59D-03 MaxDP=2.10D-01              OVMax= 2.55D-01

 Cycle   2  Pass 0  IDiag  1:
 RMSU=  1.96D-03    CP:  9.82D-01
 E= -669.071067705848     Delta-E=       -0.118633236350 Rises=F Damp=T
 DIIS: error= 9.17D-03 at cycle   2 NSaved=   2.
 NSaved= 2 IEnMin= 2 EnMin= -669.071067705848     IErMin= 2 ErrMin= 9.17D-03
 ErrMax= 9.17D-03 EMaxC= 1.00D-01 BMatC= 5.37D-02 BMatP= 3.84D-01
 IDIUse=3 WtCom= 9.08D-01 WtEn= 9.17D-02
 Coeff-Com:  0.189D+00 0.811D+00
 Coeff-En:   0.282D+00 0.718D+00
 Coeff:      0.198D+00 0.802D+00
 Gap=     0.288 Goal=   None    Shift=    0.000
 RMSDP=1.78D-03 MaxDP=6.83D-02 DE=-1.19D-01 OVMax= 1.74D-01

 Cycle   3  Pass 0  IDiag  1:
 RMSU=  1.19D-03    CP:  9.75D-01  7.97D-01
 E= -669.258639655469     Delta-E=       -0.187571949621 Rises=F Damp=F
 DIIS: error= 1.28D-02 at cycle   3 NSaved=   3.
 NSaved= 3 IEnMin= 3 EnMin= -669.258639655469     IErMin= 2 ErrMin= 9.17D-03
 ErrMax= 1.28D-02 EMaxC= 1.00D-01 BMatC= 6.46D-02 BMatP= 5.37D-02
 IDIUse=2 WtCom= 0.00D+00 WtEn= 1.00D+00
 Coeff-En:   0.000D+00 0.000D+00 0.100D+01
 Coeff:      0.000D+00 0.000D+00 0.100D+01
 Gap=     0.224 Goal=   None    Shift=    0.000
 RMSDP=3.12D-03 MaxDP=1.47D-01 DE=-1.88D-01 OVMax= 2.35D-01

 Cycle   4  Pass 0  IDiag  1:
 RMSU=  9.38D-04    CP:  9.83D-01  1.18D+00 -5.60D-01
 E= -669.006150338440     Delta-E=        0.252489317029 Rises=F Damp=F
 DIIS: error= 3.41D-02 at cycle   4 NSaved=   4.
 NSaved= 4 IEnMin= 3 EnMin= -669.258639655469     IErMin= 2 ErrMin= 9.17D-03
 ErrMax= 3.41D-02 EMaxC= 1.00D-01 BMatC= 3.90D-01 BMatP= 5.37D-02
 IDIUse=2 WtCom= 0.00D+00 WtEn= 1.00D+00
 Coeff-En:   0.000D+00 0.000D+00 0.799D+00 0.201D+00
 Coeff:      0.000D+00 0.000D+00 0.799D+00 0.201D+00
 Gap=     0.237 Goal=   None    Shift=    0.000
 RMSDP=1.68D-03 MaxDP=7.82D-02 DE= 2.52D-01 OVMax= 1.30D-01

 Cycle   5  Pass 0  IDiag  1:
 RMSU=  1.90D-04    CP:  9.81D-01  8.91D-01  2.13D-01  5.07D-01
 E= -669.290769823522     Delta-E=       -0.284619485082 Rises=F Damp=F
 DIIS: error= 8.39D-03 at cycle   5 NSaved=   5.
 NSaved= 5 IEnMin= 5 EnMin= -669.290769823522     IErMin= 5 ErrMin= 8.39D-03
 ErrMax= 8.39D-03 EMaxC= 1.00D-01 BMatC= 2.68D-02 BMatP= 5.37D-02
 IDIUse=3 WtCom= 9.16D-01 WtEn= 8.39D-02
 Coeff-Com: -0.894D-02 0.481D-01 0.298D+00-0.946D-01 0.757D+00
 Coeff-En:   0.000D+00 0.000D+00 0.329D+00 0.000D+00 0.671D+00
 Coeff:     -0.819D-02 0.440D-01 0.301D+00-0.867D-01 0.750D+00
 Gap=     0.210 Goal=   None    Shift=    0.000
 RMSDP=5.97D-04 MaxDP=2.66D-02 DE=-2.85D-01 OVMax= 3.60D-02

 Cycle   6  Pass 0  IDiag  1:
 RMSU=  5.66D-05    CP:  9.79D-01  8.46D-01  5.16D-01  3.06D-01  7.73D-01
 E= -669.311991830437     Delta-E=       -0.021222006914 Rises=F Damp=F
 DIIS: error= 3.30D-04 at cycle   6 NSaved=   6.
 NSaved= 6 IEnMin= 6 EnMin= -669.311991830437     IErMin= 6 ErrMin= 3.30D-04
 ErrMax= 3.30D-04 EMaxC= 1.00D-01 BMatC= 1.23D-04 BMatP= 2.68D-02
 IDIUse=3 WtCom= 9.97D-01 WtEn= 3.30D-03
 Coeff-Com: -0.654D-02 0.226D-01 0.151D+00-0.598D-01 0.436D+00 0.457D+00
 Coeff-En:   0.000D+00 0.000D+00 0.000D+00 0.000D+00 0.000D+00 0.100D+01
 Coeff:     -0.652D-02 0.225D-01 0.150D+00-0.596D-01 0.435D+00 0.459D+00
 Gap=     0.211 Goal=   None    Shift=    0.000
 RMSDP=4.78D-05 MaxDP=2.55D-03 DE=-2.12D-02 OVMax= 2.71D-03

 Cycle   7  Pass 0  IDiag  1:
 RMSU=  1.82D-05    CP:  9.79D-01  8.50D-01  5.08D-01  3.09D-01  8.20D-01
                    CP:  5.73D-01
 E= -669.312080967391     Delta-E=       -0.000089136954 Rises=F Damp=F
 DIIS: error= 1.02D-04 at cycle   7 NSaved=   7.
 NSaved= 7 IEnMin= 7 EnMin= -669.312080967391     IErMin= 7 ErrMin= 1.02D-04
 ErrMax= 1.02D-04 EMaxC= 1.00D-01 BMatC= 9.21D-06 BMatP= 1.23D-04
 IDIUse=3 WtCom= 9.99D-01 WtEn= 1.02D-03
 Coeff-Com: -0.127D-02 0.260D-02 0.310D-01-0.138D-01 0.937D-01 0.223D+00
 Coeff-Com:  0.665D+00
 Coeff-En:   0.000D+00 0.000D+00 0.000D+00 0.000D+00 0.000D+00 0.357D-01
 Coeff-En:   0.964D+00
 Coeff:     -0.126D-02 0.260D-02 0.310D-01-0.138D-01 0.936D-01 0.223D+00
 Coeff:      0.665D+00
 Gap=     0.211 Goal=   None    Shift=    0.000
 RMSDP=1.40D-05 MaxDP=5.11D-04 DE=-8.91D-05 OVMax= 9.58D-04

 Cycle   8  Pass 0  IDiag  1:
 RMSU=  5.34D-06    CP:  9.79D-01  8.48D-01  5.12D-01  3.09D-01  8.12D-01
                    CP:  6.24D-01  6.80D-01
 E= -669.312088006843     Delta-E=       -0.000007039452 Rises=F Damp=F
 DIIS: error= 5.53D-05 at cycle   8 NSaved=   8.
 NSaved= 8 IEnMin= 8 EnMin= -669.312088006843     IErMin= 8 ErrMin= 5.53D-05
 ErrMax= 5.53D-05 EMaxC= 1.00D-01 BMatC= 8.18D-07 BMatP= 9.21D-06
 IDIUse=1 WtCom= 1.00D+00 WtEn= 0.00D+00
 Coeff-Com: -0.275D-03-0.457D-04 0.106D-01-0.450D-02 0.305D-01 0.109D+00
 Coeff-Com:  0.392D+00 0.463D+00
 Coeff:     -0.275D-03-0.457D-04 0.106D-01-0.450D-02 0.305D-01 0.109D+00
 Coeff:      0.392D+00 0.463D+00
 Gap=     0.211 Goal=   None    Shift=    0.000
 RMSDP=4.92D-06 MaxDP=1.93D-04 DE=-7.04D-06 OVMax= 4.30D-04

 Initial convergence to 1.0D-05 achieved.  Increase integral accuracy.
 Cycle   9  Pass 1  IDiag  1:
 E= -669.312102343371     Delta-E=       -0.000014336528 Rises=F Damp=F
 DIIS: error= 2.51D-05 at cycle   1 NSaved=   1.
 NSaved= 1 IEnMin= 1 EnMin= -669.312102343371     IErMin= 1 ErrMin= 2.51D-05
 ErrMax= 2.51D-05 EMaxC= 1.00D-01 BMatC= 1.37D-07 BMatP= 1.37D-07
 IDIUse=1 WtCom= 1.00D+00 WtEn= 0.00D+00
 Coeff-Com:  0.100D+01
 Coeff:      0.100D+01
 Gap=     0.211 Goal=   None    Shift=    0.000
 RMSDP=4.92D-06 MaxDP=1.93D-04 DE=-1.43D-05 OVMax= 2.90D-04

 Cycle  10  Pass 1  IDiag  1:
 RMSU=  8.82D-06    CP:  1.00D+00
 E= -669.312102242905     Delta-E=        0.000000100466 Rises=F Damp=F
 DIIS: error= 3.49D-05 at cycle   2 NSaved=   2.
 NSaved= 2 IEnMin= 1 EnMin= -669.312102343371     IErMin= 1 ErrMin= 2.51D-05
 ErrMax= 3.49D-05 EMaxC= 1.00D-01 BMatC= 2.40D-07 BMatP= 1.37D-07
 IDIUse=1 WtCom= 1.00D+00 WtEn= 0.00D+00
 Coeff-Com:  0.585D+00 0.415D+00
 Coeff:      0.585D+00 0.415D+00
 Gap=     0.211 Goal=   None    Shift=    0.000
 RMSDP=2.75D-06 MaxDP=8.69D-05 DE= 1.00D-07 OVMax= 2.56D-04

 Cycle  11  Pass 1  IDiag  1:
 RMSU=  1.90D-06    CP:  1.00D+00  9.56D-01
 E= -669.312102473301     Delta-E=       -0.000000230396 Rises=F Damp=F
 DIIS: error= 9.70D-06 at cycle   3 NSaved=   3.
 NSaved= 3 IEnMin= 3 EnMin= -669.312102473301     IErMin= 3 ErrMin= 9.70D-06
 ErrMax= 9.70D-06 EMaxC= 1.00D-01 BMatC= 2.01D-08 BMatP= 1.37D-07
 IDIUse=1 WtCom= 1.00D+00 WtEn= 0.00D+00
 Coeff-Com:  0.195D-01 0.222D+00 0.758D+00
 Coeff:      0.195D-01 0.222D+00 0.758D+00
 Gap=     0.211 Goal=   None    Shift=    0.000
 RMSDP=7.38D-07 MaxDP=2.02D-05 DE=-2.30D-07 OVMax= 6.14D-05

 Cycle  12  Pass 1  IDiag  1:
 RMSU=  2.53D-07    CP:  1.00D+00  9.76D-01  7.79D-01
 E= -669.312102491902     Delta-E=       -0.000000018601 Rises=F Damp=F
 DIIS: error= 1.92D-06 at cycle   4 NSaved=   4.
 NSaved= 4 IEnMin= 4 EnMin= -669.312102491902     IErMin= 4 ErrMin= 1.92D-06
 ErrMax= 1.92D-06 EMaxC= 1.00D-01 BMatC= 3.03D-09 BMatP= 2.01D-08
 IDIUse=1 WtCom= 1.00D+00 WtEn= 0.00D+00
 Coeff-Com: -0.986D-02 0.126D+00 0.486D+00 0.398D+00
 Coeff:     -0.986D-02 0.126D+00 0.486D+00 0.398D+00
 Gap=     0.211 Goal=   None    Shift=    0.000
 RMSDP=2.14D-07 MaxDP=9.87D-06 DE=-1.86D-08 OVMax= 1.27D-05

 Cycle  13  Pass 1  IDiag  1:
 RMSU=  7.48D-08    CP:  1.00D+00  9.77D-01  7.89D-01  4.88D-01
 E= -669.312102494197     Delta-E=       -0.000000002295 Rises=F Damp=F
 DIIS: error= 4.17D-07 at cycle   5 NSaved=   5.
 NSaved= 5 IEnMin= 5 EnMin= -669.312102494197     IErMin= 5 ErrMin= 4.17D-07
 ErrMax= 4.17D-07 EMaxC= 1.00D-01 BMatC= 1.05D-10 BMatP= 3.03D-09
 IDIUse=1 WtCom= 1.00D+00 WtEn= 0.00D+00
 Coeff-Com: -0.678D-02 0.538D-01 0.216D+00 0.220D+00 0.516D+00
 Coeff:     -0.678D-02 0.538D-01 0.216D+00 0.220D+00 0.516D+00
 Gap=     0.211 Goal=   None    Shift=    0.000
 RMSDP=4.83D-08 MaxDP=2.17D-06 DE=-2.29D-09 OVMax= 2.61D-06

 Cycle  14  Pass 1  IDiag  1:
 RMSU=  2.55D-08    CP:  1.00D+00  9.77D-01  7.94D-01  5.12D-01  7.37D-01
 E= -669.312102494271     Delta-E=       -0.000000000074 Rises=F Damp=F
 DIIS: error= 1.53D-07 at cycle   6 NSaved=   6.
 NSaved= 6 IEnMin= 6 EnMin= -669.312102494271     IErMin= 6 ErrMin= 1.53D-07
 ErrMax= 1.53D-07 EMaxC= 1.00D-01 BMatC= 1.37D-11 BMatP= 1.05D-10
 IDIUse=1 WtCom= 1.00D+00 WtEn= 0.00D+00
 Coeff-Com: -0.313D-02 0.186D-01 0.776D-01 0.912D-01 0.312D+00 0.504D+00
 Coeff:     -0.313D-02 0.186D-01 0.776D-01 0.912D-01 0.312D+00 0.504D+00
 Gap=     0.211 Goal=   None    Shift=    0.000
 RMSDP=1.55D-08 MaxDP=7.04D-07 DE=-7.37D-11 OVMax= 9.25D-07

 Cycle  15  Pass 1  IDiag  1:
 RMSU=  8.21D-09    CP:  1.00D+00  9.77D-01  7.93D-01  5.10D-01  7.85D-01
                    CP:  7.71D-01
 E= -669.312102494299     Delta-E=       -0.000000000028 Rises=F Damp=F
 DIIS: error= 4.22D-08 at cycle   7 NSaved=   7.
 NSaved= 7 IEnMin= 7 EnMin= -669.312102494299     IErMin= 7 ErrMin= 4.22D-08
 ErrMax= 4.22D-08 EMaxC= 1.00D-01 BMatC= 8.94D-13 BMatP= 1.37D-11
 IDIUse=1 WtCom= 1.00D+00 WtEn= 0.00D+00
 Coeff-Com: -0.562D-03 0.194D-02 0.910D-02 0.161D-01 0.844D-01 0.248D+00
 Coeff-Com:  0.641D+00
 Coeff:     -0.562D-03 0.194D-02 0.910D-02 0.161D-01 0.844D-01 0.248D+00
 Coeff:      0.641D+00
 Gap=     0.211 Goal=   None    Shift=    0.000
 RMSDP=5.15D-09 MaxDP=1.64D-07 DE=-2.84D-11 OVMax= 3.59D-07

 SCF Done:  E(RB3LYP) =  -669.312102494     A.U. after   15 cycles
             Convg  =    0.5153D-08             -V/T =  2.0095
 KE= 6.629997277477D+02 PE=-3.304059717239D+03 EE= 1.099683644110D+03
 Leave Link  502 at Fri Sep  3 00:11:28 2021, MaxMem=  268435456 cpu:     212.6
 (Enter /sw/target/amd/app/gaussian/Gaussian09RevA.02_gcc-4.9.2/g09/l508.exe)
 QCSCF skips out because SCF is already converged.
 Leave Link  508 at Fri Sep  3 00:11:28 2021, MaxMem=  268435456 cpu:       0.0
 (Enter /sw/target/amd/app/gaussian/Gaussian09RevA.02_gcc-4.9.2/g09/l601.exe)
 Copying SCF densities to generalized density rwf, IOpCl= 0 IROHF=0.

 **********************************************************************

            Population analysis using the SCF density.

 **********************************************************************

 Orbital symmetries:
       Occupied  (A) (A) (A) (A) (A) (A) (A) (A) (A) (A) (A) (A)
                 (A) (A) (A) (A) (A) (A) (A) (A) (A) (A) (A) (A)
                 (A) (A) (A) (A) (A) (A) (A) (A) (A) (A) (A) (A)
                 (A) (A) (A) (A) (A) (A) (A) (A) (A) (A) (A) (A)
                 (A) (A) (A) (A)
       Virtual   (A) (A) (A) (A) (A) (A) (A) (A) (A) (A) (A) (A)
                 (A) (A) (A) (A) (A) (A) (A) (A) (A) (A) (A) (A)
                 (A) (A) (A) (A) (A) (A) (A) (A) (A) (A) (A) (A)
                 (A) (A) (A) (A) (A) (A) (A) (A) (A) (A) (A) (A)
                 (A) (A) (A) (A) (A) (A) (A) (A) (A) (A) (A) (A)
                 (A) (A) (A) (A) (A) (A) (A) (A) (A) (A) (A) (A)
                 (A) (A) (A) (A) (A) (A) (A) (A) (A) (A) (A) (A)
                 (A) (A) (A) (A) (A) (A) (A) (A) (A) (A) (A) (A)
                 (A) (A) (A) (A) (A) (A) (A) (A) (A) (A) (A) (A)
                 (A) (A) (A) (A) (A) (A) (A) (A) (A) (A) (A) (A)
                 (A) (A) (A) (A) (A) (A) (A) (A) (A) (A) (A) (A)
                 (A) (A) (A) (A) (A) (A) (A) (A) (A) (A) (A) (A)
                 (A) (A) (A) (A) (A) (A) (A) (A) (A) (A) (A) (A)
                 (A) (A) (A) (A) (A) (A) (A) (A) (A) (A) (A) (A)
                 (A) (A) (A) (A) (A) (A) (A) (A) (A) (A) (A) (A)
                 (A) (A) (A) (A)
 The electronic state is 1-A.
 Alpha  occ. eigenvalues --  -19.19016 -19.17525 -19.11223 -14.36555 -10.33025
 Alpha  occ. eigenvalues --  -10.24402 -10.23929 -10.23859 -10.21927 -10.21544
 Alpha  occ. eigenvalues --  -10.19046 -10.18932 -10.18867 -10.18423  -1.09216
 Alpha  occ. eigenvalues --   -1.05993  -1.00365  -0.93380  -0.84755  -0.75591
 Alpha  occ. eigenvalues --   -0.74856  -0.72426  -0.70714  -0.67956  -0.62068
 Alpha  occ. eigenvalues --   -0.60261  -0.55966  -0.52980  -0.52302  -0.49371
 Alpha  occ. eigenvalues --   -0.47945  -0.47331  -0.46804  -0.45362  -0.44489
 Alpha  occ. eigenvalues --   -0.42852  -0.42308  -0.41698  -0.40814  -0.40156
 Alpha  occ. eigenvalues --   -0.39529  -0.39259  -0.37915  -0.36876  -0.36034
 Alpha  occ. eigenvalues --   -0.33007  -0.31645  -0.29470  -0.26746  -0.24785
 Alpha  occ. eigenvalues --   -0.23721  -0.21055
 Alpha virt. eigenvalues --   -0.00001   0.01637   0.05086   0.09019   0.09302
 Alpha virt. eigenvalues --    0.10888   0.12345   0.13361   0.14632   0.14826
 Alpha virt. eigenvalues --    0.15289   0.15593   0.16369   0.16712   0.17196
 Alpha virt. eigenvalues --    0.17469   0.17986   0.19041   0.20389   0.20721
 Alpha virt. eigenvalues --    0.23256   0.24673   0.26045   0.30688   0.34108
 Alpha virt. eigenvalues --    0.34546   0.35184   0.36476   0.38519   0.47881
 Alpha virt. eigenvalues --    0.48438   0.49931   0.50713   0.52073   0.52483
 Alpha virt. eigenvalues --    0.53026   0.54128   0.55579   0.56272   0.56431
 Alpha virt. eigenvalues --    0.57452   0.59162   0.59648   0.60190   0.61497
 Alpha virt. eigenvalues --    0.61892   0.63726   0.64601   0.65909   0.68118
 Alpha virt. eigenvalues --    0.69570   0.69805   0.72925   0.74823   0.75258
 Alpha virt. eigenvalues --    0.77039   0.79823   0.81103   0.81964   0.83514
 Alpha virt. eigenvalues --    0.84385   0.84476   0.85243   0.86306   0.87290
 Alpha virt. eigenvalues --    0.88192   0.88819   0.89047   0.90444   0.91431
 Alpha virt. eigenvalues --    0.93464   0.93845   0.95913   0.96162   0.96904
 Alpha virt. eigenvalues --    0.99070   0.99621   1.00986   1.02008   1.04401
 Alpha virt. eigenvalues --    1.06910   1.07886   1.12780   1.14154   1.16547
 Alpha virt. eigenvalues --    1.18700   1.18757   1.21640   1.24155   1.27054
 Alpha virt. eigenvalues --    1.28771   1.32662   1.35342   1.37751   1.38025
 Alpha virt. eigenvalues --    1.40454   1.41071   1.42394   1.44562   1.45289
 Alpha virt. eigenvalues --    1.47379   1.48214   1.50255   1.51567   1.53069
 Alpha virt. eigenvalues --    1.60129   1.64745   1.70012   1.72125   1.77287
 Alpha virt. eigenvalues --    1.79314   1.79963   1.81140   1.83387   1.85601
 Alpha virt. eigenvalues --    1.87523   1.88718   1.91132   1.91482   1.94328
 Alpha virt. eigenvalues --    1.95656   1.96434   1.97791   1.99620   2.01826
 Alpha virt. eigenvalues --    2.02895   2.04715   2.06656   2.07712   2.08809
 Alpha virt. eigenvalues --    2.09226   2.09941   2.11831   2.13539   2.15664
 Alpha virt. eigenvalues --    2.16908   2.20001   2.22721   2.25653   2.25800
 Alpha virt. eigenvalues --    2.26780   2.30517   2.32882   2.35867   2.36608
 Alpha virt. eigenvalues --    2.37380   2.38748   2.46389   2.49157   2.53073
 Alpha virt. eigenvalues --    2.54586   2.57005   2.59893   2.61974   2.64842
 Alpha virt. eigenvalues --    2.65562   2.67477   2.69960   2.73493   2.75707
 Alpha virt. eigenvalues --    2.78311   2.83402   2.91968   2.96236   2.98662
 Alpha virt. eigenvalues --    2.99028   3.13609   3.21274   3.24285   3.44164
 Alpha virt. eigenvalues --    3.99267   4.05349   4.06241   4.12207   4.14253
 Alpha virt. eigenvalues --    4.20655   4.23465   4.30042   4.30613   4.36356
 Alpha virt. eigenvalues --    4.41727   4.48851   4.52018   4.82643
          Condensed to atoms (all electrons):
              1          2          3          4          5          6
     1  C    4.895828   0.249319  -0.043641   0.004300  -0.000127  -0.000006
     2  O    0.249319   8.201067   0.280234  -0.055273   0.003201   0.000155
     3  C   -0.043641   0.280234   4.511040   0.543048  -0.020240  -0.037128
     4  C    0.004300  -0.055273   0.543048   4.999454   0.501573  -0.018146
     5  C   -0.000127   0.003201  -0.020240   0.501573   4.969085   0.541582
     6  C   -0.000006   0.000155  -0.037128  -0.018146   0.541582   4.523531
     7  O   -0.000000   0.000000   0.000134   0.003944  -0.047371   0.183162
     8  C   -0.000000   0.000000   0.000040   0.000012  -0.002060  -0.010039
     9  O   -0.000000   0.000000   0.000016  -0.000008  -0.000490   0.001999
    10  N   -0.000000   0.000000   0.000000   0.000002  -0.000231   0.001635
    11  C    0.000000  -0.000000   0.000000  -0.000000   0.000002  -0.000041
    12  C    0.000000  -0.000000   0.000000  -0.000000   0.000014   0.000304
    13  C    0.000309   0.003684  -0.004671  -0.034512  -0.064956   0.531368
    14  C   -0.006524  -0.061772   0.465427  -0.064387  -0.038357  -0.010072
    15  H    0.383821  -0.031166   0.003256  -0.000111   0.000003   0.000000
    16  H    0.364173  -0.035770  -0.004677   0.000108  -0.000006  -0.000003
    17  H    0.364185  -0.036375  -0.004887   0.000023   0.000006  -0.000008
    18  H   -0.000181  -0.000234  -0.035280   0.344599  -0.038861   0.004040
    19  H    0.000003  -0.000053   0.004387  -0.040084   0.350409  -0.038600
    20  H   -0.000000   0.000000   0.000000   0.000000  -0.000000   0.000001
    21  H    0.000000   0.000000  -0.000000  -0.000000   0.000000   0.000001
    22  H    0.000000  -0.000000  -0.000000  -0.000000  -0.000000  -0.000004
    23  H    0.000000  -0.000000   0.000000   0.000001  -0.000036   0.000350
    24  H    0.000000  -0.000000   0.000000  -0.000000   0.000003  -0.000019
    25  H   -0.000000  -0.000000  -0.000000   0.000000  -0.000001   0.000003
    26  H   -0.000006  -0.000041   0.003118   0.000329   0.006052  -0.032279
    27  H    0.005741  -0.007134  -0.045497   0.004356   0.000703   0.003231
              7          8          9         10         11         12
     1  C   -0.000000  -0.000000  -0.000000  -0.000000   0.000000   0.000000
     2  O    0.000000   0.000000   0.000000   0.000000  -0.000000  -0.000000
     3  C    0.000134   0.000040   0.000016   0.000000   0.000000   0.000000
     4  C    0.003944   0.000012  -0.000008   0.000002  -0.000000  -0.000000
     5  C   -0.047371  -0.002060  -0.000490  -0.000231   0.000002   0.000014
     6  C    0.183162  -0.010039   0.001999   0.001635  -0.000041   0.000304
     7  O    8.371648   0.253694  -0.072283  -0.087948   0.002417  -0.002612
     8  C    0.253694   4.162620   0.557573   0.326545  -0.031137  -0.027219
     9  O   -0.072283   0.557573   8.092255  -0.087979  -0.005981   0.002511
    10  N   -0.087948   0.326545  -0.087979   6.941858   0.305023   0.289150
    11  C    0.002417  -0.031137  -0.005981   0.305023   4.964959  -0.054125
    12  C   -0.002612  -0.027219   0.002511   0.289150  -0.054125   4.975409
    13  C   -0.044444  -0.003251   0.005200   0.000093  -0.000001  -0.000041
    14  C    0.004352   0.000062  -0.000345  -0.000003  -0.000000   0.000000
    15  H   -0.000000  -0.000000  -0.000000  -0.000000   0.000000  -0.000000
    16  H    0.000000   0.000000   0.000000  -0.000000   0.000000  -0.000000
    17  H    0.000000  -0.000000  -0.000000   0.000000  -0.000000   0.000000
    18  H   -0.000055  -0.000003  -0.000000  -0.000000   0.000000   0.000000
    19  H   -0.001614   0.000168   0.000021  -0.000035   0.000001  -0.000013
    20  H   -0.000030   0.003004   0.000466  -0.044740   0.376349  -0.003111
    21  H   -0.000008  -0.000437   0.000861  -0.056122   0.380305   0.000261
    22  H    0.000284  -0.002172   0.015525  -0.028214   0.372511   0.004192
    23  H    0.010246  -0.005957   0.000099  -0.024898   0.003809   0.375648
    24  H    0.000433  -0.000574   0.000044  -0.055768   0.000238   0.377022
    25  H    0.000290   0.002096  -0.000061  -0.041149  -0.003647   0.373195
    26  H   -0.005273   0.001938   0.002072  -0.000307   0.000010   0.000005
    27  H   -0.000056  -0.000015  -0.000004  -0.000000   0.000000  -0.000000
             13         14         15         16         17         18
     1  C    0.000309  -0.006524   0.383821   0.364173   0.364185  -0.000181
     2  O    0.003684  -0.061772  -0.031166  -0.035770  -0.036375  -0.000234
     3  C   -0.004671   0.465427   0.003256  -0.004677  -0.004887  -0.035280
     4  C   -0.034512  -0.064387  -0.000111   0.000108   0.000023   0.344599
     5  C   -0.064956  -0.038357   0.000003  -0.000006   0.000006  -0.038861
     6  C    0.531368  -0.010072   0.000000  -0.000003  -0.000008   0.004040
     7  O   -0.044444   0.004352  -0.000000   0.000000   0.000000  -0.000055
     8  C   -0.003251   0.000062  -0.000000   0.000000  -0.000000  -0.000003
     9  O    0.005200  -0.000345  -0.000000   0.000000  -0.000000  -0.000000
    10  N    0.000093  -0.000003  -0.000000  -0.000000   0.000000  -0.000000
    11  C   -0.000001  -0.000000   0.000000   0.000000  -0.000000   0.000000
    12  C   -0.000041   0.000000  -0.000000  -0.000000   0.000000   0.000000
    13  C    4.960949   0.465694   0.000001  -0.000152  -0.000127   0.000036
    14  C    0.465694   5.123471   0.000168   0.005316   0.004681   0.007389
    15  H    0.000001   0.000168   0.544254  -0.033307  -0.034551  -0.000028
    16  H   -0.000152   0.005316  -0.033307   0.593950  -0.046551   0.000028
    17  H   -0.000127   0.004681  -0.034551  -0.046551   0.600292   0.000029
    18  H    0.000036   0.007389  -0.000028   0.000028   0.000029   0.584373
    19  H    0.006565  -0.000013  -0.000000  -0.000000  -0.000000  -0.006652
    20  H    0.000000  -0.000000  -0.000000   0.000000   0.000000  -0.000000
    21  H    0.000001   0.000000  -0.000000  -0.000000   0.000000   0.000000
    22  H   -0.000002   0.000000   0.000000   0.000000  -0.000000   0.000000
    23  H    0.000034  -0.000001   0.000000  -0.000000   0.000000  -0.000000
    24  H    0.000002   0.000000   0.000000  -0.000000   0.000000   0.000000
    25  H    0.000000  -0.000000  -0.000000  -0.000000   0.000000   0.000000
    26  H    0.349421  -0.038201  -0.000000   0.000001   0.000003   0.000012
    27  H   -0.035039   0.352379  -0.000123   0.001692   0.001856  -0.000167
             19         20         21         22         23         24
     1  C    0.000003  -0.000000   0.000000   0.000000   0.000000   0.000000
     2  O   -0.000053   0.000000   0.000000  -0.000000  -0.000000  -0.000000
     3  C    0.004387   0.000000  -0.000000  -0.000000   0.000000   0.000000
     4  C   -0.040084   0.000000  -0.000000  -0.000000   0.000001  -0.000000
     5  C    0.350409  -0.000000   0.000000  -0.000000  -0.000036   0.000003
     6  C   -0.038600   0.000001   0.000001  -0.000004   0.000350  -0.000019
     7  O   -0.001614  -0.000030  -0.000008   0.000284   0.010246   0.000433
     8  C    0.000168   0.003004  -0.000437  -0.002172  -0.005957  -0.000574
     9  O    0.000021   0.000466   0.000861   0.015525   0.000099   0.000044
    10  N   -0.000035  -0.044740  -0.056122  -0.028214  -0.024898  -0.055768
    11  C    0.000001   0.376349   0.380305   0.372511   0.003809   0.000238
    12  C   -0.000013  -0.003111   0.000261   0.004192   0.375648   0.377022
    13  C    0.006565   0.000000   0.000001  -0.000002   0.000034   0.000002
    14  C   -0.000013  -0.000000   0.000000   0.000000  -0.000001   0.000000
    15  H   -0.000000  -0.000000  -0.000000   0.000000   0.000000   0.000000
    16  H   -0.000000   0.000000  -0.000000   0.000000  -0.000000  -0.000000
    17  H   -0.000000   0.000000   0.000000  -0.000000   0.000000   0.000000
    18  H   -0.006652  -0.000000   0.000000   0.000000  -0.000000   0.000000
    19  H    0.586516  -0.000000  -0.000000  -0.000000   0.000107   0.000000
    20  H   -0.000000   0.575032  -0.042925  -0.022465   0.000150  -0.001604
    21  H   -0.000000  -0.042925   0.589349  -0.027971  -0.000192   0.006757
    22  H   -0.000000  -0.022465  -0.027971   0.485927  -0.000175  -0.000230
    23  H    0.000107   0.000150  -0.000192  -0.000175   0.499986  -0.029776
    24  H    0.000000  -0.001604   0.006757  -0.000230  -0.029776   0.592391
    25  H   -0.000000   0.006976  -0.001996   0.000095  -0.023136  -0.042696
    26  H   -0.000159  -0.000000   0.000003  -0.000001  -0.000002   0.000009
    27  H    0.000015   0.000000  -0.000000   0.000000   0.000000  -0.000000
             25         26         27
     1  C   -0.000000  -0.000006   0.005741
     2  O   -0.000000  -0.000041  -0.007134
     3  C   -0.000000   0.003118  -0.045497
     4  C    0.000000   0.000329   0.004356
     5  C   -0.000001   0.006052   0.000703
     6  C    0.000003  -0.032279   0.003231
     7  O    0.000290  -0.005273  -0.000056
     8  C    0.002096   0.001938  -0.000015
     9  O   -0.000061   0.002072  -0.000004
    10  N   -0.041149  -0.000307  -0.000000
    11  C   -0.003647   0.000010   0.000000
    12  C    0.373195   0.000005  -0.000000
    13  C    0.000000   0.349421  -0.035039
    14  C   -0.000000  -0.038201   0.352379
    15  H   -0.000000  -0.000000  -0.000123
    16  H   -0.000000   0.000001   0.001692
    17  H    0.000000   0.000003   0.001856
    18  H    0.000000   0.000012  -0.000167
    19  H   -0.000000  -0.000159   0.000015
    20  H    0.006976  -0.000000   0.000000
    21  H   -0.001996   0.000003  -0.000000
    22  H    0.000095  -0.000001   0.000000
    23  H   -0.023136  -0.000002   0.000000
    24  H   -0.042696   0.000009  -0.000000
    25  H    0.575632  -0.000000   0.000000
    26  H   -0.000000   0.574242  -0.005739
    27  H    0.000000  -0.005739   0.587840
 Mulliken atomic charges:
              1
     1  C   -0.217193
     2  O   -0.509841
     3  C    0.385318
     4  C   -0.189229
     5  C   -0.159898
     6  C    0.354984
     7  O   -0.568911
     8  C    0.775111
     9  O   -0.511490
    10  N   -0.436912
    11  C   -0.310690
    12  C   -0.310590
    13  C   -0.136163
    14  C   -0.209265
    15  H    0.167783
    16  H    0.155195
    17  H    0.151424
    18  H    0.140954
    19  H    0.139033
    20  H    0.152898
    21  H    0.152114
    22  H    0.202701
    23  H    0.193745
    24  H    0.153767
    25  H    0.154400
    26  H    0.144792
    27  H    0.135961
 Sum of Mulliken atomic charges =  -0.00000
 Mulliken charges with hydrogens summed into heavy atoms:
              1
     1  C    0.257210
     2  O   -0.509841
     3  C    0.385318
     4  C   -0.048275
     5  C   -0.020864
     6  C    0.354984
     7  O   -0.568911
     8  C    0.775111
     9  O   -0.511490
    10  N   -0.436912
    11  C    0.197023
    12  C    0.191321
    13  C    0.008629
    14  C   -0.073303
 Sum of Mulliken charges with hydrogens summed into heavy atoms =  -0.00000
 Electronic spatial extent (au):  <R**2>=           4113.6500
 Charge=             -0.0000 electrons
 Dipole moment (field-independent basis, Debye):
    X=             -0.8711    Y=              0.2285    Z=              1.7783  Tot=              1.9934
 Quadrupole moment (field-independent basis, Debye-Ang):
   XX=            -59.9398   YY=            -79.3243   ZZ=            -83.0647
   XY=             -7.8890   XZ=             -0.1961   YZ=             -4.6357
 Traceless Quadrupole moment (field-independent basis, Debye-Ang):
   XX=             14.1698   YY=             -5.2147   ZZ=             -8.9551
   XY=             -7.8890   XZ=             -0.1961   YZ=             -4.6357
 Octapole moment (field-independent basis, Debye-Ang**2):
  XXX=            -25.3374  YYY=              4.9161  ZZZ=             -0.8112  XYY=              4.5037
  XXY=            -30.7410  XXZ=             11.4203  XZZ=             -3.4543  YZZ=             -0.5040
  YYZ=             -0.3436  XYZ=             -4.2527
 Hexadecapole moment (field-independent basis, Debye-Ang**3):
 XXXX=          -3963.8868 YYYY=           -515.9641 ZZZZ=           -244.5845 XXXY=           -139.9253
 XXXZ=             51.3840 YYYX=             -3.4530 YYYZ=            -10.8410 ZZZX=             -1.5408
 ZZZY=              1.0828 XXYY=           -808.3868 XXZZ=           -800.9290 YYZZ=           -123.8065
 XXYZ=             -1.0786 YYXZ=             -9.3403 ZZXY=              1.1400
 N-N= 8.720642428871D+02 E-N=-3.304059727554D+03  KE= 6.629997277477D+02
 No NMR shielding tensors so no spin-rotation constants.
 Leave Link  601 at Fri Sep  3 00:11:29 2021, MaxMem=  268435456 cpu:       0.4
 (Enter /sw/target/amd/app/gaussian/Gaussian09RevA.02_gcc-4.9.2/g09/l701.exe)
 Compute integral first derivatives.
 ... and contract with generalized density number  0.
 Leave Link  701 at Fri Sep  3 00:11:29 2021, MaxMem=  268435456 cpu:       0.4
 (Enter /sw/target/amd/app/gaussian/Gaussian09RevA.02_gcc-4.9.2/g09/l702.exe)
 L702 exits ... SP integral derivatives will be done elsewhere.
 Leave Link  702 at Fri Sep  3 00:11:29 2021, MaxMem=  268435456 cpu:       0.1
 (Enter /sw/target/amd/app/gaussian/Gaussian09RevA.02_gcc-4.9.2/g09/l703.exe)
 Compute integral first derivatives, UseDBF=F ICtDFT=           0.
 Integral derivatives from FoFDir, PRISM(SPDF).
 Calling FoFJK, ICntrl=      2127 FMM=F ISym2X=0 I1Cent= 0 IOpClX= 0 NMat=1 NMatS=1 NMatT=0.
 FoFCou: FMM=F IPFlag=           0 FMFlag=      100000 FMFlg1=         800
         NFxFlg=           0 DoJE=F BraDBF=F KetDBF=F FulRan=T
         Omega=  0.000000  0.000000  1.000000  0.000000  0.000000 ICntrl=    2127 IOpCl=  0
         NMat0=    1 NMatS0=    1 NMatT0=    0 NMatD0=    1 NMtDS0=    0 NMtDT0=    0
         I1Cent=           0 NGrid=           0.
 Symmetry not used in FoFCou.
 Leave Link  703 at Fri Sep  3 00:12:43 2021, MaxMem=  268435456 cpu:      73.2
 (Enter /sw/target/amd/app/gaussian/Gaussian09RevA.02_gcc-4.9.2/g09/l716.exe)
 Dipole        =-3.42731949D-01 8.98873320D-02 6.99641666D-01
 ***** Axes restored to original set *****
 -------------------------------------------------------------------
 Center     Atomic                   Forces (Hartrees/Bohr)
 Number     Number              X              Y              Z
 -------------------------------------------------------------------
      1        6           0.004602245   -0.002293848    0.002263223
      2        8           0.002683035    0.005446153   -0.004194024
      3        6           0.001444854   -0.004736159    0.004949377
      4        6          -0.007193710   -0.004693019    0.002853987
      5        6           0.007647525    0.001988791    0.000040788
      6        6          -0.004804114    0.000846860   -0.003442330
      7        8          -0.009603231    0.010545929    0.002840763
      8        6          -0.009984077    0.014899893    0.002486490
      9        8          -0.003315258   -0.019215378   -0.004844203
     10        7           0.032352765   -0.005972665    0.009010019
     11        6           0.000898662    0.000843497   -0.000904263
     12        6           0.000953074    0.001381518   -0.001492311
     13        6           0.001169805   -0.002195103    0.003322817
     14        6          -0.001737317    0.003008685   -0.003774238
     15        1          -0.001917012   -0.003293977    0.002806673
     16        1          -0.002474696    0.001563760   -0.002548772
     17        1          -0.002260833    0.002556614   -0.002042325
     18        1           0.001295234    0.001631533   -0.001807479
     19        1          -0.001430026    0.001057978   -0.000300791
     20        1          -0.002280578   -0.000043672   -0.000545419
     21        1          -0.005415630    0.004031541   -0.001357208
     22        1           0.003228248   -0.004654513   -0.001770341
     23        1           0.000603399    0.004228471    0.000511713
     24        1          -0.004400646   -0.005254622   -0.004042530
     25        1          -0.001772359   -0.000194906   -0.000701339
     26        1           0.000075263   -0.000686149    0.001858844
     27        1           0.001635379   -0.000797212    0.000822880
 -------------------------------------------------------------------
 Cartesian Forces:  Max     0.032352765 RMS     0.005793025
 Leave Link  716 at Fri Sep  3 00:12:43 2021, MaxMem=  268435456 cpu:       0.1
 (Enter /sw/target/amd/app/gaussian/Gaussian09RevA.02_gcc-4.9.2/g09/l103.exe)

 GradGradGradGradGradGradGradGradGradGradGradGradGradGradGradGradGradGrad
 Berny optimization.
 Internal  Forces:  Max     0.022558325 RMS     0.004162147
 Search for a local minimum.
 Step number   1 out of a maximum of  130
 All quantities printed in internal units (Hartrees-Bohrs-Radians)
 RMS Force = .41621D-02 SwitMx=.10000D-02 MixMth= 1
 Mixed Optimization -- RFO/linear search
 Second derivative matrix not updated -- first step.
     Eigenvalues ---    0.01000   0.01029   0.01314   0.01402   0.01677
     Eigenvalues ---    0.01771   0.01795   0.01808   0.02104   0.02108
     Eigenvalues ---    0.02112   0.02113   0.02116   0.02125   0.02138
     Eigenvalues ---    0.02145   0.02175   0.02188   0.07403   0.07443
     Eigenvalues ---    0.07742   0.07756   0.09986   0.10544   0.15999
     Eigenvalues ---    0.16000   0.16000   0.16000   0.16000   0.16000
     Eigenvalues ---    0.16000   0.16000   0.16000   0.16000   0.16000
     Eigenvalues ---    0.16000   0.16000   0.21997   0.22979   0.23989
     Eigenvalues ---    0.24251   0.24533   0.24926   0.24999   0.25000
     Eigenvalues ---    0.25000   0.25000   0.25000   0.34231   0.34245
     Eigenvalues ---    0.34322   0.34347   0.34359   0.34362   0.34369
     Eigenvalues ---    0.34444   0.34539   0.35143   0.35288   0.35363
     Eigenvalues ---    0.35450   0.37942   0.38235   0.41893   0.42171
     Eigenvalues ---    0.42382   0.45431   0.45859   0.46178   0.46418
     Eigenvalues ---    0.46629   0.46868   0.47106   0.51324   0.92223
     Eigenvalues --- 1000.000001000.000001000.000001000.000001000.00000
     Eigenvalues --- 1000.000001000.000001000.000001000.000001000.00000
     Eigenvalues --- 1000.000001000.000001000.000001000.000001000.00000
     Eigenvalues --- 1000.000001000.000001000.000001000.000001000.00000
     Eigenvalues --- 1000.000001000.000001000.000001000.000001000.00000
     Eigenvalues --- 1000.000001000.000001000.000001000.000001000.00000
     Eigenvalues --- 1000.000001000.000001000.000001000.000001000.00000
     Eigenvalues --- 1000.000001000.000001000.000001000.000001000.00000
     Eigenvalues --- 1000.000001000.000001000.000001000.000001000.00000
 RFO step:  Lambda=-6.97635877D-03 EMin= 9.99666403D-03
 Linear search not attempted -- first point.
 Iteration  1 RMS(Cart)=  0.07146530 RMS(Int)=  0.00199606
 Iteration  2 RMS(Cart)=  0.00329101 RMS(Int)=  0.00019632
 Iteration  3 RMS(Cart)=  0.00000560 RMS(Int)=  0.00019627
 Iteration  4 RMS(Cart)=  0.00000000 RMS(Int)=  0.00019627
 Variable       Old X    -DE/DX   Delta X   Delta X   Delta X     New X
                                 (Linear)    (Quad)   (Total)
    R1        2.68706  -0.00224   0.00000  -0.00523  -0.00523   2.68182
    R2        2.06790  -0.00101   0.00000  -0.00289  -0.00289   2.06501
    R3        2.06942   0.00156   0.00000   0.00446   0.00446   2.07388
    R4        2.06919   0.00179   0.00000   0.00513   0.00513   2.07432
    R5        2.58552   0.00038   0.00000   0.00073   0.00073   2.58625
    R6        2.64479   0.00171   0.00000   0.00399   0.00400   2.64879
    R7        2.64113   0.00126   0.00000   0.00299   0.00300   2.64413
    R8        2.63688  -0.00336   0.00000  -0.00713  -0.00713   2.62975
    R9        2.05443  -0.00134   0.00000  -0.00373  -0.00373   2.05070
   R10        2.62896   0.00169   0.00000   0.00325   0.00324   2.63220
   R11        2.05089  -0.00022   0.00000  -0.00061  -0.00061   2.05028
   R12        2.64778  -0.00133   0.00000  -0.00288  -0.00288   2.64490
   R13        2.63313  -0.00334   0.00000  -0.00733  -0.00734   2.62578
   R14        2.63429  -0.01482   0.00000  -0.03131  -0.03131   2.60298
   R15        2.31925  -0.01961   0.00000  -0.02111  -0.02111   2.29814
   R16        2.62903  -0.02256   0.00000  -0.04719  -0.04719   2.58184
   R17        2.74024   0.00194   0.00000   0.00498   0.00498   2.74523
   R18        2.74449   0.00355   0.00000   0.00918   0.00918   2.75367
   R19        2.06712   0.00147   0.00000   0.00419   0.00419   2.07131
   R20        2.06749   0.00410   0.00000   0.01171   0.01171   2.07920
   R21        2.06587  -0.00310   0.00000  -0.00881  -0.00881   2.05706
   R22        2.06430  -0.00274   0.00000  -0.00778  -0.00778   2.05653
   R23        2.06723   0.00427   0.00000   0.01218   0.01218   2.07941
   R24        2.06729   0.00116   0.00000   0.00332   0.00332   2.07061
   R25        2.64242  -0.00068   0.00000  -0.00146  -0.00145   2.64096
   R26        2.05209  -0.00159   0.00000  -0.00441  -0.00441   2.04769
   R27        2.04951  -0.00035   0.00000  -0.00097  -0.00097   2.04854
    A1        1.88108  -0.00624   0.00000  -0.03482  -0.03475   1.84633
    A2        1.94091   0.00121   0.00000   0.00589   0.00593   1.94685
    A3        1.93872   0.00192   0.00000   0.01020   0.01025   1.94898
    A4        1.87955   0.00347   0.00000   0.02320   0.02326   1.90280
    A5        1.87934   0.00318   0.00000   0.02166   0.02175   1.90110
    A6        1.94112  -0.00352   0.00000  -0.02548  -0.02545   1.91568
    A7        2.03878   0.00387   0.00000   0.01508   0.01508   2.05385
    A8        1.99980   0.00518   0.00000   0.01962   0.01962   2.01942
    A9        2.19840  -0.00509   0.00000  -0.02034  -0.02033   2.17807
   A10        2.08497  -0.00008   0.00000   0.00074   0.00072   2.08569
   A11        2.10622  -0.00129   0.00000  -0.00511  -0.00515   2.10107
   A12        2.08779  -0.00183   0.00000  -0.01225  -0.01223   2.07556
   A13        2.08917   0.00312   0.00000   0.01736   0.01738   2.10655
   A14        2.07977   0.00207   0.00000   0.00848   0.00841   2.08818
   A15        2.09863   0.00069   0.00000   0.00614   0.00615   2.10478
   A16        2.10478  -0.00277   0.00000  -0.01459  -0.01457   2.09020
   A17        2.05172   0.00033   0.00000   0.00182   0.00185   2.05357
   A18        2.11155  -0.00147   0.00000  -0.00687  -0.00694   2.10461
   A19        2.11729   0.00114   0.00000   0.00498   0.00502   2.12231
   A20        2.03962   0.00340   0.00000   0.01322   0.01322   2.05284
   A21        2.16940   0.00058   0.00000   0.00230   0.00193   2.17133
   A22        1.96130  -0.01123   0.00000  -0.04364  -0.04402   1.91728
   A23        2.15248   0.01065   0.00000   0.04150   0.04110   2.19359
   A24        2.07474  -0.00281   0.00000  -0.01118  -0.01118   2.06357
   A25        2.14213   0.00256   0.00000   0.01031   0.01031   2.15245
   A26        2.04058   0.00026   0.00000   0.00104   0.00105   2.04163
   A27        1.90473   0.00146   0.00000   0.00830   0.00787   1.91261
   A28        1.89610   0.00907   0.00000   0.05738   0.05746   1.95356
   A29        1.95243  -0.00908   0.00000  -0.05709  -0.05680   1.89563
   A30        1.91247  -0.00395   0.00000  -0.01809  -0.01869   1.89378
   A31        1.89740   0.00262   0.00000   0.00984   0.00962   1.90702
   A32        1.90050  -0.00017   0.00000  -0.00044   0.00033   1.90083
   A33        1.95620  -0.00662   0.00000  -0.04150  -0.04138   1.91482
   A34        1.89388   0.01052   0.00000   0.06697   0.06704   1.96092
   A35        1.90583   0.00026   0.00000  -0.00061  -0.00100   1.90483
   A36        1.90251  -0.00153   0.00000  -0.00530  -0.00476   1.89775
   A37        1.89267   0.00171   0.00000   0.00278   0.00244   1.89511
   A38        1.91252  -0.00446   0.00000  -0.02290  -0.02331   1.88921
   A39        2.08603   0.00160   0.00000   0.00639   0.00634   2.09237
   A40        2.10393  -0.00172   0.00000  -0.00869  -0.00867   2.09526
   A41        2.09318   0.00012   0.00000   0.00233   0.00235   2.09553
   A42        2.09740  -0.00081   0.00000  -0.00299  -0.00301   2.09439
   A43        2.12740  -0.00161   0.00000  -0.01056  -0.01055   2.11685
   A44        2.05838   0.00242   0.00000   0.01355   0.01356   2.07194
    D1        3.11241  -0.00004   0.00000  -0.00095  -0.00093   3.11148
    D2        1.05607  -0.00114   0.00000  -0.01127  -0.01125   1.04482
    D3       -1.11592   0.00113   0.00000   0.01002   0.00997  -1.10595
    D4       -3.09403  -0.00026   0.00000  -0.00928  -0.00927  -3.10330
    D5        0.05446  -0.00033   0.00000  -0.01175  -0.01176   0.04270
    D6        3.14061  -0.00006   0.00000  -0.00270  -0.00272   3.13789
    D7       -0.00092   0.00003   0.00000   0.00046   0.00042  -0.00050
    D8       -0.00739  -0.00002   0.00000  -0.00050  -0.00047  -0.00787
    D9        3.13427   0.00007   0.00000   0.00266   0.00266   3.13693
   D10        3.13954  -0.00002   0.00000  -0.00123  -0.00125   3.13828
   D11       -0.00073  -0.00002   0.00000  -0.00125  -0.00129  -0.00202
   D12        0.00514  -0.00011   0.00000  -0.00387  -0.00389   0.00126
   D13       -3.13512  -0.00011   0.00000  -0.00389  -0.00392  -3.13904
   D14       -0.00997   0.00044   0.00000   0.01527   0.01531   0.00534
   D15        3.13553   0.00014   0.00000   0.00438   0.00434   3.13987
   D16        3.13155   0.00035   0.00000   0.01210   0.01212  -3.13951
   D17       -0.00613   0.00005   0.00000   0.00121   0.00115  -0.00499
   D18        3.09477  -0.00075   0.00000  -0.02695  -0.02696   3.06781
   D19        0.03003  -0.00077   0.00000  -0.02617  -0.02617   0.00386
   D20       -0.05074  -0.00043   0.00000  -0.01597  -0.01603  -0.06677
   D21       -3.11549  -0.00045   0.00000  -0.01519  -0.01523  -3.13072
   D22        2.12014   0.00049   0.00000   0.01904   0.01905   2.13919
   D23       -1.09858   0.00038   0.00000   0.01770   0.01769  -1.08088
   D24       -0.03233   0.00065   0.00000   0.02194   0.02188  -0.01045
   D25        3.11998   0.00057   0.00000   0.01950   0.01945   3.13944
   D26       -3.09416   0.00067   0.00000   0.02291   0.02287  -3.07129
   D27        0.05815   0.00060   0.00000   0.02048   0.02045   0.07859
   D28       -0.01876   0.00032   0.00000   0.01357   0.01402  -0.00474
   D29        3.11924   0.00159   0.00000   0.06373   0.06328  -3.10066
   D30       -3.02288  -0.00075   0.00000  -0.02975  -0.02996  -3.05284
   D31       -0.13065  -0.00071   0.00000  -0.02887  -0.02909  -0.15974
   D32        0.11517   0.00048   0.00000   0.01975   0.01997   0.13514
   D33        3.00740   0.00052   0.00000   0.02063   0.02084   3.02824
   D34       -2.44509   0.00136   0.00000   0.02337   0.02351  -2.42158
   D35        1.75371  -0.00005   0.00000   0.00662   0.00608   1.75979
   D36       -0.34476  -0.00016   0.00000   0.00488   0.00528  -0.33948
   D37        0.93147   0.00096   0.00000   0.02108   0.02123   0.95270
   D38       -1.15291  -0.00045   0.00000   0.00434   0.00379  -1.14911
   D39        3.03181  -0.00057   0.00000   0.00259   0.00299   3.03480
   D40        0.45374   0.00088   0.00000  -0.00325  -0.00361   0.45013
   D41       -1.64812  -0.00008   0.00000  -0.01531  -0.01494  -1.66306
   D42        2.55129  -0.00103   0.00000  -0.02669  -0.02671   2.52458
   D43       -2.93266   0.00051   0.00000  -0.00406  -0.00441  -2.93706
   D44        1.24867  -0.00045   0.00000  -0.01612  -0.01574   1.23293
   D45       -0.83510  -0.00141   0.00000  -0.02749  -0.02751  -0.86261
   D46        0.01441  -0.00017   0.00000  -0.00653  -0.00658   0.00783
   D47       -3.12846  -0.00017   0.00000  -0.00652  -0.00656  -3.13502
   D48       -3.13783  -0.00010   0.00000  -0.00418  -0.00423   3.14113
   D49        0.00249  -0.00011   0.00000  -0.00418  -0.00421  -0.00172
         Item               Value     Threshold  Converged?
 Maximum Force            0.022558     0.000450     NO 
 RMS     Force            0.004162     0.000300     NO 
 Maximum Displacement     0.249893     0.001800     NO 
 RMS     Displacement     0.072098     0.001200     NO 
 Predicted change in Energy=-3.636841D-03
 GradGradGradGradGradGradGradGradGradGradGradGradGradGradGradGradGradGrad

 Leave Link  103 at Fri Sep  3 00:12:43 2021, MaxMem=  268435456 cpu:       0.1
 (Enter /sw/target/amd/app/gaussian/Gaussian09RevA.02_gcc-4.9.2/g09/l202.exe)
                          Input orientation:                          
 ---------------------------------------------------------------------
 Center     Atomic      Atomic             Coordinates (Angstroms)
 Number     Number       Type             X           Y           Z
 ---------------------------------------------------------------------
      1          6           0        5.078707    0.540067   -0.703071
      2          8           0        4.358387   -0.376850    0.105888
[...]
 Copying SCF densities to generalized density rwf, IOpCl= 0 IROHF=0.

 **********************************************************************

            Population analysis using the SCF density.

 **********************************************************************

 Orbital symmetries:
       Occupied  (A) (A) (A) (A) (A) (A) (A) (A) (A) (A) (A) (A)
                 (A) (A) (A) (A) (A) (A) (A) (A) (A) (A) (A) (A)
                 (A) (A) (A) (A) (A) (A) (A) (A) (A) (A) (A) (A)
                 (A) (A) (A) (A) (A) (A) (A) (A) (A) (A) (A) (A)
                 (A) (A) (A) (A)
       Virtual   (A) (A) (A) (A) (A) (A) (A) (A) (A) (A) (A) (A)
                 (A) (A) (A) (A) (A) (A) (A) (A) (A) (A) (A) (A)
                 (A) (A) (A) (A) (A) (A) (A) (A) (A) (A) (A) (A)
                 (A) (A) (A) (A) (A) (A) (A) (A) (A) (A) (A) (A)
                 (A) (A) (A) (A) (A) (A) (A) (A) (A) (A) (A) (A)
                 (A) (A) (A) (A) (A) (A) (A) (A) (A) (A) (A) (A)
                 (A) (A) (A) (A) (A) (A) (A) (A) (A) (A) (A) (A)
                 (A) (A) (A) (A) (A) (A) (A) (A) (A) (A) (A) (A)
                 (A) (A) (A) (A) (A) (A) (A) (A) (A) (A) (A) (A)
                 (A) (A) (A) (A) (A) (A) (A) (A) (A) (A) (A) (A)
                 (A) (A) (A) (A) (A) (A) (A) (A) (A) (A) (A) (A)
                 (A) (A) (A) (A) (A) (A) (A) (A) (A) (A) (A) (A)
                 (A) (A) (A) (A) (A) (A) (A) (A) (A) (A) (A) (A)
                 (A) (A) (A) (A) (A) (A) (A) (A) (A) (A) (A) (A)
                 (A) (A) (A) (A) (A) (A) (A) (A) (A) (A) (A) (A)
                 (A) (A) (A) (A)
 The electronic state is 1-A.
 Alpha  occ. eigenvalues --  -19.18977 -19.17407 -19.11244 -14.36736 -10.32959
 Alpha  occ. eigenvalues --  -10.24287 -10.23960 -10.23873 -10.22066 -10.21538
 Alpha  occ. eigenvalues --  -10.18857 -10.18757 -10.18672 -10.18396  -1.10073
 Alpha  occ. eigenvalues --   -1.05979  -1.00960  -0.93891  -0.84736  -0.75793
 Alpha  occ. eigenvalues --   -0.74812  -0.72497  -0.71174  -0.68075  -0.62351
 Alpha  occ. eigenvalues --   -0.60221  -0.55917  -0.53206  -0.52593  -0.49367
 Alpha  occ. eigenvalues --   -0.48380  -0.47293  -0.46525  -0.45243  -0.44427
 Alpha  occ. eigenvalues --   -0.42949  -0.42438  -0.41903  -0.40613  -0.40501
 Alpha  occ. eigenvalues --   -0.39848  -0.39260  -0.37875  -0.36862  -0.35894
 Alpha  occ. eigenvalues --   -0.32915  -0.31976  -0.29476  -0.26938  -0.24748
 Alpha  occ. eigenvalues --   -0.24177  -0.20782
 Alpha virt. eigenvalues --    0.00165   0.01700   0.05947   0.09218   0.09334
 Alpha virt. eigenvalues --    0.10972   0.12634   0.13849   0.14403   0.15302
 Alpha virt. eigenvalues --    0.15403   0.15782   0.16188   0.16753   0.17316
 Alpha virt. eigenvalues --    0.17580   0.17642   0.19217   0.20468   0.20874
 Alpha virt. eigenvalues --    0.23329   0.24916   0.26707   0.30869   0.34176
 Alpha virt. eigenvalues --    0.34544   0.35886   0.37103   0.40264   0.47528
 Alpha virt. eigenvalues --    0.47938   0.49758   0.50241   0.51829   0.52357
 Alpha virt. eigenvalues --    0.53510   0.54579   0.55445   0.56241   0.56982
 Alpha virt. eigenvalues --    0.57407   0.59265   0.59585   0.60374   0.61628
 Alpha virt. eigenvalues --    0.62104   0.64234   0.64988   0.66295   0.68069
 Alpha virt. eigenvalues --    0.69726   0.70431   0.72091   0.73845   0.74357
 Alpha virt. eigenvalues --    0.77090   0.79725   0.79874   0.81494   0.83677
 Alpha virt. eigenvalues --    0.84732   0.85098   0.85685   0.86346   0.86955
 Alpha virt. eigenvalues --    0.87810   0.88431   0.88831   0.90688   0.91853
 Alpha virt. eigenvalues --    0.92971   0.93753   0.96196   0.96845   0.97678
 Alpha virt. eigenvalues --    0.98466   1.00300   1.01776   1.02739   1.05059
 Alpha virt. eigenvalues --    1.07447   1.07906   1.12479   1.15079   1.15824
 Alpha virt. eigenvalues --    1.17393   1.20747   1.23188   1.24968   1.26636
 Alpha virt. eigenvalues --    1.30126   1.32885   1.34098   1.37520   1.38685
 Alpha virt. eigenvalues --    1.39949   1.40990   1.42473   1.43953   1.45888
 Alpha virt. eigenvalues --    1.47956   1.48293   1.50819   1.52840   1.53292
 Alpha virt. eigenvalues --    1.60770   1.65507   1.69578   1.72655   1.77704
 Alpha virt. eigenvalues --    1.78674   1.79827   1.81339   1.83233   1.84769
 Alpha virt. eigenvalues --    1.88372   1.90168   1.91142   1.92145   1.93478
 Alpha virt. eigenvalues --    1.94474   1.95175   1.98406   2.00416   2.02497
 Alpha virt. eigenvalues --    2.03239   2.04281   2.05504   2.07538   2.09547
 Alpha virt. eigenvalues --    2.09964   2.10689   2.12416   2.12888   2.16319
 Alpha virt. eigenvalues --    2.18459   2.19034   2.22802   2.25606   2.26349
 Alpha virt. eigenvalues --    2.26794   2.30851   2.34658   2.35543   2.36694
 Alpha virt. eigenvalues --    2.37804   2.40911   2.45680   2.48924   2.53130
 Alpha virt. eigenvalues --    2.54718   2.57259   2.58948   2.62541   2.65470
 Alpha virt. eigenvalues --    2.66312   2.68493   2.71494   2.73709   2.76427
 Alpha virt. eigenvalues --    2.78607   2.84122   2.91571   2.95735   2.99253
 Alpha virt. eigenvalues --    2.99862   3.14675   3.23293   3.28953   3.44675
 Alpha virt. eigenvalues --    3.99785   4.05488   4.08219   4.11981   4.14446
 Alpha virt. eigenvalues --    4.20751   4.23286   4.30149   4.31392   4.36411
 Alpha virt. eigenvalues --    4.41193   4.51610   4.54266   4.83470
          Condensed to atoms (all electrons):
              1          2          3          4          5          6
     1  C    4.892805   0.250398  -0.043424   0.004149  -0.000119  -0.000008
     2  O    0.250398   8.201302   0.279624  -0.054114   0.003145   0.000145
     3  C   -0.043424   0.279624   4.509434   0.540672  -0.018437  -0.037640
     4  C    0.004149  -0.054114   0.540672   4.988237   0.511288  -0.019598
     5  C   -0.000119   0.003145  -0.018437   0.511288   4.974748   0.538672
     6  C   -0.000008   0.000145  -0.037640  -0.019598   0.538672   4.523693
     7  O   -0.000000   0.000000   0.000124   0.003742  -0.049447   0.196310
     8  C    0.000000   0.000000   0.000027  -0.000002  -0.000643  -0.011747
     9  O   -0.000000   0.000000   0.000009   0.000001  -0.000126  -0.000450
    10  N   -0.000000   0.000000   0.000000   0.000002  -0.000271   0.001885
    11  C    0.000000  -0.000000   0.000000  -0.000000   0.000003  -0.000011
    12  C    0.000000   0.000000   0.000000  -0.000000  -0.000004   0.000435
    13  C    0.000323   0.003925  -0.003122  -0.034868  -0.065426   0.526709
    14  C   -0.006605  -0.061227   0.469646  -0.064856  -0.039614  -0.010118
    15  H    0.386151  -0.033702   0.003243  -0.000111   0.000004  -0.000000
    16  H    0.362795  -0.035627  -0.004425   0.000040  -0.000003  -0.000002
    17  H    0.362170  -0.035880  -0.004319   0.000049   0.000001  -0.000007
    18  H   -0.000219   0.000010  -0.035763   0.344815  -0.039957   0.004126
    19  H    0.000003  -0.000051   0.004406  -0.040442   0.348018  -0.039039
    20  H   -0.000000  -0.000000   0.000000   0.000000  -0.000000   0.000002
    21  H    0.000000  -0.000000  -0.000000  -0.000000   0.000000  -0.000000
    22  H    0.000000  -0.000000   0.000000  -0.000000   0.000000  -0.000005
    23  H    0.000000  -0.000000   0.000000  -0.000001  -0.000017   0.000276
    24  H    0.000000  -0.000000  -0.000000  -0.000000   0.000000  -0.000012
    25  H   -0.000000   0.000000   0.000000   0.000000  -0.000004   0.000019
    26  H   -0.000006  -0.000041   0.003053   0.000374   0.006067  -0.030940
    27  H    0.006109  -0.007806  -0.045476   0.004527   0.000687   0.003085
              7          8          9         10         11         12
     1  C   -0.000000   0.000000  -0.000000  -0.000000   0.000000   0.000000
     2  O    0.000000   0.000000   0.000000   0.000000  -0.000000   0.000000
     3  C    0.000124   0.000027   0.000009   0.000000   0.000000   0.000000
     4  C    0.003742  -0.000002   0.000001   0.000002  -0.000000  -0.000000
     5  C   -0.049447  -0.000643  -0.000126  -0.000271   0.000003  -0.000004
     6  C    0.196310  -0.011747  -0.000450   0.001885  -0.000011   0.000435
     7  O    8.357861   0.265142  -0.075708  -0.096228   0.002476  -0.007160
     8  C    0.265142   4.135488   0.565192   0.327508  -0.032370  -0.026966
     9  O   -0.075708   0.565192   8.087226  -0.085361  -0.011145   0.002348
    10  N   -0.096228   0.327508  -0.085361   6.932522   0.307846   0.294314
    11  C    0.002476  -0.032370  -0.011145   0.307846   4.979546  -0.054124
    12  C   -0.007160  -0.026966   0.002348   0.294314  -0.054124   4.981975
    13  C   -0.045568  -0.002723   0.003019   0.000219  -0.000001  -0.000029
    14  C    0.004060   0.000212  -0.000139  -0.000001  -0.000000   0.000000
    15  H   -0.000000  -0.000000   0.000000  -0.000000   0.000000   0.000000
    16  H    0.000000   0.000000   0.000000  -0.000000   0.000000  -0.000000
    17  H    0.000000   0.000000  -0.000000   0.000000  -0.000000   0.000000
    18  H   -0.000051  -0.000001  -0.000000  -0.000000   0.000000  -0.000000
    19  H   -0.001029   0.000108   0.000019  -0.000045   0.000000   0.000004
    20  H   -0.000015   0.000273   0.000572  -0.047929   0.377583  -0.000827
    21  H   -0.000027   0.002419   0.000525  -0.046698   0.376099  -0.001828
    22  H    0.000435  -0.001790   0.020310  -0.032699   0.370574   0.004463
    23  H    0.013715  -0.006570   0.000128  -0.025985   0.004040   0.374534
    24  H    0.000296   0.001792  -0.000028  -0.045416  -0.002471   0.374016
    25  H    0.000349  -0.000057  -0.000008  -0.047459  -0.001100   0.374219
    26  H   -0.006387   0.001889   0.006654  -0.000291   0.000012  -0.000004
    27  H   -0.000050  -0.000015  -0.000006  -0.000000   0.000000  -0.000000
             13         14         15         16         17         18
     1  C    0.000323  -0.006605   0.386151   0.362795   0.362170  -0.000219
     2  O    0.003925  -0.061227  -0.033702  -0.035627  -0.035880   0.000010
     3  C   -0.003122   0.469646   0.003243  -0.004425  -0.004319  -0.035763
     4  C   -0.034868  -0.064856  -0.000111   0.000040   0.000049   0.344815
     5  C   -0.065426  -0.039614   0.000004  -0.000003   0.000001  -0.039957
     6  C    0.526709  -0.010118  -0.000000  -0.000002  -0.000007   0.004126
     7  O   -0.045568   0.004060  -0.000000   0.000000   0.000000  -0.000051
     8  C   -0.002723   0.000212  -0.000000   0.000000   0.000000  -0.000001
     9  O    0.003019  -0.000139   0.000000   0.000000  -0.000000  -0.000000
    10  N    0.000219  -0.000001  -0.000000  -0.000000   0.000000  -0.000000
    11  C   -0.000001  -0.000000   0.000000   0.000000  -0.000000   0.000000
    12  C   -0.000029   0.000000   0.000000  -0.000000   0.000000  -0.000000
    13  C    4.979621   0.461127   0.000002  -0.000164  -0.000165  -0.000102
    14  C    0.461127   5.126277   0.000229   0.004810   0.004671   0.007688
    15  H    0.000002   0.000229   0.539588  -0.031683  -0.032209  -0.000031
    16  H   -0.000164   0.004810  -0.031683   0.599428  -0.050158   0.000029
    17  H   -0.000165   0.004671  -0.032209  -0.050158   0.603666   0.000031
    18  H   -0.000102   0.007688  -0.000031   0.000029   0.000031   0.586134
    19  H    0.007110  -0.000009  -0.000000  -0.000000  -0.000000  -0.006682
    20  H   -0.000000  -0.000000  -0.000000   0.000000  -0.000000  -0.000000
    21  H    0.000000   0.000000  -0.000000  -0.000000   0.000000   0.000000
    22  H   -0.000003   0.000000   0.000000   0.000000  -0.000000   0.000000
    23  H    0.000030  -0.000001   0.000000  -0.000000   0.000000  -0.000000
    24  H    0.000002   0.000000   0.000000  -0.000000   0.000000  -0.000000
    25  H   -0.000000  -0.000000  -0.000000   0.000000   0.000000   0.000000
    26  H    0.347822  -0.037763  -0.000000   0.000003   0.000001   0.000012
    27  H   -0.035432   0.352786  -0.000112   0.001902   0.001814  -0.000172
             19         20         21         22         23         24
     1  C    0.000003  -0.000000   0.000000   0.000000   0.000000   0.000000
     2  O   -0.000051  -0.000000  -0.000000  -0.000000  -0.000000  -0.000000
     3  C    0.004406   0.000000  -0.000000   0.000000   0.000000  -0.000000
     4  C   -0.040442   0.000000  -0.000000  -0.000000  -0.000001  -0.000000
     5  C    0.348018  -0.000000   0.000000   0.000000  -0.000017   0.000000
     6  C   -0.039039   0.000002  -0.000000  -0.000005   0.000276  -0.000012
     7  O   -0.001029  -0.000015  -0.000027   0.000435   0.013715   0.000296
     8  C    0.000108   0.000273   0.002419  -0.001790  -0.006570   0.001792
     9  O    0.000019   0.000572   0.000525   0.020310   0.000128  -0.000028
    10  N   -0.000045  -0.047929  -0.046698  -0.032699  -0.025985  -0.045416
    11  C    0.000000   0.377583   0.376099   0.370574   0.004040  -0.002471
    12  C    0.000004  -0.000827  -0.001828   0.004463   0.374534   0.374016
    13  C    0.007110  -0.000000   0.000000  -0.000003   0.000030   0.000002
    14  C   -0.000009  -0.000000   0.000000   0.000000  -0.000001   0.000000
    15  H   -0.000000  -0.000000  -0.000000   0.000000   0.000000   0.000000
    16  H   -0.000000   0.000000  -0.000000   0.000000  -0.000000  -0.000000
    17  H   -0.000000  -0.000000   0.000000  -0.000000   0.000000   0.000000
    18  H   -0.006682  -0.000000   0.000000   0.000000  -0.000000  -0.000000
    19  H    0.591078   0.000000  -0.000000  -0.000000   0.000173   0.000000
    20  H    0.000000   0.582458  -0.045566  -0.024155  -0.000070  -0.001962
    21  H   -0.000000  -0.045566   0.580259  -0.022517   0.000013   0.006780
    22  H   -0.000000  -0.024155  -0.022517   0.481054  -0.000216  -0.000033
    23  H    0.000173  -0.000070   0.000013  -0.000216   0.490243  -0.023257
    24  H    0.000000  -0.001962   0.006780  -0.000033  -0.023257   0.581945
    25  H    0.000001   0.006596  -0.001744  -0.000112  -0.025832  -0.046380
    26  H   -0.000169  -0.000000   0.000001   0.000003   0.000001   0.000001
    27  H    0.000014   0.000000  -0.000000   0.000000   0.000000   0.000000
             25         26         27
     1  C   -0.000000  -0.000006   0.006109
     2  O    0.000000  -0.000041  -0.007806
     3  C    0.000000   0.003053  -0.045476
     4  C    0.000000   0.000374   0.004527
     5  C   -0.000004   0.006067   0.000687
     6  C    0.000019  -0.030940   0.003085
     7  O    0.000349  -0.006387  -0.000050
     8  C   -0.000057   0.001889  -0.000015
     9  O   -0.000008   0.006654  -0.000006
    10  N   -0.047459  -0.000291  -0.000000
    11  C   -0.001100   0.000012   0.000000
    12  C    0.374219  -0.000004  -0.000000
    13  C   -0.000000   0.347822  -0.035432
    14  C   -0.000000  -0.037763   0.352786
    15  H   -0.000000  -0.000000  -0.000112
    16  H    0.000000   0.000003   0.001902
    17  H    0.000000   0.000001   0.001814
    18  H    0.000000   0.000012  -0.000172
    19  H    0.000001  -0.000169   0.000014
    20  H    0.006596  -0.000000   0.000000
    21  H   -0.001744   0.000001  -0.000000
    22  H   -0.000112   0.000003   0.000000
    23  H   -0.025832   0.000001   0.000000
    24  H   -0.046380   0.000001   0.000000
    25  H    0.587309  -0.000000   0.000000
    26  H   -0.000000   0.561462  -0.005503
    27  H    0.000000  -0.005503   0.588573
 Mulliken atomic charges:
              1
     1  C   -0.214521
     2  O   -0.510101
     3  C    0.382367
     4  C   -0.183901
     5  C   -0.168566
     6  C    0.354222
     7  O   -0.562842
     8  C    0.782835
     9  O   -0.513031
    10  N   -0.435913
    11  C   -0.316957
    12  C   -0.315366
    13  C   -0.142305
    14  C   -0.211174
    15  H    0.168632
    16  H    0.153055
    17  H    0.150335
    18  H    0.140134
    19  H    0.136532
    20  H    0.153041
    21  H    0.152284
    22  H    0.204690
    23  H    0.198793
    24  H    0.154725
    25  H    0.154205
    26  H    0.153751
    27  H    0.135076
 Sum of Mulliken atomic charges =  -0.00000
 Mulliken charges with hydrogens summed into heavy atoms:
              1
     1  C    0.257501
     2  O   -0.510101
     3  C    0.382367
     4  C   -0.043767
     5  C   -0.032033
     6  C    0.354222
     7  O   -0.562842
     8  C    0.782835
     9  O   -0.513031
    10  N   -0.435913
    11  C    0.193059
    12  C    0.192357
    13  C    0.011445
    14  C   -0.076098
 Sum of Mulliken charges with hydrogens summed into heavy atoms =  -0.00000
 Electronic spatial extent (au):  <R**2>=           4132.8885
 Charge=             -0.0000 electrons
 Dipole moment (field-independent basis, Debye):
    X=             -0.9333    Y=              0.6187    Z=              1.3390  Tot=              1.7455
 Quadrupole moment (field-independent basis, Debye-Ang):
   XX=            -59.8811   YY=            -79.6795   ZZ=            -83.2604
   XY=             -8.9842   XZ=              0.1661   YZ=             -3.8921
 Traceless Quadrupole moment (field-independent basis, Debye-Ang):
   XX=             14.3925   YY=             -5.4058   ZZ=             -8.9867
   XY=             -8.9842   XZ=              0.1661   YZ=             -3.8921
 Octapole moment (field-independent basis, Debye-Ang**2):
  XXX=            -23.9621  YYY=              6.0166  ZZZ=             -0.7213  XYY=              5.4095
  XXY=            -27.2188  XXZ=             10.2492  XZZ=             -5.3700  YZZ=             -0.0970
  YYZ=              0.8460  XYZ=             -3.0351
 Hexadecapole moment (field-independent basis, Debye-Ang**3):
 XXXX=          -3992.7867 YYYY=           -556.5968 ZZZZ=           -190.8104 XXXY=           -129.1536
 XXXZ=             32.6783 YYYX=             -1.7768 YYYZ=            -11.6039 ZZZX=             -1.3025
 ZZZY=              3.4033 XXYY=           -826.2018 XXZZ=           -797.3515 YYZZ=           -124.7952
 XXYZ=             -3.7641 YYXZ=             -9.0345 ZZXY=             -2.7920
 N-N= 8.732741609097D+02 E-N=-3.306514596505D+03  KE= 6.631278665523D+02
 No NMR shielding tensors so no spin-rotation constants.
 Leave Link  601 at Fri Sep  3 02:09:59 2021, MaxMem=  268435456 cpu:       0.4
 (Enter /sw/target/amd/app/gaussian/Gaussian09RevA.02_gcc-4.9.2/g09/l9999.exe)
 1\1\GINC-HERMITE\FOpt\RB3LYP\6-31G(d)\C10H13N1O3\JSCHLEINITZ\03-Sep-20
 21\0\\#p b3lyp 6-31G* opt scf(xqc,tight)\\opt calculation\\0,1\C,5.119
 3771408,0.5201916969,-0.6324282045\O,4.369447937,-0.4302469434,0.10486
 66656\C,3.005386639,-0.3738313297,0.0286035518\C,2.3137924924,-1.33053
 53446,0.7850329779\C,0.9248518152,-1.3539551288,0.7793899327\C,0.21560
 48413,-0.427623901,0.0133960309\O,-1.1716908896,-0.5746017849,-0.01174
 98726\C,-1.9756591656,0.527249987,0.1788715394\O,-1.5554342054,1.65331
 26747,0.3671335305\N,-3.2953800657,0.17811729,0.1157125576\C,-4.296801
 5274,1.2066193036,0.3464538737\C,-3.7886897484,-1.1799118615,-0.052178
 1234\C,0.8898981404,0.5213398663,-0.7474729039\C,2.2872333562,0.552318
 9659,-0.7365914952\H,6.1684878201,0.3011008965,-0.424668133\H,4.894289
 2409,1.5473605649,-0.3153619446\H,4.9381662978,0.4300802816,-1.7120771
 578\H,2.8844267539,-2.0427316129,1.3724134955\H,0.3786848912,-2.088681
 1245,1.3627639212\H,-4.8612023789,0.9996095729,1.2661769235\H,-5.00518
 2478,1.2407725171,-0.4913645007\H,-3.7972674562,2.1695312695,0.4404287
 271\H,-2.9676865627,-1.8526149522,-0.2870705029\H,-4.5197669519,-1.210
 5742083,-0.8704299849\H,-4.2877796546,-1.5288571885,0.8630551993\H,0.3
 347726934,1.2438610993,-1.3323720316\H,2.7981230249,1.302700394,-1.328
 8110716\\Version=AM64L-G09RevA.02\State=1-A\HF=-669.3158006\RMSD=5.832
 e-09\RMSF=1.735e-06\Dipole=-0.4068192,-0.3608718,-0.4193527\Quadrupole
 =11.0409196,-6.349426,-4.6914936,5.3827112,-2.9123089,-3.3292303\PG=C0
 1 [X(C10H13N1O3)]\\@


 TO DRY ONE'S EYES AND LAUGH AT A FALL,
 AND BAFFLED, GET UP AND BEGIN AGAIN.
           R. BROWNING
 Job cpu time:  0 days  2 hours  1 minutes 27.7 seconds.
 File lengths (MBytes):  RWF=     47 Int=      0 D2E=      0 Chk=      5 Scr=      1
 Normal termination of Gaussian 09 at Fri Sep  3 02:09:59 2021.
