 Entering Gaussian System, Link 0=g09
 Input=mol_inp007.com
 Output=mol_inp007.log
 Initial command:
 /sw/target/amd/app/gaussian/Gaussian09RevA.02_gcc-4.9.2/g09/l1.exe /home/jschleinitz/optim_react/007/Gau-2803676.inp -scrdir=/home/jschleinitz/optim_react/007/
 Entering Link 1 = /sw/target/amd/app/gaussian/Gaussian09RevA.02_gcc-4.9.2/g09/l1.exe PID=   2803678.
  
 Copyright (c) 1988,1990,1992,1993,1995,1998,2003,2009, Gaussian, Inc.
                  All Rights Reserved.
  
 This is part of the Gaussian(R) 09 program.  It is based on
 the Gaussian(R) 03 system (copyright 2003, Gaussian, Inc.),
 the Gaussian(R) 98 system (copyright 1998, Gaussian, Inc.),
 the Gaussian(R) 94 system (copyright 1995, Gaussian, Inc.),
 the Gaussian 92(TM) system (copyright 1992, Gaussian, Inc.),
 the Gaussian 90(TM) system (copyright 1990, Gaussian, Inc.),
 the Gaussian 88(TM) system (copyright 1988, Gaussian, Inc.),
 the Gaussian 86(TM) system (copyright 1986, Carnegie Mellon
 University), and the Gaussian 82(TM) system (copyright 1983,
 Carnegie Mellon University). Gaussian is a federally registered
 trademark of Gaussian, Inc.
  
 This software contains proprietary and confidential information,
 including trade secrets, belonging to Gaussian, Inc.
  
 This software is provided under written license and may be
 used, copied, transmitted, or stored only in accord with that
 written license.
  
 The following legend is applicable only to US Government
 contracts under FAR:
  
                    RESTRICTED RIGHTS LEGEND
  
 Use, reproduction and disclosure by the US Government is
 subject to restrictions as set forth in subparagraphs (a)
 and (c) of the Commercial Computer Software - Restricted
 Rights clause in FAR 52.227-19.
  
 Gaussian, Inc.
 340 Quinnipiac St., Bldg. 40, Wallingford CT 06492
  
  
 ---------------------------------------------------------------
 Warning -- This program may not be used in any manner that
 competes with the business of Gaussian, Inc. or will provide
 assistance to any competitor of Gaussian, Inc.  The licensee
 of this program is prohibited from giving any competitor of
 Gaussian, Inc. access to this program.  By using this program,
 the user acknowledges that Gaussian, Inc. is engaged in the
 business of creating and licensing software in the field of
 computational chemistry and represents and warrants to the
 licensee that it is not a competitor of Gaussian, Inc. and that
 it will not use this program in any manner prohibited above.
 ---------------------------------------------------------------
  

 Cite this work as:
 Gaussian 09, Revision A.02,
 M. J. Frisch, G. W. Trucks, H. B. Schlegel, G. E. Scuseria, 
 M. A. Robb, J. R. Cheeseman, G. Scalmani, V. Barone, B. Mennucci, 
 G. A. Petersson, H. Nakatsuji, M. Caricato, X. Li, H. P. Hratchian, 
 A. F. Izmaylov, J. Bloino, G. Zheng, J. L. Sonnenberg, M. Hada, 
 M. Ehara, K. Toyota, R. Fukuda, J. Hasegawa, M. Ishida, T. Nakajima, 
 Y. Honda, O. Kitao, H. Nakai, T. Vreven, J. A. Montgomery, Jr., 
 J. E. Peralta, F. Ogliaro, M. Bearpark, J. J. Heyd, E. Brothers, 
 K. N. Kudin, V. N. Staroverov, R. Kobayashi, J. Normand, 
 K. Raghavachari, A. Rendell, J. C. Burant, S. S. Iyengar, J. Tomasi, 
 M. Cossi, N. Rega, J. M. Millam, M. Klene, J. E. Knox, J. B. Cross, 
 V. Bakken, C. Adamo, J. Jaramillo, R. Gomperts, R. E. Stratmann, 
 O. Yazyev, A. J. Austin, R. Cammi, C. Pomelli, J. W. Ochterski, 
 R. L. Martin, K. Morokuma, V. G. Zakrzewski, G. A. Voth, 
 P. Salvador, J. J. Dannenberg, S. Dapprich, A. D. Daniels, 
 O. Farkas, J. B. Foresman, J. V. Ortiz, J. Cioslowski, 
 and D. J. Fox, Gaussian, Inc., Wallingford CT, 2009.
 
 ******************************************
 Gaussian 09:  AM64L-G09RevA.02 11-Jun-2009
                 3-Sep-2021 
 ******************************************
 %chk=opt.chk
 %mem=2gb
 %nproc=1
 Will use up to    1 processors via shared memory.
 ----------------------------------
 #p b3lyp 6-31G* opt scf(xqc,tight)
 ----------------------------------
 1/14=-1,18=20,19=15,26=3,38=1/1,3;
 2/9=110,12=2,17=6,18=5,40=1/2;
 3/5=1,6=6,7=1,11=2,16=1,25=1,30=1,71=1,74=-5/1,2,3;
 4//1;
 5/5=2,8=3,13=1,32=2,38=5/2,8;
 6/7=2,8=2,9=2,10=2,28=1/1;
 7//1,2,3,16;
 1/14=-1,18=20,19=15/3(2);
 2/9=110/2;
 99//99;
 2/9=110/2;
 3/5=1,6=6,7=1,11=2,16=1,25=1,30=1,71=1,74=-5/1,2,3;
 4/5=5,16=3/1;
 5/5=2,8=3,13=1,32=2,38=5/2,8;
 7//1,2,3,16;
 1/14=-1,18=20,19=15/3(-5);
 2/9=110/2;
 6/7=2,8=2,9=2,10=2,19=2,28=1/1;
 99/9=1/99;
 Leave Link    1 at Fri Sep  3 00:03:36 2021, MaxMem=  268435456 cpu:       0.0
 (Enter /sw/target/amd/app/gaussian/Gaussian09RevA.02_gcc-4.9.2/g09/l101.exe)
 ---------------
 opt calculation
 ---------------
 Symbolic Z-matrix:
 Charge =  0 Multiplicity = 1
 C                     4.70277  -0.9722    1.37173 
 O                     3.75385  -1.57877   0.50428 
 C                     2.56667  -0.92177   0.33091 
 C                     1.667    -1.55775  -0.5262 
 C                     0.41658  -0.99512  -0.79215 
 C                     0.04038   0.21939  -0.19996 
 C                    -1.31877   0.85678  -0.49103 
 C                    -1.26932   1.41518  -1.92573 
 N                    -2.44324  -0.08962  -0.26293 
 C                    -2.52694  -0.47774   1.15241 
 C                    -3.73575   0.46077  -0.6786 
 C                     0.94997   0.85409   0.65898 
 C                     2.2031    0.28755   0.92306 
 H                     4.31208  -0.89365   2.39169 
 H                     5.58673  -1.61648   1.40311 
 H                     5.01709   0.00544   0.99157 
 H                     1.93987  -2.50191  -0.99064 
 H                    -0.27205  -1.51239  -1.45717 
 H                    -1.45038   1.7175    0.18018 
 H                    -2.12369   2.06781  -2.13299 
 H                    -1.26294   0.61383  -2.67365 
 H                    -0.36693   2.01853  -2.08208 
 H                    -1.62248  -0.99591   1.48669 
 H                    -2.69358   0.38643   1.80589 
 H                    -3.34899  -1.1864    1.30726 
 H                    -4.549    -0.23401  -0.43739 
 H                    -3.95135   1.41943  -0.19336 
 H                    -3.78001   0.59451  -1.76403 
 H                     0.69      1.7987    1.13131 
 H                     2.86933   0.81776   1.59482 
 
 NAtoms=     30 NQM=     30 NQMF=      0 NMic=      0 NMicF=      0 NTot=     30.
                    Isotopes and Nuclear Properties:
 (Nuclear quadrupole moments (NQMom) in fm**2, nuclear magnetic moments (NMagM)
  in nuclear magnetons)

  Atom         1           2           3           4           5           6           7           8           9          10
 IAtWgt=          12          16          12          12          12          12          12          12          14          12
 AtmWgt=  12.0000000  15.9949146  12.0000000  12.0000000  12.0000000  12.0000000  12.0000000  12.0000000  14.0030740  12.0000000
 NucSpn=           0           0           0           0           0           0           0           0           2           0
 AtZEff=   0.0000000   0.0000000   0.0000000   0.0000000   0.0000000   0.0000000   0.0000000   0.0000000   0.0000000   0.0000000
 NQMom=    0.0000000   0.0000000   0.0000000   0.0000000   0.0000000   0.0000000   0.0000000   0.0000000   2.0440000   0.0000000
 NMagM=    0.0000000   0.0000000   0.0000000   0.0000000   0.0000000   0.0000000   0.0000000   0.0000000   0.4037610   0.0000000

  Atom        11          12          13          14          15          16          17          18          19          20
 IAtWgt=          12          12          12           1           1           1           1           1           1           1
 AtmWgt=  12.0000000  12.0000000  12.0000000   1.0078250   1.0078250   1.0078250   1.0078250   1.0078250   1.0078250   1.0078250
 NucSpn=           0           0           0           1           1           1           1           1           1           1
 AtZEff=   0.0000000   0.0000000   0.0000000   0.0000000   0.0000000   0.0000000   0.0000000   0.0000000   0.0000000   0.0000000
 NQMom=    0.0000000   0.0000000   0.0000000   0.0000000   0.0000000   0.0000000   0.0000000   0.0000000   0.0000000   0.0000000
 NMagM=    0.0000000   0.0000000   0.0000000   2.7928460   2.7928460   2.7928460   2.7928460   2.7928460   2.7928460   2.7928460

  Atom        21          22          23          24          25          26          27          28          29          30
 IAtWgt=           1           1           1           1           1           1           1           1           1           1
 AtmWgt=   1.0078250   1.0078250   1.0078250   1.0078250   1.0078250   1.0078250   1.0078250   1.0078250   1.0078250   1.0078250
 NucSpn=           1           1           1           1           1           1           1           1           1           1
 AtZEff=   0.0000000   0.0000000   0.0000000   0.0000000   0.0000000   0.0000000   0.0000000   0.0000000   0.0000000   0.0000000
 NQMom=    0.0000000   0.0000000   0.0000000   0.0000000   0.0000000   0.0000000   0.0000000   0.0000000   0.0000000   0.0000000
 NMagM=    2.7928460   2.7928460   2.7928460   2.7928460   2.7928460   2.7928460   2.7928460   2.7928460   2.7928460   2.7928460
 Leave Link  101 at Fri Sep  3 00:03:36 2021, MaxMem=  268435456 cpu:       0.1
 (Enter /sw/target/amd/app/gaussian/Gaussian09RevA.02_gcc-4.9.2/g09/l103.exe)

 GradGradGradGradGradGradGradGradGradGradGradGradGradGradGradGradGradGrad
 Berny optimization.
 Initialization pass.
                           ----------------------------
                           !    Initial Parameters    !
                           ! (Angstroms and Degrees)  !
 --------------------------                            --------------------------
 ! Name  Definition              Value          Derivative Info.                !
 --------------------------------------------------------------------------------
 ! R1    R(1,2)                  1.4216         estimate D2E/DX2                !
 ! R2    R(1,14)                 1.095          estimate D2E/DX2                !
 ! R3    R(1,15)                 1.0943         estimate D2E/DX2                !
 ! R4    R(1,16)                 1.095          estimate D2E/DX2                !
 ! R5    R(2,3)                  1.3679         estimate D2E/DX2                !
 ! R6    R(3,4)                  1.3959         estimate D2E/DX2                !
 ! R7    R(3,13)                 1.3947         estimate D2E/DX2                !
 ! R8    R(4,5)                  1.3967         estimate D2E/DX2                !
 ! R9    R(4,17)                 1.087          estimate D2E/DX2                !
 ! R10   R(5,6)                  1.4026         estimate D2E/DX2                !
 ! R11   R(5,18)                 1.0881         estimate D2E/DX2                !
 ! R12   R(6,7)                  1.5291         estimate D2E/DX2                !
 ! R13   R(6,12)                 1.4029         estimate D2E/DX2                !
 ! R14   R(7,8)                  1.5403         estimate D2E/DX2                !
 ! R15   R(7,9)                  1.4873         estimate D2E/DX2                !
 ! R16   R(7,19)                 1.0994         estimate D2E/DX2                !
 ! R17   R(8,20)                 1.0949         estimate D2E/DX2                !
 ! R18   R(8,21)                 1.0962         estimate D2E/DX2                !
 ! R19   R(8,22)                 1.0967         estimate D2E/DX2                !
 ! R20   R(9,10)                 1.47           estimate D2E/DX2                !
 ! R21   R(9,11)                 1.465          estimate D2E/DX2                !
 ! R22   R(10,23)                1.0947         estimate D2E/DX2                !
 ! R23   R(10,24)                1.0962         estimate D2E/DX2                !
 ! R24   R(10,25)                1.0963         estimate D2E/DX2                !
 ! R25   R(11,26)                1.0965         estimate D2E/DX2                !
 ! R26   R(11,27)                1.0959         estimate D2E/DX2                !
 ! R27   R(11,28)                1.0945         estimate D2E/DX2                !
 ! R28   R(12,13)                1.4004         estimate D2E/DX2                !
 ! R29   R(12,29)                1.0876         estimate D2E/DX2                !
 ! R30   R(13,30)                1.0845         estimate D2E/DX2                !
 ! A1    A(2,1,14)             111.1501         estimate D2E/DX2                !
 ! A2    A(2,1,15)             107.7878         estimate D2E/DX2                !
 ! A3    A(2,1,16)             111.1433         estimate D2E/DX2                !
 ! A4    A(14,1,15)            107.6824         estimate D2E/DX2                !
 ! A5    A(14,1,16)            111.2067         estimate D2E/DX2                !
 ! A6    A(15,1,16)            107.6818         estimate D2E/DX2                !
 ! A7    A(1,2,3)              116.8551         estimate D2E/DX2                !
 ! A8    A(2,3,4)              114.7312         estimate D2E/DX2                !
 ! A9    A(2,3,13)             126.0776         estimate D2E/DX2                !
 ! A10   A(4,3,13)             119.1912         estimate D2E/DX2                !
 ! A11   A(3,4,5)              120.6898         estimate D2E/DX2                !
 ! A12   A(3,4,17)             119.7552         estimate D2E/DX2                !
 ! A13   A(5,4,17)             119.5548         estimate D2E/DX2                !
 ! A14   A(4,5,6)              120.5661         estimate D2E/DX2                !
 ! A15   A(4,5,18)             119.4353         estimate D2E/DX2                !
 ! A16   A(6,5,18)             119.9956         estimate D2E/DX2                !
 ! A17   A(5,6,7)              121.2632         estimate D2E/DX2                !
 ! A18   A(5,6,12)             118.449          estimate D2E/DX2                !
 ! A19   A(7,6,12)             120.2824         estimate D2E/DX2                !
 ! A20   A(6,7,8)              107.4497         estimate D2E/DX2                !
 ! A21   A(6,7,9)              112.1826         estimate D2E/DX2                !
 ! A22   A(6,7,19)             108.453          estimate D2E/DX2                !
 ! A23   A(8,7,9)              113.4404         estimate D2E/DX2                !
 ! A24   A(8,7,19)             106.7796         estimate D2E/DX2                !
 ! A25   A(9,7,19)             108.3018         estimate D2E/DX2                !
 ! A26   A(7,8,20)             111.5522         estimate D2E/DX2                !
 ! A27   A(7,8,21)             111.758          estimate D2E/DX2                !
 ! A28   A(7,8,22)             111.0166         estimate D2E/DX2                !
 ! A29   A(20,8,21)            108.1273         estimate D2E/DX2                !
 ! A30   A(20,8,22)            106.6866         estimate D2E/DX2                !
 ! A31   A(21,8,22)            107.4648         estimate D2E/DX2                !
 ! A32   A(7,9,10)             111.0216         estimate D2E/DX2                !
 ! A33   A(7,9,11)             112.609          estimate D2E/DX2                !
 ! A34   A(10,9,11)            108.7931         estimate D2E/DX2                !
 ! A35   A(9,10,23)            111.8372         estimate D2E/DX2                !
 ! A36   A(9,10,24)            111.9928         estimate D2E/DX2                !
 ! A37   A(9,10,25)            110.4481         estimate D2E/DX2                !
 ! A38   A(23,10,24)           108.4651         estimate D2E/DX2                !
 ! A39   A(23,10,25)           105.69           estimate D2E/DX2                !
 ! A40   A(24,10,25)           108.1425         estimate D2E/DX2                !
 ! A41   A(9,11,26)            110.7245         estimate D2E/DX2                !
 ! A42   A(9,11,27)            112.122          estimate D2E/DX2                !
 ! A43   A(9,11,28)            111.2815         estimate D2E/DX2                !
 ! A44   A(26,11,27)           108.1182         estimate D2E/DX2                !
 ! A45   A(26,11,28)           105.402          estimate D2E/DX2                !
 ! A46   A(27,11,28)           108.9209         estimate D2E/DX2                !
 ! A47   A(6,12,13)            120.8396         estimate D2E/DX2                !
 ! A48   A(6,12,29)            120.2553         estimate D2E/DX2                !
 ! A49   A(13,12,29)           118.9051         estimate D2E/DX2                !
 ! A50   A(3,13,12)            120.2639         estimate D2E/DX2                !
 ! A51   A(3,13,30)            121.7842         estimate D2E/DX2                !
 ! A52   A(12,13,30)           117.9519         estimate D2E/DX2                !
 ! D1    D(14,1,2,3)            62.1231         estimate D2E/DX2                !
 ! D2    D(15,1,2,3)           179.9077         estimate D2E/DX2                !
 ! D3    D(16,1,2,3)           -62.3121         estimate D2E/DX2                !
 ! D4    D(1,2,3,4)           -179.8406         estimate D2E/DX2                !
 ! D5    D(1,2,3,13)             0.1584         estimate D2E/DX2                !
 ! D6    D(2,3,4,5)           -179.9796         estimate D2E/DX2                !
 ! D7    D(2,3,4,17)             0.1579         estimate D2E/DX2                !
 ! D8    D(13,3,4,5)             0.0213         estimate D2E/DX2                !
 ! D9    D(13,3,4,17)         -179.8412         estimate D2E/DX2                !
 ! D10   D(2,3,13,12)         -179.9934         estimate D2E/DX2                !
 ! D11   D(2,3,13,30)            0.0431         estimate D2E/DX2                !
 ! D12   D(4,3,13,12)            0.0057         estimate D2E/DX2                !
 ! D13   D(4,3,13,30)         -179.9578         estimate D2E/DX2                !
 ! D14   D(3,4,5,6)             -0.1334         estimate D2E/DX2                !
 ! D15   D(3,4,5,18)          -179.5062         estimate D2E/DX2                !
 ! D16   D(17,4,5,6)           179.7293         estimate D2E/DX2                !
 ! D17   D(17,4,5,18)            0.3566         estimate D2E/DX2                !
 ! D18   D(4,5,6,7)            179.368          estimate D2E/DX2                !
 ! D19   D(4,5,6,12)             0.2134         estimate D2E/DX2                !
 ! D20   D(18,5,6,7)            -1.2628         estimate D2E/DX2                !
 ! D21   D(18,5,6,12)          179.5826         estimate D2E/DX2                !
 ! D22   D(5,6,7,8)            -72.6194         estimate D2E/DX2                !
 ! D23   D(5,6,7,9)             52.7243         estimate D2E/DX2                !
 ! D24   D(5,6,7,19)           172.2991         estimate D2E/DX2                !
 ! D25   D(12,6,7,8)           106.5199         estimate D2E/DX2                !
 ! D26   D(12,6,7,9)          -128.1365         estimate D2E/DX2                !
 ! D27   D(12,6,7,19)           -8.5617         estimate D2E/DX2                !
 ! D28   D(5,6,12,13)           -0.187          estimate D2E/DX2                !
 ! D29   D(5,6,12,29)          179.7882         estimate D2E/DX2                !
 ! D30   D(7,6,12,13)         -179.3502         estimate D2E/DX2                !
 ! D31   D(7,6,12,29)            0.625          estimate D2E/DX2                !
 ! D32   D(6,7,8,20)          -168.0003         estimate D2E/DX2                !
 ! D33   D(6,7,8,21)            70.8139         estimate D2E/DX2                !
 ! D34   D(6,7,8,22)           -49.1537         estimate D2E/DX2                !
 ! D35   D(9,7,8,20)            67.4125         estimate D2E/DX2                !
 ! D36   D(9,7,8,21)           -53.7733         estimate D2E/DX2                !
 ! D37   D(9,7,8,22)          -173.7409         estimate D2E/DX2                !
 ! D38   D(19,7,8,20)          -51.8114         estimate D2E/DX2                !
 ! D39   D(19,7,8,21)         -172.9972         estimate D2E/DX2                !
 ! D40   D(19,7,8,22)           67.0352         estimate D2E/DX2                !
 ! D41   D(6,7,9,10)            64.0548         estimate D2E/DX2                !
 ! D42   D(6,7,9,11)          -173.6765         estimate D2E/DX2                !
 ! D43   D(8,7,9,10)          -173.9566         estimate D2E/DX2                !
 ! D44   D(8,7,9,11)           -51.6879         estimate D2E/DX2                !
 ! D45   D(19,7,9,10)          -55.6084         estimate D2E/DX2                !
 ! D46   D(19,7,9,11)           66.6603         estimate D2E/DX2                !
 ! D47   D(7,9,10,23)          -61.7535         estimate D2E/DX2                !
 ! D48   D(7,9,10,24)           60.2407         estimate D2E/DX2                !
 ! D49   D(7,9,10,25)         -179.1627         estimate D2E/DX2                !
 ! D50   D(11,9,10,23)         173.7874         estimate D2E/DX2                !
 ! D51   D(11,9,10,24)         -64.2184         estimate D2E/DX2                !
 ! D52   D(11,9,10,25)          56.3782         estimate D2E/DX2                !
 ! D53   D(7,9,11,26)         -176.3153         estimate D2E/DX2                !
 ! D54   D(7,9,11,27)          -55.4702         estimate D2E/DX2                !
 ! D55   D(7,9,11,28)           66.8049         estimate D2E/DX2                !
 ! D56   D(10,9,11,26)         -52.7987         estimate D2E/DX2                !
 ! D57   D(10,9,11,27)          68.0465         estimate D2E/DX2                !
 ! D58   D(10,9,11,28)        -169.6785         estimate D2E/DX2                !
 ! D59   D(6,12,13,3)            0.0794         estimate D2E/DX2                !
 ! D60   D(6,12,13,30)        -179.9558         estimate D2E/DX2                !
 ! D61   D(29,12,13,3)        -179.8962         estimate D2E/DX2                !
 ! D62   D(29,12,13,30)          0.0687         estimate D2E/DX2                !
 --------------------------------------------------------------------------------
 Trust Radius=3.00D-01 FncErr=1.00D-07 GrdErr=1.00D-06
 Number of steps in this run= 154 maximum allowed number of steps= 180.
 GradGradGradGradGradGradGradGradGradGradGradGradGradGradGradGradGradGrad

 Leave Link  103 at Fri Sep  3 00:03:36 2021, MaxMem=  268435456 cpu:       0.0
 (Enter /sw/target/amd/app/gaussian/Gaussian09RevA.02_gcc-4.9.2/g09/l202.exe)
                          Input orientation:                          
 ---------------------------------------------------------------------
 Center     Atomic      Atomic             Coordinates (Angstroms)
 Number     Number       Type             X           Y           Z
 ---------------------------------------------------------------------
      1          6           0        4.702772   -0.972201    1.371734
      2          8           0        3.753852   -1.578766    0.504278
      3          6           0        2.566670   -0.921765    0.330907
      4          6           0        1.667002   -1.557749   -0.526196
      5          6           0        0.416577   -0.995116   -0.792154
      6          6           0        0.040378    0.219385   -0.199960
      7          6           0       -1.318772    0.856783   -0.491031
      8          6           0       -1.269319    1.415178   -1.925726
      9          7           0       -2.443243   -0.089615   -0.262927
     10          6           0       -2.526937   -0.477744    1.152405
     11          6           0       -3.735749    0.460774   -0.678602
     12          6           0        0.949970    0.854091    0.658983
     13          6           0        2.203097    0.287552    0.923064
     14          1           0        4.312075   -0.893652    2.391685
     15          1           0        5.586733   -1.616481    1.403108
     16          1           0        5.017090    0.005438    0.991572
     17          1           0        1.939871   -2.501908   -0.990641
     18          1           0       -0.272047   -1.512392   -1.457173
     19          1           0       -1.450384    1.717498    0.180184
     20          1           0       -2.123688    2.067814   -2.132993
     21          1           0       -1.262937    0.613832   -2.673647
     22          1           0       -0.366927    2.018533   -2.082075
     23          1           0       -1.622480   -0.995908    1.486694
     24          1           0       -2.693584    0.386434    1.805894
     25          1           0       -3.348994   -1.186397    1.307259
     26          1           0       -4.548995   -0.234014   -0.437391
     27          1           0       -3.951352    1.419432   -0.193359
     28          1           0       -3.780005    0.594511   -1.764032
     29          1           0        0.689997    1.798696    1.131308
     30          1           0        2.869328    0.817756    1.594816
 ---------------------------------------------------------------------
                    Distance matrix (angstroms):
                    1          2          3          4          5
     1  C    0.000000
     2  O    1.421566   0.000000
     3  C    2.376720   1.367885   0.000000
     4  C    3.627796   2.327501   1.395888   0.000000
     5  C    4.801500   3.627504   2.426839   1.396729   0.000000
     6  C    5.062412   4.185593   2.822445   2.431160   1.402581
     7  C    6.563084   5.714373   4.351491   3.840058   2.555708
     8  C    7.227634   6.332525   5.026779   4.406695   3.152261
     9  N    7.383536   6.419514   5.113154   4.372510   3.046077
    10  C    7.249916   6.409417   5.178498   4.644700   3.565566
    11  C    8.801473   7.851946   6.530774   5.769522   4.401627
    12  C    4.234015   3.715438   2.423843   2.781323   2.410368
    13  C    2.834900   2.462390   1.394734   2.406842   2.789061
    14  H    1.095041   2.084058   2.700747   3.993929   5.032100
    15  H    1.094289   2.041757   3.279181   4.369205   5.651175
    16  H    1.095033   2.083969   2.701988   3.996281   5.034631
    17  H    3.943912   2.525371   2.153188   1.087016   2.151800
    18  H    5.748334   4.478790   3.406521   2.151438   1.088130
    19  H    6.820235   6.168830   4.808862   4.576496   3.433549
    20  H    8.253809   7.402582   6.083407   5.485967   4.199087
    21  H    7.380399   6.330471   5.104047   4.232240   2.991571
    22  H    6.824598   6.050670   4.803522   4.398570   3.370438
    23  H    6.326341   5.496345   4.346299   3.897189   3.057925
    24  H    7.532627   6.864812   5.617583   5.313492   4.281546
    25  H    8.054873   7.158851   6.001531   5.353473   4.315513
    26  H    9.455847   8.463591   7.189991   6.356003   5.036074
    27  H    9.113906   8.297352   6.945550   6.367126   5.026669
    28  H    9.178514   8.162559   6.853331   5.986180   4.591597
    29  H    4.882421   4.603002   3.400508   3.868796   3.402918
    30  H    2.572009   2.777584   2.171405   3.404013   3.872999
                    6          7          8          9         10
     6  C    0.000000
     7  C    1.529146   0.000000
     8  C    2.474570   1.540325   0.000000
     9  N    2.503561   1.487325   2.531284   0.000000
    10  C    2.984290   2.437521   3.826179   1.469971   0.000000
    11  C    3.813988   2.456376   2.923950   1.465021   2.386342
    12  C    1.402852   2.543566   3.452649   3.640658   3.755813
    13  C    2.437864   3.837610   4.630855   4.810125   4.797030
    14  H    5.118874   6.563575   7.424466   7.302586   6.962821
    15  H    6.058241   7.575671   8.202289   8.341913   8.197025
    16  H    5.121834   6.562473   7.072265   7.565671   7.561195
    17  H    3.411552   4.706290   5.149451   5.055731   5.351846
    18  H    2.162694   2.764426   3.128060   2.857378   3.600684
    19  H    2.147376   1.099401   2.135191   2.108975   2.631210
    20  H    3.440420   2.193291   1.094915   2.872936   4.175681
    21  H    2.823711   2.196806   1.096167   2.774803   4.174675
    22  H    2.635372   2.187943   1.096719   3.473424   4.621569
    23  H    2.662111   2.726921   4.193169   2.134524   1.094662
    24  H    3.394982   2.717941   4.124540   2.137595   1.096186
    25  H    3.966834   3.395620   4.641706   2.118679   1.096333
    26  H    4.617823   3.409847   3.961218   2.117895   2.583713
    27  H    4.168221   2.708442   3.192869   2.134586   2.727511
    28  H    4.145162   2.783341   2.646353   2.123270   3.350450
    29  H    2.165295   2.748515   3.651227   3.914946   3.940976
    30  H    3.403267   4.678938   5.466217   5.700697   5.567201
                   11         12         13         14         15
    11  C    0.000000
    12  C    4.888742   0.000000
    13  C    6.153473   1.400369   0.000000
    14  H    8.719438   4.166607   2.828406   0.000000
    15  H    9.775335   5.306319   3.912132   1.767631   0.000000
    16  H    8.922388   4.168008   2.828929   1.807132   1.767619
    17  H    6.409954   3.868319   3.393028   4.433280   4.451249
    18  H    4.061624   3.401718   3.877069   6.017535   6.520533
    19  H    2.745863   2.595461   3.993061   6.701849   7.882384
    20  H    2.701217   4.326156   5.588371   8.406071   9.248169
    21  H    3.180948   4.007631   5.005615   7.681852   8.277210
    22  H    3.968036   3.256308   4.316501   7.098479   7.797813
    23  H    3.358025   3.274920   4.074308   6.004033   7.236356
    24  H    2.695247   3.848323   4.976610   7.145700   8.528631
    25  H    2.608907   4.802598   5.757243   7.742975   8.946585
    26  H    1.096486   5.711797   6.907504   9.325093  10.393827
    27  H    1.095888   5.006901   6.356477   8.961977  10.136101
    28  H    1.094533   5.320813   6.565990   9.217721  10.131882
    29  H    4.965182   1.087638   2.148579   4.685802   5.976231
    30  H    6.994491   2.135659   1.084542   2.376013   3.653293
                   16         17         18         19         20
    16  H    0.000000
    17  H    4.436804   0.000000
    18  H    6.022884   2.467666   0.000000
    19  H    6.739267   5.537874   3.808097   0.000000
    20  H    8.062693   6.220919   4.086953   2.434512   0.000000
    21  H    7.296760   4.774759   2.642442   3.065545   1.774053
    22  H    6.518243   5.191043   3.587051   2.526325   1.758190
    23  H    6.732884   4.592991   3.279753   3.016481   4.768620
    24  H    7.762910   6.134495   4.485197   2.441354   4.320492
    25  H    8.456447   5.914643   4.149212   3.647962   4.891482
    26  H    9.675188   6.896000   4.578918   3.713649   3.749079
    27  H    9.156222   7.121733   4.871355   2.546217   2.742797
    28  H    9.237383   6.550032   4.103532   3.235461   2.247252
    29  H    4.686047   4.955809   4.311504   2.343600   4.317975
    30  H    2.374162   4.309135   4.961095   4.633641   6.355267
                   21         22         23         24         25
    21  H    0.000000
    22  H    1.768043   0.000000
    23  H    4.475374   4.837291   0.000000
    24  H    4.707945   4.815951   1.777645   0.000000
    25  H    4.841495   5.536414   1.746234   1.775386   0.000000
    26  H    4.064217   5.026793   3.584282   2.976547   2.321818
    27  H    3.745450   4.095641   3.752345   2.577999   3.066763
    28  H    2.676454   3.711885   4.213261   3.737376   3.576343
    29  H    4.437965   3.389874   3.644676   3.728025   5.025454
    30  H    5.944491   5.043287   4.845349   5.583599   6.539637
                   26         27         28         29         30
    26  H    0.000000
    27  H    1.774996   0.000000
    28  H    1.742922   1.782377   0.000000
    29  H    5.834361   4.841560   5.460217   0.000000
    30  H    7.763221   7.076811   7.452874   2.434454   0.000000
 Stoichiometry    C11H17NO
 Framework group  C1[X(C11H17NO)]
 Deg. of freedom    84
 Full point group                 C1      NOp   1
 Largest Abelian subgroup         C1      NOp   1
 Largest concise Abelian subgroup C1      NOp   1
                         Standard orientation:                         
 ---------------------------------------------------------------------
 Center     Atomic      Atomic             Coordinates (Angstroms)
 Number     Number       Type             X           Y           Z
 ---------------------------------------------------------------------
      1          6           0       -4.644566   -0.256014   -0.421302
      2          8           0       -3.700541   -0.166091    0.637745
      3          6           0       -2.387957   -0.013609    0.284215
      4          6           0       -1.499478    0.066318    1.357862
      5          6           0       -0.128982    0.223294    1.138881
      6          6           0        0.380626    0.300807   -0.165544
      7          6           0        1.876331    0.486931   -0.423444
      8          6           0        2.231795    1.939071   -0.052585
      9          7           0        2.699582   -0.524722    0.291365
     10          6           0        2.417897   -1.879559   -0.204501
     11          6           0        4.136902   -0.267683    0.171670
     12          6           0       -0.517980    0.221566   -1.239890
     13          6           0       -1.891546    0.064744   -1.016831
     14          1           0       -4.453327   -1.133676   -1.047601
     15          1           0       -5.636729   -0.375646    0.024532
     16          1           0       -4.656766    0.661733   -1.018537
     17          1           0       -1.876126    0.003693    2.375613
     18          1           0        0.546163    0.275165    1.990653
     19          1           0        2.059249    0.381030   -1.502335
     20          1           0        3.231893    2.211072   -0.405657
     21          1           0        2.196584    2.102008    1.030833
     22          1           0        1.531744    2.645644   -0.514620
     23          1           0        1.374505   -2.165500   -0.037594
     24          1           0        2.638532   -1.979545   -1.273587
     25          1           0        3.018400   -2.618743    0.338592
     26          1           0        4.715129   -1.065332    0.653013
     27          1           0        4.457912   -0.197385   -0.873788
     28          1           0        4.420723    0.652087    0.692700
     29          1           0       -0.155103    0.281866   -2.263433
     30          1           0       -2.543772    0.008109   -1.881484
 ---------------------------------------------------------------------
 Rotational constants (GHZ):      2.0640262      0.3617094      0.3555281
 Leave Link  202 at Fri Sep  3 00:03:36 2021, MaxMem=  268435456 cpu:       0.0
 (Enter /sw/target/amd/app/gaussian/Gaussian09RevA.02_gcc-4.9.2/g09/l301.exe)
 Standard basis: 6-31G(d) (6D, 7F)
 Ernie: Thresh=  0.10000D-02 Tol=  0.10000D-05 Strict=F.
 There are   229 symmetry adapted basis functions of A   symmetry.
 Integral buffers will be    131072 words long.
 Raffenetti 2 integral format.
 Two-electron integral symmetry is turned on.
   229 basis functions,   432 primitive gaussians,   229 cartesian basis functions
    49 alpha electrons       49 beta electrons
       nuclear repulsion energy       797.4491157666 Hartrees.
 IExCor=  402 DFT=T Ex+Corr=B3LYP ExCW=0 ScaHFX=  0.200000
 ScaDFX=  0.800000  0.720000  1.000000  0.810000 ScalE2=  1.000000  1.000000
 IRadAn=      0 IRanWt=     -1 IRanGd=            0 ICorTp=0
 NAtoms=   30 NActive=   30 NUniq=   30 SFac= 7.50D-01 NAtFMM=   80 NAOKFM=F Big=F
 Leave Link  301 at Fri Sep  3 00:03:37 2021, MaxMem=  268435456 cpu:       0.1
 (Enter /sw/target/amd/app/gaussian/Gaussian09RevA.02_gcc-4.9.2/g09/l302.exe)
 NPDir=0 NMtPBC=     1 NCelOv=     1 NCel=       1 NClECP=     1 NCelD=      1
         NCelK=      1 NCelE2=     1 NClLst=     1 CellRange=     0.0.
 One-electron integrals computed using PRISM.
 NBasis=   229 RedAO= T  NBF=   229
 NBsUse=   229 1.00D-06 NBFU=   229
 Precomputing XC quadrature grid using
 IXCGrd= 2 IRadAn=           0 IRanWt=          -1 IRanGd=           0 AccXCQ= 1.00D-10.
 NRdTot=    1900 NPtTot=      242140 NUsed=      255843 NTot=      255875
 NSgBfM=   228   228   228   228   228 NAtAll=    30    30.
 Leave Link  302 at Fri Sep  3 00:03:38 2021, MaxMem=  268435456 cpu:       1.4
 (Enter /sw/target/amd/app/gaussian/Gaussian09RevA.02_gcc-4.9.2/g09/l303.exe)
 DipDrv:  MaxL=1.
 Leave Link  303 at Fri Sep  3 00:03:38 2021, MaxMem=  268435456 cpu:       0.1
 (Enter /sw/target/amd/app/gaussian/Gaussian09RevA.02_gcc-4.9.2/g09/l401.exe)
 Harris functional with IExCor=  402 diagonalized for initial guess.
 ExpMin= 1.61D-01 ExpMax= 5.48D+03 ExpMxC= 8.25D+02 IAcc=1 IRadAn=         1 AccDes= 0.00D+00
 HarFok:  IExCor=  402 AccDes= 0.00D+00 IRadAn=         1 IDoV= 1
 ScaDFX=  1.000000  1.000000  1.000000  1.000000
 FoFCou: FMM=F IPFlag=           0 FMFlag=      100000 FMFlg1=           0
         NFxFlg=           0 DoJE=T BraDBF=F KetDBF=T FulRan=T
         Omega=  0.000000  0.000000  1.000000  0.000000  0.000000 ICntrl=     500 IOpCl=  0
         NMat0=    1 NMatS0=    1 NMatT0=    0 NMatD0=    1 NMtDS0=    0 NMtDT0=    0
         I1Cent=           4 NGrid=           0.
 Petite list used in FoFCou.
 Harris En= -559.440463940911    
 Initial guess orbital symmetries:
       Occupied  (A) (A) (A) (A) (A) (A) (A) (A) (A) (A) (A) (A)
                 (A) (A) (A) (A) (A) (A) (A) (A) (A) (A) (A) (A)
                 (A) (A) (A) (A) (A) (A) (A) (A) (A) (A) (A) (A)
                 (A) (A) (A) (A) (A) (A) (A) (A) (A) (A) (A) (A)
                 (A)
       Virtual   (A) (A) (A) (A) (A) (A) (A) (A) (A) (A) (A) (A)
                 (A) (A) (A) (A) (A) (A) (A) (A) (A) (A) (A) (A)
                 (A) (A) (A) (A) (A) (A) (A) (A) (A) (A) (A) (A)
                 (A) (A) (A) (A) (A) (A) (A) (A) (A) (A) (A) (A)
                 (A) (A) (A) (A) (A) (A) (A) (A) (A) (A) (A) (A)
                 (A) (A) (A) (A) (A) (A) (A) (A) (A) (A) (A) (A)
                 (A) (A) (A) (A) (A) (A) (A) (A) (A) (A) (A) (A)
                 (A) (A) (A) (A) (A) (A) (A) (A) (A) (A) (A) (A)
                 (A) (A) (A) (A) (A) (A) (A) (A) (A) (A) (A) (A)
                 (A) (A) (A) (A) (A) (A) (A) (A) (A) (A) (A) (A)
                 (A) (A) (A) (A) (A) (A) (A) (A) (A) (A) (A) (A)
                 (A) (A) (A) (A) (A) (A) (A) (A) (A) (A) (A) (A)
                 (A) (A) (A) (A) (A) (A) (A) (A) (A) (A) (A) (A)
                 (A) (A) (A) (A) (A) (A) (A) (A) (A) (A) (A) (A)
                 (A) (A) (A) (A) (A) (A) (A) (A) (A) (A) (A) (A)
 The electronic state of the initial guess is 1-A.
 Leave Link  401 at Fri Sep  3 00:03:45 2021, MaxMem=  268435456 cpu:       6.8
 (Enter /sw/target/amd/app/gaussian/Gaussian09RevA.02_gcc-4.9.2/g09/l502.exe)
 Closed shell SCF:
 Requested convergence on RMS density matrix=1.00D-08 within  64 cycles.
 Requested convergence on MAX density matrix=1.00D-06.
 Requested convergence on             energy=1.00D-06.
 No special actions if energy rises.
 Using DIIS extrapolation, IDIIS=  1040.
 Integral symmetry usage will be decided dynamically.
       255560 words used for storage of precomputed grid.
 IEnd=      421544 IEndB=      421544 NGot=   268435456 MDV=   268070807
 LenX=   268070807 LenY=   268017925
 Fock matrices will be formed incrementally for  20 cycles.
 Integral accuracy reduced to 1.0D-05 until final iterations.

 Cycle   1  Pass 0  IDiag  1:
 FoFCou: FMM=F IPFlag=           0 FMFlag=      100000 FMFlg1=           0
         NFxFlg=           0 DoJE=F BraDBF=F KetDBF=F FulRan=T
         Omega=  0.000000  0.000000  1.000000  0.000000  0.000000 ICntrl=       0 IOpCl=  0
         NMat0=    1 NMatS0=    1 NMatT0=    0 NMatD0=    1 NMtDS0=    0 NMtDT0=    0
         I1Cent=           0 NGrid=           0.
 Symmetry not used in FoFCou.
 E= -559.002626447973    
 DIIS: error= 3.27D-02 at cycle   1 NSaved=   1.
 NSaved= 1 IEnMin= 1 EnMin= -559.002626447973     IErMin= 1 ErrMin= 3.27D-02
 ErrMax= 3.27D-02 EMaxC= 1.00D-01 BMatC= 3.22D-01 BMatP= 3.22D-01
 IDIUse=3 WtCom= 6.73D-01 WtEn= 3.27D-01
 Coeff-Com:  0.100D+01
 Coeff-En:   0.100D+01
 Coeff:      0.100D+01
 Gap=     0.229 Goal=   None    Shift=    0.000
 GapD=    0.229 DampG=1.000 DampE=0.500 DampFc=0.5000 IDamp=-1.
 Damping current iteration by 5.00D-01
 RMSDP=6.07D-03 MaxDP=1.71D-01              OVMax= 1.92D-01

 Cycle   2  Pass 0  IDiag  1:
 RMSU=  2.12D-03    CP:  9.78D-01
 E= -559.165673114899     Delta-E=       -0.163046666926 Rises=F Damp=T
 DIIS: error= 6.69D-03 at cycle   2 NSaved=   2.
 NSaved= 2 IEnMin= 2 EnMin= -559.165673114899     IErMin= 2 ErrMin= 6.69D-03
 ErrMax= 6.69D-03 EMaxC= 1.00D-01 BMatC= 1.65D-02 BMatP= 3.22D-01
 IDIUse=3 WtCom= 9.33D-01 WtEn= 6.69D-02
 Coeff-Com:  0.391D-01 0.961D+00
 Coeff-En:   0.652D-01 0.935D+00
 Coeff:      0.408D-01 0.959D+00
 Gap=     0.236 Goal=   None    Shift=    0.000
 RMSDP=1.52D-03 MaxDP=3.56D-02 DE=-1.63D-01 OVMax= 1.56D-01

 Cycle   3  Pass 0  IDiag  1:
 RMSU=  9.97D-04    CP:  9.73D-01  8.12D-01
 E= -559.344248905591     Delta-E=       -0.178575790692 Rises=F Damp=F
 DIIS: error= 4.97D-03 at cycle   3 NSaved=   3.
 NSaved= 3 IEnMin= 3 EnMin= -559.344248905591     IErMin= 3 ErrMin= 4.97D-03
 ErrMax= 4.97D-03 EMaxC= 1.00D-01 BMatC= 1.18D-02 BMatP= 1.65D-02
 IDIUse=3 WtCom= 9.50D-01 WtEn= 4.97D-02
 Coeff-Com: -0.126D-01 0.450D+00 0.563D+00
 Coeff-En:   0.000D+00 0.000D+00 0.100D+01
 Coeff:     -0.119D-01 0.427D+00 0.584D+00
 Gap=     0.217 Goal=   None    Shift=    0.000
 RMSDP=9.09D-04 MaxDP=2.79D-02 DE=-1.79D-01 OVMax= 7.84D-02

 Cycle   4  Pass 0  IDiag  1:
 RMSU=  4.25D-04    CP:  9.73D-01  9.07D-01  5.62D-01
 E= -559.351256760217     Delta-E=       -0.007007854626 Rises=F Damp=F
 DIIS: error= 3.55D-03 at cycle   4 NSaved=   4.
 NSaved= 4 IEnMin= 4 EnMin= -559.351256760217     IErMin= 4 ErrMin= 3.55D-03
 ErrMax= 3.55D-03 EMaxC= 1.00D-01 BMatC= 5.33D-03 BMatP= 1.18D-02
 IDIUse=3 WtCom= 9.65D-01 WtEn= 3.55D-02
 Coeff-Com: -0.131D-01 0.994D-01 0.401D+00 0.513D+00
 Coeff-En:   0.000D+00 0.000D+00 0.345D+00 0.655D+00
 Coeff:     -0.126D-01 0.959D-01 0.399D+00 0.518D+00
 Gap=     0.211 Goal=   None    Shift=    0.000
 RMSDP=3.83D-04 MaxDP=1.28D-02 DE=-7.01D-03 OVMax= 3.02D-02

 Cycle   5  Pass 0  IDiag  1:
 RMSU=  9.11D-05    CP:  9.73D-01  8.85D-01  7.15D-01  5.32D-01
 E= -559.356841744989     Delta-E=       -0.005584984771 Rises=F Damp=F
 DIIS: error= 4.43D-04 at cycle   5 NSaved=   5.
 NSaved= 5 IEnMin= 5 EnMin= -559.356841744989     IErMin= 5 ErrMin= 4.43D-04
 ErrMax= 4.43D-04 EMaxC= 1.00D-01 BMatC= 1.48D-04 BMatP= 5.33D-03
 IDIUse=3 WtCom= 9.96D-01 WtEn= 4.43D-03
 Coeff-Com: -0.442D-02 0.222D-01 0.160D+00 0.250D+00 0.573D+00
 Coeff-En:   0.000D+00 0.000D+00 0.000D+00 0.000D+00 0.100D+01
 Coeff:     -0.440D-02 0.221D-01 0.159D+00 0.249D+00 0.575D+00
 Gap=     0.213 Goal=   None    Shift=    0.000
 RMSDP=7.63D-05 MaxDP=2.30D-03 DE=-5.58D-03 OVMax= 5.41D-03

 Cycle   6  Pass 0  IDiag  1:
 RMSU=  3.67D-05    CP:  9.73D-01  8.84D-01  7.11D-01  5.67D-01  6.02D-01
 E= -559.356965147854     Delta-E=       -0.000123402865 Rises=F Damp=F
 DIIS: error= 2.33D-04 at cycle   6 NSaved=   6.
 NSaved= 6 IEnMin= 6 EnMin= -559.356965147854     IErMin= 6 ErrMin= 2.33D-04
 ErrMax= 2.33D-04 EMaxC= 1.00D-01 BMatC= 2.54D-05 BMatP= 1.48D-04
 IDIUse=3 WtCom= 9.98D-01 WtEn= 2.33D-03
 Coeff-Com: -0.845D-03 0.759D-03 0.457D-01 0.847D-01 0.338D+00 0.531D+00
 Coeff-En:   0.000D+00 0.000D+00 0.000D+00 0.000D+00 0.119D+00 0.881D+00
 Coeff:     -0.843D-03 0.758D-03 0.456D-01 0.845D-01 0.338D+00 0.532D+00
 Gap=     0.212 Goal=   None    Shift=    0.000
 RMSDP=2.49D-05 MaxDP=1.02D-03 DE=-1.23D-04 OVMax= 1.46D-03

 Cycle   7  Pass 0  IDiag  1:
 RMSU=  6.06D-06    CP:  9.73D-01  8.84D-01  7.14D-01  5.66D-01  6.82D-01
                    CP:  6.06D-01
 E= -559.356987597322     Delta-E=       -0.000022449468 Rises=F Damp=F
 DIIS: error= 3.10D-05 at cycle   7 NSaved=   7.
 NSaved= 7 IEnMin= 7 EnMin= -559.356987597322     IErMin= 7 ErrMin= 3.10D-05
 ErrMax= 3.10D-05 EMaxC= 1.00D-01 BMatC= 6.85D-07 BMatP= 2.54D-05
 IDIUse=1 WtCom= 1.00D+00 WtEn= 0.00D+00
 Coeff-Com: -0.221D-03-0.383D-03 0.166D-01 0.322D-01 0.144D+00 0.259D+00
 Coeff-Com:  0.549D+00
 Coeff:     -0.221D-03-0.383D-03 0.166D-01 0.322D-01 0.144D+00 0.259D+00
 Coeff:      0.549D+00
 Gap=     0.212 Goal=   None    Shift=    0.000
 RMSDP=5.36D-06 MaxDP=1.36D-04 DE=-2.24D-05 OVMax= 3.31D-04

 Initial convergence to 1.0D-05 achieved.  Increase integral accuracy.
 Cycle   8  Pass 1  IDiag  1:
 E= -559.357054756055     Delta-E=       -0.000067158733 Rises=F Damp=F
 DIIS: error= 1.95D-05 at cycle   1 NSaved=   1.
 NSaved= 1 IEnMin= 1 EnMin= -559.357054756055     IErMin= 1 ErrMin= 1.95D-05
 ErrMax= 1.95D-05 EMaxC= 1.00D-01 BMatC= 1.76D-07 BMatP= 1.76D-07
 IDIUse=1 WtCom= 1.00D+00 WtEn= 0.00D+00
 Coeff-Com:  0.100D+01
 Coeff:      0.100D+01
 Gap=     0.212 Goal=   None    Shift=    0.000
 RMSDP=5.36D-06 MaxDP=1.36D-04 DE=-6.72D-05 OVMax= 3.47D-04

 Cycle   9  Pass 1  IDiag  1:
 RMSU=  7.22D-06    CP:  1.00D+00
 E= -559.357054592389     Delta-E=        0.000000163665 Rises=F Damp=F
 DIIS: error= 3.21D-05 at cycle   2 NSaved=   2.
 NSaved= 2 IEnMin= 1 EnMin= -559.357054756055     IErMin= 1 ErrMin= 1.95D-05
 ErrMax= 3.21D-05 EMaxC= 1.00D-01 BMatC= 3.24D-07 BMatP= 1.76D-07
 IDIUse=1 WtCom= 1.00D+00 WtEn= 0.00D+00
 Coeff-Com:  0.588D+00 0.412D+00
 Coeff:      0.588D+00 0.412D+00
 Gap=     0.212 Goal=   None    Shift=    0.000
 RMSDP=3.44D-06 MaxDP=1.06D-04 DE= 1.64D-07 OVMax= 2.74D-04

 Cycle  10  Pass 1  IDiag  1:
 RMSU=  2.23D-06    CP:  1.00D+00  8.65D-01
 E= -559.357054947895     Delta-E=       -0.000000355506 Rises=F Damp=F
 DIIS: error= 7.82D-06 at cycle   3 NSaved=   3.
 NSaved= 3 IEnMin= 3 EnMin= -559.357054947895     IErMin= 3 ErrMin= 7.82D-06
 ErrMax= 7.82D-06 EMaxC= 1.00D-01 BMatC= 1.74D-08 BMatP= 1.76D-07
 IDIUse=1 WtCom= 1.00D+00 WtEn= 0.00D+00
 Coeff-Com:  0.517D-01 0.189D+00 0.759D+00
 Coeff:      0.517D-01 0.189D+00 0.759D+00
 Gap=     0.212 Goal=   None    Shift=    0.000
 RMSDP=7.75D-07 MaxDP=2.74D-05 DE=-3.56D-07 OVMax= 5.67D-05

 Cycle  11  Pass 1  IDiag  1:
 RMSU=  3.23D-07    CP:  1.00D+00  8.99D-01  8.34D-01
 E= -559.357054964474     Delta-E=       -0.000000016579 Rises=F Damp=F
 DIIS: error= 1.99D-06 at cycle   4 NSaved=   4.
 NSaved= 4 IEnMin= 4 EnMin= -559.357054964474     IErMin= 4 ErrMin= 1.99D-06
 ErrMax= 1.99D-06 EMaxC= 1.00D-01 BMatC= 3.13D-09 BMatP= 1.74D-08
 IDIUse=1 WtCom= 1.00D+00 WtEn= 0.00D+00
 Coeff-Com: -0.112D-01 0.831D-01 0.439D+00 0.490D+00
 Coeff:     -0.112D-01 0.831D-01 0.439D+00 0.490D+00
 Gap=     0.212 Goal=   None    Shift=    0.000
 RMSDP=2.57D-07 MaxDP=7.28D-06 DE=-1.66D-08 OVMax= 1.54D-05

 Cycle  12  Pass 1  IDiag  1:
 RMSU=  8.46D-08    CP:  1.00D+00  9.01D-01  8.51D-01  5.19D-01
 E= -559.357054967326     Delta-E=       -0.000000002852 Rises=F Damp=F
 DIIS: error= 6.06D-07 at cycle   5 NSaved=   5.
 NSaved= 5 IEnMin= 5 EnMin= -559.357054967326     IErMin= 5 ErrMin= 6.06D-07
 ErrMax= 6.06D-07 EMaxC= 1.00D-01 BMatC= 7.92D-11 BMatP= 3.13D-09
 IDIUse=1 WtCom= 1.00D+00 WtEn= 0.00D+00
 Coeff-Com: -0.716D-02 0.346D-01 0.187D+00 0.242D+00 0.544D+00
 Coeff:     -0.716D-02 0.346D-01 0.187D+00 0.242D+00 0.544D+00
 Gap=     0.212 Goal=   None    Shift=    0.000
 RMSDP=5.79D-08 MaxDP=1.72D-06 DE=-2.85D-09 OVMax= 4.28D-06

 Cycle  13  Pass 1  IDiag  1:
 RMSU=  3.28D-08    CP:  1.00D+00  9.02D-01  8.49D-01  5.36D-01  7.31D-01
 E= -559.357054967388     Delta-E=       -0.000000000062 Rises=F Damp=F
 DIIS: error= 2.19D-07 at cycle   6 NSaved=   6.
 NSaved= 6 IEnMin= 6 EnMin= -559.357054967388     IErMin= 6 ErrMin= 2.19D-07
 ErrMax= 2.19D-07 EMaxC= 1.00D-01 BMatC= 1.49D-11 BMatP= 7.92D-11
 IDIUse=1 WtCom= 1.00D+00 WtEn= 0.00D+00
 Coeff-Com: -0.295D-02 0.112D-01 0.605D-01 0.881D-01 0.328D+00 0.515D+00
 Coeff:     -0.295D-02 0.112D-01 0.605D-01 0.881D-01 0.328D+00 0.515D+00
 Gap=     0.212 Goal=   None    Shift=    0.000
 RMSDP=2.32D-08 MaxDP=7.86D-07 DE=-6.18D-11 OVMax= 1.92D-06

 Cycle  14  Pass 1  IDiag  1:
 RMSU=  9.71D-09    CP:  1.00D+00  9.02D-01  8.48D-01  5.35D-01  8.04D-01
                    CP:  6.46D-01
 E= -559.357054967402     Delta-E=       -0.000000000014 Rises=F Damp=F
 DIIS: error= 5.49D-08 at cycle   7 NSaved=   7.
 NSaved= 7 IEnMin= 7 EnMin= -559.357054967402     IErMin= 7 ErrMin= 5.49D-08
 ErrMax= 5.49D-08 EMaxC= 1.00D-01 BMatC= 1.18D-12 BMatP= 1.49D-11
 IDIUse=1 WtCom= 1.00D+00 WtEn= 0.00D+00
 Coeff-Com: -0.692D-03 0.170D-02 0.889D-02 0.167D-01 0.106D+00 0.277D+00
 Coeff-Com:  0.591D+00
 Coeff:     -0.692D-03 0.170D-02 0.889D-02 0.167D-01 0.106D+00 0.277D+00
 Coeff:      0.591D+00
 Gap=     0.212 Goal=   None    Shift=    0.000
 RMSDP=6.28D-09 MaxDP=2.45D-07 DE=-1.36D-11 OVMax= 4.17D-07

 SCF Done:  E(RB3LYP) =  -559.357054967     A.U. after   14 cycles
             Convg  =    0.6282D-08             -V/T =  2.0098
 KE= 5.539555014956D+02 PE=-2.892984553076D+03 EE= 9.822228808469D+02
 Leave Link  502 at Fri Sep  3 00:06:41 2021, MaxMem=  268435456 cpu:     176.2
 (Enter /sw/target/amd/app/gaussian/Gaussian09RevA.02_gcc-4.9.2/g09/l508.exe)
 QCSCF skips out because SCF is already converged.
 Leave Link  508 at Fri Sep  3 00:06:41 2021, MaxMem=  268435456 cpu:       0.0
 (Enter /sw/target/amd/app/gaussian/Gaussian09RevA.02_gcc-4.9.2/g09/l601.exe)
 Copying SCF densities to generalized density rwf, IOpCl= 0 IROHF=0.

 **********************************************************************

            Population analysis using the SCF density.

 **********************************************************************

 Orbital symmetries:
       Occupied  (A) (A) (A) (A) (A) (A) (A) (A) (A) (A) (A) (A)
                 (A) (A) (A) (A) (A) (A) (A) (A) (A) (A) (A) (A)
                 (A) (A) (A) (A) (A) (A) (A) (A) (A) (A) (A) (A)
                 (A) (A) (A) (A) (A) (A) (A) (A) (A) (A) (A) (A)
                 (A)
       Virtual   (A) (A) (A) (A) (A) (A) (A) (A) (A) (A) (A) (A)
                 (A) (A) (A) (A) (A) (A) (A) (A) (A) (A) (A) (A)
                 (A) (A) (A) (A) (A) (A) (A) (A) (A) (A) (A) (A)
                 (A) (A) (A) (A) (A) (A) (A) (A) (A) (A) (A) (A)
                 (A) (A) (A) (A) (A) (A) (A) (A) (A) (A) (A) (A)
                 (A) (A) (A) (A) (A) (A) (A) (A) (A) (A) (A) (A)
                 (A) (A) (A) (A) (A) (A) (A) (A) (A) (A) (A) (A)
                 (A) (A) (A) (A) (A) (A) (A) (A) (A) (A) (A) (A)
                 (A) (A) (A) (A) (A) (A) (A) (A) (A) (A) (A) (A)
                 (A) (A) (A) (A) (A) (A) (A) (A) (A) (A) (A) (A)
                 (A) (A) (A) (A) (A) (A) (A) (A) (A) (A) (A) (A)
                 (A) (A) (A) (A) (A) (A) (A) (A) (A) (A) (A) (A)
                 (A) (A) (A) (A) (A) (A) (A) (A) (A) (A) (A) (A)
                 (A) (A) (A) (A) (A) (A) (A) (A) (A) (A) (A) (A)
                 (A) (A) (A) (A) (A) (A) (A) (A) (A) (A) (A) (A)
 The electronic state is 1-A.
 Alpha  occ. eigenvalues --  -19.17312 -14.32077 -10.23962 -10.23744 -10.21286
 Alpha  occ. eigenvalues --  -10.19530 -10.19140 -10.18484 -10.18245 -10.18116
 Alpha  occ. eigenvalues --  -10.18040 -10.17722 -10.17191  -1.05790  -0.91010
 Alpha  occ. eigenvalues --   -0.84311  -0.77123  -0.74176  -0.72631  -0.69837
 Alpha  occ. eigenvalues --   -0.68115  -0.64229  -0.60464  -0.59124  -0.55355
 Alpha  occ. eigenvalues --   -0.52578  -0.48447  -0.47730  -0.46672  -0.45830
 Alpha  occ. eigenvalues --   -0.44535  -0.44105  -0.42292  -0.41872  -0.41055
 Alpha  occ. eigenvalues --   -0.39385  -0.38790  -0.38499  -0.37064  -0.36106
 Alpha  occ. eigenvalues --   -0.35393  -0.34790  -0.34291  -0.32434  -0.32145
 Alpha  occ. eigenvalues --   -0.30448  -0.24300  -0.21127  -0.20728
 Alpha virt. eigenvalues --    0.00434   0.01863   0.09107   0.09905   0.11068
 Alpha virt. eigenvalues --    0.12479   0.13496   0.14116   0.14754   0.15289
 Alpha virt. eigenvalues --    0.15625   0.16183   0.16611   0.16858   0.17276
 Alpha virt. eigenvalues --    0.18309   0.18918   0.19321   0.19589   0.20278
 Alpha virt. eigenvalues --    0.20676   0.22864   0.24257   0.25574   0.25834
 Alpha virt. eigenvalues --    0.26873   0.28691   0.33236   0.35096   0.35971
 Alpha virt. eigenvalues --    0.37718   0.48566   0.49985   0.50102   0.51664
 Alpha virt. eigenvalues --    0.52462   0.53018   0.54241   0.54522   0.55567
 Alpha virt. eigenvalues --    0.56383   0.56726   0.57793   0.59916   0.60449
 Alpha virt. eigenvalues --    0.61395   0.61691   0.61924   0.64351   0.65679
 Alpha virt. eigenvalues --    0.66837   0.68749   0.69699   0.72478   0.74496
 Alpha virt. eigenvalues --    0.75212   0.76848   0.78532   0.80867   0.82653
 Alpha virt. eigenvalues --    0.82848   0.83528   0.84356   0.85033   0.85640
 Alpha virt. eigenvalues --    0.86560   0.87369   0.88196   0.88828   0.90023
 Alpha virt. eigenvalues --    0.91215   0.91977   0.93774   0.94132   0.94447
 Alpha virt. eigenvalues --    0.94760   0.96117   0.97475   0.99021   0.99727
 Alpha virt. eigenvalues --    1.01970   1.03106   1.03493   1.05061   1.05477
 Alpha virt. eigenvalues --    1.07586   1.08557   1.15319   1.17960   1.19050
 Alpha virt. eigenvalues --    1.20893   1.23919   1.28385   1.30298   1.33436
 Alpha virt. eigenvalues --    1.37229   1.38257   1.40801   1.42205   1.44896
 Alpha virt. eigenvalues --    1.46486   1.46929   1.48657   1.51881   1.52905
 Alpha virt. eigenvalues --    1.54500   1.57092   1.63961   1.68214   1.70835
 Alpha virt. eigenvalues --    1.76252   1.78800   1.81617   1.83243   1.84695
 Alpha virt. eigenvalues --    1.85533   1.88994   1.90535   1.92663   1.95063
 Alpha virt. eigenvalues --    1.95606   1.97532   1.99244   2.00127   2.01179
 Alpha virt. eigenvalues --    2.03196   2.05981   2.07378   2.08108   2.09616
 Alpha virt. eigenvalues --    2.11189   2.12740   2.13281   2.15043   2.15716
 Alpha virt. eigenvalues --    2.19130   2.19554   2.23723   2.25538   2.25696
 Alpha virt. eigenvalues --    2.27272   2.29296   2.32050   2.34460   2.36709
 Alpha virt. eigenvalues --    2.37282   2.39757   2.44222   2.48165   2.52590
 Alpha virt. eigenvalues --    2.54417   2.55294   2.61019   2.64785   2.66660
 Alpha virt. eigenvalues --    2.67586   2.69189   2.72586   2.79280   2.80028
 Alpha virt. eigenvalues --    2.83274   2.85103   2.95238   2.97818   3.00059
 Alpha virt. eigenvalues --    3.19055   3.43297   4.05030   4.05930   4.12173
 Alpha virt. eigenvalues --    4.14379   4.23285   4.25655   4.27370   4.31302
 Alpha virt. eigenvalues --    4.33184   4.37594   4.47940   4.58511   4.77857
          Condensed to atoms (all electrons):
              1          2          3          4          5          6
     1  C    4.894191   0.249930  -0.043747   0.004396  -0.000134  -0.000004
     2  O    0.249930   8.201845   0.279774  -0.055711   0.003084   0.000160
     3  C   -0.043747   0.279774   4.508927   0.540924  -0.018695  -0.032270
     4  C    0.004396  -0.055711   0.540924   5.005147   0.505670  -0.024801
     5  C   -0.000134   0.003084  -0.018695   0.505670   4.982491   0.514860
     6  C   -0.000004   0.000160  -0.032270  -0.024801   0.514860   4.741365
     7  C   -0.000000   0.000000   0.000369   0.005494  -0.058413   0.367278
     8  C   -0.000000  -0.000000   0.000032  -0.000069  -0.007963  -0.037255
     9  N   -0.000000  -0.000000   0.000012   0.000312   0.001420  -0.056309
    10  C   -0.000000  -0.000000   0.000013  -0.000140  -0.002735  -0.003144
    11  C   -0.000000   0.000000  -0.000000   0.000004   0.000155   0.004901
    12  C    0.000324   0.003666  -0.003401  -0.042124  -0.044564   0.541350
    13  C   -0.006738  -0.062541   0.471485  -0.064340  -0.043847  -0.022789
    14  H    0.363829  -0.036182  -0.004712   0.000066  -0.000000  -0.000006
    15  H    0.383841  -0.031325   0.003232  -0.000113   0.000003   0.000000
    16  H    0.363785  -0.036241  -0.004773   0.000056   0.000001  -0.000002
    17  H   -0.000180  -0.000347  -0.036893   0.344639  -0.040849   0.003880
    18  H    0.000003  -0.000057   0.004239  -0.043298   0.355156  -0.044070
    19  H    0.000000  -0.000000  -0.000016  -0.000112   0.008350  -0.057417
    20  H    0.000000   0.000000  -0.000000   0.000003   0.000125   0.005001
    21  H    0.000000  -0.000000  -0.000005  -0.000002   0.004184  -0.008506
    22  H    0.000000  -0.000000  -0.000009  -0.000084   0.000193  -0.001795
    23  H    0.000000   0.000000  -0.000028  -0.000083   0.001541   0.010237
    24  H    0.000000  -0.000000  -0.000001   0.000007   0.000559  -0.002190
    25  H    0.000000   0.000000  -0.000000  -0.000003  -0.000018   0.000298
    26  H    0.000000  -0.000000   0.000000  -0.000000  -0.000017  -0.000087
    27  H    0.000000   0.000000  -0.000000   0.000000   0.000057  -0.000356
    28  H   -0.000000   0.000000   0.000000  -0.000001  -0.000044   0.000095
    29  H   -0.000008  -0.000046   0.003057   0.000455   0.006576  -0.039837
    30  H    0.005807  -0.007341  -0.046556   0.004516   0.000772   0.003553
              7          8          9         10         11         12
     1  C   -0.000000  -0.000000  -0.000000  -0.000000  -0.000000   0.000324
     2  O    0.000000  -0.000000  -0.000000  -0.000000   0.000000   0.003666
     3  C    0.000369   0.000032   0.000012   0.000013  -0.000000  -0.003401
     4  C    0.005494  -0.000069   0.000312  -0.000140   0.000004  -0.042124
     5  C   -0.058413  -0.007963   0.001420  -0.002735   0.000155  -0.044564
     6  C    0.367278  -0.037255  -0.056309  -0.003144   0.004901   0.541350
     7  C    4.950336   0.352563   0.296256  -0.051738  -0.043710  -0.044164
     8  C    0.352563   5.168820  -0.047025   0.005765  -0.006322  -0.001593
     9  N    0.296256  -0.047025   6.832845   0.325062   0.316892   0.001325
    10  C   -0.051738   0.005765   0.325062   5.006873  -0.065255   0.000197
    11  C   -0.043710  -0.006322   0.316892  -0.065255   5.000508  -0.000134
    12  C   -0.044164  -0.001593   0.001325   0.000197  -0.000134   5.000443
    13  C    0.006703  -0.000342  -0.000114   0.000008   0.000003   0.469262
    14  H    0.000000  -0.000000   0.000000   0.000000  -0.000000  -0.000151
    15  H   -0.000000  -0.000000   0.000000  -0.000000  -0.000000   0.000001
    16  H   -0.000000   0.000000  -0.000000  -0.000000   0.000000  -0.000140
    17  H   -0.000151   0.000001  -0.000002  -0.000000  -0.000000   0.000297
    18  H   -0.008987  -0.000000   0.009583   0.000059  -0.000276   0.006483
    19  H    0.341841  -0.055271  -0.060149  -0.009202  -0.007513  -0.007169
    20  H   -0.027561   0.357765  -0.002280  -0.000138   0.001802   0.000004
    21  H   -0.028453   0.364080   0.001290  -0.000002  -0.001333   0.000149
    22  H   -0.027381   0.367720   0.003424  -0.000137   0.000137   0.001742
    23  H   -0.004623   0.000185  -0.034764   0.379829   0.006010   0.000526
    24  H   -0.010491  -0.000139  -0.051114   0.347979  -0.007210  -0.000078
    25  H    0.005703  -0.000183  -0.034893   0.377122  -0.004570   0.000014
    26  H    0.005322   0.000271  -0.033277  -0.004919   0.378539   0.000002
    27  H   -0.010718  -0.001904  -0.050555  -0.007134   0.345686  -0.000001
    28  H   -0.004640   0.003726  -0.036210   0.006091   0.381420  -0.000001
    29  H   -0.010542   0.000320   0.000032  -0.000051  -0.000016   0.350343
    30  H   -0.000163   0.000003   0.000001  -0.000000  -0.000000  -0.037384
             13         14         15         16         17         18
     1  C   -0.006738   0.363829   0.383841   0.363785  -0.000180   0.000003
     2  O   -0.062541  -0.036182  -0.031325  -0.036241  -0.000347  -0.000057
     3  C    0.471485  -0.004712   0.003232  -0.004773  -0.036893   0.004239
     4  C   -0.064340   0.000066  -0.000113   0.000056   0.344639  -0.043298
     5  C   -0.043847  -0.000000   0.000003   0.000001  -0.040849   0.355156
     6  C   -0.022789  -0.000006   0.000000  -0.000002   0.003880  -0.044070
     7  C    0.006703   0.000000  -0.000000  -0.000000  -0.000151  -0.008987
     8  C   -0.000342  -0.000000  -0.000000   0.000000   0.000001  -0.000000
     9  N   -0.000114   0.000000   0.000000  -0.000000  -0.000002   0.009583
    10  C    0.000008   0.000000  -0.000000  -0.000000  -0.000000   0.000059
    11  C    0.000003  -0.000000  -0.000000   0.000000  -0.000000  -0.000276
    12  C    0.469262  -0.000151   0.000001  -0.000140   0.000297   0.006483
    13  C    5.124561   0.005139   0.000173   0.005154   0.007442   0.000182
    14  H    0.005139   0.599918  -0.034218  -0.046853   0.000029  -0.000000
    15  H    0.000173  -0.034218   0.546223  -0.034228  -0.000027  -0.000000
    16  H    0.005154  -0.046853  -0.034228   0.599932   0.000029  -0.000000
    17  H    0.007442   0.000029  -0.000027   0.000029   0.592936  -0.005954
    18  H    0.000182  -0.000000  -0.000000  -0.000000  -0.005954   0.584423
    19  H    0.000312   0.000000  -0.000000  -0.000000   0.000003   0.000366
    20  H    0.000004   0.000000  -0.000000  -0.000000  -0.000000  -0.000086
    21  H    0.000012   0.000000   0.000000  -0.000000   0.000002   0.002588
    22  H   -0.000078   0.000000   0.000000  -0.000000   0.000000   0.000126
    23  H   -0.000092  -0.000000  -0.000000   0.000000   0.000001  -0.000284
    24  H    0.000001  -0.000000   0.000000  -0.000000   0.000000   0.000071
    25  H    0.000000  -0.000000  -0.000000   0.000000   0.000000  -0.000043
    26  H   -0.000000   0.000000   0.000000  -0.000000   0.000000  -0.000002
    27  H   -0.000000   0.000000   0.000000  -0.000000  -0.000000   0.000026
    28  H    0.000000  -0.000000  -0.000000   0.000000   0.000000  -0.000058
    29  H   -0.043141   0.000002  -0.000000   0.000002   0.000016  -0.000166
    30  H    0.351024   0.001682  -0.000115   0.001847  -0.000167   0.000016
             19         20         21         22         23         24
     1  C    0.000000   0.000000   0.000000   0.000000   0.000000   0.000000
     2  O   -0.000000   0.000000  -0.000000  -0.000000   0.000000  -0.000000
     3  C   -0.000016  -0.000000  -0.000005  -0.000009  -0.000028  -0.000001
     4  C   -0.000112   0.000003  -0.000002  -0.000084  -0.000083   0.000007
     5  C    0.008350   0.000125   0.004184   0.000193   0.001541   0.000559
     6  C   -0.057417   0.005001  -0.008506  -0.001795   0.010237  -0.002190
     7  C    0.341841  -0.027561  -0.028453  -0.027381  -0.004623  -0.010491
     8  C   -0.055271   0.357765   0.364080   0.367720   0.000185  -0.000139
     9  N   -0.060149  -0.002280   0.001290   0.003424  -0.034764  -0.051114
    10  C   -0.009202  -0.000138  -0.000002  -0.000137   0.379829   0.347979
    11  C   -0.007513   0.001802  -0.001333   0.000137   0.006010  -0.007210
    12  C   -0.007169   0.000004   0.000149   0.001742   0.000526  -0.000078
    13  C    0.000312   0.000004   0.000012  -0.000078  -0.000092   0.000001
    14  H    0.000000   0.000000   0.000000   0.000000  -0.000000  -0.000000
    15  H   -0.000000  -0.000000   0.000000   0.000000  -0.000000   0.000000
    16  H   -0.000000  -0.000000  -0.000000  -0.000000   0.000000  -0.000000
    17  H    0.000003  -0.000000   0.000002   0.000000   0.000001   0.000000
    18  H    0.000366  -0.000086   0.002588   0.000126  -0.000284   0.000071
    19  H    0.704871  -0.004693   0.006464  -0.000069  -0.001625   0.017013
    20  H   -0.004693   0.586515  -0.030362  -0.030152  -0.000011  -0.000019
    21  H    0.006464  -0.030362   0.561929  -0.027653  -0.000020   0.000036
    22  H   -0.000069  -0.030152  -0.027653   0.559686  -0.000006   0.000009
    23  H   -0.001625  -0.000011  -0.000020  -0.000006   0.548049  -0.041130
    24  H    0.017013  -0.000019   0.000036   0.000009  -0.041130   0.660019
    25  H   -0.000338  -0.000001  -0.000002   0.000002  -0.027811  -0.041762
    26  H   -0.000418   0.000028  -0.000079  -0.000004   0.000176  -0.001528
    27  H    0.014780   0.000713   0.000505   0.000025  -0.000446   0.013788
    28  H   -0.001008   0.000162   0.000221  -0.000002  -0.000198  -0.000408
    29  H    0.009174  -0.000040   0.000012   0.000201  -0.000030   0.000196
    30  H   -0.000008  -0.000000   0.000000   0.000002  -0.000001   0.000000
             25         26         27         28         29         30
     1  C    0.000000   0.000000   0.000000  -0.000000  -0.000008   0.005807
     2  O    0.000000  -0.000000   0.000000   0.000000  -0.000046  -0.007341
     3  C   -0.000000   0.000000  -0.000000   0.000000   0.003057  -0.046556
     4  C   -0.000003  -0.000000   0.000000  -0.000001   0.000455   0.004516
     5  C   -0.000018  -0.000017   0.000057  -0.000044   0.006576   0.000772
     6  C    0.000298  -0.000087  -0.000356   0.000095  -0.039837   0.003553
     7  C    0.005703   0.005322  -0.010718  -0.004640  -0.010542  -0.000163
     8  C   -0.000183   0.000271  -0.001904   0.003726   0.000320   0.000003
     9  N   -0.034893  -0.033277  -0.050555  -0.036210   0.000032   0.000001
    10  C    0.377122  -0.004919  -0.007134   0.006091  -0.000051  -0.000000
    11  C   -0.004570   0.378539   0.345686   0.381420  -0.000016  -0.000000
    12  C    0.000014   0.000002  -0.000001  -0.000001   0.350343  -0.037384
    13  C    0.000000  -0.000000  -0.000000   0.000000  -0.043141   0.351024
    14  H   -0.000000   0.000000   0.000000  -0.000000   0.000002   0.001682
    15  H   -0.000000   0.000000   0.000000  -0.000000  -0.000000  -0.000115
    16  H    0.000000  -0.000000  -0.000000   0.000000   0.000002   0.001847
    17  H    0.000000   0.000000  -0.000000   0.000000   0.000016  -0.000167
    18  H   -0.000043  -0.000002   0.000026  -0.000058  -0.000166   0.000016
    19  H   -0.000338  -0.000418   0.014780  -0.001008   0.009174  -0.000008
    20  H   -0.000001   0.000028   0.000713   0.000162  -0.000040  -0.000000
    21  H   -0.000002  -0.000079   0.000505   0.000221   0.000012   0.000000
    22  H    0.000002  -0.000004   0.000025  -0.000002   0.000201   0.000002
    23  H   -0.027811   0.000176  -0.000446  -0.000198  -0.000030  -0.000001
    24  H   -0.041762  -0.001528   0.013788  -0.000408   0.000196   0.000000
    25  H    0.577073   0.005533  -0.001388   0.000197  -0.000002   0.000000
    26  H    0.005533   0.572975  -0.041386  -0.029009   0.000000   0.000000
    27  H   -0.001388  -0.041386   0.663563  -0.043092   0.000010   0.000000
    28  H    0.000197  -0.029009  -0.043092   0.568166  -0.000001  -0.000000
    29  H   -0.000002   0.000000   0.000010  -0.000001   0.604079  -0.005647
    30  H    0.000000   0.000000   0.000000  -0.000000  -0.005647   0.600737
 Mulliken atomic charges:
              1
     1  C   -0.215294
     2  O   -0.508668
     3  C    0.379043
     4  C   -0.180806
     5  C   -0.167918
     6  C    0.137861
     7  C   -0.000126
     8  C   -0.463186
     9  N   -0.381761
    10  C   -0.304402
    11  C   -0.299716
    12  C   -0.195222
    13  C   -0.197441
    14  H    0.151457
    15  H    0.166550
    16  H    0.151432
    17  H    0.135295
    18  H    0.139960
    19  H    0.101835
    20  H    0.143223
    21  H    0.154947
    22  H    0.154102
    23  H    0.164597
    24  H    0.116392
    25  H    0.145070
    26  H    0.147878
    27  H    0.117826
    28  H    0.154592
    29  H    0.125053
    30  H    0.127425
 Sum of Mulliken atomic charges =  -0.00000
 Mulliken charges with hydrogens summed into heavy atoms:
              1
     1  C    0.254146
     2  O   -0.508668
     3  C    0.379043
     4  C   -0.045511
     5  C   -0.027958
     6  C    0.137861
     7  C    0.101709
     8  C   -0.010914
     9  N   -0.381761
    10  C    0.121658
    11  C    0.120580
    12  C   -0.070169
    13  C   -0.070016
 Sum of Mulliken charges with hydrogens summed into heavy atoms =  -0.00000
 Electronic spatial extent (au):  <R**2>=           3344.2438
 Charge=             -0.0000 electrons
 Dipole moment (field-independent basis, Debye):
    X=             -0.3730    Y=             -0.0415    Z=             -1.6061  Tot=              1.6494
 Quadrupole moment (field-independent basis, Debye-Ang):
   XX=            -68.4158   YY=            -80.1029   ZZ=            -77.7189
   XY=              0.8203   XZ=              4.3635   YZ=              0.2969
 Traceless Quadrupole moment (field-independent basis, Debye-Ang):
   XX=              6.9967   YY=             -4.6903   ZZ=             -2.3064
   XY=              0.8203   XZ=              4.3635   YZ=              0.2969
 Octapole moment (field-independent basis, Debye-Ang**2):
  XXX=            -48.6162  YYY=             -6.1351  ZZZ=              3.7032  XYY=              2.3465
  XXY=             -6.3305  XXZ=            -19.7749  XZZ=             -7.4288  YZZ=              1.2389
  YYZ=              1.4429  XYZ=             -0.8513
 Hexadecapole moment (field-independent basis, Debye-Ang**3):
 XXXX=          -3163.9459 YYYY=           -491.2329 ZZZZ=           -385.6845 XXXY=             13.7700
 XXXZ=             94.3411 YYYX=             -7.2944 YYYZ=             -5.0562 ZZZX=             -5.7684
 ZZZY=              0.5441 XXYY=           -663.4708 XXZZ=           -667.5463 YYZZ=           -155.3969
 XXYZ=              0.5697 YYXZ=              5.4400 ZZXY=              3.3935
 N-N= 7.974491157666D+02 E-N=-2.892984564555D+03  KE= 5.539555014956D+02
 No NMR shielding tensors so no spin-rotation constants.
 Leave Link  601 at Fri Sep  3 00:06:42 2021, MaxMem=  268435456 cpu:       0.3
 (Enter /sw/target/amd/app/gaussian/Gaussian09RevA.02_gcc-4.9.2/g09/l701.exe)
 Compute integral first derivatives.
 ... and contract with generalized density number  0.
 Leave Link  701 at Fri Sep  3 00:06:42 2021, MaxMem=  268435456 cpu:       0.3
 (Enter /sw/target/amd/app/gaussian/Gaussian09RevA.02_gcc-4.9.2/g09/l702.exe)
 L702 exits ... SP integral derivatives will be done elsewhere.
 Leave Link  702 at Fri Sep  3 00:06:42 2021, MaxMem=  268435456 cpu:       0.0
 (Enter /sw/target/amd/app/gaussian/Gaussian09RevA.02_gcc-4.9.2/g09/l703.exe)
 Compute integral first derivatives, UseDBF=F ICtDFT=           0.
 Integral derivatives from FoFDir, PRISM(SPDF).
 Calling FoFJK, ICntrl=      2127 FMM=F ISym2X=0 I1Cent= 0 IOpClX= 0 NMat=1 NMatS=1 NMatT=0.
 FoFCou: FMM=F IPFlag=           0 FMFlag=      100000 FMFlg1=         800
         NFxFlg=           0 DoJE=F BraDBF=F KetDBF=F FulRan=T
         Omega=  0.000000  0.000000  1.000000  0.000000  0.000000 ICntrl=    2127 IOpCl=  0
         NMat0=    1 NMatS0=    1 NMatT0=    0 NMatD0=    1 NMtDS0=    0 NMtDT0=    0
         I1Cent=           0 NGrid=           0.
 Symmetry not used in FoFCou.
 Leave Link  703 at Fri Sep  3 00:07:34 2021, MaxMem=  268435456 cpu:      51.9
 (Enter /sw/target/amd/app/gaussian/Gaussian09RevA.02_gcc-4.9.2/g09/l716.exe)
 Dipole        =-1.46753502D-01-1.63439199D-02-6.31885924D-01
 ***** Axes restored to original set *****
 -------------------------------------------------------------------
 Center     Atomic                   Forces (Hartrees/Bohr)
 Number     Number              X              Y              Z
 -------------------------------------------------------------------
      1        6           0.003054776   -0.004618265   -0.001412452
      2        8           0.004930454    0.003380375    0.004868266
      3        6           0.000492664   -0.004307114   -0.002621749
      4        6          -0.012756340   -0.001313024   -0.007584255
      5        6           0.006655978   -0.001334293    0.002497447
      6        6          -0.005655728    0.003510864    0.009145649
      7        6           0.003287632   -0.004999281   -0.004642362
      8        6          -0.006769183    0.002397016   -0.003853776
      9        7           0.000969592   -0.003320700   -0.000207665
     10        6           0.002921494   -0.006259885   -0.004557950
     11        6           0.002540526   -0.005284560   -0.006194140
     12        6          -0.000660169   -0.008934684   -0.005965803
     13        6           0.000888161    0.007458036    0.003790580
     14        1          -0.001050093    0.003692565    0.001154391
     15        1          -0.002799222   -0.002372504   -0.002934214
     16        1          -0.001418662    0.003189633    0.002005631
     17        1           0.002352227    0.000837058    0.001591719
     18        1          -0.000090666    0.001121586    0.001849872
     19        1           0.001935683    0.004755108    0.004196223
     20        1          -0.000799227   -0.000246698   -0.001073333
     21        1          -0.000133858   -0.000988688    0.001254040
     22        1          -0.000311640   -0.001980965    0.003372674
     23        1           0.002199931    0.003465898   -0.003019676
     24        1          -0.001064777    0.004677017    0.005366480
     25        1          -0.001666201    0.002142158   -0.003151669
     26        1           0.003135891   -0.001061695    0.003313852
     27        1          -0.003478710    0.006588047    0.002196859
     28        1           0.002499458    0.001991595    0.000707312
     29        1          -0.000845541   -0.000605957   -0.000006540
     30        1           0.001635548   -0.001578644   -0.000085411
 -------------------------------------------------------------------
 Cartesian Forces:  Max     0.012756340 RMS     0.003814556
 Leave Link  716 at Fri Sep  3 00:07:34 2021, MaxMem=  268435456 cpu:       0.0
 (Enter /sw/target/amd/app/gaussian/Gaussian09RevA.02_gcc-4.9.2/g09/l103.exe)

 GradGradGradGradGradGradGradGradGradGradGradGradGradGradGradGradGradGrad
 Berny optimization.
 Internal  Forces:  Max     0.009441000 RMS     0.002761760
 Search for a local minimum.
 Step number   1 out of a maximum of  154
 All quantities printed in internal units (Hartrees-Bohrs-Radians)
 RMS Force = .27618D-02 SwitMx=.10000D-02 MixMth= 1
 Mixed Optimization -- RFO/linear search
 Second derivative matrix not updated -- first step.
     Eigenvalues ---    0.00233   0.00380   0.00537   0.00766   0.00832
     Eigenvalues ---    0.01373   0.01407   0.02059   0.02068   0.02093
     Eigenvalues ---    0.02105   0.02117   0.02121   0.02138   0.02139
     Eigenvalues ---    0.02149   0.02749   0.04223   0.05275   0.05281
     Eigenvalues ---    0.05422   0.06203   0.06997   0.07033   0.07299
     Eigenvalues ---    0.07357   0.09988   0.10544   0.15999   0.16000
     Eigenvalues ---    0.16000   0.16000   0.16000   0.16000   0.16000
     Eigenvalues ---    0.16000   0.16000   0.16000   0.16000   0.16000
     Eigenvalues ---    0.16000   0.16000   0.16000   0.16000   0.16590
     Eigenvalues ---    0.17205   0.17277   0.18857   0.22000   0.22970
     Eigenvalues ---    0.23999   0.24997   0.25000   0.25000   0.28490
     Eigenvalues ---    0.29502   0.33744   0.33748   0.34048   0.34074
     Eigenvalues ---    0.34091   0.34107   0.34110   0.34141   0.34237
     Eigenvalues ---    0.34237   0.34251   0.34279   0.34294   0.34322
     Eigenvalues ---    0.35030   0.35087   0.35160   0.35451   0.35744
     Eigenvalues ---    0.36343   0.41500   0.41956   0.42225   0.45285
     Eigenvalues ---    0.45844   0.45896   0.46353   0.513851000.00000
     Eigenvalues --- 1000.000001000.000001000.000001000.000001000.00000
     Eigenvalues --- 1000.000001000.000001000.000001000.000001000.00000
     Eigenvalues --- 1000.000001000.000001000.000001000.000001000.00000
     Eigenvalues --- 1000.000001000.000001000.000001000.000001000.00000
     Eigenvalues --- 1000.000001000.000001000.000001000.000001000.00000
     Eigenvalues --- 1000.000001000.000001000.000001000.000001000.00000
     Eigenvalues --- 1000.000001000.000001000.000001000.000001000.00000
     Eigenvalues --- 1000.000001000.000001000.000001000.000001000.00000
     Eigenvalues --- 1000.000001000.000001000.000001000.000001000.00000
     Eigenvalues --- 1000.000001000.000001000.000001000.000001000.00000
     Eigenvalues --- 1000.000001000.000001000.000001000.000001000.00000
     Eigenvalues --- 1000.000001000.000001000.000001000.00000
 RFO step:  Lambda=-5.43366701D-03 EMin= 2.32528375D-03
 Linear search not attempted -- first point.
 Iteration  1 RMS(Cart)=  0.06015786 RMS(Int)=  0.00122139
 Iteration  2 RMS(Cart)=  0.00187231 RMS(Int)=  0.00015797
 Iteration  3 RMS(Cart)=  0.00000235 RMS(Int)=  0.00015796
 Iteration  4 RMS(Cart)=  0.00000000 RMS(Int)=  0.00015796
 Variable       Old X    -DE/DX   Delta X   Delta X   Delta X     New X
                                 (Linear)    (Quad)   (Total)
    R1        2.68637  -0.00225   0.00000  -0.00525  -0.00525   2.68112
    R2        2.06933   0.00171   0.00000   0.00493   0.00493   2.07425
    R3        2.06791  -0.00095   0.00000  -0.00272  -0.00272   2.06518
    R4        2.06931   0.00175   0.00000   0.00502   0.00502   2.07433
    R5        2.58493   0.00125   0.00000   0.00241   0.00241   2.58734
    R6        2.63785   0.00539   0.00000   0.01227   0.01226   2.65011
    R7        2.63567   0.00182   0.00000   0.00464   0.00464   2.64030
    R8        2.63944  -0.00545   0.00000  -0.01168  -0.01169   2.62775
    R9        2.05416  -0.00082   0.00000  -0.00229  -0.00229   2.05187
   R10        2.65049  -0.00023   0.00000  -0.00129  -0.00129   2.64920
   R11        2.05627  -0.00161   0.00000  -0.00452  -0.00452   2.05175
   R12        2.88967  -0.00270   0.00000  -0.00900  -0.00900   2.88067
   R13        2.65101  -0.00553   0.00000  -0.01287  -0.01286   2.63814
   R14        2.91079  -0.00028   0.00000  -0.00095  -0.00095   2.90984
   R15        2.81064  -0.00881   0.00000  -0.02569  -0.02569   2.78495
   R16        2.07757   0.00605   0.00000   0.01765   0.01765   2.09522
   R17        2.06909   0.00068   0.00000   0.00195   0.00195   2.07104
   R18        2.07146  -0.00013   0.00000  -0.00038  -0.00038   2.07107
   R19        2.07250  -0.00183   0.00000  -0.00529  -0.00529   2.06721
   R20        2.77784  -0.00636   0.00000  -0.01752  -0.01752   2.76032
   R21        2.76849  -0.00331   0.00000  -0.00898  -0.00898   2.75950
   R22        2.06861  -0.00074   0.00000  -0.00214  -0.00214   2.06647
   R23        2.07149   0.00705   0.00000   0.02034   0.02034   2.09183
   R24        2.07177  -0.00058   0.00000  -0.00168  -0.00168   2.07009
   R25        2.07206  -0.00092   0.00000  -0.00267  -0.00267   2.06939
   R26        2.07093   0.00742   0.00000   0.02139   0.02139   2.09232
   R27        2.06837  -0.00056   0.00000  -0.00161  -0.00161   2.06676
   R28        2.64631  -0.00074   0.00000  -0.00159  -0.00158   2.64474
   R29        2.05534  -0.00033   0.00000  -0.00092  -0.00092   2.05442
   R30        2.04949   0.00018   0.00000   0.00050   0.00050   2.04999
    A1        1.93994   0.00161   0.00000   0.00835   0.00841   1.94834
    A2        1.88125  -0.00622   0.00000  -0.03496  -0.03488   1.84637
    A3        1.93982   0.00170   0.00000   0.00891   0.00896   1.94878
    A4        1.87941   0.00331   0.00000   0.02260   0.02268   1.90209
    A5        1.94092  -0.00366   0.00000  -0.02674  -0.02671   1.91422
    A6        1.87940   0.00328   0.00000   0.02250   0.02258   1.90198
    A7        2.03951   0.00394   0.00000   0.01542   0.01542   2.05493
    A8        2.00244   0.00527   0.00000   0.01926   0.01926   2.02170
    A9        2.20047  -0.00496   0.00000  -0.02081  -0.02080   2.17967
   A10        2.08028  -0.00031   0.00000   0.00154   0.00152   2.08180
   A11        2.10643  -0.00146   0.00000  -0.00502  -0.00505   2.10139
   A12        2.09012  -0.00219   0.00000  -0.01515  -0.01514   2.07498
   A13        2.08663   0.00365   0.00000   0.02018   0.02019   2.10681
   A14        2.10428   0.00233   0.00000   0.00853   0.00851   2.11278
   A15        2.08454  -0.00001   0.00000   0.00269   0.00269   2.08723
   A16        2.09432  -0.00232   0.00000  -0.01126  -0.01125   2.08307
   A17        2.11644  -0.00151   0.00000  -0.00449  -0.00453   2.11191
   A18        2.06733  -0.00136   0.00000  -0.00842  -0.00846   2.05886
   A19        2.09932   0.00287   0.00000   0.01269   0.01264   2.11196
   A20        1.87535   0.00944   0.00000   0.04213   0.04147   1.91682
   A21        1.95796  -0.00498   0.00000  -0.03659  -0.03627   1.92169
   A22        1.89286  -0.00237   0.00000  -0.01141  -0.01171   1.88115
   A23        1.97991  -0.00581   0.00000  -0.03381  -0.03343   1.94647
   A24        1.86366  -0.00053   0.00000   0.01245   0.01252   1.87618
   A25        1.89022   0.00442   0.00000   0.02959   0.02966   1.91988
[...]
 Alpha  occ. eigenvalues --   -0.30529  -0.24368  -0.21124  -0.20675
 Alpha virt. eigenvalues --    0.00513   0.01784   0.09186   0.09893   0.11178
 Alpha virt. eigenvalues --    0.12648   0.13412   0.14164   0.14773   0.15505
 Alpha virt. eigenvalues --    0.15799   0.16273   0.16755   0.16876   0.17085
 Alpha virt. eigenvalues --    0.18269   0.18753   0.19249   0.19668   0.20315
 Alpha virt. eigenvalues --    0.20664   0.22860   0.24345   0.25719   0.25987
 Alpha virt. eigenvalues --    0.27087   0.28750   0.33124   0.35106   0.36062
 Alpha virt. eigenvalues --    0.37987   0.48637   0.49836   0.50559   0.51183
 Alpha virt. eigenvalues --    0.52589   0.52872   0.54083   0.54973   0.55508
 Alpha virt. eigenvalues --    0.56308   0.57015   0.57706   0.59814   0.60677
 Alpha virt. eigenvalues --    0.61498   0.61741   0.62148   0.64286   0.65681
 Alpha virt. eigenvalues --    0.67013   0.69074   0.69752   0.72732   0.74122
 Alpha virt. eigenvalues --    0.74624   0.76162   0.78493   0.80829   0.82681
 Alpha virt. eigenvalues --    0.83270   0.83827   0.84739   0.85202   0.85728
 Alpha virt. eigenvalues --    0.86145   0.87473   0.87777   0.88872   0.89559
 Alpha virt. eigenvalues --    0.91317   0.91875   0.93400   0.93905   0.94139
 Alpha virt. eigenvalues --    0.94555   0.96416   0.97538   0.98756   0.99963
 Alpha virt. eigenvalues --    1.01742   1.03542   1.03765   1.05293   1.05896
 Alpha virt. eigenvalues --    1.07725   1.08850   1.14853   1.18485   1.18848
 Alpha virt. eigenvalues --    1.21830   1.24401   1.29059   1.30786   1.33356
 Alpha virt. eigenvalues --    1.36783   1.38173   1.40622   1.43080   1.45163
 Alpha virt. eigenvalues --    1.46343   1.47340   1.49071   1.52321   1.52987
 Alpha virt. eigenvalues --    1.55016   1.57136   1.64289   1.68935   1.70945
 Alpha virt. eigenvalues --    1.76342   1.79391   1.81619   1.83663   1.85102
 Alpha virt. eigenvalues --    1.85442   1.89387   1.90553   1.93395   1.95237
 Alpha virt. eigenvalues --    1.95733   1.98112   1.99484   2.00359   2.01919
 Alpha virt. eigenvalues --    2.03651   2.06482   2.07868   2.08041   2.09479
 Alpha virt. eigenvalues --    2.10939   2.12759   2.13817   2.15335   2.15759
 Alpha virt. eigenvalues --    2.19878   2.20701   2.23039   2.25320   2.25484
 Alpha virt. eigenvalues --    2.27277   2.29384   2.32544   2.33827   2.36459
 Alpha virt. eigenvalues --    2.36809   2.39008   2.44535   2.48314   2.53076
 Alpha virt. eigenvalues --    2.54898   2.56293   2.60971   2.64726   2.66675
 Alpha virt. eigenvalues --    2.67830   2.69655   2.72319   2.79083   2.80528
 Alpha virt. eigenvalues --    2.83947   2.86026   2.94876   2.99181   3.00164
 Alpha virt. eigenvalues --    3.19182   3.43301   4.05617   4.06302   4.12321
 Alpha virt. eigenvalues --    4.14607   4.22754   4.25988   4.27392   4.31685
 Alpha virt. eigenvalues --    4.33863   4.37234   4.48046   4.58678   4.77640
          Condensed to atoms (all electrons):
              1          2          3          4          5          6
     1  C    4.891882   0.250585  -0.043426   0.004207  -0.000123  -0.000007
     2  O    0.250585   8.200400   0.278648  -0.053898   0.002991   0.000179
     3  C   -0.043426   0.278648   4.510824   0.536255  -0.016431  -0.032036
     4  C    0.004207  -0.053898   0.536255   5.004209   0.507306  -0.027516
     5  C   -0.000123   0.002991  -0.016431   0.507306   4.990190   0.511979
     6  C   -0.000007   0.000179  -0.032036  -0.027516   0.511979   4.749552
     7  C   -0.000000   0.000000   0.000300   0.005684  -0.059059   0.368355
     8  C   -0.000000  -0.000000   0.000036  -0.000064  -0.007873  -0.035144
     9  N   -0.000000   0.000000   0.000013   0.000398  -0.001311  -0.058089
    10  C   -0.000000  -0.000000   0.000020  -0.000200  -0.004412  -0.004465
    11  C   -0.000000   0.000000  -0.000000   0.000004   0.000291   0.004790
    12  C    0.000338   0.003901  -0.001765  -0.043603  -0.041577   0.539711
    13  C   -0.006849  -0.061709   0.475859  -0.064328  -0.045639  -0.022147
    14  H    0.362115  -0.035855  -0.004351   0.000047  -0.000003  -0.000003
    15  H    0.386267  -0.033800   0.003238  -0.000111   0.000004  -0.000000
    16  H    0.362148  -0.035754  -0.004422   0.000032   0.000001  -0.000003
    17  H   -0.000221   0.000035  -0.037435   0.344580  -0.040971   0.003781
    18  H    0.000003  -0.000054   0.004207  -0.043979   0.352961  -0.044948
    19  H    0.000000  -0.000000  -0.000016  -0.000107   0.008624  -0.059537
    20  H    0.000000   0.000000  -0.000000   0.000003   0.000101   0.004664
    21  H    0.000000  -0.000000  -0.000007  -0.000007   0.004384  -0.008422
    22  H    0.000000  -0.000000  -0.000009  -0.000077   0.000238  -0.001782
    23  H    0.000000   0.000000  -0.000035  -0.000193   0.002073   0.013627
    24  H    0.000000  -0.000000  -0.000001   0.000011   0.000624  -0.002120
    25  H    0.000000   0.000000  -0.000000  -0.000007   0.000010   0.000330
    26  H    0.000000  -0.000000   0.000000  -0.000000  -0.000025  -0.000087
    27  H   -0.000000   0.000000  -0.000000   0.000000   0.000053  -0.000334
    28  H   -0.000000   0.000000   0.000000  -0.000001  -0.000042   0.000112
    29  H   -0.000007  -0.000050   0.003106   0.000511   0.007008  -0.041379
    30  H    0.006089  -0.007811  -0.046147   0.004550   0.000705   0.003347
              7          8          9         10         11         12
     1  C   -0.000000  -0.000000  -0.000000  -0.000000  -0.000000   0.000338
     2  O    0.000000  -0.000000   0.000000  -0.000000   0.000000   0.003901
     3  C    0.000300   0.000036   0.000013   0.000020  -0.000000  -0.001765
     4  C    0.005684  -0.000064   0.000398  -0.000200   0.000004  -0.043603
     5  C   -0.059059  -0.007873  -0.001311  -0.004412   0.000291  -0.041577
     6  C    0.368355  -0.035144  -0.058089  -0.004465   0.004790   0.539711
     7  C    4.948190   0.356023   0.297232  -0.054981  -0.044076  -0.045743
     8  C    0.356023   5.167527  -0.051298   0.006091  -0.006693  -0.002349
     9  N    0.297232  -0.051298   6.831038   0.328016   0.319694   0.002067
    10  C   -0.054981   0.006091   0.328016   5.006873  -0.064336  -0.000070
    11  C   -0.044076  -0.006693   0.319694  -0.064336   4.996070  -0.000166
    12  C   -0.045743  -0.002349   0.002067  -0.000070  -0.000166   5.009559
    13  C    0.006644  -0.000301  -0.000128   0.000024   0.000003   0.464866
    14  H    0.000000  -0.000000   0.000000   0.000000  -0.000000  -0.000180
    15  H   -0.000000  -0.000000   0.000000  -0.000000  -0.000000   0.000002
    16  H    0.000000   0.000000  -0.000000  -0.000000   0.000000  -0.000161
    17  H   -0.000145   0.000001  -0.000002  -0.000001  -0.000000   0.000225
    18  H   -0.010081  -0.000363   0.014332   0.000092  -0.000402   0.007072
    19  H    0.340748  -0.055770  -0.057682  -0.008239  -0.006623  -0.006717
    20  H   -0.025963   0.359185  -0.002535  -0.000147   0.001365   0.000031
    21  H   -0.029210   0.363188   0.001614   0.000003  -0.001813   0.000142
    22  H   -0.028974   0.366095   0.003781  -0.000151   0.000227   0.002231
    23  H   -0.006081   0.000289  -0.037524   0.379524   0.006240   0.000349
    24  H   -0.009492  -0.000157  -0.049684   0.347085  -0.007519  -0.000040
    25  H    0.006107  -0.000207  -0.038168   0.377391  -0.004170   0.000009
    26  H    0.005659   0.000300  -0.037211  -0.004535   0.379113   0.000002
    27  H   -0.009317  -0.001950  -0.048208  -0.007073   0.343346   0.000006
    28  H   -0.005499   0.004781  -0.036975   0.006101   0.381757  -0.000002
    29  H   -0.010737   0.000257   0.000065  -0.000039  -0.000014   0.348755
    30  H   -0.000149   0.000002   0.000001  -0.000000  -0.000000  -0.036878
             13         14         15         16         17         18
     1  C   -0.006849   0.362115   0.386267   0.362148  -0.000221   0.000003
     2  O   -0.061709  -0.035855  -0.033800  -0.035754   0.000035  -0.000054
     3  C    0.475859  -0.004351   0.003238  -0.004422  -0.037435   0.004207
     4  C   -0.064328   0.000047  -0.000111   0.000032   0.344580  -0.043979
     5  C   -0.045639  -0.000003   0.000004   0.000001  -0.040971   0.352961
     6  C   -0.022147  -0.000003  -0.000000  -0.000003   0.003781  -0.044948
     7  C    0.006644   0.000000  -0.000000   0.000000  -0.000145  -0.010081
     8  C   -0.000301  -0.000000  -0.000000   0.000000   0.000001  -0.000363
     9  N   -0.000128   0.000000   0.000000  -0.000000  -0.000002   0.014332
    10  C    0.000024   0.000000  -0.000000  -0.000000  -0.000001   0.000092
    11  C    0.000003  -0.000000  -0.000000   0.000000  -0.000000  -0.000402
    12  C    0.464866  -0.000180   0.000002  -0.000161   0.000225   0.007072
    13  C    5.124113   0.004898   0.000227   0.004910   0.007542   0.000204
    14  H    0.004898   0.603965  -0.032162  -0.050415   0.000031  -0.000000
    15  H    0.000227  -0.032162   0.540653  -0.032140  -0.000029  -0.000000
    16  H    0.004910  -0.050415  -0.032140   0.603885   0.000028  -0.000000
    17  H    0.007542   0.000031  -0.000029   0.000028   0.593282  -0.005825
    18  H    0.000204  -0.000000  -0.000000  -0.000000  -0.005825   0.583556
    19  H    0.000228   0.000000  -0.000000  -0.000000   0.000003   0.000484
    20  H    0.000003   0.000000  -0.000000  -0.000000  -0.000000  -0.000067
    21  H    0.000011   0.000000   0.000000  -0.000000   0.000003   0.002356
    22  H   -0.000094   0.000000   0.000000  -0.000000   0.000000   0.000107
    23  H   -0.000106  -0.000000  -0.000000   0.000000   0.000001  -0.000566
    24  H   -0.000003  -0.000000   0.000000   0.000000   0.000000   0.000125
    25  H    0.000000  -0.000000  -0.000000   0.000000  -0.000000  -0.000114
    26  H   -0.000000   0.000000   0.000000  -0.000000   0.000000  -0.000009
    27  H   -0.000000   0.000000   0.000000  -0.000000   0.000000   0.000040
    28  H    0.000000  -0.000000  -0.000000   0.000000   0.000000  -0.000086
    29  H   -0.043800   0.000003  -0.000000   0.000002   0.000017  -0.000180
    30  H    0.351524   0.001886  -0.000107   0.001801  -0.000169   0.000016
             19         20         21         22         23         24
     1  C    0.000000   0.000000   0.000000   0.000000   0.000000   0.000000
     2  O   -0.000000   0.000000  -0.000000  -0.000000   0.000000  -0.000000
     3  C   -0.000016  -0.000000  -0.000007  -0.000009  -0.000035  -0.000001
     4  C   -0.000107   0.000003  -0.000007  -0.000077  -0.000193   0.000011
     5  C    0.008624   0.000101   0.004384   0.000238   0.002073   0.000624
     6  C   -0.059537   0.004664  -0.008422  -0.001782   0.013627  -0.002120
     7  C    0.340748  -0.025963  -0.029210  -0.028974  -0.006081  -0.009492
     8  C   -0.055770   0.359185   0.363188   0.366095   0.000289  -0.000157
     9  N   -0.057682  -0.002535   0.001614   0.003781  -0.037524  -0.049684
    10  C   -0.008239  -0.000147   0.000003  -0.000151   0.379524   0.347085
    11  C   -0.006623   0.001365  -0.001813   0.000227   0.006240  -0.007519
    12  C   -0.006717   0.000031   0.000142   0.002231   0.000349  -0.000040
    13  C    0.000228   0.000003   0.000011  -0.000094  -0.000106  -0.000003
    14  H    0.000000   0.000000   0.000000   0.000000  -0.000000  -0.000000
    15  H   -0.000000  -0.000000   0.000000   0.000000  -0.000000   0.000000
    16  H   -0.000000  -0.000000  -0.000000  -0.000000   0.000000   0.000000
    17  H    0.000003  -0.000000   0.000003   0.000000   0.000001   0.000000
    18  H    0.000484  -0.000067   0.002356   0.000107  -0.000566   0.000125
    19  H    0.709373  -0.004241   0.006591   0.000032  -0.002008   0.015564
    20  H   -0.004241   0.580723  -0.030588  -0.028754  -0.000015  -0.000014
    21  H    0.006591  -0.030588   0.562273  -0.026460  -0.000028   0.000036
    22  H    0.000032  -0.028754  -0.026460   0.560447  -0.000008   0.000009
    23  H   -0.002008  -0.000015  -0.000028  -0.000008   0.544271  -0.041233
    24  H    0.015564  -0.000014   0.000036   0.000009  -0.041233   0.664890
    25  H   -0.000357  -0.000002  -0.000003   0.000003  -0.024045  -0.043082
    26  H   -0.000418   0.000043  -0.000101  -0.000006   0.000171  -0.001826
    27  H    0.012590   0.000805   0.000545   0.000019  -0.000439   0.013720
    28  H   -0.000977  -0.000312   0.000173   0.000011  -0.000213  -0.000384
    29  H    0.009676  -0.000041   0.000017   0.000302  -0.000029   0.000124
    30  H   -0.000007  -0.000000   0.000000   0.000002  -0.000002   0.000000
             25         26         27         28         29         30
     1  C    0.000000   0.000000  -0.000000  -0.000000  -0.000007   0.006089
     2  O    0.000000  -0.000000   0.000000   0.000000  -0.000050  -0.007811
     3  C   -0.000000   0.000000  -0.000000   0.000000   0.003106  -0.046147
     4  C   -0.000007  -0.000000   0.000000  -0.000001   0.000511   0.004550
     5  C    0.000010  -0.000025   0.000053  -0.000042   0.007008   0.000705
     6  C    0.000330  -0.000087  -0.000334   0.000112  -0.041379   0.003347
     7  C    0.006107   0.005659  -0.009317  -0.005499  -0.010737  -0.000149
     8  C   -0.000207   0.000300  -0.001950   0.004781   0.000257   0.000002
     9  N   -0.038168  -0.037211  -0.048208  -0.036975   0.000065   0.000001
    10  C    0.377391  -0.004535  -0.007073   0.006101  -0.000039  -0.000000
    11  C   -0.004170   0.379113   0.343346   0.381757  -0.000014  -0.000000
    12  C    0.000009   0.000002   0.000006  -0.000002   0.348755  -0.036878
    13  C    0.000000  -0.000000  -0.000000   0.000000  -0.043800   0.351524
    14  H   -0.000000   0.000000   0.000000  -0.000000   0.000003   0.001886
    15  H   -0.000000   0.000000   0.000000  -0.000000  -0.000000  -0.000107
    16  H    0.000000  -0.000000  -0.000000   0.000000   0.000002   0.001801
    17  H   -0.000000   0.000000   0.000000   0.000000   0.000017  -0.000169
    18  H   -0.000114  -0.000009   0.000040  -0.000086  -0.000180   0.000016
    19  H   -0.000357  -0.000418   0.012590  -0.000977   0.009676  -0.000007
    20  H   -0.000002   0.000043   0.000805  -0.000312  -0.000041  -0.000000
    21  H   -0.000003  -0.000101   0.000545   0.000173   0.000017   0.000000
    22  H    0.000003  -0.000006   0.000019   0.000011   0.000302   0.000002
    23  H   -0.024045   0.000171  -0.000439  -0.000213  -0.000029  -0.000002
    24  H   -0.043082  -0.001826   0.013720  -0.000384   0.000124   0.000000
    25  H    0.577028   0.006286  -0.001562   0.000175  -0.000001   0.000000
    26  H    0.006286   0.574213  -0.042587  -0.025886   0.000000   0.000000
    27  H   -0.001562  -0.042587   0.670211  -0.044203   0.000008   0.000000
    28  H    0.000175  -0.025886  -0.044203   0.566070  -0.000001  -0.000000
    29  H   -0.000001   0.000000   0.000008  -0.000001   0.609554  -0.005530
    30  H    0.000000   0.000000   0.000000  -0.000000  -0.005530   0.599218
 Mulliken atomic charges:
              1
     1  C   -0.213001
     2  O   -0.507810
     3  C    0.373576
     4  C   -0.173706
     5  C   -0.172077
     6  C    0.137588
     7  C    0.004563
     8  C   -0.461604
     9  N   -0.379436
    10  C   -0.302571
    11  C   -0.297091
    12  C   -0.200015
    13  C   -0.195952
    14  H    0.150024
    15  H    0.167957
    16  H    0.150088
    17  H    0.135267
    18  H    0.141122
    19  H    0.098786
    20  H    0.145756
    21  H    0.155303
    22  H    0.152809
    23  H    0.165983
    24  H    0.113366
    25  H    0.144379
    26  H    0.146904
    27  H    0.114330
    28  H    0.155399
    29  H    0.122405
    30  H    0.127658
 Sum of Mulliken atomic charges =  -0.00000
 Mulliken charges with hydrogens summed into heavy atoms:
              1
     1  C    0.255068
     2  O   -0.507810
     3  C    0.373576
     4  C   -0.038439
     5  C   -0.030955
     6  C    0.137588
     7  C    0.103349
     8  C   -0.007736
     9  N   -0.379436
    10  C    0.121156
    11  C    0.119543
    12  C   -0.077610
    13  C   -0.068294
 Sum of Mulliken charges with hydrogens summed into heavy atoms =  -0.00000
 Electronic spatial extent (au):  <R**2>=           3331.6789
 Charge=             -0.0000 electrons
 Dipole moment (field-independent basis, Debye):
    X=             -0.3996    Y=              0.5454    Z=             -1.3731  Tot=              1.5305
 Quadrupole moment (field-independent basis, Debye-Ang):
   XX=            -68.3067   YY=            -79.9776   ZZ=            -78.2846
   XY=             -1.0388   XZ=              4.3902   YZ=             -1.0118
 Traceless Quadrupole moment (field-independent basis, Debye-Ang):
   XX=              7.2163   YY=             -4.4546   ZZ=             -2.7616
   XY=             -1.0388   XZ=              4.3902   YZ=             -1.0118
 Octapole moment (field-independent basis, Debye-Ang**2):
  XXX=            -51.5112  YYY=             -5.4996  ZZZ=              4.1250  XYY=              1.8395
  XXY=              2.7342  XXZ=            -17.7574  XZZ=             -6.7298  YZZ=             -0.3643
  YYZ=             -0.4180  XYZ=              2.3683
 Hexadecapole moment (field-independent basis, Debye-Ang**3):
 XXXX=          -3168.3823 YYYY=           -491.9977 ZZZZ=           -388.3105 XXXY=            -19.5878
 XXXZ=             85.7269 YYYX=             -8.6132 YYYZ=             -2.1549 ZZZX=              0.0532
 ZZZY=            -12.6482 XXYY=           -665.3167 XXZZ=           -662.8799 YYZZ=           -149.5565
 XXYZ=              2.3588 YYXZ=             -0.2897 ZZXY=              5.4907
 N-N= 7.993411637721D+02 E-N=-2.896777587288D+03  KE= 5.539964707351D+02
 No NMR shielding tensors so no spin-rotation constants.
 Leave Link  601 at Fri Sep  3 00:39:14 2021, MaxMem=  268435456 cpu:       0.4
 (Enter /sw/target/amd/app/gaussian/Gaussian09RevA.02_gcc-4.9.2/g09/l9999.exe)
 1\1\GINC-HERMITE\FOpt\RB3LYP\6-31G(d)\C11H17N1O1\JSCHLEINITZ\03-Sep-20
 21\0\\#p b3lyp 6-31G* opt scf(xqc,tight)\\opt calculation\\0,1\C,4.727
 0704075,-0.9687071009,1.3198242333\O,3.7338536485,-1.5901540348,0.5224
 865039\C,2.545192957,-0.9368886351,0.3488893112\C,1.5959223807,-1.5997
 546892,-0.4445385245\C,0.3568678278,-1.0209599772,-0.6821656027\C,0.02
 18371929,0.229528555,-0.1359779234\C,-1.3144607886,0.8909599491,-0.454
 7209421\C,-1.2672155302,1.4700757598,-1.8816439427\N,-2.4243331737,-0.
 0651963875,-0.2804487701\C,-2.537776427,-0.5011645314,1.1092750516\C,-
 3.712691999,0.4358231731,-0.7468294072\C,0.9734250371,0.8720822461,0.6
 55688849\C,2.2299919701,0.3074611032,0.9026647311\H,4.3815757304,-0.81
 5764659,2.3512589775\H,5.5796104266,-1.6506810496,1.3236697326\H,5.038
 4494659,-0.00271295,0.8997229394\H,1.8554858495,-2.5685971085,-0.86063
 43341\H,-0.3801511302,-1.546120233,-1.2827948883\H,-1.4403454747,1.746
 3048354,0.242120001\H,-2.121709675,2.1194718075,-2.096196066\H,-1.2434
 16254,0.6646500696,-2.6244045201\H,-0.3578497432,2.0669114384,-2.00020
 82168\H,-1.5938644357,-0.9346858136,1.4470948191\H,-2.8027318285,0.325
 3681408,1.7987618769\H,-3.3151494765,-1.2687989982,1.1877433406\H,-4.4
 782871663,-0.321122044,-0.5465010735\H,-4.0277393857,1.3730518658,-0.2
 450659012\H,-3.6989019601,0.6116916268,-1.8247873994\H,0.7378116537,1.
 838459224,1.0972944522\H,2.9395289006,0.8394674176,1.5264066929\\Versi
 on=AM64L-G09RevA.02\State=1-A\HF=-559.3598458\RMSD=3.380e-09\RMSF=9.81
 6e-06\Dipole=0.1939678,0.4481298,0.3523464\Quadrupole=4.8067976,-2.880
 1072,-1.9266905,0.637618,3.9522255,0.4669063\PG=C01 [X(C11H17N1O1)]\\@


 THE 2ND LAW OF THERMODYNAMICS HAS THE SAME
 DEGREE OF TRUTH AS THE STATEMENT THAT IF YOU THROW
 A TUMBLERFULL OF WATER INTO THE SEA, YOU CANNOT GET
 THE SAME TUMBLERFULL OF WATER OUT AGAIN.
          - J.C. MAXWELL, LETTER TO LORD RAYLEIGH, DECEMBER 6,1870
 Job cpu time:  0 days  0 hours 35 minutes 28.1 seconds.
 File lengths (MBytes):  RWF=     41 Int=      0 D2E=      0 Chk=      5 Scr=      1
 Normal termination of Gaussian 09 at Fri Sep  3 00:39:14 2021.
