 Entering Gaussian System, Link 0=g09
 Input=mol_inp030.com
 Output=mol_inp030.log
 Initial command:
 /sw/target/amd/app/gaussian/Gaussian09RevA.02_gcc-4.9.2/g09/l1.exe /home/jschleinitz/optim_react/030/Gau-2804345.inp -scrdir=/home/jschleinitz/optim_react/030/
 Entering Link 1 = /sw/target/amd/app/gaussian/Gaussian09RevA.02_gcc-4.9.2/g09/l1.exe PID=   2804347.
  
 Copyright (c) 1988,1990,1992,1993,1995,1998,2003,2009, Gaussian, Inc.
                  All Rights Reserved.
  
 This is part of the Gaussian(R) 09 program.  It is based on
 the Gaussian(R) 03 system (copyright 2003, Gaussian, Inc.),
 the Gaussian(R) 98 system (copyright 1998, Gaussian, Inc.),
 the Gaussian(R) 94 system (copyright 1995, Gaussian, Inc.),
 the Gaussian 92(TM) system (copyright 1992, Gaussian, Inc.),
 the Gaussian 90(TM) system (copyright 1990, Gaussian, Inc.),
 the Gaussian 88(TM) system (copyright 1988, Gaussian, Inc.),
 the Gaussian 86(TM) system (copyright 1986, Carnegie Mellon
 University), and the Gaussian 82(TM) system (copyright 1983,
 Carnegie Mellon University). Gaussian is a federally registered
 trademark of Gaussian, Inc.
  
 This software contains proprietary and confidential information,
 including trade secrets, belonging to Gaussian, Inc.
  
 This software is provided under written license and may be
 used, copied, transmitted, or stored only in accord with that
 written license.
  
 The following legend is applicable only to US Government
 contracts under FAR:
  
                    RESTRICTED RIGHTS LEGEND
  
 Use, reproduction and disclosure by the US Government is
 subject to restrictions as set forth in subparagraphs (a)
 and (c) of the Commercial Computer Software - Restricted
 Rights clause in FAR 52.227-19.
  
 Gaussian, Inc.
 340 Quinnipiac St., Bldg. 40, Wallingford CT 06492
  
  
 ---------------------------------------------------------------
 Warning -- This program may not be used in any manner that
 competes with the business of Gaussian, Inc. or will provide
 assistance to any competitor of Gaussian, Inc.  The licensee
 of this program is prohibited from giving any competitor of
 Gaussian, Inc. access to this program.  By using this program,
 the user acknowledges that Gaussian, Inc. is engaged in the
 business of creating and licensing software in the field of
 computational chemistry and represents and warrants to the
 licensee that it is not a competitor of Gaussian, Inc. and that
 it will not use this program in any manner prohibited above.
 ---------------------------------------------------------------
  

 Cite this work as:
 Gaussian 09, Revision A.02,
 M. J. Frisch, G. W. Trucks, H. B. Schlegel, G. E. Scuseria, 
 M. A. Robb, J. R. Cheeseman, G. Scalmani, V. Barone, B. Mennucci, 
 G. A. Petersson, H. Nakatsuji, M. Caricato, X. Li, H. P. Hratchian, 
 A. F. Izmaylov, J. Bloino, G. Zheng, J. L. Sonnenberg, M. Hada, 
 M. Ehara, K. Toyota, R. Fukuda, J. Hasegawa, M. Ishida, T. Nakajima, 
 Y. Honda, O. Kitao, H. Nakai, T. Vreven, J. A. Montgomery, Jr., 
 J. E. Peralta, F. Ogliaro, M. Bearpark, J. J. Heyd, E. Brothers, 
 K. N. Kudin, V. N. Staroverov, R. Kobayashi, J. Normand, 
 K. Raghavachari, A. Rendell, J. C. Burant, S. S. Iyengar, J. Tomasi, 
 M. Cossi, N. Rega, J. M. Millam, M. Klene, J. E. Knox, J. B. Cross, 
 V. Bakken, C. Adamo, J. Jaramillo, R. Gomperts, R. E. Stratmann, 
 O. Yazyev, A. J. Austin, R. Cammi, C. Pomelli, J. W. Ochterski, 
 R. L. Martin, K. Morokuma, V. G. Zakrzewski, G. A. Voth, 
 P. Salvador, J. J. Dannenberg, S. Dapprich, A. D. Daniels, 
 O. Farkas, J. B. Foresman, J. V. Ortiz, J. Cioslowski, 
 and D. J. Fox, Gaussian, Inc., Wallingford CT, 2009.
 
 ******************************************
 Gaussian 09:  AM64L-G09RevA.02 11-Jun-2009
                 3-Sep-2021 
 ******************************************
 %chk=opt.chk
 %mem=2gb
 %nproc=1
 Will use up to    1 processors via shared memory.
 ----------------------------------
 #p b3lyp 6-31G* opt scf(xqc,tight)
 ----------------------------------
 1/14=-1,18=20,19=15,26=3,38=1/1,3;
 2/9=110,12=2,17=6,18=5,40=1/2;
 3/5=1,6=6,7=1,11=2,16=1,25=1,30=1,71=1,74=-5/1,2,3;
 4//1;
 5/5=2,8=3,13=1,32=2,38=5/2,8;
 6/7=2,8=2,9=2,10=2,28=1/1;
 7//1,2,3,16;
 1/14=-1,18=20,19=15/3(2);
 2/9=110/2;
 99//99;
 2/9=110/2;
 3/5=1,6=6,7=1,11=2,16=1,25=1,30=1,71=1,74=-5/1,2,3;
 4/5=5,16=3/1;
 5/5=2,8=3,13=1,32=2,38=5/2,8;
 7//1,2,3,16;
 1/14=-1,18=20,19=15/3(-5);
 2/9=110/2;
 6/7=2,8=2,9=2,10=2,19=2,28=1/1;
 99/9=1/99;
 Leave Link    1 at Fri Sep  3 00:06:41 2021, MaxMem=  268435456 cpu:       0.0
 (Enter /sw/target/amd/app/gaussian/Gaussian09RevA.02_gcc-4.9.2/g09/l101.exe)
 ---------------
 opt calculation
 ---------------
 Symbolic Z-matrix:
 Charge =  0 Multiplicity = 1
 C                    -3.71055   1.13471  -0.37445 
 O                    -2.78885   0.05277  -0.38556 
 C                    -1.45363   0.34797  -0.28099 
 C                    -0.94839   1.64296  -0.16477 
 C                     0.42579   1.86013  -0.06277 
 C                     1.32749   0.79094  -0.07433 
 C                     2.70776   1.03385   0.02974 
 C                     3.6239   -0.01568   0.02038 
 C                     3.16979  -1.32191  -0.0933 
 C                     1.79974  -1.57654  -0.19746 
 C                     0.84267  -0.53423  -0.19119 
 C                    -0.56568  -0.75036  -0.29532 
 C                    -1.10316  -2.15815  -0.4209 
 H                    -3.54908   1.80019  -1.22882 
 H                    -4.71746   0.71609  -0.466 
 H                    -3.66432   1.68353   0.57188 
 H                    -1.59596   2.51288  -0.14986 
 H                     0.78649   2.88273   0.02656 
 H                     3.08185   2.05153   0.1196 
 H                     4.68795   0.18844   0.10169 
 H                     3.87693  -2.1471   -0.1015 
 H                     1.48685  -2.61422  -0.28471 
 H                    -2.19345  -2.20074  -0.49345 
 H                    -0.70628  -2.63217  -1.32484 
 H                    -0.82037  -2.74762   0.45765 
 
 NAtoms=     25 NQM=     25 NQMF=      0 NMic=      0 NMicF=      0 NTot=     25.
                    Isotopes and Nuclear Properties:
 (Nuclear quadrupole moments (NQMom) in fm**2, nuclear magnetic moments (NMagM)
  in nuclear magnetons)

  Atom         1           2           3           4           5           6           7           8           9          10
 IAtWgt=          12          16          12          12          12          12          12          12          12          12
 AtmWgt=  12.0000000  15.9949146  12.0000000  12.0000000  12.0000000  12.0000000  12.0000000  12.0000000  12.0000000  12.0000000
 NucSpn=           0           0           0           0           0           0           0           0           0           0
 AtZEff=   0.0000000   0.0000000   0.0000000   0.0000000   0.0000000   0.0000000   0.0000000   0.0000000   0.0000000   0.0000000
 NQMom=    0.0000000   0.0000000   0.0000000   0.0000000   0.0000000   0.0000000   0.0000000   0.0000000   0.0000000   0.0000000
 NMagM=    0.0000000   0.0000000   0.0000000   0.0000000   0.0000000   0.0000000   0.0000000   0.0000000   0.0000000   0.0000000

  Atom        11          12          13          14          15          16          17          18          19          20
 IAtWgt=          12          12          12           1           1           1           1           1           1           1
 AtmWgt=  12.0000000  12.0000000  12.0000000   1.0078250   1.0078250   1.0078250   1.0078250   1.0078250   1.0078250   1.0078250
 NucSpn=           0           0           0           1           1           1           1           1           1           1
 AtZEff=   0.0000000   0.0000000   0.0000000   0.0000000   0.0000000   0.0000000   0.0000000   0.0000000   0.0000000   0.0000000
 NQMom=    0.0000000   0.0000000   0.0000000   0.0000000   0.0000000   0.0000000   0.0000000   0.0000000   0.0000000   0.0000000
 NMagM=    0.0000000   0.0000000   0.0000000   2.7928460   2.7928460   2.7928460   2.7928460   2.7928460   2.7928460   2.7928460

  Atom        21          22          23          24          25
 IAtWgt=           1           1           1           1           1
 AtmWgt=   1.0078250   1.0078250   1.0078250   1.0078250   1.0078250
 NucSpn=           1           1           1           1           1
 AtZEff=   0.0000000   0.0000000   0.0000000   0.0000000   0.0000000
 NQMom=    0.0000000   0.0000000   0.0000000   0.0000000   0.0000000
 NMagM=    2.7928460   2.7928460   2.7928460   2.7928460   2.7928460
 Leave Link  101 at Fri Sep  3 00:06:41 2021, MaxMem=  268435456 cpu:       0.1
 (Enter /sw/target/amd/app/gaussian/Gaussian09RevA.02_gcc-4.9.2/g09/l103.exe)

 GradGradGradGradGradGradGradGradGradGradGradGradGradGradGradGradGradGrad
 Berny optimization.
 Initialization pass.
                           ----------------------------
                           !    Initial Parameters    !
                           ! (Angstroms and Degrees)  !
 --------------------------                            --------------------------
 ! Name  Definition              Value          Derivative Info.                !
 --------------------------------------------------------------------------------
 ! R1    R(1,2)                  1.4214         estimate D2E/DX2                !
 ! R2    R(1,14)                 1.0949         estimate D2E/DX2                !
 ! R3    R(1,15)                 1.0943         estimate D2E/DX2                !
 ! R4    R(1,16)                 1.0949         estimate D2E/DX2                !
 ! R5    R(2,3)                  1.3715         estimate D2E/DX2                !
 ! R6    R(3,4)                  1.3949         estimate D2E/DX2                !
 ! R7    R(3,12)                 1.4124         estimate D2E/DX2                !
 ! R8    R(4,5)                  1.395          estimate D2E/DX2                !
 ! R9    R(4,17)                 1.0846         estimate D2E/DX2                !
 ! R10   R(5,6)                  1.3987         estimate D2E/DX2                !
 ! R11   R(5,18)                 1.088          estimate D2E/DX2                !
 ! R12   R(6,7)                  1.4053         estimate D2E/DX2                !
 ! R13   R(6,11)                 1.4159         estimate D2E/DX2                !
 ! R14   R(7,8)                  1.3932         estimate D2E/DX2                !
 ! R15   R(7,19)                 1.088          estimate D2E/DX2                !
 ! R16   R(8,9)                  1.3876         estimate D2E/DX2                !
 ! R17   R(8,20)                 1.0865         estimate D2E/DX2                !
 ! R18   R(9,10)                 1.3974         estimate D2E/DX2                !
 ! R19   R(9,21)                 1.0868         estimate D2E/DX2                !
 ! R20   R(10,11)                1.4151         estimate D2E/DX2                !
 ! R21   R(10,22)                1.0873         estimate D2E/DX2                !
 ! R22   R(11,12)                1.4286         estimate D2E/DX2                !
 ! R23   R(12,13)                1.5121         estimate D2E/DX2                !
 ! R24   R(13,23)                1.0935         estimate D2E/DX2                !
 ! R25   R(13,24)                1.0951         estimate D2E/DX2                !
 ! R26   R(13,25)                1.0951         estimate D2E/DX2                !
 ! A1    A(2,1,14)             111.1564         estimate D2E/DX2                !
 ! A2    A(2,1,15)             107.7478         estimate D2E/DX2                !
 ! A3    A(2,1,16)             111.1564         estimate D2E/DX2                !
 ! A4    A(14,1,15)            107.6325         estimate D2E/DX2                !
 ! A5    A(14,1,16)            111.317          estimate D2E/DX2                !
 ! A6    A(15,1,16)            107.6326         estimate D2E/DX2                !
 ! A7    A(1,2,3)              117.8325         estimate D2E/DX2                !
 ! A8    A(2,3,4)              123.9741         estimate D2E/DX2                !
 ! A9    A(2,3,12)             116.3526         estimate D2E/DX2                !
 ! A10   A(4,3,12)             119.6732         estimate D2E/DX2                !
 ! A11   A(3,4,5)              120.493          estimate D2E/DX2                !
 ! A12   A(3,4,17)             121.9716         estimate D2E/DX2                !
 ! A13   A(5,4,17)             117.5354         estimate D2E/DX2                !
 ! A14   A(4,5,6)              121.0276         estimate D2E/DX2                !
 ! A15   A(4,5,18)             118.6141         estimate D2E/DX2                !
 ! A16   A(6,5,18)             120.3583         estimate D2E/DX2                !
 ! A17   A(5,6,7)              120.0289         estimate D2E/DX2                !
 ! A18   A(5,6,11)             119.6941         estimate D2E/DX2                !
 ! A19   A(7,6,11)             120.277          estimate D2E/DX2                !
 ! A20   A(6,7,8)              121.008          estimate D2E/DX2                !
 ! A21   A(6,7,19)             120.364          estimate D2E/DX2                !
 ! A22   A(8,7,19)             118.628          estimate D2E/DX2                !
 ! A23   A(7,8,9)              119.6377         estimate D2E/DX2                !
 ! A24   A(7,8,20)             120.1305         estimate D2E/DX2                !
 ! A25   A(9,8,20)             120.2317         estimate D2E/DX2                !
 ! A26   A(8,9,10)             119.9011         estimate D2E/DX2                !
 ! A27   A(8,9,21)             120.1628         estimate D2E/DX2                !
 ! A28   A(10,9,21)            119.9361         estimate D2E/DX2                !
 ! A29   A(9,10,11)            121.9082         estimate D2E/DX2                !
 ! A30   A(9,10,22)            117.5162         estimate D2E/DX2                !
 ! A31   A(11,10,22)           120.5756         estimate D2E/DX2                !
 ! A32   A(6,11,10)            117.2681         estimate D2E/DX2                !
 ! A33   A(6,11,12)            119.0226         estimate D2E/DX2                !
 ! A34   A(10,11,12)           123.7093         estimate D2E/DX2                !
 ! A35   A(3,12,11)            120.0894         estimate D2E/DX2                !
 ! A36   A(3,12,13)            120.0891         estimate D2E/DX2                !
 ! A37   A(11,12,13)           119.8214         estimate D2E/DX2                !
 ! A38   A(12,13,23)           113.3384         estimate D2E/DX2                !
 ! A39   A(12,13,24)           110.0424         estimate D2E/DX2                !
 ! A40   A(12,13,25)           110.0424         estimate D2E/DX2                !
 ! A41   A(23,13,24)           106.8409         estimate D2E/DX2                !
 ! A42   A(23,13,25)           106.8411         estimate D2E/DX2                !
 ! A43   A(24,13,25)           109.6095         estimate D2E/DX2                !
 ! D1    D(14,1,2,3)            62.2963         estimate D2E/DX2                !
 ! D2    D(15,1,2,3)           179.9998         estimate D2E/DX2                !
 ! D3    D(16,1,2,3)           -62.2966         estimate D2E/DX2                !
 ! D4    D(1,2,3,4)             -0.0002         estimate D2E/DX2                !
 ! D5    D(1,2,3,12)           179.9999         estimate D2E/DX2                !
 ! D6    D(2,3,4,5)           -180.0            estimate D2E/DX2                !
 ! D7    D(2,3,4,17)             0.0001         estimate D2E/DX2                !
 ! D8    D(12,3,4,5)            -0.0001         estimate D2E/DX2                !
 ! D9    D(12,3,4,17)         -180.0            estimate D2E/DX2                !
 ! D10   D(2,3,12,11)         -180.0            estimate D2E/DX2                !
 ! D11   D(2,3,12,13)           -0.0001         estimate D2E/DX2                !
 ! D12   D(4,3,12,11)            0.0001         estimate D2E/DX2                !
 ! D13   D(4,3,12,13)          180.0            estimate D2E/DX2                !
 ! D14   D(3,4,5,6)              0.0001         estimate D2E/DX2                !
 ! D15   D(3,4,5,18)           179.9999         estimate D2E/DX2                !
 ! D16   D(17,4,5,6)           180.0            estimate D2E/DX2                !
 ! D17   D(17,4,5,18)           -0.0002         estimate D2E/DX2                !
 ! D18   D(4,5,6,7)            180.0            estimate D2E/DX2                !
 ! D19   D(4,5,6,11)            -0.0001         estimate D2E/DX2                !
 ! D20   D(18,5,6,7)             0.0001         estimate D2E/DX2                !
 ! D21   D(18,5,6,11)         -179.9999         estimate D2E/DX2                !
 ! D22   D(5,6,7,8)            180.0            estimate D2E/DX2                !
 ! D23   D(5,6,7,19)            -0.0001         estimate D2E/DX2                !
 ! D24   D(11,6,7,8)             0.0            estimate D2E/DX2                !
 ! D25   D(11,6,7,19)          180.0            estimate D2E/DX2                !
 ! D26   D(5,6,11,10)         -179.9999         estimate D2E/DX2                !
 ! D27   D(5,6,11,12)            0.0001         estimate D2E/DX2                !
 ! D28   D(7,6,11,10)            0.0001         estimate D2E/DX2                !
 ! D29   D(7,6,11,12)         -180.0            estimate D2E/DX2                !
 ! D30   D(6,7,8,9)             -0.0001         estimate D2E/DX2                !
 ! D31   D(6,7,8,20)          -180.0            estimate D2E/DX2                !
 ! D32   D(19,7,8,9)           179.9999         estimate D2E/DX2                !
 ! D33   D(19,7,8,20)            0.0001         estimate D2E/DX2                !
 ! D34   D(7,8,9,10)             0.0001         estimate D2E/DX2                !
 ! D35   D(7,8,9,21)           180.0            estimate D2E/DX2                !
 ! D36   D(20,8,9,10)          180.0            estimate D2E/DX2                !
 ! D37   D(20,8,9,21)           -0.0002         estimate D2E/DX2                !
 ! D38   D(8,9,10,11)            0.0            estimate D2E/DX2                !
 ! D39   D(8,9,10,22)          180.0            estimate D2E/DX2                !
 ! D40   D(21,9,10,11)        -179.9999         estimate D2E/DX2                !
 ! D41   D(21,9,10,22)           0.0001         estimate D2E/DX2                !
 ! D42   D(9,10,11,6)           -0.0001         estimate D2E/DX2                !
 ! D43   D(9,10,11,12)         180.0            estimate D2E/DX2                !
 ! D44   D(22,10,11,6)         180.0            estimate D2E/DX2                !
 ! D45   D(22,10,11,12)          0.0            estimate D2E/DX2                !
 ! D46   D(6,11,12,3)           -0.0001         estimate D2E/DX2                !
 ! D47   D(6,11,12,13)        -180.0            estimate D2E/DX2                !
 ! D48   D(10,11,12,3)         179.9999         estimate D2E/DX2                !
 ! D49   D(10,11,12,13)          0.0            estimate D2E/DX2                !
 ! D50   D(3,12,13,23)           0.0011         estimate D2E/DX2                !
 ! D51   D(3,12,13,24)         119.5571         estimate D2E/DX2                !
 ! D52   D(3,12,13,25)        -119.5551         estimate D2E/DX2                !
 ! D53   D(11,12,13,23)       -179.9991         estimate D2E/DX2                !
 ! D54   D(11,12,13,24)        -60.443          estimate D2E/DX2                !
 ! D55   D(11,12,13,25)         60.4447         estimate D2E/DX2                !
 --------------------------------------------------------------------------------
 Trust Radius=3.00D-01 FncErr=1.00D-07 GrdErr=1.00D-06
 Number of steps in this run= 134 maximum allowed number of steps= 150.
 GradGradGradGradGradGradGradGradGradGradGradGradGradGradGradGradGradGrad

 Leave Link  103 at Fri Sep  3 00:06:41 2021, MaxMem=  268435456 cpu:       0.0
 (Enter /sw/target/amd/app/gaussian/Gaussian09RevA.02_gcc-4.9.2/g09/l202.exe)
                          Input orientation:                          
 ---------------------------------------------------------------------
 Center     Atomic      Atomic             Coordinates (Angstroms)
 Number     Number       Type             X           Y           Z
 ---------------------------------------------------------------------
      1          6           0       -3.710551    1.134712   -0.374448
      2          8           0       -2.788849    0.052769   -0.385556
      3          6           0       -1.453629    0.347974   -0.280989
      4          6           0       -0.948386    1.642958   -0.164771
      5          6           0        0.425786    1.860133   -0.062766
      6          6           0        1.327489    0.790944   -0.074325
      7          6           0        2.707764    1.033847    0.029737
      8          6           0        3.623900   -0.015681    0.020376
      9          6           0        3.169785   -1.321911   -0.093297
     10          6           0        1.799735   -1.576536   -0.197464
     11          6           0        0.842667   -0.534231   -0.191192
     12          6           0       -0.565683   -0.750363   -0.295317
     13          6           0       -1.103161   -2.158148   -0.420904
     14          1           0       -3.549083    1.800185   -1.228819
     15          1           0       -4.717462    0.716088   -0.466004
     16          1           0       -3.664316    1.683531    0.571880
     17          1           0       -1.595964    2.512876   -0.149858
     18          1           0        0.786489    2.882730    0.026557
     19          1           0        3.081848    2.051533    0.119599
     20          1           0        4.687947    0.188442    0.101690
     21          1           0        3.876927   -2.147098   -0.101500
     22          1           0        1.486846   -2.614221   -0.284705
     23          1           0       -2.193451   -2.200736   -0.493450
     24          1           0       -0.706279   -2.632170   -1.324840
     25          1           0       -0.820370   -2.747624    0.457652
 ---------------------------------------------------------------------
                    Distance matrix (angstroms):
                    1          2          3          4          5
     1  C    0.000000
     2  O    1.421358   0.000000
     3  C    2.391942   1.371456   0.000000
     4  C    2.816351   2.442284   1.394905   0.000000
     5  C    4.211017   3.701977   2.422075   1.394962   0.000000
     6  C    5.058666   4.193567   2.823747   2.431813   1.398702
     7  C    6.431820   5.598905   4.228967   3.711641   2.428730
     8  C    7.434612   6.425949   5.099448   4.867357   3.708574
     9  C    7.311160   6.122130   4.919319   5.074927   4.201888
    10  C    6.143732   4.872896   3.780885   4.233011   3.703589
    11  C    4.852911   3.683783   2.461570   2.819348   2.433775
    12  C    3.667419   2.365509   1.412444   2.427239   2.802103
    13  C    4.200425   2.780458   2.534374   3.812869   4.314223
    14  H    1.094932   2.083869   2.719968   2.814346   4.142808
    15  H    1.094303   2.041081   3.289733   3.893040   5.284358
    16  H    1.094932   2.083869   2.719970   2.814352   4.142813
    17  H    2.534020   2.744204   2.173535   1.084591   2.126295
    18  H    4.841461   4.578379   3.396719   2.140895   1.088021
    19  H    6.871778   6.222164   4.861392   4.060860   2.669186
    20  H    8.465040   7.493884   6.155554   5.827081   4.581224
    21  H    8.271312   7.025146   5.888330   6.136137   5.288646
    22  H    6.409016   5.040295   4.173848   4.905947   4.603797
    23  H    3.666192   2.333329   2.662405   4.053665   4.851448
    24  H    4.911038   3.525372   3.244906   4.436338   4.801582
    25  H    4.911015   3.525353   3.244894   4.436328   4.801579
                    6          7          8          9         10
     6  C    0.000000
     7  C    1.405343   0.000000
     8  C    2.435799   1.393163   0.000000
     9  C    2.803314   2.403788   1.387580   0.000000
    10  C    2.417259   2.773128   2.410664   1.397398   0.000000
    11  C    1.415909   2.446685   2.837060   2.458760   1.415068
    12  C    2.451237   3.742261   4.265211   3.784336   2.507457
    13  C    3.837358   4.991499   5.208647   4.366313   2.969007
    14  H    5.111984   6.428015   7.503968   7.495337   6.409040
    15  H    6.058090   7.448538   8.387513   8.154815   6.913906
    16  H    5.111987   6.428018   7.503970   7.495337   6.409039
    17  H    3.393720   4.554323   5.802548   6.117283   5.315668
    18  H    2.162967   2.666398   4.056073   4.834612   4.578417
    19  H    2.168978   1.087979   2.139402   3.381299   3.860988
    20  H    3.418577   2.154301   1.086496   2.150349   3.398001
    21  H    3.890047   3.391545   2.149841   1.086762   2.156265
    22  H    3.415377   3.859782   3.378237   2.130490   1.087337
    23  H    4.639271   5.895605   6.235387   5.449473   4.052501
    24  H    4.173453   5.189436   5.235081   4.272862   2.943713
    25  H    4.173459   5.189447   5.235099   4.272884   2.943735
                   11         12         13         14         15
    11  C    0.000000
    12  C    1.428637   0.000000
    13  C    2.544822   1.512122   0.000000
    14  H    5.080712   4.034526   4.722675   0.000000
    15  H    5.705598   4.406459   4.618056   1.766993   0.000000
    16  H    5.080713   4.034526   4.722672   1.808149   1.766993
    17  H    3.903010   3.425108   4.704762   2.342383   3.615542
    18  H    3.424353   3.889902   5.401986   4.641665   5.935523
    19  H    3.434632   4.618145   5.960525   6.771311   7.934455
    20  H    3.923546   5.351598   6.270289   8.498037   9.437288
    21  H    3.437458   4.661032   4.990332   8.485135   9.066103
    22  H    2.179465   2.772536   2.633380   6.763055   7.043952
    23  H    3.476580   2.189170   1.093530   4.287875   3.857363
    24  H    2.843543   2.149624   1.095131   5.266548   5.295094
    25  H    2.843554   2.149623   1.095132   5.565306   5.295070
                   16         17         18         19         20
    16  H    0.000000
    17  H    2.342392   0.000000
    18  H    4.641672   2.417436   0.000000
    19  H    6.771315   4.708224   2.442994   0.000000
    20  H    8.498039   6.704760   4.741962   2.459875   0.000000
    21  H    8.485134   7.188201   5.904776   4.278965   2.480683
    22  H    6.763053   5.984064   5.550122   4.947399   4.272150
    23  H    4.287878   4.763736   5.915410   6.803411   7.308625
    24  H    5.565322   5.351974   5.871009   6.194625   6.252081
    25  H    5.266518   5.351960   5.871007   6.194634   6.252100
                   21         22         23         24         25
    21  H    0.000000
    22  H    2.442182   0.000000
    23  H    6.083255   3.709330   0.000000
    24  H    4.768399   2.427344   1.757562   0.000000
    25  H    4.768425   2.427372   1.757564   1.789867   0.000000
 Stoichiometry    C12H12O
 Framework group  C1[X(C12H12O)]
 Deg. of freedom    69
 Full point group                 C1      NOp   1
 Largest Abelian subgroup         C1      NOp   1
 Largest concise Abelian subgroup C1      NOp   1
                         Standard orientation:                         
 ---------------------------------------------------------------------
 Center     Atomic      Atomic             Coordinates (Angstroms)
 Number     Number       Type             X           Y           Z
 ---------------------------------------------------------------------
      1          6           0        3.960129   -0.495286    0.000002
      2          8           0        2.882809    0.431882   -0.000001
      3          6           0        1.606356   -0.069676   -0.000000
      4          6           0        1.303904   -1.431397   -0.000000
      5          6           0       -0.023007   -1.861776   -0.000000
      6          6           0       -1.078587   -0.944106   -0.000000
      7          6           0       -2.407613   -1.400923    0.000000
      8          6           0       -3.474477   -0.504987    0.000000
      9          6           0       -3.224344    0.859862    0.000002
     10          6           0       -1.907227    1.326686    0.000001
     11          6           0       -0.800953    0.444316    0.000000
     12          6           0        0.559944    0.879017   -0.000002
     13          6           0        0.877088    2.357507    0.000000
     14          1           0        3.949986   -1.112885   -0.904069
     15          1           0        4.892815    0.077073   -0.000002
     16          1           0        3.949988   -1.112876    0.904080
     17          1           0        2.077564   -2.191519   -0.000000
     18          1           0       -0.223968   -2.931077   -0.000001
     19          1           0       -2.622566   -2.467457   -0.000000
     20          1           0       -4.496442   -0.873853    0.000000
     21          1           0       -4.050131    1.566350    0.000001
     22          1           0       -1.755891    2.403439    0.000002
     23          1           0        1.949675    2.570500   -0.000018
     24          1           0        0.459592    2.830920   -0.894925
     25          1           0        0.459620    2.830911    0.894942
 ---------------------------------------------------------------------
 Rotational constants (GHZ):      1.8375582      0.5588430      0.4309039
 Leave Link  202 at Fri Sep  3 00:06:41 2021, MaxMem=  268435456 cpu:       0.0
 (Enter /sw/target/amd/app/gaussian/Gaussian09RevA.02_gcc-4.9.2/g09/l301.exe)
 Standard basis: 6-31G(d) (6D, 7F)
 Ernie: Thresh=  0.10000D-02 Tol=  0.10000D-05 Strict=F.
 There are   219 symmetry adapted basis functions of A   symmetry.
 Integral buffers will be    131072 words long.
 Raffenetti 2 integral format.
 Two-electron integral symmetry is turned on.
   219 basis functions,   412 primitive gaussians,   219 cartesian basis functions
    46 alpha electrons       46 beta electrons
       nuclear repulsion energy       742.5947356111 Hartrees.
 IExCor=  402 DFT=T Ex+Corr=B3LYP ExCW=0 ScaHFX=  0.200000
 ScaDFX=  0.800000  0.720000  1.000000  0.810000 ScalE2=  1.000000  1.000000
 IRadAn=      0 IRanWt=     -1 IRanGd=            0 ICorTp=0
 NAtoms=   25 NActive=   25 NUniq=   25 SFac= 7.50D-01 NAtFMM=   80 NAOKFM=F Big=F
 Leave Link  301 at Fri Sep  3 00:06:42 2021, MaxMem=  268435456 cpu:       0.1
 (Enter /sw/target/amd/app/gaussian/Gaussian09RevA.02_gcc-4.9.2/g09/l302.exe)
 NPDir=0 NMtPBC=     1 NCelOv=     1 NCel=       1 NClECP=     1 NCelD=      1
         NCelK=      1 NCelE2=     1 NClLst=     1 CellRange=     0.0.
 One-electron integrals computed using PRISM.
 NBasis=   219 RedAO= T  NBF=   219
 NBsUse=   219 1.00D-06 NBFU=   219
 Precomputing XC quadrature grid using
 IXCGrd= 2 IRadAn=           0 IRanWt=          -1 IRanGd=           0 AccXCQ= 1.00D-10.
 NRdTot=    1576 NPtTot=      200424 NUsed=      211794 NTot=      211826
 NSgBfM=   218   218   218   218   218 NAtAll=    25    25.
 Leave Link  302 at Fri Sep  3 00:06:43 2021, MaxMem=  268435456 cpu:       1.0
 (Enter /sw/target/amd/app/gaussian/Gaussian09RevA.02_gcc-4.9.2/g09/l303.exe)
 DipDrv:  MaxL=1.
 Leave Link  303 at Fri Sep  3 00:06:43 2021, MaxMem=  268435456 cpu:       0.1
 (Enter /sw/target/amd/app/gaussian/Gaussian09RevA.02_gcc-4.9.2/g09/l401.exe)
 Harris functional with IExCor=  402 diagonalized for initial guess.
 ExpMin= 1.61D-01 ExpMax= 5.48D+03 ExpMxC= 8.25D+02 IAcc=1 IRadAn=         1 AccDes= 0.00D+00
 HarFok:  IExCor=  402 AccDes= 0.00D+00 IRadAn=         1 IDoV= 1
 ScaDFX=  1.000000  1.000000  1.000000  1.000000
 FoFCou: FMM=F IPFlag=           0 FMFlag=      100000 FMFlg1=           0
         NFxFlg=           0 DoJE=T BraDBF=F KetDBF=T FulRan=T
         Omega=  0.000000  0.000000  1.000000  0.000000  0.000000 ICntrl=     500 IOpCl=  0
         NMat0=    1 NMatS0=    1 NMatT0=    0 NMatD0=    1 NMtDS0=    0 NMtDT0=    0
         I1Cent=           4 NGrid=           0.
 Petite list used in FoFCou.
 Harris En= -539.796944386051    
 Initial guess orbital symmetries:
       Occupied  (A) (A) (A) (A) (A) (A) (A) (A) (A) (A) (A) (A)
                 (A) (A) (A) (A) (A) (A) (A) (A) (A) (A) (A) (A)
                 (A) (A) (A) (A) (A) (A) (A) (A) (A) (A) (A) (A)
                 (A) (A) (A) (A) (A) (A) (A) (A) (A) (A)
       Virtual   (A) (A) (A) (A) (A) (A) (A) (A) (A) (A) (A) (A)
                 (A) (A) (A) (A) (A) (A) (A) (A) (A) (A) (A) (A)
                 (A) (A) (A) (A) (A) (A) (A) (A) (A) (A) (A) (A)
                 (A) (A) (A) (A) (A) (A) (A) (A) (A) (A) (A) (A)
                 (A) (A) (A) (A) (A) (A) (A) (A) (A) (A) (A) (A)
                 (A) (A) (A) (A) (A) (A) (A) (A) (A) (A) (A) (A)
                 (A) (A) (A) (A) (A) (A) (A) (A) (A) (A) (A) (A)
                 (A) (A) (A) (A) (A) (A) (A) (A) (A) (A) (A) (A)
                 (A) (A) (A) (A) (A) (A) (A) (A) (A) (A) (A) (A)
                 (A) (A) (A) (A) (A) (A) (A) (A) (A) (A) (A) (A)
                 (A) (A) (A) (A) (A) (A) (A) (A) (A) (A) (A) (A)
                 (A) (A) (A) (A) (A) (A) (A) (A) (A) (A) (A) (A)
                 (A) (A) (A) (A) (A) (A) (A) (A) (A) (A) (A) (A)
                 (A) (A) (A) (A) (A) (A) (A) (A) (A) (A) (A) (A)
                 (A) (A) (A) (A) (A)
 The electronic state of the initial guess is 1-A.
 Leave Link  401 at Fri Sep  3 00:06:48 2021, MaxMem=  268435456 cpu:       5.3
 (Enter /sw/target/amd/app/gaussian/Gaussian09RevA.02_gcc-4.9.2/g09/l502.exe)
 Closed shell SCF:
 Requested convergence on RMS density matrix=1.00D-08 within  64 cycles.
 Requested convergence on MAX density matrix=1.00D-06.
 Requested convergence on             energy=1.00D-06.
 No special actions if energy rises.
 Using DIIS extrapolation, IDIIS=  1040.
 Integral symmetry usage will be decided dynamically.
       211556 words used for storage of precomputed grid.
 IEnd=      363950 IEndB=      363950 NGot=   268435456 MDV=   268123911
 LenX=   268123911 LenY=   268075509
 Fock matrices will be formed incrementally for  20 cycles.
 Integral accuracy reduced to 1.0D-05 until final iterations.

 Cycle   1  Pass 0  IDiag  1:
 FoFCou: FMM=F IPFlag=           0 FMFlag=      100000 FMFlg1=           0
         NFxFlg=           0 DoJE=F BraDBF=F KetDBF=F FulRan=T
         Omega=  0.000000  0.000000  1.000000  0.000000  0.000000 ICntrl=       0 IOpCl=  0
         NMat0=    1 NMatS0=    1 NMatT0=    0 NMatD0=    1 NMtDS0=    0 NMtDT0=    0
         I1Cent=           0 NGrid=           0.
 Symmetry not used in FoFCou.
 E= -539.418041503719    
 DIIS: error= 4.08D-02 at cycle   1 NSaved=   1.
 NSaved= 1 IEnMin= 1 EnMin= -539.418041503719     IErMin= 1 ErrMin= 4.08D-02
 ErrMax= 4.08D-02 EMaxC= 1.00D-01 BMatC= 2.77D-01 BMatP= 2.77D-01
 IDIUse=3 WtCom= 5.92D-01 WtEn= 4.08D-01
 Coeff-Com:  0.100D+01
 Coeff-En:   0.100D+01
 Coeff:      0.100D+01
 Gap=     0.177 Goal=   None    Shift=    0.000
 GapD=    0.177 DampG=1.000 DampE=0.500 DampFc=0.5000 IDamp=-1.
 Damping current iteration by 5.00D-01
 RMSDP=5.84D-03 MaxDP=1.34D-01              OVMax= 1.79D-01

 Cycle   2  Pass 0  IDiag  1:
 RMSU=  2.00D-03    CP:  9.69D-01
 E= -539.563489701480     Delta-E=       -0.145448197761 Rises=F Damp=T
 DIIS: error= 6.24D-03 at cycle   2 NSaved=   2.
 NSaved= 2 IEnMin= 2 EnMin= -539.563489701480     IErMin= 2 ErrMin= 6.24D-03
 ErrMax= 6.24D-03 EMaxC= 1.00D-01 BMatC= 1.52D-02 BMatP= 2.77D-01
 IDIUse=3 WtCom= 9.38D-01 WtEn= 6.24D-02
 Coeff-Com:  0.581D-02 0.994D+00
 Coeff-En:   0.688D-02 0.993D+00
 Coeff:      0.588D-02 0.994D+00
 Gap=     0.164 Goal=   None    Shift=    0.000
 RMSDP=2.06D-03 MaxDP=4.52D-02 DE=-1.45D-01 OVMax= 1.56D-01

 Cycle   3  Pass 0  IDiag  1:
 RMSU=  1.40D-03    CP:  9.46D-01  9.90D-01
 E= -539.710221598595     Delta-E=       -0.146731897115 Rises=F Damp=F
 DIIS: error= 8.21D-03 at cycle   3 NSaved=   3.
 NSaved= 3 IEnMin= 3 EnMin= -539.710221598595     IErMin= 2 ErrMin= 6.24D-03
 ErrMax= 8.21D-03 EMaxC= 1.00D-01 BMatC= 1.31D-02 BMatP= 1.52D-02
 IDIUse=3 WtCom= 9.18D-01 WtEn= 8.21D-02
 Coeff-Com: -0.369D-01 0.495D+00 0.542D+00
 Coeff-En:   0.000D+00 0.000D+00 0.100D+01
 Coeff:     -0.339D-01 0.455D+00 0.579D+00
 Gap=     0.159 Goal=   None    Shift=    0.000
 RMSDP=1.03D-03 MaxDP=3.86D-02 DE=-1.47D-01 OVMax= 7.78D-02

 Cycle   4  Pass 0  IDiag  1:
 RMSU=  5.34D-04    CP:  9.49D-01  1.04D+00  6.54D-01
 E= -539.719022884545     Delta-E=       -0.008801285950 Rises=F Damp=F
 DIIS: error= 5.38D-03 at cycle   4 NSaved=   4.
 NSaved= 4 IEnMin= 4 EnMin= -539.719022884545     IErMin= 4 ErrMin= 5.38D-03
 ErrMax= 5.38D-03 EMaxC= 1.00D-01 BMatC= 5.26D-03 BMatP= 1.31D-02
 IDIUse=3 WtCom= 9.46D-01 WtEn= 5.38D-02
 Coeff-Com: -0.199D-01 0.109D+00 0.393D+00 0.518D+00
 Coeff-En:   0.000D+00 0.000D+00 0.328D+00 0.672D+00
 Coeff:     -0.189D-01 0.103D+00 0.390D+00 0.526D+00
 Gap=     0.155 Goal=   None    Shift=    0.000
 RMSDP=4.38D-04 MaxDP=1.38D-02 DE=-8.80D-03 OVMax= 3.54D-02

 Cycle   5  Pass 0  IDiag  1:
 RMSU=  9.91D-05    CP:  9.49D-01  1.03D+00  7.48D-01  5.11D-01
 E= -539.725042734221     Delta-E=       -0.006019849675 Rises=F Damp=F
 DIIS: error= 5.59D-04 at cycle   5 NSaved=   5.
 NSaved= 5 IEnMin= 5 EnMin= -539.725042734221     IErMin= 5 ErrMin= 5.59D-04
 ErrMax= 5.59D-04 EMaxC= 1.00D-01 BMatC= 8.59D-05 BMatP= 5.26D-03
 IDIUse=3 WtCom= 9.94D-01 WtEn= 5.59D-03
 Coeff-Com: -0.477D-02 0.164D-01 0.126D+00 0.216D+00 0.647D+00
 Coeff-En:   0.000D+00 0.000D+00 0.000D+00 0.000D+00 0.100D+01
 Coeff:     -0.474D-02 0.163D-01 0.125D+00 0.214D+00 0.649D+00
 Gap=     0.155 Goal=   None    Shift=    0.000
 RMSDP=5.50D-05 MaxDP=2.39D-03 DE=-6.02D-03 OVMax= 4.17D-03

 Cycle   6  Pass 0  IDiag  1:
 RMSU=  2.68D-05    CP:  9.49D-01  1.04D+00  7.49D-01  5.47D-01  8.00D-01
 E= -539.725115427760     Delta-E=       -0.000072693539 Rises=F Damp=F
 DIIS: error= 1.62D-04 at cycle   6 NSaved=   6.
 NSaved= 6 IEnMin= 6 EnMin= -539.725115427760     IErMin= 6 ErrMin= 1.62D-04
 ErrMax= 1.62D-04 EMaxC= 1.00D-01 BMatC= 1.50D-05 BMatP= 8.59D-05
 IDIUse=3 WtCom= 9.98D-01 WtEn= 1.62D-03
 Coeff-Com: -0.103D-02 0.685D-03 0.380D-01 0.759D-01 0.363D+00 0.524D+00
 Coeff-En:   0.000D+00 0.000D+00 0.000D+00 0.000D+00 0.833D-01 0.917D+00
 Coeff:     -0.103D-02 0.684D-03 0.380D-01 0.758D-01 0.362D+00 0.524D+00
 Gap=     0.155 Goal=   None    Shift=    0.000
 RMSDP=1.89D-05 MaxDP=6.90D-04 DE=-7.27D-05 OVMax= 1.19D-03

 Cycle   7  Pass 0  IDiag  1:
 RMSU=  5.78D-06    CP:  9.49D-01  1.03D+00  7.52D-01  5.50D-01  8.15D-01
                    CP:  5.96D-01
 E= -539.725128514831     Delta-E=       -0.000013087071 Rises=F Damp=F
 DIIS: error= 6.74D-05 at cycle   7 NSaved=   7.
 NSaved= 7 IEnMin= 7 EnMin= -539.725128514831     IErMin= 7 ErrMin= 6.74D-05
 ErrMax= 6.74D-05 EMaxC= 1.00D-01 BMatC= 5.19D-07 BMatP= 1.50D-05
 IDIUse=1 WtCom= 1.00D+00 WtEn= 0.00D+00
 Coeff-Com: -0.262D-03-0.369D-03 0.136D-01 0.277D-01 0.151D+00 0.255D+00
 Coeff-Com:  0.553D+00
 Coeff:     -0.262D-03-0.369D-03 0.136D-01 0.277D-01 0.151D+00 0.255D+00
 Coeff:      0.553D+00
 Gap=     0.155 Goal=   None    Shift=    0.000
 RMSDP=5.75D-06 MaxDP=1.34D-04 DE=-1.31D-05 OVMax= 4.95D-04

 Initial convergence to 1.0D-05 achieved.  Increase integral accuracy.
 Cycle   8  Pass 1  IDiag  1:
 E= -539.725207105411     Delta-E=       -0.000078590580 Rises=F Damp=F
 DIIS: error= 3.42D-05 at cycle   1 NSaved=   1.
 NSaved= 1 IEnMin= 1 EnMin= -539.725207105411     IErMin= 1 ErrMin= 3.42D-05
 ErrMax= 3.42D-05 EMaxC= 1.00D-01 BMatC= 2.47D-07 BMatP= 2.47D-07
 IDIUse=1 WtCom= 1.00D+00 WtEn= 0.00D+00
 Coeff-Com:  0.100D+01
 Coeff:      0.100D+01
 Gap=     0.155 Goal=   None    Shift=    0.000
 RMSDP=5.75D-06 MaxDP=1.34D-04 DE=-7.86D-05 OVMax= 6.81D-04

 Cycle   9  Pass 1  IDiag  1:
 RMSU=  1.09D-05    CP:  1.00D+00
 E= -539.725206479041     Delta-E=        0.000000626369 Rises=F Damp=F
 DIIS: error= 7.13D-05 at cycle   2 NSaved=   2.
 NSaved= 2 IEnMin= 1 EnMin= -539.725207105411     IErMin= 1 ErrMin= 3.42D-05
 ErrMax= 7.13D-05 EMaxC= 1.00D-01 BMatC= 7.69D-07 BMatP= 2.47D-07
 IDIUse=1 WtCom= 1.00D+00 WtEn= 0.00D+00
 Coeff-Com:  0.651D+00 0.349D+00
 Coeff:      0.651D+00 0.349D+00
 Gap=     0.155 Goal=   None    Shift=    0.000
 RMSDP=5.36D-06 MaxDP=1.44D-04 DE= 6.26D-07 OVMax= 5.34D-04

 Cycle  10  Pass 1  IDiag  1:
 RMSU=  3.43D-06    CP:  1.00D+00  8.52D-01
 E= -539.725207368015     Delta-E=       -0.000000888973 Rises=F Damp=F
 DIIS: error= 9.52D-06 at cycle   3 NSaved=   3.
 NSaved= 3 IEnMin= 3 EnMin= -539.725207368015     IErMin= 3 ErrMin= 9.52D-06
 ErrMax= 9.52D-06 EMaxC= 1.00D-01 BMatC= 1.42D-08 BMatP= 2.47D-07
 IDIUse=1 WtCom= 1.00D+00 WtEn= 0.00D+00
 Coeff-Com:  0.898D-01 0.131D+00 0.779D+00
 Coeff:      0.898D-01 0.131D+00 0.779D+00
 Gap=     0.155 Goal=   None    Shift=    0.000
 RMSDP=9.21D-07 MaxDP=3.20D-05 DE=-8.89D-07 OVMax= 1.02D-04

 Cycle  11  Pass 1  IDiag  1:
 RMSU=  4.82D-07    CP:  1.00D+00  8.77D-01  9.00D-01
 E= -539.725207377887     Delta-E=       -0.000000009872 Rises=F Damp=F
 DIIS: error= 5.45D-06 at cycle   4 NSaved=   4.
 NSaved= 4 IEnMin= 4 EnMin= -539.725207377887     IErMin= 4 ErrMin= 5.45D-06
 ErrMax= 5.45D-06 EMaxC= 1.00D-01 BMatC= 6.45D-09 BMatP= 1.42D-08
 IDIUse=1 WtCom= 1.00D+00 WtEn= 0.00D+00
 Coeff-Com: -0.702D-02 0.502D-01 0.505D+00 0.451D+00
 Coeff:     -0.702D-02 0.502D-01 0.505D+00 0.451D+00
 Gap=     0.155 Goal=   None    Shift=    0.000
 RMSDP=4.33D-07 MaxDP=1.28D-05 DE=-9.87D-09 OVMax= 3.52D-05

 Cycle  12  Pass 1  IDiag  1:
 RMSU=  1.22D-07    CP:  1.00D+00  8.78D-01  9.17D-01  4.31D-01
 E= -539.725207384210     Delta-E=       -0.000000006323 Rises=F Damp=F
 DIIS: error= 1.30D-06 at cycle   5 NSaved=   5.
 NSaved= 5 IEnMin= 5 EnMin= -539.725207384210     IErMin= 5 ErrMin= 1.30D-06
 ErrMax= 1.30D-06 EMaxC= 1.00D-01 BMatC= 2.71D-10 BMatP= 6.45D-09
 IDIUse=1 WtCom= 1.00D+00 WtEn= 0.00D+00
 Coeff-Com: -0.845D-02 0.246D-01 0.273D+00 0.273D+00 0.438D+00
 Coeff:     -0.845D-02 0.246D-01 0.273D+00 0.273D+00 0.438D+00
 Gap=     0.155 Goal=   None    Shift=    0.000
 RMSDP=9.61D-08 MaxDP=2.21D-06 DE=-6.32D-09 OVMax= 5.96D-06

 Cycle  13  Pass 1  IDiag  1:
 RMSU=  4.11D-08    CP:  1.00D+00  8.78D-01  9.16D-01  4.84D-01  6.11D-01
 E= -539.725207384487     Delta-E=       -0.000000000277 Rises=F Damp=F
 DIIS: error= 2.64D-07 at cycle   6 NSaved=   6.
 NSaved= 6 IEnMin= 6 EnMin= -539.725207384487     IErMin= 6 ErrMin= 2.64D-07
 ErrMax= 2.64D-07 EMaxC= 1.00D-01 BMatC= 8.11D-12 BMatP= 2.71D-10
 IDIUse=1 WtCom= 1.00D+00 WtEn= 0.00D+00
 Coeff-Com: -0.297D-02 0.620D-02 0.741D-01 0.773D-01 0.195D+00 0.650D+00
 Coeff:     -0.297D-02 0.620D-02 0.741D-01 0.773D-01 0.195D+00 0.650D+00
 Gap=     0.155 Goal=   None    Shift=    0.000
 RMSDP=1.69D-08 MaxDP=5.99D-07 DE=-2.77D-10 OVMax= 1.25D-06

 Cycle  14  Pass 1  IDiag  1:
 RMSU=  9.44D-09    CP:  1.00D+00  8.78D-01  9.17D-01  4.81D-01  6.47D-01
                    CP:  8.67D-01
 E= -539.725207384503     Delta-E=       -0.000000000015 Rises=F Damp=F
 DIIS: error= 6.18D-08 at cycle   7 NSaved=   7.
 NSaved= 7 IEnMin= 7 EnMin= -539.725207384503     IErMin= 7 ErrMin= 6.18D-08
 ErrMax= 6.18D-08 EMaxC= 1.00D-01 BMatC= 1.14D-12 BMatP= 8.11D-12
 IDIUse=1 WtCom= 1.00D+00 WtEn= 0.00D+00
 Coeff-Com: -0.794D-03 0.103D-02 0.145D-01 0.156D-01 0.638D-01 0.338D+00
 Coeff-Com:  0.568D+00
 Coeff:     -0.794D-03 0.103D-02 0.145D-01 0.156D-01 0.638D-01 0.338D+00
 Coeff:      0.568D+00
 Gap=     0.155 Goal=   None    Shift=    0.000
 RMSDP=6.10D-09 MaxDP=2.24D-07 DE=-1.55D-11 OVMax= 3.49D-07

 SCF Done:  E(RB3LYP) =  -539.725207385     A.U. after   14 cycles
             Convg  =    0.6104D-08             -V/T =  2.0095
 KE= 5.346279109927D+02 PE=-2.737682564644D+03 EE= 9.207347106560D+02
 Leave Link  502 at Fri Sep  3 00:09:51 2021, MaxMem=  268435456 cpu:     182.5
 (Enter /sw/target/amd/app/gaussian/Gaussian09RevA.02_gcc-4.9.2/g09/l508.exe)
 QCSCF skips out because SCF is already converged.
 Leave Link  508 at Fri Sep  3 00:09:51 2021, MaxMem=  268435456 cpu:       0.0
 (Enter /sw/target/amd/app/gaussian/Gaussian09RevA.02_gcc-4.9.2/g09/l601.exe)
 Copying SCF densities to generalized density rwf, IOpCl= 0 IROHF=0.

 **********************************************************************

            Population analysis using the SCF density.

 **********************************************************************

 Orbital symmetries:
       Occupied  (A) (A) (A) (A) (A) (A) (A) (A) (A) (A) (A) (A)
                 (A) (A) (A) (A) (A) (A) (A) (A) (A) (A) (A) (A)
                 (A) (A) (A) (A) (A) (A) (A) (A) (A) (A) (A) (A)
                 (A) (A) (A) (A) (A) (A) (A) (A) (A) (A)
       Virtual   (A) (A) (A) (A) (A) (A) (A) (A) (A) (A) (A) (A)
                 (A) (A) (A) (A) (A) (A) (A) (A) (A) (A) (A) (A)
                 (A) (A) (A) (A) (A) (A) (A) (A) (A) (A) (A) (A)
                 (A) (A) (A) (A) (A) (A) (A) (A) (A) (A) (A) (A)
                 (A) (A) (A) (A) (A) (A) (A) (A) (A) (A) (A) (A)
                 (A) (A) (A) (A) (A) (A) (A) (A) (A) (A) (A) (A)
                 (A) (A) (A) (A) (A) (A) (A) (A) (A) (A) (A) (A)
                 (A) (A) (A) (A) (A) (A) (A) (A) (A) (A) (A) (A)
                 (A) (A) (A) (A) (A) (A) (A) (A) (A) (A) (A) (A)
                 (A) (A) (A) (A) (A) (A) (A) (A) (A) (A) (A) (A)
                 (A) (A) (A) (A) (A) (A) (A) (A) (A) (A) (A) (A)
                 (A) (A) (A) (A) (A) (A) (A) (A) (A) (A) (A) (A)
                 (A) (A) (A) (A) (A) (A) (A) (A) (A) (A) (A) (A)
                 (A) (A) (A) (A) (A) (A) (A) (A) (A) (A) (A) (A)
                 (A) (A) (A) (A) (A)
 The electronic state is 1-A.
 Alpha  occ. eigenvalues --  -19.17577 -10.24287 -10.24096 -10.18893 -10.18837
 Alpha  occ. eigenvalues --  -10.18684 -10.18612 -10.18376 -10.18332 -10.18305
 Alpha  occ. eigenvalues --  -10.18154 -10.18011 -10.17109  -1.05984  -0.86771
 Alpha  occ. eigenvalues --   -0.81369  -0.77885  -0.74273  -0.72663  -0.70181
 Alpha  occ. eigenvalues --   -0.66673  -0.61984  -0.59494  -0.57256  -0.52663
 Alpha  occ. eigenvalues --   -0.50850  -0.49860  -0.47006  -0.46298  -0.44321
 Alpha  occ. eigenvalues --   -0.43027  -0.41927  -0.41627  -0.40311  -0.39653
 Alpha  occ. eigenvalues --   -0.37951  -0.37492  -0.36484  -0.34762  -0.33724
 Alpha  occ. eigenvalues --   -0.33229  -0.31621  -0.29711  -0.26307  -0.22942
 Alpha  occ. eigenvalues --   -0.19092
 Alpha virt. eigenvalues --   -0.03634   0.00919   0.04254   0.09564   0.10530
 Alpha virt. eigenvalues --    0.10813   0.11018   0.13235   0.13954   0.15147
 Alpha virt. eigenvalues --    0.16311   0.16736   0.17438   0.17975   0.18512
 Alpha virt. eigenvalues --    0.20169   0.21125   0.22413   0.23108   0.26364
 Alpha virt. eigenvalues --    0.27826   0.29585   0.32265   0.33125   0.35711
 Alpha virt. eigenvalues --    0.37207   0.38000   0.48520   0.49055   0.50426
 Alpha virt. eigenvalues --    0.51626   0.52012   0.53629   0.54163   0.55021
 Alpha virt. eigenvalues --    0.56359   0.56556   0.56737   0.56931   0.58018
 Alpha virt. eigenvalues --    0.59942   0.60533   0.61356   0.61937   0.62631
 Alpha virt. eigenvalues --    0.62767   0.63496   0.66015   0.66437   0.68475
 Alpha virt. eigenvalues --    0.70857   0.71528   0.74327   0.76529   0.77195
 Alpha virt. eigenvalues --    0.78256   0.82650   0.83565   0.84227   0.84995
 Alpha virt. eigenvalues --    0.85365   0.85407   0.86688   0.87681   0.89584
 Alpha virt. eigenvalues --    0.90680   0.92214   0.93296   0.93363   0.96094
 Alpha virt. eigenvalues --    0.96807   0.98672   1.01020   1.03067   1.04378
 Alpha virt. eigenvalues --    1.04905   1.07205   1.08164   1.08796   1.13896
 Alpha virt. eigenvalues --    1.15702   1.21085   1.23995   1.24070   1.25218
 Alpha virt. eigenvalues --    1.26486   1.27623   1.35636   1.36326   1.39348
 Alpha virt. eigenvalues --    1.39829   1.40710   1.45428   1.45625   1.47505
 Alpha virt. eigenvalues --    1.47779   1.49450   1.50184   1.51314   1.51819
 Alpha virt. eigenvalues --    1.54130   1.55392   1.70120   1.74704   1.77993
 Alpha virt. eigenvalues --    1.80554   1.80688   1.83837   1.87361   1.87979
 Alpha virt. eigenvalues --    1.89136   1.90511   1.92207   1.93663   1.94313
 Alpha virt. eigenvalues --    1.97313   2.01510   2.02591   2.02924   2.03577
 Alpha virt. eigenvalues --    2.05867   2.08740   2.11834   2.13152   2.16472
 Alpha virt. eigenvalues --    2.17693   2.19524   2.21459   2.23302   2.24421
 Alpha virt. eigenvalues --    2.26335   2.28702   2.29555   2.32106   2.34000
 Alpha virt. eigenvalues --    2.35093   2.37315   2.39920   2.40813   2.43135
 Alpha virt. eigenvalues --    2.50520   2.53616   2.58411   2.62567   2.65350
 Alpha virt. eigenvalues --    2.65590   2.68993   2.69044   2.71938   2.78690
 Alpha virt. eigenvalues --    2.80950   2.84513   2.85911   2.90470   2.92909
 Alpha virt. eigenvalues --    3.02635   3.08661   3.18442   3.39849   3.50139
 Alpha virt. eigenvalues --    4.06184   4.09517   4.11549   4.12369   4.14498
 Alpha virt. eigenvalues --    4.20299   4.27104   4.30865   4.33769   4.43110
 Alpha virt. eigenvalues --    4.47233   4.62302   4.86232
          Condensed to atoms (all electrons):
              1          2          3          4          5          6
     1  C    4.891331   0.250275  -0.044132  -0.006800   0.000435  -0.000042
     2  O    0.250275   8.213902   0.278472  -0.068844   0.003892   0.000110
     3  C   -0.044132   0.278472   4.692697   0.373669   0.017124  -0.058196
     4  C   -0.006800  -0.068844   0.373669   5.198210   0.447203   0.013034
     5  C    0.000435   0.003892   0.017124   0.447203   5.165030   0.434037
     6  C   -0.000042   0.000110  -0.058196   0.013034   0.434037   4.718803
     7  C   -0.000000   0.000000  -0.000833   0.009945  -0.098808   0.444973
     8  C    0.000000  -0.000000   0.000073  -0.000430   0.008846  -0.002028
     9  C   -0.000000   0.000000  -0.000283   0.000080  -0.000701  -0.038768
    10  C    0.000003  -0.000043   0.012011  -0.001965   0.018798  -0.048968
    11  C    0.000017   0.002834   0.038492  -0.062317  -0.021082   0.456762
    12  C    0.004125  -0.053518   0.480436  -0.033609  -0.072623  -0.010920
    13  C    0.000200  -0.012714  -0.064840   0.011568  -0.000710   0.009119
    14  H    0.364253  -0.035847  -0.004967   0.004678  -0.000135   0.000002
    15  H    0.384615  -0.031685   0.003027   0.000118   0.000001  -0.000000
    16  H    0.364253  -0.035847  -0.004967   0.004678  -0.000135   0.000002
    17  H    0.006296  -0.007506  -0.040957   0.347471  -0.032380   0.002075
    18  H   -0.000009  -0.000050   0.002928  -0.041633   0.352814  -0.037560
    19  H    0.000000  -0.000000  -0.000008   0.000368  -0.008933  -0.043135
    20  H   -0.000000   0.000000  -0.000000   0.000004  -0.000219   0.002524
    21  H    0.000000  -0.000000   0.000002  -0.000001   0.000008   0.000978
    22  H    0.000000  -0.000001  -0.000058   0.000003  -0.000194   0.005212
    23  H   -0.000387   0.012060  -0.004804   0.000579  -0.000048  -0.000053
    24  H   -0.000006   0.000506   0.000640  -0.000215   0.000057  -0.000231
    25  H   -0.000006   0.000506   0.000639  -0.000215   0.000057  -0.000231
              7          8          9         10         11         12
     1  C   -0.000000   0.000000  -0.000000   0.000003   0.000017   0.004125
     2  O    0.000000  -0.000000   0.000000  -0.000043   0.002834  -0.053518
     3  C   -0.000833   0.000073  -0.000283   0.012011   0.038492   0.480436
     4  C    0.009945  -0.000430   0.000080  -0.001965  -0.062317  -0.033609
     5  C   -0.098808   0.008846  -0.000701   0.018798  -0.021082  -0.072623
     6  C    0.444973  -0.002028  -0.038768  -0.048968   0.456762  -0.010920
     7  C    5.134134   0.506664  -0.020423  -0.077100  -0.027764   0.015703
     8  C    0.506664   4.905851   0.506681  -0.018365  -0.039627  -0.000757
     9  C   -0.020423   0.506681   4.884583   0.514326  -0.001560   0.007835
    10  C   -0.077100  -0.018365   0.514326   5.191170   0.442460  -0.114584
    11  C   -0.027764  -0.039627  -0.001560   0.442460   4.775469   0.422518
    12  C    0.015703  -0.000757   0.007835  -0.114584   0.422518   5.066181
    13  C   -0.000143  -0.000001   0.000151  -0.021135  -0.072657   0.340835
    14  H    0.000000   0.000000  -0.000000  -0.000000  -0.000010  -0.000084
    15  H   -0.000000   0.000000   0.000000  -0.000000   0.000004   0.000036
    16  H    0.000000   0.000000  -0.000000  -0.000000  -0.000010  -0.000084
    17  H   -0.000247   0.000004  -0.000001   0.000020   0.001497   0.002653
    18  H   -0.008698   0.000251   0.000014  -0.000226   0.004278   0.000855
    19  H    0.355710  -0.046322   0.004911   0.000457   0.004169  -0.000153
    20  H   -0.036454   0.355325  -0.042458   0.004381   0.001173   0.000018
    21  H    0.004538  -0.042983   0.357747  -0.037114   0.002733  -0.000167
    22  H    0.000631   0.004871  -0.048432   0.351423  -0.031921  -0.015885
    23  H    0.000003  -0.000000  -0.000001   0.000269   0.001886  -0.026282
    24  H   -0.000011   0.000000   0.000078   0.002851  -0.003283  -0.027123
    25  H   -0.000011   0.000000   0.000078   0.002851  -0.003283  -0.027123
             13         14         15         16         17         18
     1  C    0.000200   0.364253   0.384615   0.364253   0.006296  -0.000009
     2  O   -0.012714  -0.035847  -0.031685  -0.035847  -0.007506  -0.000050
     3  C   -0.064840  -0.004967   0.003027  -0.004967  -0.040957   0.002928
     4  C    0.011568   0.004678   0.000118   0.004678   0.347471  -0.041633
     5  C   -0.000710  -0.000135   0.000001  -0.000135  -0.032380   0.352814
     6  C    0.009119   0.000002  -0.000000   0.000002   0.002075  -0.037560
     7  C   -0.000143   0.000000  -0.000000   0.000000  -0.000247  -0.008698
     8  C   -0.000001   0.000000   0.000000   0.000000   0.000004   0.000251
     9  C    0.000151  -0.000000   0.000000  -0.000000  -0.000001   0.000014
    10  C   -0.021135  -0.000000  -0.000000  -0.000000   0.000020  -0.000226
    11  C   -0.072657  -0.000010   0.000004  -0.000010   0.001497   0.004278
    12  C    0.340835  -0.000084   0.000036  -0.000084   0.002653   0.000855
    13  C    5.248105  -0.000006  -0.000000  -0.000006  -0.000181   0.000011
    14  H   -0.000006   0.597498  -0.034269  -0.046013   0.001787   0.000002
    15  H   -0.000000  -0.034269   0.544504  -0.034269  -0.000091  -0.000000
    16  H   -0.000006  -0.046013  -0.034269   0.597498   0.001787   0.000002
    17  H   -0.000181   0.001787  -0.000091   0.001787   0.592549  -0.005130
    18  H    0.000011   0.000002  -0.000000   0.000002  -0.005130   0.596976
    19  H    0.000002   0.000000  -0.000000   0.000000  -0.000014   0.006530
    20  H    0.000000   0.000000  -0.000000   0.000000  -0.000000  -0.000014
    21  H   -0.000005  -0.000000  -0.000000  -0.000000  -0.000000  -0.000000
    22  H    0.008390   0.000000  -0.000000   0.000000   0.000000   0.000002
    23  H    0.369494   0.000032  -0.000013   0.000032  -0.000006   0.000000
    24  H    0.358720  -0.000001  -0.000001   0.000001   0.000003   0.000000
    25  H    0.358721   0.000001  -0.000001  -0.000001   0.000003   0.000000
             19         20         21         22         23         24
     1  C    0.000000  -0.000000   0.000000   0.000000  -0.000387  -0.000006
     2  O   -0.000000   0.000000  -0.000000  -0.000001   0.012060   0.000506
     3  C   -0.000008  -0.000000   0.000002  -0.000058  -0.004804   0.000640
     4  C    0.000368   0.000004  -0.000001   0.000003   0.000579  -0.000215
     5  C   -0.008933  -0.000219   0.000008  -0.000194  -0.000048   0.000057
     6  C   -0.043135   0.002524   0.000978   0.005212  -0.000053  -0.000231
     7  C    0.355710  -0.036454   0.004538   0.000631   0.000003  -0.000011
     8  C   -0.046322   0.355325  -0.042983   0.004871  -0.000000   0.000000
     9  C    0.004911  -0.042458   0.357747  -0.048432  -0.000001   0.000078
    10  C    0.000457   0.004381  -0.037114   0.351423   0.000269   0.002851
    11  C    0.004169   0.001173   0.002733  -0.031921   0.001886  -0.003283
    12  C   -0.000153   0.000018  -0.000167  -0.015885  -0.026282  -0.027123
    13  C    0.000002   0.000000  -0.000005   0.008390   0.369494   0.358720
    14  H    0.000000   0.000000  -0.000000   0.000000   0.000032  -0.000001
    15  H   -0.000000  -0.000000  -0.000000  -0.000000  -0.000013  -0.000001
    16  H    0.000000   0.000000  -0.000000   0.000000   0.000032   0.000001
    17  H   -0.000014  -0.000000  -0.000000   0.000000  -0.000006   0.000003
    18  H    0.006530  -0.000014  -0.000000   0.000002   0.000000   0.000000
    19  H    0.606365  -0.005378  -0.000209   0.000018  -0.000000  -0.000000
    20  H   -0.005378   0.602375  -0.005224  -0.000210  -0.000000   0.000000
    21  H   -0.000209  -0.005224   0.598533  -0.005511  -0.000000  -0.000001
    22  H    0.000018  -0.000210  -0.005511   0.601724  -0.000084   0.001782
    23  H   -0.000000  -0.000000  -0.000000  -0.000084   0.524889  -0.027744
    24  H   -0.000000   0.000000  -0.000001   0.001782  -0.027744   0.569579
    25  H   -0.000000   0.000000  -0.000001   0.001782  -0.027744  -0.033446
             25
     1  C   -0.000006
     2  O    0.000506
     3  C    0.000639
     4  C   -0.000215
     5  C    0.000057
     6  C   -0.000231
     7  C   -0.000011
     8  C    0.000000
     9  C    0.000078
    10  C    0.002851
    11  C   -0.003283
    12  C   -0.027123
    13  C    0.358721
    14  H    0.000001
    15  H   -0.000001
    16  H   -0.000001
    17  H    0.000003
    18  H    0.000000
    19  H   -0.000000
    20  H    0.000000
    21  H   -0.000001
    22  H    0.001782
    23  H   -0.027744
    24  H   -0.033446
    25  H    0.569578
 Mulliken atomic charges:
              1
     1  C   -0.214420
     2  O   -0.516503
     3  C    0.323836
     4  C   -0.195580
     5  C   -0.212334
     6  C    0.152498
     7  C   -0.201810
     8  C   -0.138054
     9  C   -0.123856
    10  C   -0.221521
    11  C    0.109221
    12  C    0.041714
    13  C   -0.532916
    14  H    0.153078
    15  H    0.168025
    16  H    0.153078
    17  H    0.130367
    18  H    0.128656
    19  H    0.125622
    20  H    0.124158
    21  H    0.126675
    22  H    0.126455
    23  H    0.177921
    24  H    0.157844
    25  H    0.157845
 Sum of Mulliken atomic charges =  -0.00000
 Mulliken charges with hydrogens summed into heavy atoms:
              1
     1  C    0.259761
     2  O   -0.516503
     3  C    0.323836
     4  C   -0.065213
     5  C   -0.083678
     6  C    0.152498
     7  C   -0.076188
     8  C   -0.013896
     9  C    0.002818
    10  C   -0.095066
    11  C    0.109221
    12  C    0.041714
    13  C   -0.039306
 Sum of Mulliken charges with hydrogens summed into heavy atoms =  -0.00000
 Electronic spatial extent (au):  <R**2>=           2554.9157
 Charge=             -0.0000 electrons
 Dipole moment (field-independent basis, Debye):
    X=              1.2235    Y=             -0.9608    Z=              0.0000  Tot=              1.5557
 Quadrupole moment (field-independent basis, Debye-Ang):
   XX=            -63.6484   YY=            -69.9001   ZZ=            -79.6723
   XY=             -3.8332   XZ=              0.0000   YZ=              0.0000
 Traceless Quadrupole moment (field-independent basis, Debye-Ang):
   XX=              7.4252   YY=              1.1735   ZZ=             -8.5987
   XY=             -3.8332   XZ=              0.0000   YZ=              0.0000
 Octapole moment (field-independent basis, Debye-Ang**2):
  XXX=             39.6406  YYY=             -3.4578  ZZZ=             -0.0000  XYY=              0.2509
  XXY=            -12.3225  XXZ=             -0.0000  XZZ=             11.9049  YZZ=              2.8415
  YYZ=             -0.0000  XYZ=             -0.0000
 Hexadecapole moment (field-independent basis, Debye-Ang**3):
 XXXX=          -2149.9131 YYYY=           -825.9113 ZZZZ=            -94.3886 XXXY=            -38.0309
 XXXZ=             -0.0000 YYYX=              2.9261 YYYZ=             -0.0000 ZZZX=              0.0001
 ZZZY=              0.0001 XXYY=           -529.6789 XXZZ=           -452.1325 YYZZ=           -166.2133
 XXYZ=             -0.0001 YYXZ=             -0.0000 ZZXY=             -0.3784
 N-N= 7.425947356111D+02 E-N=-2.737682566699D+03  KE= 5.346279109927D+02
 No NMR shielding tensors so no spin-rotation constants.
 Leave Link  601 at Fri Sep  3 00:09:51 2021, MaxMem=  268435456 cpu:       0.4
 (Enter /sw/target/amd/app/gaussian/Gaussian09RevA.02_gcc-4.9.2/g09/l701.exe)
 Compute integral first derivatives.
 ... and contract with generalized density number  0.
 Leave Link  701 at Fri Sep  3 00:09:52 2021, MaxMem=  268435456 cpu:       0.4
 (Enter /sw/target/amd/app/gaussian/Gaussian09RevA.02_gcc-4.9.2/g09/l702.exe)
 L702 exits ... SP integral derivatives will be done elsewhere.
 Leave Link  702 at Fri Sep  3 00:09:52 2021, MaxMem=  268435456 cpu:       0.1
 (Enter /sw/target/amd/app/gaussian/Gaussian09RevA.02_gcc-4.9.2/g09/l703.exe)
 Compute integral first derivatives, UseDBF=F ICtDFT=           0.
 Integral derivatives from FoFDir, PRISM(SPDF).
 Calling FoFJK, ICntrl=      2127 FMM=F ISym2X=0 I1Cent= 0 IOpClX= 0 NMat=1 NMatS=1 NMatT=0.
 FoFCou: FMM=F IPFlag=           0 FMFlag=      100000 FMFlg1=         800
         NFxFlg=           0 DoJE=F BraDBF=F KetDBF=F FulRan=T
         Omega=  0.000000  0.000000  1.000000  0.000000  0.000000 ICntrl=    2127 IOpCl=  0
         NMat0=    1 NMatS0=    1 NMatT0=    0 NMatD0=    1 NMtDS0=    0 NMtDT0=    0
         I1Cent=           0 NGrid=           0.
 Symmetry not used in FoFCou.
 Leave Link  703 at Fri Sep  3 00:11:01 2021, MaxMem=  268435456 cpu:      68.9
 (Enter /sw/target/amd/app/gaussian/Gaussian09RevA.02_gcc-4.9.2/g09/l716.exe)
 Dipole        = 4.81369084D-01-3.78023747D-01 1.40406593D-06
 ***** Axes restored to original set *****
 -------------------------------------------------------------------
 Center     Atomic                   Forces (Hartrees/Bohr)
 Number     Number              X              Y              Z
 -------------------------------------------------------------------
      1        6          -0.002264586   -0.003439986   -0.000367699
      2        8          -0.002519906    0.002896699    0.000026455
      3        6           0.010045162   -0.027150079   -0.001116190
      4        6           0.018620523    0.021438301    0.002580356
      5        6          -0.027099958    0.006480887   -0.001314430
      6        6           0.007652333    0.012619826    0.001307197
      7        6           0.024589710   -0.010091773    0.000919795
      8        6          -0.000941532    0.026661622    0.001666966
      9        6          -0.022443526   -0.016450005   -0.002501992
     10        6           0.016543136   -0.010674571    0.000367191
     11        6          -0.010923620   -0.006408336   -0.001114224
     12        6          -0.013074964    0.002244602   -0.000691043
     13        6          -0.002837376    0.002257663   -0.000036157
     14        1           0.001422739    0.003606822    0.000980922
     15        1           0.002826923   -0.004183154   -0.000090024
     16        1           0.001505997    0.003691064   -0.000320877
     17        1          -0.002102456   -0.001665822   -0.000242440
     18        1           0.001273929   -0.001484347   -0.000014583
     19        1          -0.003188914    0.000764153   -0.000154585
     20        1           0.000154893    0.000788368    0.000060965
     21        1          -0.001022899   -0.000758200   -0.000114507
     22        1          -0.002280157    0.002067025   -0.000012006
     23        1           0.001761929    0.004508866    0.000405095
     24        1           0.002061970   -0.003950123    0.001284588
     25        1           0.002240647   -0.003769500   -0.001508772
 -------------------------------------------------------------------
 Cartesian Forces:  Max     0.027150079 RMS     0.008779454
 Leave Link  716 at Fri Sep  3 00:11:01 2021, MaxMem=  268435456 cpu:       0.1
 (Enter /sw/target/amd/app/gaussian/Gaussian09RevA.02_gcc-4.9.2/g09/l103.exe)

 GradGradGradGradGradGradGradGradGradGradGradGradGradGradGradGradGradGrad
 Berny optimization.
 Internal  Forces:  Max     0.022615469 RMS     0.004753900
 Search for a local minimum.
 Step number   1 out of a maximum of  134
 All quantities printed in internal units (Hartrees-Bohrs-Radians)
 RMS Force = .47539D-02 SwitMx=.10000D-02 MixMth= 1
 Mixed Optimization -- RFO/linear search
 Second derivative matrix not updated -- first step.
     Eigenvalues ---    0.00606   0.01352   0.01409   0.01821   0.01859
     Eigenvalues ---    0.01961   0.02007   0.02009   0.02050   0.02061
     Eigenvalues ---    0.02069   0.02095   0.02127   0.02130   0.02156
     Eigenvalues ---    0.02180   0.02187   0.02220   0.06982   0.07243
     Eigenvalues ---    0.09982   0.10552   0.16000   0.16000   0.16000
     Eigenvalues ---    0.16000   0.16000   0.16000   0.16000   0.16000
     Eigenvalues ---    0.16000   0.16000   0.16000   0.16000   0.22000
     Eigenvalues ---    0.22390   0.22707   0.24345   0.24639   0.25000
     Eigenvalues ---    0.25000   0.25000   0.25000   0.31138   0.34226
     Eigenvalues ---    0.34226   0.34249   0.34249   0.34320   0.34408
     Eigenvalues ---    0.35042   0.35047   0.35122   0.35190   0.35221
     Eigenvalues ---    0.35445   0.38234   0.39593   0.40704   0.42256
     Eigenvalues ---    0.42344   0.43545   0.44985   0.45133   0.45500
     Eigenvalues ---    0.45834   0.46318   0.47160   0.506981000.00000
     Eigenvalues --- 1000.000001000.000001000.000001000.000001000.00000
     Eigenvalues --- 1000.000001000.000001000.000001000.000001000.00000
     Eigenvalues --- 1000.000001000.000001000.000001000.000001000.00000
     Eigenvalues --- 1000.000001000.000001000.000001000.000001000.00000
     Eigenvalues --- 1000.000001000.000001000.000001000.000001000.00000
     Eigenvalues --- 1000.000001000.000001000.000001000.000001000.00000
     Eigenvalues --- 1000.000001000.000001000.000001000.000001000.00000
     Eigenvalues --- 1000.000001000.000001000.000001000.000001000.00000
     Eigenvalues --- 1000.000001000.000001000.000001000.000001000.00000
     Eigenvalues --- 1000.000001000.000001000.000001000.000001000.00000
     Eigenvalues --- 1000.000001000.000001000.000001000.00000
 RFO step:  Lambda=-7.66789292D-03 EMin= 6.05595049D-03
 Linear search not attempted -- first point.
 Iteration  1 RMS(Cart)=  0.02442643 RMS(Int)=  0.00029077
 Iteration  2 RMS(Cart)=  0.00034859 RMS(Int)=  0.00005335
 Iteration  3 RMS(Cart)=  0.00000004 RMS(Int)=  0.00005335
 Variable       Old X    -DE/DX   Delta X   Delta X   Delta X     New X
                                 (Linear)    (Quad)   (Total)
    R1        2.68598  -0.00252   0.00000  -0.00586  -0.00586   2.68012
    R2        2.06912   0.00163   0.00000   0.00467   0.00467   2.07379
    R3        2.06793  -0.00099   0.00000  -0.00282  -0.00282   2.06511
    R4        2.06912   0.00163   0.00000   0.00466   0.00466   2.07379
    R5        2.59168  -0.00150   0.00000  -0.00292  -0.00292   2.58875
    R6        2.63599   0.01754   0.00000   0.03580   0.03585   2.67184
    R7        2.66913  -0.01363   0.00000  -0.03215  -0.03217   2.63696
    R8        2.63610  -0.01433   0.00000  -0.03032  -0.03026   2.60583
    R9        2.04958  -0.00008   0.00000  -0.00023  -0.00023   2.04935
   R10        2.64316   0.01279   0.00000   0.02881   0.02882   2.67199
   R11        2.05606  -0.00097   0.00000  -0.00272  -0.00272   2.05334
   R12        2.65571   0.01081   0.00000   0.02484   0.02485   2.68056
   R13        2.67568   0.01858   0.00000   0.04519   0.04511   2.72079
   R14        2.63270  -0.01170   0.00000  -0.02480  -0.02475   2.60795
   R15        2.05598  -0.00039   0.00000  -0.00109  -0.00109   2.05489
   R16        2.62215   0.02262   0.00000   0.04539   0.04543   2.66758
   R17        2.05318   0.00031   0.00000   0.00085   0.00085   2.05403
   R18        2.64070  -0.01340   0.00000  -0.02968  -0.02969   2.61101
   R19        2.05368  -0.00009   0.00000  -0.00025  -0.00025   2.05343
   R20        2.67409   0.00380   0.00000   0.00881   0.00877   2.68286
   R21        2.05477  -0.00132   0.00000  -0.00367  -0.00367   2.05109
   R22        2.69973  -0.00263   0.00000  -0.00630  -0.00636   2.69337
   R23        2.85750  -0.00027   0.00000  -0.00085  -0.00085   2.85665
   R24        2.06647  -0.00196   0.00000  -0.00558  -0.00558   2.06090
   R25        2.06950   0.00140   0.00000   0.00400   0.00400   2.07350
   R26        2.06950   0.00140   0.00000   0.00400   0.00400   2.07350
    A1        1.94004   0.00211   0.00000   0.01153   0.01160   1.95164
    A2        1.88055  -0.00699   0.00000  -0.03964  -0.03954   1.84102
    A3        1.94004   0.00211   0.00000   0.01153   0.01160   1.95164
    A4        1.87854   0.00327   0.00000   0.02151   0.02162   1.90016
    A5        1.94285  -0.00381   0.00000  -0.02628  -0.02624   1.91661
    A6        1.87854   0.00327   0.00000   0.02151   0.02162   1.90016
    A7        2.05656   0.00177   0.00000   0.00687   0.00687   2.06343
    A8        2.16376  -0.00595   0.00000  -0.02096  -0.02097   2.14279
    A9        2.03074  -0.00181   0.00000  -0.00489  -0.00490   2.02584
   A10        2.08869   0.00775   0.00000   0.02585   0.02587   2.11456
   A11        2.10300  -0.00030   0.00000  -0.00314  -0.00304   2.09996
   A12        2.12881  -0.00261   0.00000  -0.01491  -0.01496   2.11385
   A13        2.05138   0.00291   0.00000   0.01805   0.01800   2.06938
   A14        2.11233  -0.00157   0.00000  -0.00303  -0.00296   2.10937
   A15        2.07021   0.00252   0.00000   0.01189   0.01186   2.08206
   A16        2.10065  -0.00096   0.00000  -0.00886  -0.00890   2.09175
   A17        2.09490   0.00778   0.00000   0.02468   0.02472   2.11962
   A18        2.08906  -0.00467   0.00000  -0.01476  -0.01478   2.07428
   A19        2.09923  -0.00311   0.00000  -0.00992  -0.00994   2.08929
   A20        2.11199  -0.00161   0.00000  -0.00440  -0.00436   2.10763
   A21        2.10075  -0.00255   0.00000  -0.01781  -0.01783   2.08292
   A22        2.07045   0.00416   0.00000   0.02221   0.02219   2.09264
   A23        2.08807   0.00102   0.00000   0.00226   0.00233   2.09041
   A24        2.09667  -0.00128   0.00000  -0.00574  -0.00577   2.09090
   A25        2.09844   0.00026   0.00000   0.00348   0.00344   2.10188
   A26        2.09267   0.00472   0.00000   0.01672   0.01673   2.10940
   A27        2.09724  -0.00106   0.00000  -0.00058  -0.00059   2.09665
   A28        2.09328  -0.00367   0.00000  -0.01613  -0.01614   2.07714
   A29        2.12770  -0.00309   0.00000  -0.01450  -0.01457   2.11313
   A30        2.05104   0.00440   0.00000   0.02428   0.02432   2.07536
   A31        2.10444  -0.00131   0.00000  -0.00978  -0.00975   2.09469
   A32        2.04671   0.00205   0.00000   0.00984   0.00980   2.05652
   A33        2.07734   0.00344   0.00000   0.01495   0.01488   2.09221
   A34        2.15914  -0.00549   0.00000  -0.02479  -0.02468   2.13446
   A35        2.09596  -0.00466   0.00000  -0.01987  -0.01996   2.07600
   A36        2.09595   0.00224   0.00000   0.00959   0.00964   2.10559
   A37        2.09128   0.00242   0.00000   0.01027   0.01032   2.10160
   A38        1.97813  -0.00698   0.00000  -0.03870  -0.03848   1.93965
   A39        1.92060   0.00376   0.00000   0.02100   0.02107   1.94167
   A40        1.92060   0.00376   0.00000   0.02100   0.02107   1.94167
   A41        1.86473   0.00211   0.00000   0.01541   0.01562   1.88035
   A42        1.86473   0.00211   0.00000   0.01541   0.01562   1.88035
   A43        1.91305  -0.00502   0.00000  -0.03574  -0.03580   1.87724
    D1        1.08728  -0.00092   0.00000  -0.00859  -0.00853   1.07875
    D2        3.14159   0.00000   0.00000   0.00000   0.00000   3.14159
    D3       -1.08728   0.00092   0.00000   0.00860   0.00853  -1.07875
    D4       -0.00000   0.00000   0.00000   0.00000   0.00000  -0.00000
    D5        3.14159   0.00000   0.00000   0.00000   0.00000   3.14159
    D6       -3.14159  -0.00000   0.00000  -0.00000  -0.00000   3.14159
    D7        0.00000  -0.00000   0.00000  -0.00000  -0.00000   0.00000
    D8       -0.00000   0.00000   0.00000   0.00000   0.00000  -0.00000
    D9        3.14159   0.00000   0.00000   0.00000   0.00000   3.14159
   D10       -3.14159   0.00000   0.00000   0.00000   0.00000  -3.14159
   D11       -0.00000   0.00000   0.00000   0.00000   0.00000  -0.00000
   D12        0.00000  -0.00000   0.00000  -0.00000  -0.00000   0.00000
   D13        3.14159   0.00000   0.00000   0.00000   0.00000   3.14159
   D14        0.00000  -0.00000   0.00000  -0.00000  -0.00000  -0.00000
   D15        3.14159   0.00000   0.00000   0.00000   0.00000   3.14159
   D16        3.14159  -0.00000   0.00000  -0.00000  -0.00000   3.14159
   D17       -0.00000   0.00000   0.00000   0.00000   0.00000  -0.00000
   D18        3.14159   0.00000   0.00000   0.00000   0.00000  -3.14159
   D19        0.00000  -0.00000   0.00000  -0.00000  -0.00000  -0.00000
   D20        0.00000  -0.00000   0.00000  -0.00000  -0.00000   0.00000
   D21       -3.14159  -0.00000   0.00000  -0.00000  -0.00000  -3.14159
   D22        3.14159  -0.00000   0.00000  -0.00000  -0.00000   3.14159
   D23        0.00000  -0.00000   0.00000  -0.00000  -0.00000  -0.00000
   D24       -0.00000  -0.00000   0.00000  -0.00000  -0.00000  -0.00000
   D25        3.14159   0.00000   0.00000   0.00000  -0.00000   3.14159
   D26       -3.14159   0.00000   0.00000  -0.00000  -0.00000  -3.14159
   D27        0.00000  -0.00000   0.00000  -0.00000  -0.00000   0.00000
   D28        0.00000  -0.00000   0.00000  -0.00000  -0.00000   0.00000
   D29       -3.14159  -0.00000   0.00000  -0.00000  -0.00000  -3.14159
   D30       -0.00000   0.00000   0.00000   0.00000   0.00000  -0.00000
   D31        3.14159   0.00000   0.00000   0.00000   0.00000  -3.14159
   D32        3.14159   0.00000   0.00000   0.00000   0.00000   3.14159
   D33       -0.00000   0.00000   0.00000  -0.00000  -0.00000  -0.00000
   D34        0.00000  -0.00000   0.00000  -0.00000  -0.00000   0.00000
   D35        3.14159   0.00000   0.00000   0.00000   0.00000  -3.14159
   D36       -3.14159  -0.00000   0.00000  -0.00000  -0.00000   3.14159
   D37       -0.00000   0.00000   0.00000   0.00000   0.00000  -0.00000
   D38       -0.00000   0.00000   0.00000   0.00000   0.00000   0.00000
   D39        3.14159   0.00000   0.00000   0.00000   0.00000  -3.14159
   D40       -3.14159  -0.00000   0.00000  -0.00000  -0.00000  -3.14159
   D41        0.00000  -0.00000   0.00000  -0.00000  -0.00000   0.00000
   D42       -0.00000   0.00000   0.00000   0.00000   0.00000  -0.00000
   D43        3.14159   0.00000   0.00000   0.00000   0.00000   3.14159
   D44        3.14159  -0.00000   0.00000  -0.00000  -0.00000   3.14159
   D45       -0.00000   0.00000   0.00000   0.00000   0.00000  -0.00000
   D46       -0.00000   0.00000   0.00000   0.00000   0.00000  -0.00000
   D47       -3.14159  -0.00000   0.00000  -0.00000  -0.00000  -3.14159
   D48        3.14159   0.00000   0.00000   0.00000   0.00000   3.14159
   D49        0.00000  -0.00000   0.00000  -0.00000  -0.00000   0.00000
   D50        0.00002  -0.00000   0.00000  -0.00000  -0.00000   0.00002
   D51        2.08667   0.00070   0.00000   0.00871   0.00860   2.09527
   D52       -2.08663  -0.00070   0.00000  -0.00872  -0.00861  -2.09524
   D53       -3.14158  -0.00000   0.00000  -0.00000  -0.00000  -3.14158
   D54       -1.05493   0.00070   0.00000   0.00872   0.00861  -1.04632
   D55        1.05496  -0.00070   0.00000  -0.00872  -0.00860   1.04635
         Item               Value     Threshold  Converged?
 Maximum Force            0.022615     0.000450     NO 
 RMS     Force            0.004754     0.000300     NO 
 Maximum Displacement     0.099908     0.001800     NO 
 RMS     Displacement     0.024413     0.001200     NO 
 Predicted change in Energy=-3.930673D-03
 GradGradGradGradGradGradGradGradGradGradGradGradGradGradGradGradGradGrad

 Leave Link  103 at Fri Sep  3 00:11:01 2021, MaxMem=  268435456 cpu:       0.1
 (Enter /sw/target/amd/app/gaussian/Gaussian09RevA.02_gcc-4.9.2/g09/l202.exe)
                          Input orientation:                          
 ---------------------------------------------------------------------
 Center     Atomic      Atomic             Coordinates (Angstroms)
 Number     Number       Type             X           Y           Z
 ---------------------------------------------------------------------
      1          6           0       -3.690510    1.123714   -0.373878
      2          8           0       -2.767609    0.046871   -0.384578
      3          6           0       -1.432739    0.336559   -0.280391
      4          6           0       -0.943167    1.657806   -0.163474
      5          6           0        0.412002    1.891558   -0.061612
      6          6           0        1.335423    0.820831   -0.071881
      7          6           0        2.731904    1.046972    0.032132
      8          6           0        3.620638   -0.008774    0.020615
      9          6           0        3.137869   -1.330151   -0.095874
     10          6           0        1.783500   -1.583363   -0.198946
     11          6           0        0.837444   -0.524834   -0.190917
     12          6           0       -0.565022   -0.756161   -0.295650
     13          6           0       -1.101127   -2.163996   -0.421153
     14          1           0       -3.534561    1.803032   -1.221520
     15          1           0       -4.677188    0.663219   -0.466849
     16          1           0       -3.649006    1.687178    0.566905
     17          1           0       -1.618125    2.506548   -0.151686
     18          1           0        0.769986    2.913598    0.027501
     19          1           0        3.101518    2.065692    0.121775
     20          1           0        4.687595    0.182398    0.101276
     21          1           0        3.832451   -2.165748   -0.105554
     22          1           0        1.447147   -2.611554   -0.287073
     23          1           0       -2.189471   -2.165541   -0.490914
     24          1           0       -0.708052   -2.660824   -1.317034
     25          1           0       -0.820901   -2.775025    0.446065
 ---------------------------------------------------------------------
                    Distance matrix (angstroms):
                    1          2          3          4          5
     1  C    0.000000
     2  O    1.418257   0.000000
     3  C    2.392883   1.369910   0.000000
     4  C    2.806674   2.443888   1.413875   0.000000
     5  C    4.185415   3.690136   2.422593   1.378948   0.000000
     6  C    5.044101   4.187084   2.817928   2.429174   1.413955
     7  C    6.435693   5.605221   4.236344   3.730620   2.470640
     8  C    7.408850   6.401327   5.074099   4.862067   3.730064
     9  C    7.261233   6.070767   4.868513   5.058390   4.220301
    10  C    6.109309   4.837842   3.746588   4.235699   3.738308
    11  C    4.822195   3.655238   2.429760   2.816956   2.456964
    12  C    3.648113   2.346094   1.395421   2.446978   2.831920
    13  C    4.185233   2.768832   2.526371   3.833734   4.343541
    14  H    1.097401   2.091121   2.730188   2.802834   4.114436
    15  H    1.092810   2.008269   3.266179   3.876101   5.250989
    16  H    1.097401   2.091121   2.730188   2.802835   4.114436
    17  H    2.501276   2.724989   2.181694   1.084468   2.123143
    18  H    4.822947   4.571927   3.404104   2.132693   1.086581
    19  H    6.874928   6.227253   4.869407   4.075195   2.701379
    20  H    8.444200   7.472248   6.134160   5.826869   4.607436
    21  H    8.215078   6.966659   5.832180   6.117960   5.306895
    22  H    6.352581   4.984064   4.121305   4.894518   4.626055
    23  H    3.617460   2.289174   2.622493   4.034659   4.838597
    24  H    4.909922   3.527444   3.253322   4.476220   4.853328
    25  H    4.909901   3.527426   3.253311   4.476212   4.853327
[...]
      5          6           0       -0.006072   -1.886335   -0.000000
      6          6           0       -1.084258   -0.968971   -0.000000
      7          6           0       -2.436176   -1.405051   -0.000000
      8          6           0       -3.473197   -0.501472    0.000000
      9          6           0       -3.192911    0.886339    0.000000
     10          6           0       -1.893211    1.341293    0.000000
     11          6           0       -0.792137    0.436351   -0.000000
     12          6           0        0.562358    0.888948   -0.000000
     13          6           0        0.884986    2.364487   -0.000001
     14          1           0        3.944408   -1.130183   -0.894852
     15          1           0        4.854389    0.115999    0.000000
     16          1           0        3.944409   -1.130184    0.894851
     17          1           0        2.103687   -2.171131    0.000000
     18          1           0       -0.219079   -2.952679   -0.000000
     19          1           0       -2.635513   -2.474560   -0.000000
     20          1           0       -4.503471   -0.846658    0.000000
     21          1           0       -4.013447    1.599307    0.000001
     22          1           0       -1.702886    2.409424    0.000001
     23          1           0        1.962769    2.527049   -0.000007
     24          1           0        0.466720    2.865174   -0.882519
     25          1           0        0.466731    2.865172    0.882524
 ---------------------------------------------------------------------
 Rotational constants (GHZ):      1.8108469      0.5623457      0.4314263
 Leave Link  202 at Fri Sep  3 00:33:25 2021, MaxMem=  268435456 cpu:       0.0
 (Enter /sw/target/amd/app/gaussian/Gaussian09RevA.02_gcc-4.9.2/g09/l601.exe)
 Copying SCF densities to generalized density rwf, IOpCl= 0 IROHF=0.

 **********************************************************************

            Population analysis using the SCF density.

 **********************************************************************

 Orbital symmetries:
       Occupied  (A) (A) (A) (A) (A) (A) (A) (A) (A) (A) (A) (A)
                 (A) (A) (A) (A) (A) (A) (A) (A) (A) (A) (A) (A)
                 (A) (A) (A) (A) (A) (A) (A) (A) (A) (A) (A) (A)
                 (A) (A) (A) (A) (A) (A) (A) (A) (A) (A)
       Virtual   (A) (A) (A) (A) (A) (A) (A) (A) (A) (A) (A) (A)
                 (A) (A) (A) (A) (A) (A) (A) (A) (A) (A) (A) (A)
                 (A) (A) (A) (A) (A) (A) (A) (A) (A) (A) (A) (A)
                 (A) (A) (A) (A) (A) (A) (A) (A) (A) (A) (A) (A)
                 (A) (A) (A) (A) (A) (A) (A) (A) (A) (A) (A) (A)
                 (A) (A) (A) (A) (A) (A) (A) (A) (A) (A) (A) (A)
                 (A) (A) (A) (A) (A) (A) (A) (A) (A) (A) (A) (A)
                 (A) (A) (A) (A) (A) (A) (A) (A) (A) (A) (A) (A)
                 (A) (A) (A) (A) (A) (A) (A) (A) (A) (A) (A) (A)
                 (A) (A) (A) (A) (A) (A) (A) (A) (A) (A) (A) (A)
                 (A) (A) (A) (A) (A) (A) (A) (A) (A) (A) (A) (A)
                 (A) (A) (A) (A) (A) (A) (A) (A) (A) (A) (A) (A)
                 (A) (A) (A) (A) (A) (A) (A) (A) (A) (A) (A) (A)
                 (A) (A) (A) (A) (A) (A) (A) (A) (A) (A) (A) (A)
                 (A) (A) (A) (A) (A)
 The electronic state is 1-A.
 Alpha  occ. eigenvalues --  -19.17471 -10.24257 -10.24126 -10.19041 -10.18788
 Alpha  occ. eigenvalues --  -10.18758 -10.18706 -10.18700 -10.18397 -10.18383
 Alpha  occ. eigenvalues --  -10.18168 -10.18051 -10.17229  -1.06001  -0.86468
 Alpha  occ. eigenvalues --   -0.81333  -0.78043  -0.73959  -0.72855  -0.70096
 Alpha  occ. eigenvalues --   -0.66846  -0.61711  -0.59584  -0.57188  -0.52702
 Alpha  occ. eigenvalues --   -0.50924  -0.49870  -0.46754  -0.46056  -0.44277
 Alpha  occ. eigenvalues --   -0.43057  -0.42188  -0.41340  -0.40612  -0.39842
 Alpha  occ. eigenvalues --   -0.37874  -0.37211  -0.37101  -0.34574  -0.33693
 Alpha  occ. eigenvalues --   -0.33316  -0.31402  -0.29707  -0.26416  -0.22671
 Alpha  occ. eigenvalues --   -0.19492
 Alpha virt. eigenvalues --   -0.03171   0.00519   0.04271   0.09546   0.10505
 Alpha virt. eigenvalues --    0.10881   0.10934   0.13275   0.14014   0.15156
 Alpha virt. eigenvalues --    0.16420   0.16545   0.17589   0.18026   0.18295
 Alpha virt. eigenvalues --    0.20315   0.21159   0.22185   0.23102   0.26097
 Alpha virt. eigenvalues --    0.27856   0.29897   0.31879   0.32964   0.35399
 Alpha virt. eigenvalues --    0.37340   0.37851   0.47664   0.49272   0.50022
 Alpha virt. eigenvalues --    0.51476   0.52049   0.53267   0.53988   0.54486
 Alpha virt. eigenvalues --    0.56036   0.56635   0.56859   0.57089   0.58316
 Alpha virt. eigenvalues --    0.59566   0.60537   0.60821   0.61866   0.62742
 Alpha virt. eigenvalues --    0.63015   0.63317   0.65935   0.66643   0.68254
 Alpha virt. eigenvalues --    0.70899   0.71516   0.74238   0.75488   0.76978
 Alpha virt. eigenvalues --    0.78327   0.82729   0.83681   0.84383   0.84862
 Alpha virt. eigenvalues --    0.85065   0.85416   0.86252   0.87524   0.90247
 Alpha virt. eigenvalues --    0.90837   0.91961   0.93145   0.93615   0.95662
 Alpha virt. eigenvalues --    0.96659   0.98944   1.01333   1.03579   1.04481
 Alpha virt. eigenvalues --    1.04738   1.07088   1.07494   1.08985   1.14021
 Alpha virt. eigenvalues --    1.15353   1.20398   1.24216   1.24463   1.25171
 Alpha virt. eigenvalues --    1.26592   1.27863   1.35316   1.36355   1.39287
 Alpha virt. eigenvalues --    1.39634   1.40912   1.45296   1.45452   1.47800
 Alpha virt. eigenvalues --    1.47930   1.49429   1.50263   1.51038   1.52177
 Alpha virt. eigenvalues --    1.53971   1.56942   1.70526   1.74596   1.77151
 Alpha virt. eigenvalues --    1.79520   1.80875   1.83311   1.86123   1.87498
 Alpha virt. eigenvalues --    1.89976   1.90446   1.92103   1.93640   1.94321
 Alpha virt. eigenvalues --    1.96533   2.00994   2.02220   2.02642   2.02990
 Alpha virt. eigenvalues --    2.05643   2.08772   2.12156   2.12773   2.15674
 Alpha virt. eigenvalues --    2.18035   2.19792   2.21200   2.23264   2.24206
 Alpha virt. eigenvalues --    2.26102   2.27607   2.29443   2.31772   2.33082
 Alpha virt. eigenvalues --    2.34500   2.37121   2.39896   2.40946   2.43639
 Alpha virt. eigenvalues --    2.50112   2.54116   2.58628   2.63556   2.64328
 Alpha virt. eigenvalues --    2.64590   2.68184   2.68254   2.72852   2.78024
 Alpha virt. eigenvalues --    2.80665   2.84391   2.85693   2.90018   2.91527
 Alpha virt. eigenvalues --    3.02035   3.09524   3.18397   3.38240   3.48728
 Alpha virt. eigenvalues --    4.05740   4.08892   4.11284   4.12448   4.14963
 Alpha virt. eigenvalues --    4.20039   4.26738   4.30794   4.33532   4.42785
 Alpha virt. eigenvalues --    4.46896   4.61035   4.84969
          Condensed to atoms (all electrons):
              1          2          3          4          5          6
     1  C    4.889373   0.250635  -0.043397  -0.006900   0.000477  -0.000042
     2  O    0.250635   8.218794   0.269440  -0.064463   0.004146   0.000192
     3  C   -0.043397   0.269440   4.691317   0.383230   0.017199  -0.055621
     4  C   -0.006900  -0.064463   0.383230   5.176402   0.456789   0.007283
     5  C    0.000477   0.004146   0.017199   0.456789   5.142254   0.434643
     6  C   -0.000042   0.000192  -0.055621   0.007283   0.434643   4.733967
     7  C   -0.000000   0.000000  -0.000887   0.009324  -0.092347   0.450004
     8  C    0.000000  -0.000000   0.000076  -0.000401   0.008481  -0.004997
     9  C   -0.000000   0.000000  -0.000347   0.000073  -0.000708  -0.037844
    10  C    0.000004  -0.000056   0.011909  -0.001548   0.016470  -0.050704
    11  C    0.000012   0.002792   0.041797  -0.061618  -0.017671   0.453555
    12  C    0.003984  -0.052655   0.487107  -0.038018  -0.066216  -0.018442
    13  C    0.000266  -0.014034  -0.065987   0.010976  -0.000872   0.008846
    14  H    0.362482  -0.035299  -0.004448   0.003949  -0.000164   0.000001
    15  H    0.386757  -0.034455   0.003067   0.000230   0.000001  -0.000000
    16  H    0.362482  -0.035299  -0.004448   0.003949  -0.000164   0.000001
    17  H    0.006841  -0.008087  -0.040007   0.348759  -0.033232   0.002006
    18  H   -0.000009  -0.000052   0.002870  -0.041460   0.350220  -0.037081
    19  H    0.000000  -0.000000  -0.000003   0.000284  -0.008777  -0.042580
    20  H   -0.000000   0.000000  -0.000000   0.000004  -0.000200   0.002584
    21  H    0.000000  -0.000000   0.000003  -0.000001   0.000009   0.001015
    22  H    0.000000  -0.000001   0.000003  -0.000001  -0.000174   0.005097
    23  H   -0.000465   0.014120  -0.005026   0.000572  -0.000043  -0.000077
    24  H   -0.000006   0.000495   0.000382  -0.000188   0.000047  -0.000187
    25  H   -0.000006   0.000495   0.000382  -0.000188   0.000047  -0.000187
              7          8          9         10         11         12
     1  C   -0.000000   0.000000  -0.000000   0.000004   0.000012   0.003984
     2  O    0.000000  -0.000000   0.000000  -0.000056   0.002792  -0.052655
     3  C   -0.000887   0.000076  -0.000347   0.011909   0.041797   0.487107
     4  C    0.009324  -0.000401   0.000073  -0.001548  -0.061618  -0.038018
     5  C   -0.092347   0.008481  -0.000708   0.016470  -0.017671  -0.066216
     6  C    0.450004  -0.004997  -0.037844  -0.050704   0.453555  -0.018442
     7  C    5.098601   0.517918  -0.019570  -0.069710  -0.026949   0.014116
     8  C    0.517918   4.910253   0.494672  -0.019773  -0.039472  -0.000633
     9  C   -0.019570   0.494672   4.893928   0.523026  -0.001472   0.008129
    10  C   -0.069710  -0.019773   0.523026   5.146755   0.445707  -0.103435
    11  C   -0.026949  -0.039472  -0.001472   0.445707   4.803019   0.422988
    12  C    0.014116  -0.000633   0.008129  -0.103435   0.422988   5.028132
    13  C   -0.000105  -0.000005   0.000236  -0.022168  -0.072456   0.342732
    14  H    0.000000   0.000000  -0.000000  -0.000000  -0.000008  -0.000090
    15  H   -0.000000   0.000000   0.000000  -0.000000   0.000004   0.000031
    16  H    0.000000   0.000000  -0.000000  -0.000000  -0.000008  -0.000090
    17  H   -0.000214   0.000003  -0.000001   0.000018   0.001352   0.002752
    18  H   -0.008165   0.000180   0.000018  -0.000220   0.004283   0.000903
    19  H    0.353660  -0.046206   0.004740   0.000444   0.004333  -0.000153
    20  H   -0.037069   0.356489  -0.041166   0.004158   0.001064   0.000016
    21  H    0.004378  -0.042231   0.356493  -0.037561   0.002908  -0.000189
    22  H    0.000493   0.004679  -0.048352   0.352765  -0.033163  -0.016928
    23  H    0.000003  -0.000000  -0.000001   0.000336   0.002153  -0.028614
    24  H   -0.000010   0.000001   0.000065   0.002197  -0.002868  -0.025330
    25  H   -0.000010   0.000001   0.000065   0.002197  -0.002867  -0.025330
             13         14         15         16         17         18
     1  C    0.000266   0.362482   0.386757   0.362482   0.006841  -0.000009
     2  O   -0.014034  -0.035299  -0.034455  -0.035299  -0.008087  -0.000052
     3  C   -0.065987  -0.004448   0.003067  -0.004448  -0.040007   0.002870
     4  C    0.010976   0.003949   0.000230   0.003949   0.348759  -0.041460
     5  C   -0.000872  -0.000164   0.000001  -0.000164  -0.033232   0.350220
     6  C    0.008846   0.000001  -0.000000   0.000001   0.002006  -0.037081
     7  C   -0.000105   0.000000  -0.000000   0.000000  -0.000214  -0.008165
     8  C   -0.000005   0.000000   0.000000   0.000000   0.000003   0.000180
     9  C    0.000236  -0.000000   0.000000  -0.000000  -0.000001   0.000018
    10  C   -0.022168  -0.000000  -0.000000  -0.000000   0.000018  -0.000220
    11  C   -0.072456  -0.000008   0.000004  -0.000008   0.001352   0.004283
    12  C    0.342732  -0.000090   0.000031  -0.000090   0.002752   0.000903
    13  C    5.256563  -0.000010   0.000004  -0.000010  -0.000174   0.000012
    14  H   -0.000010   0.602566  -0.032261  -0.049989   0.001838   0.000003
    15  H    0.000004  -0.032261   0.540308  -0.032261  -0.000078  -0.000000
    16  H   -0.000010  -0.049989  -0.032261   0.602566   0.001838   0.000003
    17  H   -0.000174   0.001838  -0.000078   0.001838   0.590369  -0.005005
    18  H    0.000012   0.000003  -0.000000   0.000003  -0.005005   0.598193
    19  H    0.000002   0.000000  -0.000000   0.000000  -0.000011   0.006707
    20  H    0.000000   0.000000  -0.000000   0.000000  -0.000000  -0.000012
    21  H   -0.000007  -0.000000  -0.000000  -0.000000  -0.000000  -0.000000
    22  H    0.008859   0.000000  -0.000000   0.000000   0.000000   0.000002
    23  H    0.367770   0.000038  -0.000018   0.000038  -0.000006   0.000000
    24  H    0.358518  -0.000001  -0.000001   0.000001   0.000003   0.000000
    25  H    0.358518   0.000001  -0.000001  -0.000001   0.000003   0.000000
             19         20         21         22         23         24
     1  C    0.000000  -0.000000   0.000000   0.000000  -0.000465  -0.000006
     2  O   -0.000000   0.000000  -0.000000  -0.000001   0.014120   0.000495
     3  C   -0.000003  -0.000000   0.000003   0.000003  -0.005026   0.000382
     4  C    0.000284   0.000004  -0.000001  -0.000001   0.000572  -0.000188
     5  C   -0.008777  -0.000200   0.000009  -0.000174  -0.000043   0.000047
     6  C   -0.042580   0.002584   0.001015   0.005097  -0.000077  -0.000187
     7  C    0.353660  -0.037069   0.004378   0.000493   0.000003  -0.000010
     8  C   -0.046206   0.356489  -0.042231   0.004679  -0.000000   0.000001
     9  C    0.004740  -0.041166   0.356493  -0.048352  -0.000001   0.000065
    10  C    0.000444   0.004158  -0.037561   0.352765   0.000336   0.002197
    11  C    0.004333   0.001064   0.002908  -0.033163   0.002153  -0.002868
    12  C   -0.000153   0.000016  -0.000189  -0.016928  -0.028614  -0.025330
    13  C    0.000002   0.000000  -0.000007   0.008859   0.367770   0.358518
    14  H    0.000000   0.000000  -0.000000   0.000000   0.000038  -0.000001
    15  H   -0.000000  -0.000000  -0.000000  -0.000000  -0.000018  -0.000001
    16  H    0.000000   0.000000  -0.000000   0.000000   0.000038   0.000001
    17  H   -0.000011  -0.000000  -0.000000   0.000000  -0.000006   0.000003
    18  H    0.006707  -0.000012  -0.000000   0.000002   0.000000   0.000000
    19  H    0.607730  -0.005454  -0.000194   0.000019  -0.000000  -0.000000
    20  H   -0.005454   0.599153  -0.004832  -0.000190  -0.000000   0.000000
    21  H   -0.000194  -0.004832   0.600204  -0.005667  -0.000000  -0.000001
    22  H    0.000019  -0.000190  -0.005667   0.601578  -0.000068   0.001805
    23  H   -0.000000  -0.000000  -0.000000  -0.000068   0.520306  -0.025752
    24  H   -0.000000   0.000000  -0.000001   0.001805  -0.025752   0.570282
    25  H   -0.000000   0.000000  -0.000001   0.001805  -0.025752  -0.037370
             25
     1  C   -0.000006
     2  O    0.000495
     3  C    0.000382
     4  C   -0.000188
     5  C    0.000047
     6  C   -0.000187
     7  C   -0.000010
     8  C    0.000001
     9  C    0.000065
    10  C    0.002197
    11  C   -0.002867
    12  C   -0.025330
    13  C    0.358518
    14  H    0.000001
    15  H   -0.000001
    16  H   -0.000001
    17  H    0.000003
    18  H    0.000000
    19  H   -0.000000
    20  H    0.000000
    21  H   -0.000001
    22  H    0.001805
    23  H   -0.025752
    24  H   -0.037370
    25  H    0.570282
 Mulliken atomic charges:
              1
     1  C   -0.212486
     2  O   -0.516711
     3  C    0.311390
     4  C   -0.187038
     5  C   -0.210215
     6  C    0.148571
     7  C   -0.193464
     8  C   -0.139034
     9  C   -0.131985
    10  C   -0.200809
    11  C    0.072584
    12  C    0.065229
    13  C   -0.537474
    14  H    0.151390
    15  H    0.168674
    16  H    0.151390
    17  H    0.131033
    18  H    0.128611
    19  H    0.125460
    20  H    0.125457
    21  H    0.125672
    22  H    0.127439
    23  H    0.180485
    24  H    0.157916
    25  H    0.157917
 Sum of Mulliken atomic charges =  -0.00000
 Mulliken charges with hydrogens summed into heavy atoms:
              1
     1  C    0.258967
     2  O   -0.516711
     3  C    0.311390
     4  C   -0.056005
     5  C   -0.081605
     6  C    0.148571
     7  C   -0.068004
     8  C   -0.013576
     9  C   -0.006313
    10  C   -0.073371
    11  C    0.072584
    12  C    0.065229
    13  C   -0.041156
 Sum of Mulliken charges with hydrogens summed into heavy atoms =  -0.00000
 Electronic spatial extent (au):  <R**2>=           2551.9347
 Charge=             -0.0000 electrons
 Dipole moment (field-independent basis, Debye):
    X=              1.2216    Y=             -0.9069    Z=             -0.0000  Tot=              1.5215
 Quadrupole moment (field-independent basis, Debye-Ang):
   XX=            -64.0061   YY=            -69.6629   ZZ=            -79.8487
   XY=             -3.7467   XZ=             -0.0000   YZ=              0.0000
 Traceless Quadrupole moment (field-independent basis, Debye-Ang):
   XX=              7.1664   YY=              1.5097   ZZ=             -8.6762
   XY=             -3.7467   XZ=             -0.0000   YZ=              0.0000
 Octapole moment (field-independent basis, Debye-Ang**2):
  XXX=             38.6449  YYY=             -2.8833  ZZZ=              0.0000  XYY=              0.2899
  XXY=            -12.0636  XXZ=             -0.0000  XZZ=             11.6441  YZZ=              2.8030
  YYZ=              0.0000  XYZ=             -0.0000
 Hexadecapole moment (field-independent basis, Debye-Ang**3):
 XXXX=          -2148.6093 YYYY=           -834.7575 ZZZZ=            -94.4890 XXXY=            -34.1760
 XXXZ=             -0.0001 YYYX=              1.6339 YYYZ=              0.0000 ZZZX=              0.0000
 ZZZY=              0.0000 XXYY=           -529.0518 XXZZ=           -450.9797 YYZZ=           -168.4121
 XXYZ=             -0.0000 YYXZ=              0.0000 ZZXY=             -0.3491
 N-N= 7.419867553031D+02 E-N=-2.736404050242D+03  KE= 5.345603925757D+02
 No NMR shielding tensors so no spin-rotation constants.
 Leave Link  601 at Fri Sep  3 00:33:25 2021, MaxMem=  268435456 cpu:       0.4
 (Enter /sw/target/amd/app/gaussian/Gaussian09RevA.02_gcc-4.9.2/g09/l9999.exe)
 1\1\GINC-HERMITE\FOpt\RB3LYP\6-31G(d)\C12H12O1\JSCHLEINITZ\03-Sep-2021
 \0\\#p b3lyp 6-31G* opt scf(xqc,tight)\\opt calculation\\0,1\C,-3.6988
 601068,1.1242158306,-0.3743815839\O,-2.7699591363,0.0547042195,-0.3842
 195661\C,-1.430053999,0.3315145684,-0.280545443\C,-0.9399218105,1.6581
 037442,-0.1632468724\C,0.4112018857,1.8906036331,-0.0617249912\C,1.337
 981065,0.8205473604,-0.0717348026\C,2.7371049048,1.0430260758,0.032209
 8577\C,3.6253270396,-0.0071189776,0.0210228756\C,3.1413806371,-1.33253
 56084,-0.0958035748\C,1.7909602166,-1.5816392086,-0.1983564169\C,0.839
 7412241,-0.5203177821,-0.1904769655\C,-0.5643940404,-0.7586868268,-0.2
 957718524\C,-1.1032290336,-2.1641070388,-0.4212940825\H,-3.5427669843,
 1.8091197583,-1.2185798654\H,-4.6839062087,0.6622837292,-0.4673397067\
 H,-3.6568221878,1.693664679,0.5637495401\H,-1.627973831,2.4952656754,-
 0.1530467741\H,0.7807253691,2.9093676137,0.0279151738\H,3.0936137406,2
 .0670078279,0.1213551296\H,4.6934968127,0.1751048564,0.1011814664\H,3.
 8444761466,-2.1615004011,-0.1045093775\H,1.4435509284,-2.6056463196,-0
 .2869205977\H,-2.1909865964,-2.158962896,-0.4905754183\H,-0.7090964258
 ,-2.6650749984,-1.3146934052\H,-0.8215908121,-2.7789367194,0.443076415
 \\Version=AM64L-G09RevA.02\State=1-A\HF=-539.7296709\RMSD=9.268e-09\RM
 SF=1.484e-05\Dipole=-0.4209265,0.4256025,0.0006336\Quadrupole=4.364878
 7,2.0332218,-6.3981005,-3.3144174,0.4774009,0.3374631\PG=C01 [X(C12H12
 O1)]\\@


 REPARTEE - WHAT YOU THINK OF AFTER YOU BECOME A DEPARTEE.
 Job cpu time:  0 days  0 hours 26 minutes 34.7 seconds.
 File lengths (MBytes):  RWF=     34 Int=      0 D2E=      0 Chk=      4 Scr=      1
 Normal termination of Gaussian 09 at Fri Sep  3 00:33:26 2021.
