 Entering Gaussian System, Link 0=g09
 Input=mol_inp008.com
 Output=mol_inp008.log
 Initial command:
 /sw/target/amd/app/gaussian/Gaussian09RevA.02_gcc-4.9.2/g09/l1.exe /home/jschleinitz/optim_react/008/Gau-2803704.inp -scrdir=/home/jschleinitz/optim_react/008/
 Entering Link 1 = /sw/target/amd/app/gaussian/Gaussian09RevA.02_gcc-4.9.2/g09/l1.exe PID=   2803706.
  
 Copyright (c) 1988,1990,1992,1993,1995,1998,2003,2009, Gaussian, Inc.
                  All Rights Reserved.
  
 This is part of the Gaussian(R) 09 program.  It is based on
 the Gaussian(R) 03 system (copyright 2003, Gaussian, Inc.),
 the Gaussian(R) 98 system (copyright 1998, Gaussian, Inc.),
 the Gaussian(R) 94 system (copyright 1995, Gaussian, Inc.),
 the Gaussian 92(TM) system (copyright 1992, Gaussian, Inc.),
 the Gaussian 90(TM) system (copyright 1990, Gaussian, Inc.),
 the Gaussian 88(TM) system (copyright 1988, Gaussian, Inc.),
 the Gaussian 86(TM) system (copyright 1986, Carnegie Mellon
 University), and the Gaussian 82(TM) system (copyright 1983,
 Carnegie Mellon University). Gaussian is a federally registered
 trademark of Gaussian, Inc.
  
 This software contains proprietary and confidential information,
 including trade secrets, belonging to Gaussian, Inc.
  
 This software is provided under written license and may be
 used, copied, transmitted, or stored only in accord with that
 written license.
  
 The following legend is applicable only to US Government
 contracts under FAR:
  
                    RESTRICTED RIGHTS LEGEND
  
 Use, reproduction and disclosure by the US Government is
 subject to restrictions as set forth in subparagraphs (a)
 and (c) of the Commercial Computer Software - Restricted
 Rights clause in FAR 52.227-19.
  
 Gaussian, Inc.
 340 Quinnipiac St., Bldg. 40, Wallingford CT 06492
  
  
 ---------------------------------------------------------------
 Warning -- This program may not be used in any manner that
 competes with the business of Gaussian, Inc. or will provide
 assistance to any competitor of Gaussian, Inc.  The licensee
 of this program is prohibited from giving any competitor of
 Gaussian, Inc. access to this program.  By using this program,
 the user acknowledges that Gaussian, Inc. is engaged in the
 business of creating and licensing software in the field of
 computational chemistry and represents and warrants to the
 licensee that it is not a competitor of Gaussian, Inc. and that
 it will not use this program in any manner prohibited above.
 ---------------------------------------------------------------
  

 Cite this work as:
 Gaussian 09, Revision A.02,
 M. J. Frisch, G. W. Trucks, H. B. Schlegel, G. E. Scuseria, 
 M. A. Robb, J. R. Cheeseman, G. Scalmani, V. Barone, B. Mennucci, 
 G. A. Petersson, H. Nakatsuji, M. Caricato, X. Li, H. P. Hratchian, 
 A. F. Izmaylov, J. Bloino, G. Zheng, J. L. Sonnenberg, M. Hada, 
 M. Ehara, K. Toyota, R. Fukuda, J. Hasegawa, M. Ishida, T. Nakajima, 
 Y. Honda, O. Kitao, H. Nakai, T. Vreven, J. A. Montgomery, Jr., 
 J. E. Peralta, F. Ogliaro, M. Bearpark, J. J. Heyd, E. Brothers, 
 K. N. Kudin, V. N. Staroverov, R. Kobayashi, J. Normand, 
 K. Raghavachari, A. Rendell, J. C. Burant, S. S. Iyengar, J. Tomasi, 
 M. Cossi, N. Rega, J. M. Millam, M. Klene, J. E. Knox, J. B. Cross, 
 V. Bakken, C. Adamo, J. Jaramillo, R. Gomperts, R. E. Stratmann, 
 O. Yazyev, A. J. Austin, R. Cammi, C. Pomelli, J. W. Ochterski, 
 R. L. Martin, K. Morokuma, V. G. Zakrzewski, G. A. Voth, 
 P. Salvador, J. J. Dannenberg, S. Dapprich, A. D. Daniels, 
 O. Farkas, J. B. Foresman, J. V. Ortiz, J. Cioslowski, 
 and D. J. Fox, Gaussian, Inc., Wallingford CT, 2009.
 
 ******************************************
 Gaussian 09:  AM64L-G09RevA.02 11-Jun-2009
                 3-Sep-2021 
 ******************************************
 %chk=opt.chk
 %mem=2gb
 %nproc=1
 Will use up to    1 processors via shared memory.
 ----------------------------------
 #p b3lyp 6-31G* opt scf(xqc,tight)
 ----------------------------------
 1/14=-1,18=20,19=15,26=3,38=1/1,3;
 2/9=110,12=2,17=6,18=5,40=1/2;
 3/5=1,6=6,7=1,11=2,16=1,25=1,30=1,71=1,74=-5/1,2,3;
 4//1;
 5/5=2,8=3,13=1,32=2,38=5/2,8;
 6/7=2,8=2,9=2,10=2,28=1/1;
 7//1,2,3,16;
 1/14=-1,18=20,19=15/3(2);
 2/9=110/2;
 99//99;
 2/9=110/2;
 3/5=1,6=6,7=1,11=2,16=1,25=1,30=1,71=1,74=-5/1,2,3;
 4/5=5,16=3/1;
 5/5=2,8=3,13=1,32=2,38=5/2,8;
 7//1,2,3,16;
 1/14=-1,18=20,19=15/3(-5);
 2/9=110/2;
 6/7=2,8=2,9=2,10=2,19=2,28=1/1;
 99/9=1/99;
 Leave Link    1 at Fri Sep  3 00:03:41 2021, MaxMem=  268435456 cpu:       0.0
 (Enter /sw/target/amd/app/gaussian/Gaussian09RevA.02_gcc-4.9.2/g09/l101.exe)
 ---------------
 opt calculation
 ---------------
 Symbolic Z-matrix:
 Charge =  0 Multiplicity = 1
 C                     4.92203   0.40082  -0.77121 
 O                     3.95411  -0.56581  -1.15898 
 C                     2.6994   -0.42584  -0.63311 
 C                     2.28501   0.56707   0.25086 
 C                     0.96311   0.58934   0.71127 
 C                     0.02729  -0.37848   0.30306 
 C                    -1.40252  -0.29278   0.84614 
 C                    -2.2229   -1.58541   0.68463 
 N                    -2.07824   0.93196   0.35819 
 C                    -3.23905   1.29479   1.16743 
 C                    -2.43294   0.89092  -1.05917 
 C                     0.45716  -1.36634  -0.59284 
 C                     1.77919  -1.38806  -1.05101 
 H                     5.10406   0.36658   0.30806 
 H                     4.62747   1.40565  -1.09168 
 H                     5.8616    0.15347  -1.27471 
 H                     2.95748   1.34244   0.6006 
 H                     0.6535    1.38149   1.39131 
 H                    -1.2647   -0.17757   1.93205 
 H                    -3.18181  -1.51811   1.2083 
 H                    -2.43069  -1.82291  -0.36367 
 H                    -1.68574  -2.43851   1.11565 
 H                    -2.96945   1.3688    2.22674 
 H                    -3.61204   2.28295   0.8747 
 H                    -4.06396   0.58157   1.06791 
 H                    -2.8031    1.87077  -1.38268 
 H                    -1.56372   0.67376  -1.68807 
 H                    -3.21242   0.15302  -1.27697 
 H                    -0.2212   -2.13199  -0.95731 
 H                     2.0931   -2.1636   -1.74547 
 
 NAtoms=     30 NQM=     30 NQMF=      0 NMic=      0 NMicF=      0 NTot=     30.
                    Isotopes and Nuclear Properties:
 (Nuclear quadrupole moments (NQMom) in fm**2, nuclear magnetic moments (NMagM)
  in nuclear magnetons)

  Atom         1           2           3           4           5           6           7           8           9          10
 IAtWgt=          12          16          12          12          12          12          12          12          14          12
 AtmWgt=  12.0000000  15.9949146  12.0000000  12.0000000  12.0000000  12.0000000  12.0000000  12.0000000  14.0030740  12.0000000
 NucSpn=           0           0           0           0           0           0           0           0           2           0
 AtZEff=   0.0000000   0.0000000   0.0000000   0.0000000   0.0000000   0.0000000   0.0000000   0.0000000   0.0000000   0.0000000
 NQMom=    0.0000000   0.0000000   0.0000000   0.0000000   0.0000000   0.0000000   0.0000000   0.0000000   2.0440000   0.0000000
 NMagM=    0.0000000   0.0000000   0.0000000   0.0000000   0.0000000   0.0000000   0.0000000   0.0000000   0.4037610   0.0000000

  Atom        11          12          13          14          15          16          17          18          19          20
 IAtWgt=          12          12          12           1           1           1           1           1           1           1
 AtmWgt=  12.0000000  12.0000000  12.0000000   1.0078250   1.0078250   1.0078250   1.0078250   1.0078250   1.0078250   1.0078250
 NucSpn=           0           0           0           1           1           1           1           1           1           1
 AtZEff=   0.0000000   0.0000000   0.0000000   0.0000000   0.0000000   0.0000000   0.0000000   0.0000000   0.0000000   0.0000000
 NQMom=    0.0000000   0.0000000   0.0000000   0.0000000   0.0000000   0.0000000   0.0000000   0.0000000   0.0000000   0.0000000
 NMagM=    0.0000000   0.0000000   0.0000000   2.7928460   2.7928460   2.7928460   2.7928460   2.7928460   2.7928460   2.7928460

  Atom        21          22          23          24          25          26          27          28          29          30
 IAtWgt=           1           1           1           1           1           1           1           1           1           1
 AtmWgt=   1.0078250   1.0078250   1.0078250   1.0078250   1.0078250   1.0078250   1.0078250   1.0078250   1.0078250   1.0078250
 NucSpn=           1           1           1           1           1           1           1           1           1           1
 AtZEff=   0.0000000   0.0000000   0.0000000   0.0000000   0.0000000   0.0000000   0.0000000   0.0000000   0.0000000   0.0000000
 NQMom=    0.0000000   0.0000000   0.0000000   0.0000000   0.0000000   0.0000000   0.0000000   0.0000000   0.0000000   0.0000000
 NMagM=    2.7928460   2.7928460   2.7928460   2.7928460   2.7928460   2.7928460   2.7928460   2.7928460   2.7928460   2.7928460
 Leave Link  101 at Fri Sep  3 00:03:41 2021, MaxMem=  268435456 cpu:       0.1
 (Enter /sw/target/amd/app/gaussian/Gaussian09RevA.02_gcc-4.9.2/g09/l103.exe)

 GradGradGradGradGradGradGradGradGradGradGradGradGradGradGradGradGradGrad
 Berny optimization.
 Initialization pass.
                           ----------------------------
                           !    Initial Parameters    !
                           ! (Angstroms and Degrees)  !
 --------------------------                            --------------------------
 ! Name  Definition              Value          Derivative Info.                !
 --------------------------------------------------------------------------------
 ! R1    R(1,2)                  1.4218         estimate D2E/DX2                !
 ! R2    R(1,14)                 1.095          estimate D2E/DX2                !
 ! R3    R(1,15)                 1.0951         estimate D2E/DX2                !
 ! R4    R(1,16)                 1.0943         estimate D2E/DX2                !
 ! R5    R(2,3)                  1.3676         estimate D2E/DX2                !
 ! R6    R(3,4)                  1.3925         estimate D2E/DX2                !
 ! R7    R(3,13)                 1.3955         estimate D2E/DX2                !
 ! R8    R(4,5)                  1.4            estimate D2E/DX2                !
 ! R9    R(4,17)                 1.0843         estimate D2E/DX2                !
 ! R10   R(5,6)                  1.4068         estimate D2E/DX2                !
 ! R11   R(5,18)                 1.089          estimate D2E/DX2                !
 ! R12   R(6,7)                  1.5319         estimate D2E/DX2                !
 ! R13   R(6,12)                 1.4012         estimate D2E/DX2                !
 ! R14   R(7,8)                  1.5395         estimate D2E/DX2                !
 ! R15   R(7,9)                  1.4814         estimate D2E/DX2                !
 ! R16   R(7,19)                 1.1007         estimate D2E/DX2                !
 ! R17   R(8,20)                 1.0947         estimate D2E/DX2                !
 ! R18   R(8,21)                 1.0948         estimate D2E/DX2                !
 ! R19   R(8,22)                 1.0964         estimate D2E/DX2                !
 ! R20   R(9,10)                 1.4608         estimate D2E/DX2                !
 ! R21   R(9,11)                 1.4616         estimate D2E/DX2                !
 ! R22   R(10,23)                1.0956         estimate D2E/DX2                !
 ! R23   R(10,24)                1.096          estimate D2E/DX2                !
 ! R24   R(10,25)                1.095          estimate D2E/DX2                !
 ! R25   R(11,26)                1.0963         estimate D2E/DX2                !
 ! R26   R(11,27)                1.0946         estimate D2E/DX2                !
 ! R27   R(11,28)                1.0952         estimate D2E/DX2                !
 ! R28   R(12,13)                1.3993         estimate D2E/DX2                !
 ! R29   R(12,29)                1.0859         estimate D2E/DX2                !
 ! R30   R(13,30)                1.0873         estimate D2E/DX2                !
 ! A1    A(2,1,14)             111.1433         estimate D2E/DX2                !
 ! A2    A(2,1,15)             111.1554         estimate D2E/DX2                !
 ! A3    A(2,1,16)             107.7785         estimate D2E/DX2                !
 ! A4    A(14,1,15)            111.2135         estimate D2E/DX2                !
 ! A5    A(14,1,16)            107.6796         estimate D2E/DX2                !
 ! A6    A(15,1,16)            107.681          estimate D2E/DX2                !
 ! A7    A(1,2,3)              116.75           estimate D2E/DX2                !
 ! A8    A(2,3,4)              126.1639         estimate D2E/DX2                !
 ! A9    A(2,3,13)             114.7881         estimate D2E/DX2                !
 ! A10   A(4,3,13)             119.0478         estimate D2E/DX2                !
 ! A11   A(3,4,5)              120.0743         estimate D2E/DX2                !
 ! A12   A(3,4,17)             122.011          estimate D2E/DX2                !
 ! A13   A(5,4,17)             117.914          estimate D2E/DX2                !
 ! A14   A(4,5,6)              121.4496         estimate D2E/DX2                !
 ! A15   A(4,5,18)             119.0398         estimate D2E/DX2                !
 ! A16   A(6,5,18)             119.5069         estimate D2E/DX2                !
 ! A17   A(5,6,7)              118.6551         estimate D2E/DX2                !
 ! A18   A(5,6,12)             117.8058         estimate D2E/DX2                !
 ! A19   A(7,6,12)             123.5368         estimate D2E/DX2                !
 ! A20   A(6,7,8)              114.4074         estimate D2E/DX2                !
 ! A21   A(6,7,9)              110.8072         estimate D2E/DX2                !
 ! A22   A(6,7,19)             103.8129         estimate D2E/DX2                !
 ! A23   A(8,7,9)              114.616          estimate D2E/DX2                !
 ! A24   A(8,7,19)             104.958          estimate D2E/DX2                !
 ! A25   A(9,7,19)             107.1896         estimate D2E/DX2                !
 ! A26   A(7,8,20)             111.4081         estimate D2E/DX2                !
 ! A27   A(7,8,21)             112.5665         estimate D2E/DX2                !
 ! A28   A(7,8,22)             110.5489         estimate D2E/DX2                !
 ! A29   A(20,8,21)            107.7669         estimate D2E/DX2                !
 ! A30   A(20,8,22)            106.7951         estimate D2E/DX2                !
 ! A31   A(21,8,22)            107.4952         estimate D2E/DX2                !
 ! A32   A(7,9,10)             112.6642         estimate D2E/DX2                !
 ! A33   A(7,9,11)             114.0085         estimate D2E/DX2                !
 ! A34   A(10,9,11)            110.568          estimate D2E/DX2                !
 ! A35   A(9,10,23)            110.9072         estimate D2E/DX2                !
 ! A36   A(9,10,24)            110.2671         estimate D2E/DX2                !
 ! A37   A(9,10,25)            112.7365         estimate D2E/DX2                !
 ! A38   A(23,10,24)           106.325          estimate D2E/DX2                !
 ! A39   A(23,10,25)           108.4973         estimate D2E/DX2                !
 ! A40   A(24,10,25)           107.8537         estimate D2E/DX2                !
 ! A41   A(9,11,26)            110.0604         estimate D2E/DX2                !
 ! A42   A(9,11,27)            111.7152         estimate D2E/DX2                !
 ! A43   A(9,11,28)            112.6106         estimate D2E/DX2                !
 ! A44   A(26,11,27)           106.016          estimate D2E/DX2                !
 ! A45   A(26,11,28)           107.6501         estimate D2E/DX2                !
 ! A46   A(27,11,28)           108.4951         estimate D2E/DX2                !
 ! A47   A(6,12,13)            120.6725         estimate D2E/DX2                !
 ! A48   A(6,12,29)            121.3348         estimate D2E/DX2                !
 ! A49   A(13,12,29)           117.9917         estimate D2E/DX2                !
 ! A50   A(3,13,12)            120.9475         estimate D2E/DX2                !
 ! A51   A(3,13,30)            119.5188         estimate D2E/DX2                !
 ! A52   A(12,13,30)           119.5333         estimate D2E/DX2                !
 ! D1    D(14,1,2,3)            62.4189         estimate D2E/DX2                !
 ! D2    D(15,1,2,3)           -62.029          estimate D2E/DX2                !
 ! D3    D(16,1,2,3)          -179.8093         estimate D2E/DX2                !
 ! D4    D(1,2,3,4)             -0.447          estimate D2E/DX2                !
 ! D5    D(1,2,3,13)           179.3921         estimate D2E/DX2                !
 ! D6    D(2,3,4,5)           -179.9888         estimate D2E/DX2                !
 ! D7    D(2,3,4,17)             0.3111         estimate D2E/DX2                !
 ! D8    D(13,3,4,5)             0.1782         estimate D2E/DX2                !
 ! D9    D(13,3,4,17)         -179.5218         estimate D2E/DX2                !
 ! D10   D(2,3,13,12)         -179.9626         estimate D2E/DX2                !
 ! D11   D(2,3,13,30)           -0.1906         estimate D2E/DX2                !
 ! D12   D(4,3,13,12)           -0.1111         estimate D2E/DX2                !
 ! D13   D(4,3,13,30)          179.6608         estimate D2E/DX2                !
 ! D14   D(3,4,5,6)              0.1381         estimate D2E/DX2                !
 ! D15   D(3,4,5,18)          -179.156          estimate D2E/DX2                !
 ! D16   D(17,4,5,6)           179.8503         estimate D2E/DX2                !
 ! D17   D(17,4,5,18)            0.5562         estimate D2E/DX2                !
 ! D18   D(4,5,6,7)           -179.9701         estimate D2E/DX2                !
 ! D19   D(4,5,6,12)            -0.51           estimate D2E/DX2                !
 ! D20   D(18,5,6,7)            -0.6792         estimate D2E/DX2                !
 ! D21   D(18,5,6,12)          178.7809         estimate D2E/DX2                !
 ! D22   D(5,6,7,8)           -163.0599         estimate D2E/DX2                !
 ! D23   D(5,6,7,9)             65.5055         estimate D2E/DX2                !
 ! D24   D(5,6,7,19)           -49.2659         estimate D2E/DX2                !
 ! D25   D(12,6,7,8)            17.5131         estimate D2E/DX2                !
 ! D26   D(12,6,7,9)          -113.9215         estimate D2E/DX2                !
 ! D27   D(12,6,7,19)          131.3071         estimate D2E/DX2                !
 ! D28   D(5,6,12,13)            0.5743         estimate D2E/DX2                !
 ! D29   D(5,6,12,29)         -179.0457         estimate D2E/DX2                !
 ! D30   D(7,6,12,13)         -179.9941         estimate D2E/DX2                !
 ! D31   D(7,6,12,29)            0.3858         estimate D2E/DX2                !
 ! D32   D(6,7,8,20)           172.141          estimate D2E/DX2                !
 ! D33   D(6,7,8,21)           -66.6699         estimate D2E/DX2                !
 ! D34   D(6,7,8,22)            53.5588         estimate D2E/DX2                !
 ! D35   D(9,7,8,20)           -58.2913         estimate D2E/DX2                !
 ! D36   D(9,7,8,21)            62.8977         estimate D2E/DX2                !
 ! D37   D(9,7,8,22)          -176.8735         estimate D2E/DX2                !
 ! D38   D(19,7,8,20)           59.0239         estimate D2E/DX2                !
 ! D39   D(19,7,8,21)         -179.787          estimate D2E/DX2                !
 ! D40   D(19,7,8,22)          -59.5583         estimate D2E/DX2                !
 ! D41   D(6,7,9,10)          -160.8966         estimate D2E/DX2                !
 ! D42   D(6,7,9,11)            72.0351         estimate D2E/DX2                !
 ! D43   D(8,7,9,10)            67.7767         estimate D2E/DX2                !
 ! D44   D(8,7,9,11)           -59.2916         estimate D2E/DX2                !
 ! D45   D(19,7,9,10)          -48.2586         estimate D2E/DX2                !
 ! D46   D(19,7,9,11)         -175.3268         estimate D2E/DX2                !
 ! D47   D(7,9,10,23)           53.5312         estimate D2E/DX2                !
 ! D48   D(7,9,10,24)          171.0354         estimate D2E/DX2                !
 ! D49   D(7,9,10,25)          -68.3607         estimate D2E/DX2                !
 ! D50   D(11,9,10,23)        -177.5933         estimate D2E/DX2                !
 ! D51   D(11,9,10,24)         -60.0891         estimate D2E/DX2                !
 ! D52   D(11,9,10,25)          60.5148         estimate D2E/DX2                !
 ! D53   D(7,9,11,26)         -172.428          estimate D2E/DX2                !
 ! D54   D(7,9,11,27)          -54.9382         estimate D2E/DX2                !
 ! D55   D(7,9,11,28)           67.4566         estimate D2E/DX2                !
 ! D56   D(10,9,11,26)          59.4254         estimate D2E/DX2                !
 ! D57   D(10,9,11,27)         176.9152         estimate D2E/DX2                !
 ! D58   D(10,9,11,28)         -60.6901         estimate D2E/DX2                !
 ! D59   D(6,12,13,3)           -0.2752         estimate D2E/DX2                !
 ! D60   D(6,12,13,30)         179.9528         estimate D2E/DX2                !
 ! D61   D(29,12,13,3)         179.3572         estimate D2E/DX2                !
 ! D62   D(29,12,13,30)         -0.4147         estimate D2E/DX2                !
 --------------------------------------------------------------------------------
 Trust Radius=3.00D-01 FncErr=1.00D-07 GrdErr=1.00D-06
 Number of steps in this run= 154 maximum allowed number of steps= 180.
 GradGradGradGradGradGradGradGradGradGradGradGradGradGradGradGradGradGrad

 Leave Link  103 at Fri Sep  3 00:03:41 2021, MaxMem=  268435456 cpu:       0.0
 (Enter /sw/target/amd/app/gaussian/Gaussian09RevA.02_gcc-4.9.2/g09/l202.exe)
                          Input orientation:                          
 ---------------------------------------------------------------------
 Center     Atomic      Atomic             Coordinates (Angstroms)
 Number     Number       Type             X           Y           Z
 ---------------------------------------------------------------------
      1          6           0        4.922032    0.400823   -0.771207
      2          8           0        3.954108   -0.565809   -1.158984
      3          6           0        2.699402   -0.425839   -0.633112
      4          6           0        2.285006    0.567066    0.250857
      5          6           0        0.963107    0.589341    0.711267
      6          6           0        0.027288   -0.378480    0.303064
      7          6           0       -1.402516   -0.292775    0.846136
      8          6           0       -2.222900   -1.585410    0.684634
      9          7           0       -2.078244    0.931958    0.358192
     10          6           0       -3.239053    1.294790    1.167431
     11          6           0       -2.432943    0.890924   -1.059170
     12          6           0        0.457160   -1.366344   -0.592841
     13          6           0        1.779193   -1.388057   -1.051008
     14          1           0        5.104060    0.366581    0.308056
     15          1           0        4.627472    1.405652   -1.091679
     16          1           0        5.861595    0.153469   -1.274710
     17          1           0        2.957478    1.342442    0.600596
     18          1           0        0.653499    1.381492    1.391307
     19          1           0       -1.264701   -0.177567    1.932053
     20          1           0       -3.181814   -1.518113    1.208297
     21          1           0       -2.430694   -1.822910   -0.363668
     22          1           0       -1.685742   -2.438511    1.115651
     23          1           0       -2.969451    1.368797    2.226737
     24          1           0       -3.612044    2.282951    0.874698
     25          1           0       -4.063965    0.581569    1.067905
     26          1           0       -2.803104    1.870772   -1.382680
     27          1           0       -1.563717    0.673757   -1.688073
     28          1           0       -3.212415    0.153021   -1.276974
     29          1           0       -0.221198   -2.131989   -0.957306
     30          1           0        2.093100   -2.163602   -1.745470
 ---------------------------------------------------------------------
                    Distance matrix (angstroms):
                    1          2          3          4          5
     1  C    0.000000
     2  O    1.421839   0.000000
     3  C    2.375400   1.367633   0.000000
     4  C    2.833047   2.461089   1.392475   0.000000
     5  C    4.231590   3.711913   2.419228   1.399961   0.000000
     6  C    5.071478   4.194352   2.831759   2.448280   1.406792
     7  C    6.564814   5.726122   4.362524   3.832950   2.528337
     8  C    7.557423   6.526403   5.225908   5.014233   3.857576
     9  N    7.110662   6.398000   5.064800   4.379797   3.080887
    10  C    8.435686   7.785602   6.439547   5.646673   4.285311
    11  C    7.376908   6.551828   5.315671   4.907148   3.841686
    12  C    4.805182   3.631807   2.431835   2.791222   2.404451
    13  C    3.627095   2.327661   1.395452   2.402750   2.771590
    14  H    1.095041   2.084214   2.701131   2.826753   4.166496
    15  H    1.095057   2.084372   2.698536   2.827150   4.164679
    16  H    1.094293   2.041877   3.278218   3.910295   5.303704
    17  H    2.574483   2.780434   2.171510   1.084317   2.134695
    18  H    4.884522   4.603258   3.398593   2.150751   1.088951
    19  H    6.776269   6.077928   4.728194   3.997664   2.653600
    20  H    8.559969   7.578409   6.258798   5.928810   4.676406
    21  H    7.692441   6.555801   5.323748   5.322354   4.300270
    22  H    7.435370   6.363088   5.132106   5.054523   4.043243
    23  H    8.497067   7.946161   6.598132   5.670643   4.285932
    24  H    8.892798   8.336543   7.031741   6.173219   4.881294
    25  H    9.174047   8.400298   7.046379   6.401344   5.039713
    26  H    7.887482   7.186576   6.009480   5.500632   4.495667
    27  H    6.555919   5.680040   4.527277   4.310859   3.485513
    28  H    8.153921   7.203450   5.974882   5.720781   4.645262
    29  H    5.736077   4.463942   3.397934   3.876289   3.404754
    30  H    3.940599   2.521955   2.150526   3.388023   3.858903
                    6          7          8          9         10
     6  C    0.000000
     7  C    1.531866   0.000000
     8  C    2.581787   1.539486   0.000000
     9  N    2.480635   1.481441   2.542564   0.000000
    10  C    3.770404   2.448767   3.092121   1.460819   0.000000
    11  C    3.085418   2.468423   3.035984   1.461646   2.402223
    12  C    1.401182   2.584879   2.977021   3.551750   4.882846
    13  C    2.433501   3.862910   4.366709   4.716793   6.107531
    14  H    5.131155   6.561998   7.591866   7.204697   8.438461
    15  H    5.127390   6.557479   7.683055   6.877001   8.185236
    16  H    6.067246   7.580530   8.498340   8.143308   9.491494
    17  H    3.411174   4.663022   5.951109   5.058236   6.222585
    18  H    2.161924   2.706950   4.192322   2.954967   3.899949
    19  H    2.088829   1.100673   2.110976   2.090439   2.578866
    20  H    3.523712   2.190551   1.094654   2.818403   2.813782
    21  H    2.927898   2.205014   1.094770   2.869599   3.566197
    22  H    2.799732   2.181064   1.096401   3.476760   4.043883
    23  H    3.966603   2.668739   3.415078   2.115783   1.095578
    24  H    4.544746   3.393699   4.114616   2.108199   1.096028
    25  H    4.271420   2.810155   2.869184   2.137651   1.095020
    26  H    3.988983   3.407375   4.068860   2.106521   2.650448
    27  H    2.757377   2.717054   3.341870   2.125701   3.368432
    28  H    3.643445   2.825255   2.801640   2.137020   2.698048
    29  H    2.173723   2.833835   2.646040   3.816664   5.036345
    30  H    3.413317   4.736639   4.986739   5.604284   6.991232
                   11         12         13         14         15
    11  C    0.000000
    12  C    3.696676   0.000000
    13  C    4.789145   1.399343   0.000000
    14  H    7.677933   5.040667   3.997568   0.000000
    15  H    7.079227   5.032326   3.989882   1.807225   0.000000
    16  H    8.330045   5.655324   4.369479   1.767604   1.767632
    17  H    5.658209   3.874713   3.401731   2.376068   2.378376
    18  H    3.971350   3.394996   3.860374   4.691585   4.685965
    19  H    3.384358   3.279190   4.430489   6.595042   6.809349
    20  H    3.392001   4.063159   5.452794   8.545070   8.650043
    21  H    2.801539   2.932690   4.287736   7.875126   7.795596
    22  H    4.046393   2.942875   4.219436   7.390681   7.714050
    23  H    3.363538   5.212742   6.394801   8.358669   8.290144
    24  H    2.658545   5.659456   6.800741   8.942261   8.516215
    25  H    2.698218   5.195480   6.520101   9.201971   8.993553
    26  H    1.096257   4.661769   5.632710   8.224623   7.450804
    27  H    1.094639   3.073351   3.978942   6.966932   6.262761
    28  H    1.095224   4.030172   5.228970   8.468866   7.941489
    29  H    3.747025   1.085917   2.136300   6.016840   6.003546
    30  H    5.503290   2.154176   1.087329   4.436742   4.426066
                   16         17         18         19         20
    16  H    0.000000
    17  H    3.655725   0.000000
    18  H    5.978290   2.436200   0.000000
    19  H    7.821573   4.680812   2.530329   0.000000
    20  H    9.525899   6.800219   4.811531   2.448716   0.000000
    21  H    8.573105   6.323105   4.781253   3.055655   1.768659
    22  H    8.330335   6.010023   4.487812   2.440421   1.758962
    23  H    9.577292   6.146016   3.718047   2.320399   3.068643
    24  H    9.945073   6.642161   4.390259   3.561203   3.839853
    25  H   10.207245   7.077992   4.795720   3.026370   2.281790
    26  H    8.833900   6.115294   4.458980   4.189252   4.282654
    27  H    7.454987   5.111394   3.859989   3.730881   3.976367
    28  H    9.074010   6.558016   4.855322   3.768386   2.995029
    29  H    6.505723   4.960112   4.315742   3.641024   3.719130
    30  H    4.448819   4.306219   4.947677   5.361281   6.079976
                   21         22         23         24         25
    21  H    0.000000
    22  H    1.767004   0.000000
    23  H    4.145775   4.168695   0.000000
    24  H    4.448284   5.104988   1.754028   0.000000
    25  H    3.240138   3.844360   1.777802   1.770950   0.000000
    26  H    3.849722   5.104907   3.647950   2.433111   3.042562
    27  H    2.956187   4.190700   4.217215   3.654168   3.722251
    28  H    2.312903   3.843361   3.716602   3.053850   2.531254
    29  H    2.308638   2.556559   5.472342   5.860526   5.121693
    30  H    4.742379   4.747761   7.340688   7.693230   7.304827
                   26         27         28         29         30
    26  H    0.000000
    27  H    1.749911   0.000000
    28  H    1.769005   1.777181   0.000000
    29  H    4.782183   3.195088   3.777676   0.000000
    30  H    6.354573   4.628846   5.808160   2.445031   0.000000
 Stoichiometry    C11H17NO
 Framework group  C1[X(C11H17NO)]
 Deg. of freedom    84
 Full point group                 C1      NOp   1
 Largest Abelian subgroup         C1      NOp   1
 Largest concise Abelian subgroup C1      NOp   1
                         Standard orientation:                         
 ---------------------------------------------------------------------
 Center     Atomic      Atomic             Coordinates (Angstroms)
 Number     Number       Type             X           Y           Z
 ---------------------------------------------------------------------
      1          6           0        4.572649   -0.835725    0.058187
      2          8           0        3.771411    0.310517    0.314650
      3          6           0        2.433025    0.196037    0.057673
      4          6           0        1.785147   -0.932272   -0.438473
      5          6           0        0.402251   -0.908751   -0.655114
      6          6           0       -0.363606    0.239928   -0.384811
      7          6           0       -1.872567    0.194693   -0.644816
      8          6           0       -2.547420    1.576515   -0.716644
      9          7           0       -2.534689   -0.768856    0.265038
     10          6           0       -3.851544   -1.181705   -0.213960
     11          6           0       -2.611105   -0.319365    1.653753
     12          6           0        0.301297    1.364573    0.121537
     13          6           0        1.683858    1.339918    0.336187
     14          1           0        4.549576   -1.104339   -1.003146
     15          1           0        4.268728   -1.679103    0.687071
     16          1           0        5.606391   -0.585089    0.315166
     17          1           0        2.318781   -1.848835   -0.664065
     18          1           0       -0.089310   -1.805020   -1.030460
     19          1           0       -1.951498   -0.213344   -1.664011
     20          1           0       -3.590286    1.495574   -1.039364
     21          1           0       -2.534852    2.100669    0.244411
     22          1           0       -2.038347    2.215901   -1.447484
     23          1           0       -3.793300   -1.559726   -1.240605
     24          1           0       -4.236234   -2.006562    0.396698
     25          1           0       -4.586400   -0.370449   -0.183631
     26          1           0       -2.986580   -1.128656    2.290814
     27          1           0       -1.624824   -0.056532    2.049232
     28          1           0       -3.277260    0.540467    1.781981
     29          1           0       -0.236054    2.276348    0.364720
     30          1           0        2.181096    2.223471    0.729092
 ---------------------------------------------------------------------
 Rotational constants (GHZ):      1.9803883      0.3709024      0.3477367
 Leave Link  202 at Fri Sep  3 00:03:41 2021, MaxMem=  268435456 cpu:       0.0
 (Enter /sw/target/amd/app/gaussian/Gaussian09RevA.02_gcc-4.9.2/g09/l301.exe)
 Standard basis: 6-31G(d) (6D, 7F)
 Ernie: Thresh=  0.10000D-02 Tol=  0.10000D-05 Strict=F.
 There are   229 symmetry adapted basis functions of A   symmetry.
 Integral buffers will be    131072 words long.
 Raffenetti 2 integral format.
 Two-electron integral symmetry is turned on.
   229 basis functions,   432 primitive gaussians,   229 cartesian basis functions
    49 alpha electrons       49 beta electrons
       nuclear repulsion energy       797.0110235882 Hartrees.
 IExCor=  402 DFT=T Ex+Corr=B3LYP ExCW=0 ScaHFX=  0.200000
 ScaDFX=  0.800000  0.720000  1.000000  0.810000 ScalE2=  1.000000  1.000000
 IRadAn=      0 IRanWt=     -1 IRanGd=            0 ICorTp=0
 NAtoms=   30 NActive=   30 NUniq=   30 SFac= 7.50D-01 NAtFMM=   80 NAOKFM=F Big=F
 Leave Link  301 at Fri Sep  3 00:03:41 2021, MaxMem=  268435456 cpu:       0.1
 (Enter /sw/target/amd/app/gaussian/Gaussian09RevA.02_gcc-4.9.2/g09/l302.exe)
 NPDir=0 NMtPBC=     1 NCelOv=     1 NCel=       1 NClECP=     1 NCelD=      1
         NCelK=      1 NCelE2=     1 NClLst=     1 CellRange=     0.0.
 One-electron integrals computed using PRISM.
 NBasis=   229 RedAO= T  NBF=   229
 NBsUse=   229 1.00D-06 NBFU=   229
 Precomputing XC quadrature grid using
 IXCGrd= 2 IRadAn=           0 IRanWt=          -1 IRanGd=           0 AccXCQ= 1.00D-10.
 NRdTot=    1900 NPtTot=      241994 NUsed=      255697 NTot=      255729
 NSgBfM=   228   228   228   228   228 NAtAll=    30    30.
 Leave Link  302 at Fri Sep  3 00:03:42 2021, MaxMem=  268435456 cpu:       1.4
 (Enter /sw/target/amd/app/gaussian/Gaussian09RevA.02_gcc-4.9.2/g09/l303.exe)
 DipDrv:  MaxL=1.
 Leave Link  303 at Fri Sep  3 00:03:42 2021, MaxMem=  268435456 cpu:       0.1
 (Enter /sw/target/amd/app/gaussian/Gaussian09RevA.02_gcc-4.9.2/g09/l401.exe)
 Harris functional with IExCor=  402 diagonalized for initial guess.
 ExpMin= 1.61D-01 ExpMax= 5.48D+03 ExpMxC= 8.25D+02 IAcc=1 IRadAn=         1 AccDes= 0.00D+00
 HarFok:  IExCor=  402 AccDes= 0.00D+00 IRadAn=         1 IDoV= 1
 ScaDFX=  1.000000  1.000000  1.000000  1.000000
 FoFCou: FMM=F IPFlag=           0 FMFlag=      100000 FMFlg1=           0
         NFxFlg=           0 DoJE=T BraDBF=F KetDBF=T FulRan=T
         Omega=  0.000000  0.000000  1.000000  0.000000  0.000000 ICntrl=     500 IOpCl=  0
         NMat0=    1 NMatS0=    1 NMatT0=    0 NMatD0=    1 NMtDS0=    0 NMtDT0=    0
         I1Cent=           4 NGrid=           0.
 Petite list used in FoFCou.
 Harris En= -559.441926291741    
 Initial guess orbital symmetries:
       Occupied  (A) (A) (A) (A) (A) (A) (A) (A) (A) (A) (A) (A)
                 (A) (A) (A) (A) (A) (A) (A) (A) (A) (A) (A) (A)
                 (A) (A) (A) (A) (A) (A) (A) (A) (A) (A) (A) (A)
                 (A) (A) (A) (A) (A) (A) (A) (A) (A) (A) (A) (A)
                 (A)
       Virtual   (A) (A) (A) (A) (A) (A) (A) (A) (A) (A) (A) (A)
                 (A) (A) (A) (A) (A) (A) (A) (A) (A) (A) (A) (A)
                 (A) (A) (A) (A) (A) (A) (A) (A) (A) (A) (A) (A)
                 (A) (A) (A) (A) (A) (A) (A) (A) (A) (A) (A) (A)
                 (A) (A) (A) (A) (A) (A) (A) (A) (A) (A) (A) (A)
                 (A) (A) (A) (A) (A) (A) (A) (A) (A) (A) (A) (A)
                 (A) (A) (A) (A) (A) (A) (A) (A) (A) (A) (A) (A)
                 (A) (A) (A) (A) (A) (A) (A) (A) (A) (A) (A) (A)
                 (A) (A) (A) (A) (A) (A) (A) (A) (A) (A) (A) (A)
                 (A) (A) (A) (A) (A) (A) (A) (A) (A) (A) (A) (A)
                 (A) (A) (A) (A) (A) (A) (A) (A) (A) (A) (A) (A)
                 (A) (A) (A) (A) (A) (A) (A) (A) (A) (A) (A) (A)
                 (A) (A) (A) (A) (A) (A) (A) (A) (A) (A) (A) (A)
                 (A) (A) (A) (A) (A) (A) (A) (A) (A) (A) (A) (A)
                 (A) (A) (A) (A) (A) (A) (A) (A) (A) (A) (A) (A)
 The electronic state of the initial guess is 1-A.
 Leave Link  401 at Fri Sep  3 00:03:49 2021, MaxMem=  268435456 cpu:       6.8
 (Enter /sw/target/amd/app/gaussian/Gaussian09RevA.02_gcc-4.9.2/g09/l502.exe)
 Closed shell SCF:
 Requested convergence on RMS density matrix=1.00D-08 within  64 cycles.
 Requested convergence on MAX density matrix=1.00D-06.
 Requested convergence on             energy=1.00D-06.
 No special actions if energy rises.
 Using DIIS extrapolation, IDIIS=  1040.
 Integral symmetry usage will be decided dynamically.
       255414 words used for storage of precomputed grid.
 IEnd=      421398 IEndB=      421398 NGot=   268435456 MDV=   268070953
 LenX=   268070953 LenY=   268018071
 Fock matrices will be formed incrementally for  20 cycles.
 Integral accuracy reduced to 1.0D-05 until final iterations.

 Cycle   1  Pass 0  IDiag  1:
 FoFCou: FMM=F IPFlag=           0 FMFlag=      100000 FMFlg1=           0
         NFxFlg=           0 DoJE=F BraDBF=F KetDBF=F FulRan=T
         Omega=  0.000000  0.000000  1.000000  0.000000  0.000000 ICntrl=       0 IOpCl=  0
         NMat0=    1 NMatS0=    1 NMatT0=    0 NMatD0=    1 NMtDS0=    0 NMtDT0=    0
         I1Cent=           0 NGrid=           0.
 Symmetry not used in FoFCou.
 E= -558.999286124859    
 DIIS: error= 3.61D-02 at cycle   1 NSaved=   1.
 NSaved= 1 IEnMin= 1 EnMin= -558.999286124859     IErMin= 1 ErrMin= 3.61D-02
 ErrMax= 3.61D-02 EMaxC= 1.00D-01 BMatC= 3.25D-01 BMatP= 3.25D-01
 IDIUse=3 WtCom= 6.39D-01 WtEn= 3.61D-01
 Coeff-Com:  0.100D+01
 Coeff-En:   0.100D+01
 Coeff:      0.100D+01
 Gap=     0.219 Goal=   None    Shift=    0.000
 GapD=    0.219 DampG=1.000 DampE=0.500 DampFc=0.5000 IDamp=-1.
 Damping current iteration by 5.00D-01
 RMSDP=5.88D-03 MaxDP=1.59D-01              OVMax= 1.71D-01

 Cycle   2  Pass 0  IDiag  1:
 RMSU=  2.05D-03    CP:  9.77D-01
 E= -559.164593937714     Delta-E=       -0.165307812855 Rises=F Damp=T
 DIIS: error= 4.90D-03 at cycle   2 NSaved=   2.
 NSaved= 2 IEnMin= 2 EnMin= -559.164593937714     IErMin= 2 ErrMin= 4.90D-03
 ErrMax= 4.90D-03 EMaxC= 1.00D-01 BMatC= 1.61D-02 BMatP= 3.25D-01
 IDIUse=3 WtCom= 9.51D-01 WtEn= 4.90D-02
 Coeff-Com:  0.336D-01 0.966D+00
 Coeff-En:   0.531D-01 0.947D+00
 Coeff:      0.345D-01 0.965D+00
 Gap=     0.231 Goal=   None    Shift=    0.000
 RMSDP=1.43D-03 MaxDP=3.26D-02 DE=-1.65D-01 OVMax= 1.39D-01

 Cycle   3  Pass 0  IDiag  1:
 RMSU=  9.57D-04    CP:  9.72D-01  8.45D-01
 E= -559.344330433845     Delta-E=       -0.179736496132 Rises=F Damp=F
 DIIS: error= 7.74D-03 at cycle   3 NSaved=   3.
 NSaved= 3 IEnMin= 3 EnMin= -559.344330433845     IErMin= 2 ErrMin= 4.90D-03
 ErrMax= 7.74D-03 EMaxC= 1.00D-01 BMatC= 1.00D-02 BMatP= 1.61D-02
 IDIUse=3 WtCom= 9.23D-01 WtEn= 7.74D-02
 Coeff-Com: -0.155D-01 0.428D+00 0.588D+00
 Coeff-En:   0.000D+00 0.000D+00 0.100D+01
 Coeff:     -0.143D-01 0.395D+00 0.620D+00
 Gap=     0.214 Goal=   None    Shift=    0.000
 RMSDP=8.70D-04 MaxDP=2.68D-02 DE=-1.80D-01 OVMax= 7.34D-02

 Cycle   4  Pass 0  IDiag  1:
 RMSU=  4.15D-04    CP:  9.72D-01  9.31D-01  5.62D-01
 E= -559.348973860302     Delta-E=       -0.004643426456 Rises=F Damp=F
 DIIS: error= 6.69D-03 at cycle   4 NSaved=   4.
 NSaved= 4 IEnMin= 4 EnMin= -559.348973860302     IErMin= 2 ErrMin= 4.90D-03
 ErrMax= 6.69D-03 EMaxC= 1.00D-01 BMatC= 5.60D-03 BMatP= 1.00D-02
 IDIUse=3 WtCom= 9.33D-01 WtEn= 6.69D-02
 Coeff-Com: -0.128D-01 0.105D+00 0.425D+00 0.482D+00
 Coeff-En:   0.000D+00 0.000D+00 0.387D+00 0.613D+00
 Coeff:     -0.120D-01 0.979D-01 0.423D+00 0.491D+00
 Gap=     0.204 Goal=   None    Shift=    0.000
 RMSDP=4.03D-04 MaxDP=1.22D-02 DE=-4.64D-03 OVMax= 3.20D-02

 Cycle   5  Pass 0  IDiag  1:
 RMSU=  9.63D-05    CP:  9.72D-01  9.09D-01  7.25D-01  4.85D-01
 E= -559.354825335240     Delta-E=       -0.005851474938 Rises=F Damp=F
 DIIS: error= 9.85D-04 at cycle   5 NSaved=   5.
 NSaved= 5 IEnMin= 5 EnMin= -559.354825335240     IErMin= 5 ErrMin= 9.85D-04
 ErrMax= 9.85D-04 EMaxC= 1.00D-01 BMatC= 1.77D-04 BMatP= 5.60D-03
 IDIUse=3 WtCom= 9.90D-01 WtEn= 9.85D-03
 Coeff-Com: -0.377D-02 0.203D-01 0.168D+00 0.245D+00 0.571D+00
 Coeff-En:   0.000D+00 0.000D+00 0.000D+00 0.000D+00 0.100D+01
 Coeff:     -0.373D-02 0.201D-01 0.166D+00 0.242D+00 0.575D+00
 Gap=     0.206 Goal=   None    Shift=    0.000
 RMSDP=8.09D-05 MaxDP=2.24D-03 DE=-5.85D-03 OVMax= 5.69D-03

 Cycle   6  Pass 0  IDiag  1:
 RMSU=  3.62D-05    CP:  9.72D-01  9.08D-01  7.19D-01  5.33D-01  5.91D-01
 E= -559.354980797583     Delta-E=       -0.000155462343 Rises=F Damp=F
 DIIS: error= 2.68D-04 at cycle   6 NSaved=   6.
 NSaved= 6 IEnMin= 6 EnMin= -559.354980797583     IErMin= 6 ErrMin= 2.68D-04
 ErrMax= 2.68D-04 EMaxC= 1.00D-01 BMatC= 2.44D-05 BMatP= 1.77D-04
 IDIUse=3 WtCom= 9.97D-01 WtEn= 2.68D-03
 Coeff-Com: -0.688D-03 0.674D-03 0.528D-01 0.900D-01 0.333D+00 0.524D+00
 Coeff-En:   0.000D+00 0.000D+00 0.000D+00 0.000D+00 0.787D-01 0.921D+00
 Coeff:     -0.686D-03 0.672D-03 0.526D-01 0.897D-01 0.332D+00 0.525D+00
 Gap=     0.205 Goal=   None    Shift=    0.000
 RMSDP=2.45D-05 MaxDP=9.31D-04 DE=-1.55D-04 OVMax= 1.42D-03

 Cycle   7  Pass 0  IDiag  1:
 RMSU=  7.06D-06    CP:  9.72D-01  9.08D-01  7.23D-01  5.31D-01  6.54D-01
                    CP:  6.07D-01
 E= -559.355002992467     Delta-E=       -0.000022194884 Rises=F Damp=F
 DIIS: error= 3.16D-05 at cycle   7 NSaved=   7.
 NSaved= 7 IEnMin= 7 EnMin= -559.355002992467     IErMin= 7 ErrMin= 3.16D-05
 ErrMax= 3.16D-05 EMaxC= 1.00D-01 BMatC= 6.23D-07 BMatP= 2.44D-05
 IDIUse=1 WtCom= 1.00D+00 WtEn= 0.00D+00
 Coeff-Com: -0.103D-03-0.515D-03 0.168D-01 0.302D-01 0.127D+00 0.241D+00
 Coeff-Com:  0.585D+00
 Coeff:     -0.103D-03-0.515D-03 0.168D-01 0.302D-01 0.127D+00 0.241D+00
 Coeff:      0.585D+00
 Gap=     0.205 Goal=   None    Shift=    0.000
 RMSDP=5.17D-06 MaxDP=1.10D-04 DE=-2.22D-05 OVMax= 2.81D-04

 Initial convergence to 1.0D-05 achieved.  Increase integral accuracy.
 Cycle   8  Pass 1  IDiag  1:
 E= -559.355056198208     Delta-E=       -0.000053205742 Rises=F Damp=F
 DIIS: error= 3.49D-05 at cycle   1 NSaved=   1.
 NSaved= 1 IEnMin= 1 EnMin= -559.355056198208     IErMin= 1 ErrMin= 3.49D-05
 ErrMax= 3.49D-05 EMaxC= 1.00D-01 BMatC= 1.66D-07 BMatP= 1.66D-07
 IDIUse=1 WtCom= 1.00D+00 WtEn= 0.00D+00
 Coeff-Com:  0.100D+01
 Coeff:      0.100D+01
 Gap=     0.205 Goal=   None    Shift=    0.000
 RMSDP=5.17D-06 MaxDP=1.10D-04 DE=-5.32D-05 OVMax= 2.49D-04

 Cycle   9  Pass 1  IDiag  1:
 RMSU=  6.92D-06    CP:  1.00D+00
 E= -559.355056171544     Delta-E=        0.000000026664 Rises=F Damp=F
 DIIS: error= 2.97D-05 at cycle   2 NSaved=   2.
 NSaved= 2 IEnMin= 1 EnMin= -559.355056198208     IErMin= 2 ErrMin= 2.97D-05
 ErrMax= 2.97D-05 EMaxC= 1.00D-01 BMatC= 1.96D-07 BMatP= 1.66D-07
 IDIUse=1 WtCom= 1.00D+00 WtEn= 0.00D+00
 Coeff-Com:  0.525D+00 0.475D+00
 Coeff:      0.525D+00 0.475D+00
 Gap=     0.205 Goal=   None    Shift=    0.000
 RMSDP=2.83D-06 MaxDP=8.99D-05 DE= 2.67D-08 OVMax= 2.40D-04

 Cycle  10  Pass 1  IDiag  1:
 RMSU=  1.93D-06    CP:  1.00D+00  9.25D-01
 E= -559.355056361232     Delta-E=       -0.000000189687 Rises=F Damp=F
 DIIS: error= 1.23D-05 at cycle   3 NSaved=   3.
 NSaved= 3 IEnMin= 3 EnMin= -559.355056361232     IErMin= 3 ErrMin= 1.23D-05
 ErrMax= 1.23D-05 EMaxC= 1.00D-01 BMatC= 2.45D-08 BMatP= 1.66D-07
 IDIUse=1 WtCom= 1.00D+00 WtEn= 0.00D+00
 Coeff-Com:  0.528D-01 0.260D+00 0.687D+00
 Coeff:      0.528D-01 0.260D+00 0.687D+00
 Gap=     0.205 Goal=   None    Shift=    0.000
 RMSDP=9.98D-07 MaxDP=3.26D-05 DE=-1.90D-07 OVMax= 8.21D-05

 Cycle  11  Pass 1  IDiag  1:
 RMSU=  4.13D-07    CP:  1.00D+00  9.56D-01  7.26D-01
 E= -559.355056385431     Delta-E=       -0.000000024199 Rises=F Damp=F
 DIIS: error= 3.60D-06 at cycle   4 NSaved=   4.
 NSaved= 4 IEnMin= 4 EnMin= -559.355056385431     IErMin= 4 ErrMin= 3.60D-06
 ErrMax= 3.60D-06 EMaxC= 1.00D-01 BMatC= 4.23D-09 BMatP= 2.45D-08
 IDIUse=1 WtCom= 1.00D+00 WtEn= 0.00D+00
 Coeff-Com: -0.103D-01 0.120D+00 0.420D+00 0.470D+00
 Coeff:     -0.103D-01 0.120D+00 0.420D+00 0.470D+00
 Gap=     0.205 Goal=   None    Shift=    0.000
 RMSDP=3.03D-07 MaxDP=8.16D-06 DE=-2.42D-08 OVMax= 1.67D-05

 Cycle  12  Pass 1  IDiag  1:
 RMSU=  8.41D-08    CP:  1.00D+00  9.57D-01  7.61D-01  5.54D-01
 E= -559.355056389577     Delta-E=       -0.000000004146 Rises=F Damp=F
 DIIS: error= 5.06D-07 at cycle   5 NSaved=   5.
 NSaved= 5 IEnMin= 5 EnMin= -559.355056389577     IErMin= 5 ErrMin= 5.06D-07
 ErrMax= 5.06D-07 EMaxC= 1.00D-01 BMatC= 6.88D-11 BMatP= 4.23D-09
 IDIUse=1 WtCom= 1.00D+00 WtEn= 0.00D+00
 Coeff-Com: -0.655D-02 0.518D-01 0.190D+00 0.230D+00 0.535D+00
 Coeff:     -0.655D-02 0.518D-01 0.190D+00 0.230D+00 0.535D+00
 Gap=     0.205 Goal=   None    Shift=    0.000
 RMSDP=5.36D-08 MaxDP=1.52D-06 DE=-4.15D-09 OVMax= 3.29D-06

 Cycle  13  Pass 1  IDiag  1:
 RMSU=  3.25D-08    CP:  1.00D+00  9.58D-01  7.61D-01  5.60D-01  7.76D-01
 E= -559.355056389657     Delta-E=       -0.000000000079 Rises=F Damp=F
 DIIS: error= 2.44D-07 at cycle   6 NSaved=   6.
 NSaved= 6 IEnMin= 6 EnMin= -559.355056389657     IErMin= 6 ErrMin= 2.44D-07
 ErrMax= 2.44D-07 EMaxC= 1.00D-01 BMatC= 1.04D-11 BMatP= 6.88D-11
 IDIUse=1 WtCom= 1.00D+00 WtEn= 0.00D+00
 Coeff-Com: -0.231D-02 0.131D-01 0.511D-01 0.656D-01 0.301D+00 0.571D+00
 Coeff:     -0.231D-02 0.131D-01 0.511D-01 0.656D-01 0.301D+00 0.571D+00
 Gap=     0.205 Goal=   None    Shift=    0.000
 RMSDP=2.13D-08 MaxDP=6.13D-07 DE=-7.91D-11 OVMax= 1.67D-06

 Cycle  14  Pass 1  IDiag  1:
 RMSU=  9.41D-09    CP:  1.00D+00  9.58D-01  7.62D-01  5.58D-01  8.46D-01
                    CP:  6.91D-01
 E= -559.355056389670     Delta-E=       -0.000000000014 Rises=F Damp=F
 DIIS: error= 9.59D-08 at cycle   7 NSaved=   7.
 NSaved= 7 IEnMin= 7 EnMin= -559.355056389670     IErMin= 7 ErrMin= 9.59D-08
 ErrMax= 9.59D-08 EMaxC= 1.00D-01 BMatC= 1.44D-12 BMatP= 1.04D-11
 IDIUse=1 WtCom= 1.00D+00 WtEn= 0.00D+00
 Coeff-Com: -0.560D-03 0.154D-02 0.740D-02 0.114D-01 0.113D+00 0.335D+00
 Coeff-Com:  0.533D+00
 Coeff:     -0.560D-03 0.154D-02 0.740D-02 0.114D-01 0.113D+00 0.335D+00
 Coeff:      0.533D+00
 Gap=     0.205 Goal=   None    Shift=    0.000
 RMSDP=7.09D-09 MaxDP=2.60D-07 DE=-1.36D-11 OVMax= 5.26D-07

 SCF Done:  E(RB3LYP) =  -559.355056390     A.U. after   14 cycles
             Convg  =    0.7090D-08             -V/T =  2.0097
 KE= 5.539698727692D+02 PE=-2.892153248086D+03 EE= 9.818172953391D+02
 Leave Link  502 at Fri Sep  3 00:06:45 2021, MaxMem=  268435456 cpu:     175.6
 (Enter /sw/target/amd/app/gaussian/Gaussian09RevA.02_gcc-4.9.2/g09/l508.exe)
 QCSCF skips out because SCF is already converged.
 Leave Link  508 at Fri Sep  3 00:06:45 2021, MaxMem=  268435456 cpu:       0.0
 (Enter /sw/target/amd/app/gaussian/Gaussian09RevA.02_gcc-4.9.2/g09/l601.exe)
 Copying SCF densities to generalized density rwf, IOpCl= 0 IROHF=0.

 **********************************************************************

            Population analysis using the SCF density.

 **********************************************************************

 Orbital symmetries:
       Occupied  (A) (A) (A) (A) (A) (A) (A) (A) (A) (A) (A) (A)
                 (A) (A) (A) (A) (A) (A) (A) (A) (A) (A) (A) (A)
                 (A) (A) (A) (A) (A) (A) (A) (A) (A) (A) (A) (A)
                 (A) (A) (A) (A) (A) (A) (A) (A) (A) (A) (A) (A)
                 (A)
       Virtual   (A) (A) (A) (A) (A) (A) (A) (A) (A) (A) (A) (A)
                 (A) (A) (A) (A) (A) (A) (A) (A) (A) (A) (A) (A)
                 (A) (A) (A) (A) (A) (A) (A) (A) (A) (A) (A) (A)
                 (A) (A) (A) (A) (A) (A) (A) (A) (A) (A) (A) (A)
                 (A) (A) (A) (A) (A) (A) (A) (A) (A) (A) (A) (A)
                 (A) (A) (A) (A) (A) (A) (A) (A) (A) (A) (A) (A)
                 (A) (A) (A) (A) (A) (A) (A) (A) (A) (A) (A) (A)
                 (A) (A) (A) (A) (A) (A) (A) (A) (A) (A) (A) (A)
                 (A) (A) (A) (A) (A) (A) (A) (A) (A) (A) (A) (A)
                 (A) (A) (A) (A) (A) (A) (A) (A) (A) (A) (A) (A)
                 (A) (A) (A) (A) (A) (A) (A) (A) (A) (A) (A) (A)
                 (A) (A) (A) (A) (A) (A) (A) (A) (A) (A) (A) (A)
                 (A) (A) (A) (A) (A) (A) (A) (A) (A) (A) (A) (A)
                 (A) (A) (A) (A) (A) (A) (A) (A) (A) (A) (A) (A)
                 (A) (A) (A) (A) (A) (A) (A) (A) (A) (A) (A) (A)
 The electronic state is 1-A.
 Alpha  occ. eigenvalues --  -19.17260 -14.31751 -10.23877 -10.23685 -10.21249
 Alpha  occ. eigenvalues --  -10.19528 -10.19159 -10.18239 -10.18216 -10.18127
 Alpha  occ. eigenvalues --  -10.18069 -10.17607 -10.17066  -1.05744  -0.91021
 Alpha  occ. eigenvalues --   -0.84182  -0.76913  -0.74114  -0.72437  -0.69639
 Alpha  occ. eigenvalues --   -0.68756  -0.64806  -0.60086  -0.59044  -0.55216
 Alpha  occ. eigenvalues --   -0.52543  -0.47859  -0.47493  -0.46831  -0.46590
 Alpha  occ. eigenvalues --   -0.44779  -0.43989  -0.42364  -0.41598  -0.40930
 Alpha  occ. eigenvalues --   -0.39578  -0.38594  -0.37327  -0.37176  -0.36999
 Alpha  occ. eigenvalues --   -0.35704  -0.35166  -0.33871  -0.32609  -0.31848
 Alpha  occ. eigenvalues --   -0.30581  -0.24244  -0.21180  -0.20016
 Alpha virt. eigenvalues --    0.00447   0.01863   0.08510   0.10064   0.11195
 Alpha virt. eigenvalues --    0.11796   0.13836   0.14342   0.14778   0.15268
 Alpha virt. eigenvalues --    0.15530   0.15806   0.16215   0.17141   0.17752
 Alpha virt. eigenvalues --    0.18059   0.18611   0.19332   0.20210   0.20935
 Alpha virt. eigenvalues --    0.22122   0.23354   0.23963   0.26036   0.27092
 Alpha virt. eigenvalues --    0.27271   0.28346   0.32949   0.34840   0.35760
 Alpha virt. eigenvalues --    0.37721   0.47699   0.50378   0.50592   0.51777
 Alpha virt. eigenvalues --    0.52978   0.53507   0.54001   0.55489   0.55706
 Alpha virt. eigenvalues --    0.56619   0.57155   0.58945   0.60066   0.60120
 Alpha virt. eigenvalues --    0.60901   0.61633   0.63256   0.63674   0.64807
 Alpha virt. eigenvalues --    0.67669   0.69382   0.69782   0.72948   0.73799
 Alpha virt. eigenvalues --    0.75294   0.76972   0.78213   0.80871   0.82087
 Alpha virt. eigenvalues --    0.83009   0.84033   0.84343   0.85430   0.86125
 Alpha virt. eigenvalues --    0.86884   0.87729   0.88400   0.89019   0.89926
 Alpha virt. eigenvalues --    0.90977   0.91022   0.93658   0.94061   0.94793
 Alpha virt. eigenvalues --    0.96225   0.97198   0.97589   0.99071   0.99346
 Alpha virt. eigenvalues --    1.01700   1.02063   1.03285   1.05688   1.06301
 Alpha virt. eigenvalues --    1.08246   1.11157   1.15507   1.17291   1.17967
 Alpha virt. eigenvalues --    1.21483   1.24349   1.27883   1.29772   1.36456
 Alpha virt. eigenvalues --    1.37568   1.38695   1.40008   1.41518   1.45558
 Alpha virt. eigenvalues --    1.45894   1.46337   1.47518   1.51979   1.52870
 Alpha virt. eigenvalues --    1.53890   1.54783   1.64704   1.68070   1.72758
 Alpha virt. eigenvalues --    1.75608   1.78550   1.81489   1.83206   1.83899
 Alpha virt. eigenvalues --    1.87467   1.87963   1.88963   1.91333   1.94753
 Alpha virt. eigenvalues --    1.97884   1.99031   1.99353   2.00225   2.03572
 Alpha virt. eigenvalues --    2.04354   2.06549   2.08647   2.09476   2.10645
 Alpha virt. eigenvalues --    2.11418   2.12590   2.13124   2.15007   2.15968
 Alpha virt. eigenvalues --    2.16685   2.22982   2.24674   2.25809   2.26586
 Alpha virt. eigenvalues --    2.27538   2.29692   2.31992   2.34026   2.36277
 Alpha virt. eigenvalues --    2.37081   2.38809   2.41256   2.49098   2.52571
 Alpha virt. eigenvalues --    2.54494   2.57382   2.59496   2.64391   2.65884
 Alpha virt. eigenvalues --    2.67855   2.71343   2.72887   2.79091   2.79543
 Alpha virt. eigenvalues --    2.81924   2.85747   2.94356   2.98232   3.00972
 Alpha virt. eigenvalues --    3.19374   3.43431   4.02076   4.05990   4.12459
 Alpha virt. eigenvalues --    4.13404   4.23493   4.26048   4.28362   4.32315
 Alpha virt. eigenvalues --    4.34358   4.35644   4.45036   4.59297   4.78151
          Condensed to atoms (all electrons):
              1          2          3          4          5          6
     1  C    4.894440   0.249654  -0.043767  -0.006533   0.000344  -0.000005
     2  O    0.249654   8.203128   0.279466  -0.063040   0.003540   0.000186
     3  C   -0.043767   0.279466   4.505639   0.464411  -0.002114  -0.032653
     4  C   -0.006533  -0.063040   0.464411   5.130696   0.473698  -0.021783
     5  C    0.000344   0.003540  -0.002114   0.473698   4.978891   0.529492
     6  C   -0.000005   0.000186  -0.032653  -0.021783   0.529492   4.709629
     7  C   -0.000000   0.000001   0.000311   0.005971  -0.052084   0.373095
     8  C    0.000000  -0.000000   0.000001  -0.000164   0.006783  -0.044671
     9  N    0.000000  -0.000000   0.000022   0.000152   0.006216  -0.069067
    10  C   -0.000000   0.000000  -0.000000   0.000007   0.000265   0.005016
    11  C   -0.000000  -0.000000   0.000007  -0.000003  -0.000865  -0.006103
    12  C   -0.000133   0.003189  -0.017893  -0.044989  -0.045454   0.541398
    13  C    0.004335  -0.055287   0.547515  -0.065193  -0.042850  -0.023455
    14  H    0.364048  -0.036175  -0.004857   0.005073  -0.000125  -0.000005
    15  H    0.364098  -0.036132  -0.004691   0.004990  -0.000152  -0.000003
    16  H    0.383684  -0.031304   0.003213   0.000171   0.000001   0.000000
    17  H    0.005742  -0.007252  -0.047161   0.351508  -0.037137   0.003484
    18  H   -0.000008  -0.000045   0.003312  -0.043320   0.354658  -0.042742
    19  H   -0.000000  -0.000000   0.000011  -0.000002  -0.011385  -0.034473
    20  H    0.000000  -0.000000   0.000000   0.000002  -0.000084   0.003274
    21  H    0.000000   0.000000  -0.000003   0.000002  -0.000034  -0.006609
    22  H    0.000000   0.000000  -0.000001  -0.000009  -0.000178  -0.000857
    23  H   -0.000000  -0.000000   0.000000  -0.000001  -0.000078   0.000270
    24  H   -0.000000  -0.000000  -0.000000  -0.000000  -0.000036  -0.000076
    25  H    0.000000   0.000000   0.000000   0.000000   0.000042  -0.000315
    26  H    0.000000   0.000000   0.000000  -0.000003  -0.000075   0.000254
    27  H    0.000000   0.000000  -0.000033  -0.000105   0.000075   0.008021
    28  H    0.000000   0.000000  -0.000000   0.000001   0.000211  -0.000726
    29  H    0.000003  -0.000062   0.004447   0.000198   0.006251  -0.042308
    30  H   -0.000183  -0.000276  -0.036876   0.007495   0.000301   0.004034
              7          8          9         10         11         12
     1  C   -0.000000   0.000000   0.000000  -0.000000  -0.000000  -0.000133
     2  O    0.000001  -0.000000  -0.000000   0.000000  -0.000000   0.003189
     3  C    0.000311   0.000001   0.000022  -0.000000   0.000007  -0.017893
     4  C    0.005971  -0.000164   0.000152   0.000007  -0.000003  -0.044989
     5  C   -0.052084   0.006783   0.006216   0.000265  -0.000865  -0.045454
     6  C    0.373095  -0.044671  -0.069067   0.005016  -0.006103   0.541398
     7  C    4.957477   0.323642   0.318463  -0.048411  -0.050159  -0.059231
     8  C    0.323642   5.218666  -0.058443  -0.005664  -0.009213  -0.009862
     9  N    0.318463  -0.058443   6.817547   0.323152   0.321627  -0.001660
    10  C   -0.048411  -0.005664   0.323152   4.991177  -0.063105  -0.000113
    11  C   -0.050159  -0.009213   0.321627  -0.063105   5.000177  -0.000072
    12  C   -0.059231  -0.009862  -0.001660  -0.000113  -0.000072   4.980534
    13  C    0.006481  -0.000112  -0.000058   0.000002  -0.000060   0.503571
    14  H   -0.000000   0.000000  -0.000000   0.000000  -0.000000   0.000000
    15  H    0.000000   0.000000   0.000000  -0.000000   0.000000  -0.000000
    16  H   -0.000000   0.000000   0.000000  -0.000000  -0.000000   0.000003
    17  H   -0.000166   0.000002  -0.000002  -0.000000   0.000000   0.000791
    18  H   -0.009042   0.000377   0.005973  -0.000300   0.000052   0.005948
    19  H    0.371835  -0.063113  -0.046875  -0.007674   0.006838   0.005222
    20  H   -0.027162   0.370531  -0.002703   0.002161  -0.000585   0.000307
    21  H   -0.027159   0.369810  -0.005546  -0.000058   0.003252   0.001437
    22  H   -0.021972   0.359339   0.004371   0.000046   0.000168   0.001386
    23  H   -0.002735  -0.001263  -0.037311   0.377383   0.006209   0.000002
    24  H    0.005045  -0.000211  -0.037854   0.378890  -0.002115   0.000004
    25  H   -0.007580   0.005990  -0.050378   0.350270  -0.008053  -0.000012
    26  H    0.005506  -0.000104  -0.037877  -0.002999   0.379892   0.000019
    27  H   -0.002932  -0.001688  -0.035845   0.006017   0.377551   0.003601
    28  H   -0.008541   0.007207  -0.050605  -0.007693   0.352520  -0.000280
    29  H   -0.012691   0.006272   0.000128  -0.000012  -0.000033   0.355414
    30  H   -0.000151   0.000005   0.000001  -0.000000  -0.000000  -0.040240
             13         14         15         16         17         18
     1  C    0.004335   0.364048   0.364098   0.383684   0.005742  -0.000008
     2  O   -0.055287  -0.036175  -0.036132  -0.031304  -0.007252  -0.000045
     3  C    0.547515  -0.004857  -0.004691   0.003213  -0.047161   0.003312
     4  C   -0.065193   0.005073   0.004990   0.000171   0.351508  -0.043320
     5  C   -0.042850  -0.000125  -0.000152   0.000001  -0.037137   0.354658
     6  C   -0.023455  -0.000005  -0.000003   0.000000   0.003484  -0.042742
     7  C    0.006481  -0.000000   0.000000  -0.000000  -0.000166  -0.009042
     8  C   -0.000112   0.000000   0.000000   0.000000   0.000002   0.000377
     9  N   -0.000058  -0.000000   0.000000   0.000000  -0.000002   0.005973
    10  C    0.000002   0.000000  -0.000000  -0.000000  -0.000000  -0.000300
    11  C   -0.000060  -0.000000   0.000000  -0.000000   0.000000   0.000052
    12  C    0.503571   0.000000  -0.000000   0.000003   0.000791   0.005948
    13  C    5.008615   0.000068   0.000085  -0.000109   0.004507   0.000474
    14  H    0.000068   0.599491  -0.046652  -0.034287   0.001751   0.000003
    15  H    0.000085  -0.046652   0.598578  -0.034140   0.001751   0.000001
    16  H   -0.000109  -0.034287  -0.034140   0.546679  -0.000113  -0.000000
    17  H    0.004507   0.001751   0.001751  -0.000113   0.599295  -0.005652
    18  H    0.000474   0.000003   0.000001  -0.000000  -0.005652   0.595302
    19  H   -0.000192   0.000000  -0.000000  -0.000000  -0.000004   0.003273
    20  H   -0.000001  -0.000000   0.000000  -0.000000  -0.000000  -0.000008
    21  H    0.000032   0.000000  -0.000000   0.000000   0.000000   0.000004
    22  H   -0.000021  -0.000000   0.000000   0.000000   0.000000  -0.000018
    23  H   -0.000000   0.000000  -0.000000  -0.000000  -0.000000  -0.000015
    24  H   -0.000000  -0.000000   0.000000  -0.000000   0.000000  -0.000005
    25  H   -0.000000  -0.000000   0.000000   0.000000  -0.000000   0.000024
    26  H    0.000001   0.000000  -0.000000  -0.000000   0.000000  -0.000015
    27  H    0.000041   0.000000  -0.000000  -0.000000  -0.000000  -0.000083
    28  H   -0.000003  -0.000000   0.000000   0.000000  -0.000000   0.000020
    29  H   -0.045739  -0.000000  -0.000000  -0.000000   0.000017  -0.000177
    30  H    0.343105   0.000030   0.000029  -0.000027  -0.000172   0.000016
             19         20         21         22         23         24
     1  C   -0.000000   0.000000   0.000000   0.000000  -0.000000  -0.000000
     2  O   -0.000000  -0.000000   0.000000   0.000000  -0.000000  -0.000000
     3  C    0.000011   0.000000  -0.000003  -0.000001   0.000000  -0.000000
     4  C   -0.000002   0.000002   0.000002  -0.000009  -0.000001  -0.000000
     5  C   -0.011385  -0.000084  -0.000034  -0.000178  -0.000078  -0.000036
     6  C   -0.034473   0.003274  -0.006609  -0.000857   0.000270  -0.000076
     7  C    0.371835  -0.027162  -0.027159  -0.021972  -0.002735   0.005045
     8  C   -0.063113   0.370531   0.369810   0.359339  -0.001263  -0.000211
     9  N   -0.046875  -0.002703  -0.005546   0.004371  -0.037311  -0.037854
    10  C   -0.007674   0.002161  -0.000058   0.000046   0.377383   0.378890
    11  C    0.006838  -0.000585   0.003252   0.000168   0.006209  -0.002115
    12  C    0.005222   0.000307   0.001437   0.001386   0.000002   0.000004
    13  C   -0.000192  -0.000001   0.000032  -0.000021  -0.000000  -0.000000
    14  H    0.000000  -0.000000   0.000000  -0.000000   0.000000  -0.000000
    15  H   -0.000000   0.000000  -0.000000   0.000000  -0.000000   0.000000
    16  H   -0.000000  -0.000000   0.000000   0.000000  -0.000000  -0.000000
    17  H   -0.000004  -0.000000   0.000000   0.000000  -0.000000   0.000000
    18  H    0.003273  -0.000008   0.000004  -0.000018  -0.000015  -0.000005
    19  H    0.638240  -0.004843   0.005644  -0.002049   0.007604   0.000254
    20  H   -0.004843   0.568723  -0.031909  -0.029352   0.000191  -0.000074
    21  H    0.005644  -0.031909   0.568416  -0.032309   0.000044  -0.000015
    22  H   -0.002049  -0.029352  -0.032309   0.571258   0.000005   0.000005
    23  H    0.007604   0.000191   0.000044   0.000005   0.575021  -0.026959
    24  H    0.000254  -0.000074  -0.000015   0.000005  -0.026959   0.577111
    25  H   -0.001489   0.003149   0.000192  -0.000344  -0.042452  -0.045425
    26  H   -0.000159  -0.000034  -0.000087   0.000002   0.000143   0.005561
    27  H    0.000231   0.000015   0.000550   0.000004  -0.000202   0.000108
    28  H   -0.000375   0.000397   0.001773  -0.000303  -0.000354  -0.001978
    29  H    0.000137  -0.000133   0.002698   0.000723  -0.000000   0.000000
    30  H    0.000003  -0.000000   0.000003  -0.000002  -0.000000   0.000000
             25         26         27         28         29         30
     1  C    0.000000   0.000000   0.000000   0.000000   0.000003  -0.000183
     2  O    0.000000   0.000000   0.000000   0.000000  -0.000062  -0.000276
     3  C    0.000000   0.000000  -0.000033  -0.000000   0.004447  -0.036876
     4  C    0.000000  -0.000003  -0.000105   0.000001   0.000198   0.007495
     5  C    0.000042  -0.000075   0.000075   0.000211   0.006251   0.000301
     6  C   -0.000315   0.000254   0.008021  -0.000726  -0.042308   0.004034
     7  C   -0.007580   0.005506  -0.002932  -0.008541  -0.012691  -0.000151
     8  C    0.005990  -0.000104  -0.001688   0.007207   0.006272   0.000005
     9  N   -0.050378  -0.037877  -0.035845  -0.050605   0.000128   0.000001
    10  C    0.350270  -0.002999   0.006017  -0.007693  -0.000012  -0.000000
    11  C   -0.008053   0.379892   0.377551   0.352520  -0.000033  -0.000000
    12  C   -0.000012   0.000019   0.003601  -0.000280   0.355414  -0.040240
    13  C   -0.000000   0.000001   0.000041  -0.000003  -0.045739   0.343105
    14  H   -0.000000   0.000000   0.000000  -0.000000  -0.000000   0.000030
    15  H    0.000000  -0.000000  -0.000000   0.000000  -0.000000   0.000029
    16  H    0.000000  -0.000000  -0.000000   0.000000  -0.000000  -0.000027
    17  H   -0.000000   0.000000  -0.000000  -0.000000   0.000017  -0.000172
    18  H    0.000024  -0.000015  -0.000083   0.000020  -0.000177   0.000016
    19  H   -0.001489  -0.000159   0.000231  -0.000375   0.000137   0.000003
    20  H    0.003149  -0.000034   0.000015   0.000397  -0.000133  -0.000000
    21  H    0.000192  -0.000087   0.000550   0.001773   0.002698   0.000003
    22  H   -0.000344   0.000002   0.000004  -0.000303   0.000723  -0.000002
    23  H   -0.042452   0.000143  -0.000202  -0.000354  -0.000000  -0.000000
    24  H   -0.045425   0.005561   0.000108  -0.001978   0.000000   0.000000
    25  H    0.661296  -0.001954  -0.000399   0.015138   0.000001   0.000000
    26  H   -0.001954   0.577563  -0.026312  -0.045362   0.000004  -0.000000
    27  H   -0.000399  -0.026312   0.552292  -0.041729   0.000094  -0.000004
    28  H    0.015138  -0.045362  -0.041729   0.659477  -0.000060   0.000000
    29  H    0.000001   0.000004   0.000094  -0.000060   0.605428  -0.006384
    30  H    0.000000  -0.000000  -0.000004   0.000000  -0.006384   0.596506
 Mulliken atomic charges:
              1
     1  C   -0.215719
     2  O   -0.509589
     3  C    0.381695
     4  C   -0.199232
     5  C   -0.168119
     6  C    0.147698
     7  C   -0.037813
     8  C   -0.474115
     9  N   -0.363427
    10  C   -0.298359
    11  C   -0.307930
    12  C   -0.182886
    13  C   -0.185749
    14  H    0.151637
    15  H    0.152238
    16  H    0.166228
    17  H    0.128811
    18  H    0.131995
    19  H    0.133342
    20  H    0.148137
    21  H    0.149870
    22  H    0.150110
    23  H    0.144498
    24  H    0.147770
    25  H    0.122300
    26  H    0.146036
    27  H    0.160734
    28  H    0.121269
    29  H    0.125786
    30  H    0.132785
 Sum of Mulliken atomic charges =  -0.00000
 Mulliken charges with hydrogens summed into heavy atoms:
              1
     1  C    0.254384
     2  O   -0.509589
     3  C    0.381695
     4  C   -0.070421
     5  C   -0.036124
     6  C    0.147698
     7  C    0.095528
     8  C   -0.025999
     9  N   -0.363427
    10  C    0.116209
    11  C    0.120109
    12  C   -0.057100
    13  C   -0.052963
 Sum of Mulliken charges with hydrogens summed into heavy atoms =  -0.00000
 Electronic spatial extent (au):  <R**2>=           3351.9981
 Charge=             -0.0000 electrons
 Dipole moment (field-independent basis, Debye):
    X=              0.0195    Y=             -0.7621    Z=             -0.3740  Tot=              0.8491
 Quadrupole moment (field-independent basis, Debye-Ang):
   XX=            -69.7764   YY=            -77.0709   ZZ=            -79.6142
   XY=             -5.8965   XZ=             -0.4334   YZ=              1.6470
 Traceless Quadrupole moment (field-independent basis, Debye-Ang):
   XX=              5.7108   YY=             -1.5837   ZZ=             -4.1271
   XY=             -5.8965   XZ=             -0.4334   YZ=              1.6470
 Octapole moment (field-independent basis, Debye-Ang**2):
  XXX=             44.8628  YYY=              0.5593  ZZZ=              3.3277  XYY=              8.8586
  XXY=            -30.4944  XXZ=             -3.3596  XZZ=             -2.3669  YZZ=             -3.3609
  YYZ=              1.4747  XYZ=              1.0599
 Hexadecapole moment (field-independent basis, Debye-Ang**3):
 XXXX=          -3237.0476 YYYY=           -582.1525 ZZZZ=           -336.2165 XXXY=            -84.0325
 XXXZ=             -2.8965 YYYX=              9.1859 YYYZ=             10.6985 ZZZX=              2.6480
 ZZZY=             -2.7275 XXYY=           -666.9662 XXZZ=           -640.6597 YYZZ=           -151.4213
 XXYZ=             -2.5142 YYXZ=              2.3716 ZZXY=              5.6851
 N-N= 7.970110235882D+02 E-N=-2.892153255525D+03  KE= 5.539698727692D+02
 No NMR shielding tensors so no spin-rotation constants.
 Leave Link  601 at Fri Sep  3 00:06:45 2021, MaxMem=  268435456 cpu:       0.3
 (Enter /sw/target/amd/app/gaussian/Gaussian09RevA.02_gcc-4.9.2/g09/l701.exe)
 Compute integral first derivatives.
 ... and contract with generalized density number  0.
 Leave Link  701 at Fri Sep  3 00:06:46 2021, MaxMem=  268435456 cpu:       0.3
 (Enter /sw/target/amd/app/gaussian/Gaussian09RevA.02_gcc-4.9.2/g09/l702.exe)
 L702 exits ... SP integral derivatives will be done elsewhere.
 Leave Link  702 at Fri Sep  3 00:06:46 2021, MaxMem=  268435456 cpu:       0.0
 (Enter /sw/target/amd/app/gaussian/Gaussian09RevA.02_gcc-4.9.2/g09/l703.exe)
 Compute integral first derivatives, UseDBF=F ICtDFT=           0.
 Integral derivatives from FoFDir, PRISM(SPDF).
 Calling FoFJK, ICntrl=      2127 FMM=F ISym2X=0 I1Cent= 0 IOpClX= 0 NMat=1 NMatS=1 NMatT=0.
 FoFCou: FMM=F IPFlag=           0 FMFlag=      100000 FMFlg1=         800
         NFxFlg=           0 DoJE=F BraDBF=F KetDBF=F FulRan=T
         Omega=  0.000000  0.000000  1.000000  0.000000  0.000000 ICntrl=    2127 IOpCl=  0
         NMat0=    1 NMatS0=    1 NMatT0=    0 NMatD0=    1 NMtDS0=    0 NMtDT0=    0
         I1Cent=           0 NGrid=           0.
 Symmetry not used in FoFCou.
 Leave Link  703 at Fri Sep  3 00:07:39 2021, MaxMem=  268435456 cpu:      53.6
 (Enter /sw/target/amd/app/gaussian/Gaussian09RevA.02_gcc-4.9.2/g09/l716.exe)
 Dipole        = 7.68527830D-03-2.99826175D-01-1.47146488D-01
 ***** Axes restored to original set *****
 -------------------------------------------------------------------
 Center     Atomic                   Forces (Hartrees/Bohr)
 Number     Number              X              Y              Z
 -------------------------------------------------------------------
      1        6           0.003480005   -0.003115133   -0.003441643
      2        8           0.005216648    0.005524777    0.002429531
      3        6          -0.000158488   -0.007767895   -0.006009021
      4        6          -0.004209550    0.008438666    0.007505047
      5        6          -0.000572099   -0.006370947   -0.004938245
      6        6          -0.002392532    0.004390549   -0.001696338
      7        6           0.003535426   -0.003425511    0.003948999
      8        6           0.001778383   -0.004461555   -0.001691359
      9        7           0.001622311    0.003078053    0.002736190
     10        6           0.004731784    0.003369873   -0.000367417
     11        6           0.003757085    0.003993639    0.000491187
     12        6           0.008848488    0.003079612   -0.000984118
     13        6          -0.010774645   -0.006033892   -0.000890661
     14        1          -0.001508758    0.003062902    0.002049317
     15        1          -0.001252111    0.002386694    0.002934721
     16        1          -0.002823469   -0.003402845   -0.001547532
     17        1           0.001913713   -0.000850506   -0.000904996
     18        1          -0.000172009   -0.001428295   -0.001201121
     19        1          -0.004369909    0.006045342   -0.000711509
     20        1          -0.000143901    0.001715379   -0.000547650
     21        1          -0.000338912   -0.000354269   -0.000146363
     22        1           0.000465362    0.000601106   -0.000399516
     23        1           0.002112605   -0.002475285   -0.000041016
     24        1           0.000678851   -0.000303782   -0.002917950
     25        1          -0.006867888   -0.002716165    0.001168557
     26        1          -0.001036496    0.000663407    0.003111489
     27        1           0.001910260   -0.002412024    0.003474394
     28        1          -0.004673157   -0.003450532   -0.003509486
     29        1          -0.000820156    0.000498334    0.001509044
     30        1           0.002063158    0.001720305    0.000587467
 -------------------------------------------------------------------
 Cartesian Forces:  Max     0.010774645 RMS     0.003514609
 Leave Link  716 at Fri Sep  3 00:07:39 2021, MaxMem=  268435456 cpu:       0.1
 (Enter /sw/target/amd/app/gaussian/Gaussian09RevA.02_gcc-4.9.2/g09/l103.exe)

 GradGradGradGradGradGradGradGradGradGradGradGradGradGradGradGradGradGrad
 Berny optimization.
 Internal  Forces:  Max     0.006835514 RMS     0.002394197
 Search for a local minimum.
 Step number   1 out of a maximum of  154
 All quantities printed in internal units (Hartrees-Bohrs-Radians)
 RMS Force = .23942D-02 SwitMx=.10000D-02 MixMth= 1
 Mixed Optimization -- RFO/linear search
 Second derivative matrix not updated -- first step.
     Eigenvalues ---    0.00244   0.00344   0.00614   0.00876   0.00887
     Eigenvalues ---    0.01343   0.01403   0.02034   0.02051   0.02085
     Eigenvalues ---    0.02100   0.02120   0.02123   0.02138   0.02148
     Eigenvalues ---    0.02168   0.02390   0.03422   0.05200   0.05222
     Eigenvalues ---    0.05469   0.06722   0.07006   0.07053   0.07400
     Eigenvalues ---    0.07429   0.09986   0.10544   0.15999   0.16000
     Eigenvalues ---    0.16000   0.16000   0.16000   0.16000   0.16000
     Eigenvalues ---    0.16000   0.16000   0.16000   0.16000   0.16000
     Eigenvalues ---    0.16000   0.16000   0.16000   0.16000   0.17594
     Eigenvalues ---    0.18160   0.19024   0.19399   0.22000   0.22966
     Eigenvalues ---    0.24000   0.24999   0.25000   0.25000   0.28564
     Eigenvalues ---    0.29252   0.33608   0.34083   0.34099   0.34125
     Eigenvalues ---    0.34176   0.34216   0.34235   0.34236   0.34239
     Eigenvalues ---    0.34267   0.34280   0.34282   0.34321   0.34405
     Eigenvalues ---    0.34934   0.35123   0.35289   0.35478   0.36759
     Eigenvalues ---    0.36862   0.41284   0.41988   0.42185   0.45077
     Eigenvalues ---    0.45679   0.45941   0.46567   0.514341000.00000
     Eigenvalues --- 1000.000001000.000001000.000001000.000001000.00000
     Eigenvalues --- 1000.000001000.000001000.000001000.000001000.00000
     Eigenvalues --- 1000.000001000.000001000.000001000.000001000.00000
     Eigenvalues --- 1000.000001000.000001000.000001000.000001000.00000
     Eigenvalues --- 1000.000001000.000001000.000001000.000001000.00000
     Eigenvalues --- 1000.000001000.000001000.000001000.000001000.00000
     Eigenvalues --- 1000.000001000.000001000.000001000.000001000.00000
     Eigenvalues --- 1000.000001000.000001000.000001000.000001000.00000
     Eigenvalues --- 1000.000001000.000001000.000001000.000001000.00000
     Eigenvalues --- 1000.000001000.000001000.000001000.000001000.00000
     Eigenvalues --- 1000.000001000.000001000.000001000.000001000.00000
     Eigenvalues --- 1000.000001000.000001000.000001000.00000
 RFO step:  Lambda=-4.90551109D-03 EMin= 2.43619478D-03
 Linear search not attempted -- first point.
 Iteration  1 RMS(Cart)=  0.07881944 RMS(Int)=  0.00222446
 Iteration  2 RMS(Cart)=  0.00315991 RMS(Int)=  0.00015322
 Iteration  3 RMS(Cart)=  0.00000615 RMS(Int)=  0.00015314
 Iteration  4 RMS(Cart)=  0.00000000 RMS(Int)=  0.00015314
 Variable       Old X    -DE/DX   Delta X   Delta X   Delta X     New X
                                 (Linear)    (Quad)   (Total)
    R1        2.68689  -0.00217   0.00000  -0.00507  -0.00507   2.68181
    R2        2.06933   0.00167   0.00000   0.00481   0.00481   2.07414
    R3        2.06936   0.00167   0.00000   0.00480   0.00480   2.07416
    R4        2.06791  -0.00094   0.00000  -0.00271  -0.00271   2.06521
    R5        2.58445   0.00147   0.00000   0.00283   0.00283   2.58728
    R6        2.63140   0.00569   0.00000   0.01285   0.01284   2.64424
    R7        2.63702   0.00324   0.00000   0.00780   0.00779   2.64482
    R8        2.64554  -0.00348   0.00000  -0.00759  -0.00760   2.63795
    R9        2.04906   0.00029   0.00000   0.00080   0.00080   2.04986
   R10        2.65845  -0.00665   0.00000  -0.01569  -0.01569   2.64276
   R11        2.05782  -0.00174   0.00000  -0.00491  -0.00491   2.05291
   R12        2.89481  -0.00133   0.00000  -0.00446  -0.00446   2.89034
   R13        2.64785   0.00004   0.00000  -0.00077  -0.00076   2.64709
   R14        2.90921   0.00145   0.00000   0.00498   0.00498   2.91419
   R15        2.79952  -0.00259   0.00000  -0.00742  -0.00742   2.79210
   R16        2.07997  -0.00062   0.00000  -0.00181  -0.00181   2.07817
   R17        2.06860  -0.00003   0.00000  -0.00008  -0.00008   2.06851
   R18        2.06882   0.00028   0.00000   0.00080   0.00080   2.06962
   R19        2.07190  -0.00040   0.00000  -0.00115  -0.00115   2.07075
   R20        2.76055  -0.00225   0.00000  -0.00601  -0.00601   2.75453
   R21        2.76211  -0.00341   0.00000  -0.00916  -0.00916   2.75295
   R22        2.07034   0.00031   0.00000   0.00090   0.00090   2.07124
   R23        2.07119   0.00028   0.00000   0.00080   0.00080   2.07199
   R24        2.06929   0.00684   0.00000   0.01968   0.01968   2.08897
   R25        2.07163   0.00002   0.00000   0.00007   0.00007   2.07169
   R26        2.06857   0.00000   0.00000   0.00000   0.00000   2.06857
   R27        2.06967   0.00635   0.00000   0.01830   0.01830   2.08797
   R28        2.64437  -0.00502   0.00000  -0.01081  -0.01081   2.63357
   R29        2.05209  -0.00035   0.00000  -0.00097  -0.00097   2.05112
   R30        2.05475  -0.00101   0.00000  -0.00283  -0.00283   2.05193
    A1        1.93982   0.00170   0.00000   0.00895   0.00900   1.94882
    A2        1.94003   0.00162   0.00000   0.00845   0.00851   1.94853
    A3        1.88109  -0.00621   0.00000  -0.03504  -0.03496   1.84613
    A4        1.94104  -0.00365   0.00000  -0.02677  -0.02673   1.91431
    A5        1.87936   0.00326   0.00000   0.02243   0.02251   1.90188
    A6        1.87939   0.00330   0.00000   0.02263   0.02271   1.90210
    A7        2.03767   0.00444   0.00000   0.01742   0.01742   2.05509
    A8        2.20197  -0.00508   0.00000  -0.02156  -0.02156   2.18042
    A9        2.00343   0.00536   0.00000   0.01941   0.01941   2.02284
   A10        2.07778  -0.00028   0.00000   0.00216   0.00215   2.07992
   A11        2.09569  -0.00213   0.00000  -0.00778  -0.00779   2.08790
   A12        2.12949  -0.00124   0.00000  -0.01005  -0.01005   2.11944
   A13        2.05799   0.00336   0.00000   0.01785   0.01785   2.07584
   A14        2.11970   0.00261   0.00000   0.00956   0.00957   2.12926
   A15        2.07764  -0.00061   0.00000  -0.00057  -0.00058   2.07706
   A16        2.08579  -0.00200   0.00000  -0.00898  -0.00899   2.07680
   A17        2.07092  -0.00050   0.00000  -0.00027  -0.00028   2.07064
   A18        2.05610  -0.00035   0.00000  -0.00476  -0.00474   2.05136
   A19        2.15612   0.00085   0.00000   0.00505   0.00504   2.16117
   A20        1.99679  -0.00373   0.00000  -0.01539  -0.01546   1.98133
   A21        1.93395  -0.00285   0.00000  -0.02480  -0.02476   1.90919
   A22        1.81188   0.00413   0.00000   0.04839   0.04792   1.85979
   A23        2.00043   0.00596   0.00000   0.01962   0.01943   2.01986
   A24        1.83186   0.00121   0.00000   0.02991   0.02995   1.86182
   A25        1.87081  -0.00478   0.00000  -0.05443  -0.05417   1.81664
[...]
 Alpha  occ. eigenvalues --   -0.44841  -0.43639  -0.42421  -0.41639  -0.40883
 Alpha  occ. eigenvalues --   -0.39861  -0.38564  -0.37425  -0.37268  -0.36884
 Alpha  occ. eigenvalues --   -0.35792  -0.34769  -0.34345  -0.32900  -0.31619
 Alpha  occ. eigenvalues --   -0.30509  -0.24228  -0.21042  -0.20038
 Alpha virt. eigenvalues --    0.00647   0.01813   0.08481   0.10158   0.11370
 Alpha virt. eigenvalues --    0.12275   0.13626   0.13928   0.14779   0.15423
 Alpha virt. eigenvalues --    0.15805   0.16313   0.16754   0.16958   0.17879
 Alpha virt. eigenvalues --    0.17958   0.18800   0.19179   0.19981   0.20347
 Alpha virt. eigenvalues --    0.21916   0.23465   0.23796   0.26514   0.26846
 Alpha virt. eigenvalues --    0.27277   0.28468   0.32791   0.34704   0.36113
 Alpha virt. eigenvalues --    0.38456   0.48154   0.49569   0.50496   0.51441
 Alpha virt. eigenvalues --    0.52784   0.53534   0.53665   0.55558   0.56090
 Alpha virt. eigenvalues --    0.56375   0.57274   0.58330   0.60037   0.60306
 Alpha virt. eigenvalues --    0.61366   0.62063   0.63019   0.64599   0.65794
 Alpha virt. eigenvalues --    0.68313   0.68650   0.70858   0.72363   0.73461
 Alpha virt. eigenvalues --    0.74802   0.76611   0.78966   0.80076   0.82150
 Alpha virt. eigenvalues --    0.83439   0.83604   0.84751   0.85264   0.86032
 Alpha virt. eigenvalues --    0.86601   0.87469   0.88242   0.89564   0.89928
 Alpha virt. eigenvalues --    0.90221   0.91384   0.93575   0.93893   0.94743
 Alpha virt. eigenvalues --    0.96306   0.97078   0.97563   0.99122   1.00298
 Alpha virt. eigenvalues --    1.00818   1.02108   1.04331   1.05750   1.07257
 Alpha virt. eigenvalues --    1.09085   1.11070   1.14343   1.17761   1.20126
 Alpha virt. eigenvalues --    1.23909   1.26547   1.28440   1.31617   1.33809
 Alpha virt. eigenvalues --    1.37536   1.38670   1.40095   1.40643   1.45101
 Alpha virt. eigenvalues --    1.46380   1.46488   1.48087   1.52421   1.52773
 Alpha virt. eigenvalues --    1.53604   1.53757   1.65626   1.69077   1.73907
 Alpha virt. eigenvalues --    1.76802   1.78542   1.81826   1.83003   1.83950
 Alpha virt. eigenvalues --    1.86740   1.88738   1.88888   1.91387   1.94749
 Alpha virt. eigenvalues --    1.96796   1.98822   1.99362   2.00191   2.03197
 Alpha virt. eigenvalues --    2.05762   2.07284   2.09294   2.10116   2.11358
 Alpha virt. eigenvalues --    2.11524   2.12494   2.13253   2.15466   2.15781
 Alpha virt. eigenvalues --    2.17410   2.23332   2.24539   2.26071   2.26685
 Alpha virt. eigenvalues --    2.27823   2.30680   2.32591   2.34841   2.35891
 Alpha virt. eigenvalues --    2.37269   2.38875   2.40583   2.49517   2.52717
 Alpha virt. eigenvalues --    2.55000   2.58570   2.59803   2.63479   2.66631
 Alpha virt. eigenvalues --    2.68074   2.71097   2.72967   2.77999   2.80024
 Alpha virt. eigenvalues --    2.82061   2.86927   2.94194   2.99566   3.01516
 Alpha virt. eigenvalues --    3.19741   3.43658   4.03634   4.05957   4.12399
 Alpha virt. eigenvalues --    4.13625   4.22861   4.25297   4.28685   4.32625
 Alpha virt. eigenvalues --    4.34401   4.35734   4.43490   4.60156   4.77805
          Condensed to atoms (all electrons):
              1          2          3          4          5          6
     1  C    4.891315   0.250570  -0.043262  -0.006723   0.000354  -0.000010
     2  O    0.250570   8.202762   0.277536  -0.061570   0.003741   0.000199
     3  C   -0.043262   0.277536   4.507407   0.466937  -0.000383  -0.032627
     4  C   -0.006723  -0.061570   0.466937   5.138625   0.463168  -0.024122
     5  C    0.000354   0.003741  -0.000383   0.463168   5.012662   0.521843
     6  C   -0.000010   0.000199  -0.032627  -0.024122   0.521843   4.731397
     7  C   -0.000000   0.000001   0.000211   0.006308  -0.059073   0.371940
     8  C    0.000000  -0.000000   0.000003  -0.000128   0.007701  -0.050063
     9  N    0.000000   0.000000   0.000017   0.000589   0.000855  -0.070394
    10  C   -0.000000   0.000000   0.000000   0.000008   0.000576   0.004554
    11  C   -0.000000  -0.000000   0.000011  -0.000087  -0.003165  -0.006359
    12  C   -0.000121   0.003133  -0.015728  -0.047022  -0.043321   0.539356
    13  C    0.004135  -0.053604   0.544499  -0.064027  -0.045070  -0.023264
    14  H    0.362402  -0.035697  -0.004375   0.004683  -0.000127  -0.000006
    15  H    0.362318  -0.035822  -0.004250   0.004706  -0.000199  -0.000000
    16  H    0.386091  -0.033865   0.003195   0.000230   0.000002   0.000000
    17  H    0.006031  -0.007743  -0.046810   0.351858  -0.037108   0.003252
    18  H   -0.000007  -0.000046   0.003332  -0.043555   0.351920  -0.043915
    19  H   -0.000000  -0.000000   0.000025  -0.000142  -0.008966  -0.030096
    20  H    0.000000  -0.000000   0.000000   0.000002  -0.000086   0.003266
    21  H    0.000000   0.000000  -0.000005  -0.000004   0.000027  -0.005046
    22  H   -0.000000   0.000000  -0.000003  -0.000001  -0.000356  -0.003312
    23  H   -0.000000  -0.000000   0.000000  -0.000002  -0.000057   0.000286
    24  H   -0.000000  -0.000000  -0.000000  -0.000001  -0.000050  -0.000026
    25  H    0.000000   0.000000   0.000000   0.000000   0.000047  -0.000347
    26  H   -0.000000   0.000000   0.000000  -0.000011  -0.000083   0.000393
    27  H    0.000000   0.000000  -0.000047  -0.000233   0.001391   0.012793
    28  H    0.000000   0.000000  -0.000000   0.000007   0.000415  -0.001150
    29  H    0.000003  -0.000061   0.004487   0.000195   0.006893  -0.040977
    30  H   -0.000219   0.000026  -0.037186   0.007548   0.000193   0.003860
              7          8          9         10         11         12
     1  C   -0.000000   0.000000   0.000000  -0.000000  -0.000000  -0.000121
     2  O    0.000001  -0.000000   0.000000   0.000000  -0.000000   0.003133
     3  C    0.000211   0.000003   0.000017   0.000000   0.000011  -0.015728
     4  C    0.006308  -0.000128   0.000589   0.000008  -0.000087  -0.047022
     5  C   -0.059073   0.007701   0.000855   0.000576  -0.003165  -0.043321
     6  C    0.371940  -0.050063  -0.070394   0.004554  -0.006359   0.539356
     7  C    4.944893   0.328193   0.322126  -0.045809  -0.053389  -0.059326
     8  C    0.328193   5.213496  -0.056870  -0.005316  -0.007529  -0.008539
     9  N    0.322126  -0.056870   6.813201   0.325651   0.325241   0.001406
    10  C   -0.045809  -0.005316   0.325651   4.984311  -0.062805  -0.000171
    11  C   -0.053389  -0.007529   0.325241  -0.062805   4.995368   0.000037
    12  C   -0.059326  -0.008539   0.001406  -0.000171   0.000037   4.990918
    13  C    0.006644  -0.000117  -0.000080   0.000002   0.000007   0.503820
    14  H   -0.000000  -0.000000  -0.000000   0.000000  -0.000000   0.000001
    15  H    0.000000   0.000000   0.000000  -0.000000   0.000000  -0.000004
    16  H   -0.000000   0.000000   0.000000  -0.000000  -0.000000   0.000004
    17  H   -0.000167   0.000002  -0.000005  -0.000000  -0.000000   0.000773
    18  H   -0.010942   0.000553   0.017470  -0.000581   0.000042   0.006404
    19  H    0.372220  -0.060488  -0.051047  -0.007980   0.007200   0.002540
    20  H   -0.027835   0.368674  -0.004313   0.002927  -0.000565   0.000385
    21  H   -0.028209   0.370773  -0.004883  -0.000007   0.003288   0.001479
    22  H   -0.017733   0.357081   0.004467   0.000031   0.000127   0.001319
    23  H   -0.003408  -0.001225  -0.039631   0.377354   0.006297  -0.000002
    24  H    0.004900  -0.000217  -0.041179   0.379525  -0.001656   0.000003
    25  H   -0.006162   0.005074  -0.047706   0.346680  -0.007333   0.000001
    26  H    0.005604  -0.000183  -0.041325  -0.002559   0.380229   0.000011
    27  H   -0.004598  -0.002194  -0.038878   0.006209   0.377378   0.000962
    28  H   -0.006469   0.006688  -0.048050  -0.007287   0.351929  -0.000115
    29  H   -0.014426   0.007569   0.000125  -0.000007  -0.000041   0.353790
    30  H   -0.000131   0.000005   0.000001  -0.000000   0.000000  -0.040333
             13         14         15         16         17         18
     1  C    0.004135   0.362402   0.362318   0.386091   0.006031  -0.000007
     2  O   -0.053604  -0.035697  -0.035822  -0.033865  -0.007743  -0.000046
     3  C    0.544499  -0.004375  -0.004250   0.003195  -0.046810   0.003332
     4  C   -0.064027   0.004683   0.004706   0.000230   0.351858  -0.043555
     5  C   -0.045070  -0.000127  -0.000199   0.000002  -0.037108   0.351920
     6  C   -0.023264  -0.000006  -0.000000   0.000000   0.003252  -0.043915
     7  C    0.006644  -0.000000   0.000000  -0.000000  -0.000167  -0.010942
     8  C   -0.000117  -0.000000   0.000000   0.000000   0.000002   0.000553
     9  N   -0.000080  -0.000000   0.000000   0.000000  -0.000005   0.017470
    10  C    0.000002   0.000000  -0.000000  -0.000000  -0.000000  -0.000581
    11  C    0.000007  -0.000000   0.000000  -0.000000  -0.000000   0.000042
    12  C    0.503820   0.000001  -0.000004   0.000004   0.000773   0.006404
    13  C    5.006051   0.000051   0.000061  -0.000108   0.004561   0.000470
    14  H    0.000051   0.603539  -0.050253  -0.032322   0.001765   0.000002
    15  H    0.000061  -0.050253   0.603323  -0.032135   0.001876   0.000002
    16  H   -0.000108  -0.032322  -0.032135   0.541731  -0.000100  -0.000000
    17  H    0.004561   0.001765   0.001876  -0.000100   0.599618  -0.005345
    18  H    0.000470   0.000002   0.000002  -0.000000  -0.005345   0.585612
    19  H   -0.000148   0.000000  -0.000000  -0.000000   0.000000   0.000842
    20  H   -0.000003   0.000000  -0.000000  -0.000000  -0.000000  -0.000007
    21  H   -0.000036   0.000000  -0.000000   0.000000   0.000000   0.000002
    22  H    0.000152  -0.000000   0.000000   0.000000   0.000000  -0.000020
    23  H    0.000000   0.000000  -0.000000  -0.000000  -0.000000  -0.000108
    24  H   -0.000000  -0.000000   0.000000  -0.000000   0.000000  -0.000046
    25  H   -0.000000  -0.000000   0.000000   0.000000  -0.000000   0.000061
    26  H   -0.000000   0.000000  -0.000000  -0.000000  -0.000000  -0.000167
    27  H   -0.000065   0.000000  -0.000000  -0.000000   0.000000  -0.000497
    28  H   -0.000003   0.000000  -0.000000   0.000000  -0.000000   0.000110
    29  H   -0.047690  -0.000000  -0.000000  -0.000000   0.000017  -0.000192
    30  H    0.343637   0.000030   0.000030  -0.000029  -0.000173   0.000017
             19         20         21         22         23         24
     1  C   -0.000000   0.000000   0.000000  -0.000000  -0.000000  -0.000000
     2  O   -0.000000  -0.000000   0.000000   0.000000  -0.000000  -0.000000
     3  C    0.000025   0.000000  -0.000005  -0.000003   0.000000  -0.000000
     4  C   -0.000142   0.000002  -0.000004  -0.000001  -0.000002  -0.000001
     5  C   -0.008966  -0.000086   0.000027  -0.000356  -0.000057  -0.000050
     6  C   -0.030096   0.003266  -0.005046  -0.003312   0.000286  -0.000026
     7  C    0.372220  -0.027835  -0.028209  -0.017733  -0.003408   0.004900
     8  C   -0.060488   0.368674   0.370773   0.357081  -0.001225  -0.000217
     9  N   -0.051047  -0.004313  -0.004883   0.004467  -0.039631  -0.041179
    10  C   -0.007980   0.002927  -0.000007   0.000031   0.377354   0.379525
    11  C    0.007200  -0.000565   0.003288   0.000127   0.006297  -0.001656
    12  C    0.002540   0.000385   0.001479   0.001319  -0.000002   0.000003
    13  C   -0.000148  -0.000003  -0.000036   0.000152   0.000000  -0.000000
    14  H    0.000000   0.000000   0.000000  -0.000000   0.000000  -0.000000
    15  H   -0.000000  -0.000000  -0.000000   0.000000  -0.000000   0.000000
    16  H   -0.000000  -0.000000   0.000000   0.000000  -0.000000  -0.000000
    17  H    0.000000  -0.000000   0.000000   0.000000  -0.000000   0.000000
    18  H    0.000842  -0.000007   0.000002  -0.000020  -0.000108  -0.000046
    19  H    0.631352  -0.002881   0.005550  -0.003111   0.008929   0.000268
    20  H   -0.002881   0.567854  -0.030348  -0.029122   0.000135  -0.000105
    21  H    0.005550  -0.030348   0.566102  -0.033446   0.000031  -0.000009
    22  H   -0.003111  -0.029122  -0.033446   0.573516   0.000011   0.000007
    23  H    0.008929   0.000135   0.000031   0.000011   0.574307  -0.023981
    24  H    0.000268  -0.000105  -0.000009   0.000007  -0.023981   0.578560
    25  H   -0.001458   0.003421   0.000073  -0.000353  -0.043416  -0.047229
    26  H   -0.000188  -0.000038  -0.000056   0.000002   0.000133   0.006190
    27  H    0.000351   0.000065   0.000882   0.000006  -0.000218   0.000125
    28  H   -0.000327   0.000521   0.000550  -0.000233  -0.000332  -0.002161
    29  H    0.000192  -0.000124   0.001617   0.001656  -0.000000   0.000000
    30  H    0.000003  -0.000000   0.000003  -0.000002  -0.000000   0.000000
             25         26         27         28         29         30
     1  C    0.000000  -0.000000   0.000000   0.000000   0.000003  -0.000219
     2  O    0.000000   0.000000   0.000000   0.000000  -0.000061   0.000026
     3  C    0.000000   0.000000  -0.000047  -0.000000   0.004487  -0.037186
     4  C    0.000000  -0.000011  -0.000233   0.000007   0.000195   0.007548
     5  C    0.000047  -0.000083   0.001391   0.000415   0.006893   0.000193
     6  C   -0.000347   0.000393   0.012793  -0.001150  -0.040977   0.003860
     7  C   -0.006162   0.005604  -0.004598  -0.006469  -0.014426  -0.000131
     8  C    0.005074  -0.000183  -0.002194   0.006688   0.007569   0.000005
     9  N   -0.047706  -0.041325  -0.038878  -0.048050   0.000125   0.000001
    10  C    0.346680  -0.002559   0.006209  -0.007287  -0.000007  -0.000000
    11  C   -0.007333   0.380229   0.377378   0.351929  -0.000041   0.000000
    12  C    0.000001   0.000011   0.000962  -0.000115   0.353790  -0.040333
    13  C   -0.000000  -0.000000  -0.000065  -0.000003  -0.047690   0.343637
    14  H   -0.000000   0.000000   0.000000   0.000000  -0.000000   0.000030
    15  H    0.000000  -0.000000  -0.000000  -0.000000  -0.000000   0.000030
    16  H    0.000000  -0.000000  -0.000000   0.000000  -0.000000  -0.000029
    17  H   -0.000000  -0.000000   0.000000  -0.000000   0.000017  -0.000173
    18  H    0.000061  -0.000167  -0.000497   0.000110  -0.000192   0.000017
    19  H   -0.001458  -0.000188   0.000351  -0.000327   0.000192   0.000003
    20  H    0.003421  -0.000038   0.000065   0.000521  -0.000124  -0.000000
    21  H    0.000073  -0.000056   0.000882   0.000550   0.001617   0.000003
    22  H   -0.000353   0.000002   0.000006  -0.000233   0.001656  -0.000002
    23  H   -0.043416   0.000133  -0.000218  -0.000332  -0.000000  -0.000000
    24  H   -0.047229   0.006190   0.000125  -0.002161   0.000000   0.000000
    25  H    0.668600  -0.002008  -0.000398   0.013708   0.000001   0.000000
    26  H   -0.002008   0.580406  -0.023479  -0.047250   0.000001   0.000000
    27  H   -0.000398  -0.023479   0.550180  -0.041078   0.000002  -0.000002
    28  H    0.013708  -0.047250  -0.041078   0.661481  -0.000012   0.000000
    29  H    0.000001   0.000001   0.000002  -0.000012   0.608683  -0.006407
    30  H    0.000000   0.000000  -0.000002   0.000000  -0.006407   0.596138
 Mulliken atomic charges:
              1
     1  C   -0.212877
     2  O   -0.509560
     3  C    0.377017
     4  C   -0.197237
     5  C   -0.173744
     6  C    0.138576
     7  C   -0.025362
     8  C   -0.472942
     9  N   -0.366787
    10  C   -0.295307
    11  C   -0.304222
    12  C   -0.191661
    13  C   -0.179873
    14  H    0.150306
    15  H    0.150347
    16  H    0.167308
    17  H    0.127699
    18  H    0.138590
    19  H    0.137359
    20  H    0.148178
    21  H    0.151672
    22  H    0.149320
    23  H    0.144897
    24  H    0.147082
    25  H    0.118744
    26  H    0.144378
    27  H    0.161343
    28  H    0.119059
    29  H    0.124707
    30  H    0.132993
 Sum of Mulliken atomic charges =  -0.00000
 Mulliken charges with hydrogens summed into heavy atoms:
              1
     1  C    0.255083
     2  O   -0.509560
     3  C    0.377017
     4  C   -0.069538
     5  C   -0.035154
     6  C    0.138576
     7  C    0.111997
     8  C   -0.023772
     9  N   -0.366787
    10  C    0.115416
    11  C    0.120557
    12  C   -0.066954
    13  C   -0.046880
 Sum of Mulliken charges with hydrogens summed into heavy atoms =  -0.00000
 Electronic spatial extent (au):  <R**2>=           3328.1055
 Charge=             -0.0000 electrons
 Dipole moment (field-independent basis, Debye):
    X=             -0.0960    Y=             -0.8413    Z=             -0.1943  Tot=              0.8688
 Quadrupole moment (field-independent basis, Debye-Ang):
   XX=            -70.7534   YY=            -76.2224   ZZ=            -80.2664
   XY=             -5.7660   XZ=             -0.0758   YZ=              0.6190
 Traceless Quadrupole moment (field-independent basis, Debye-Ang):
   XX=              4.9940   YY=             -0.4750   ZZ=             -4.5190
   XY=             -5.7660   XZ=             -0.0758   YZ=              0.6190
 Octapole moment (field-independent basis, Debye-Ang**2):
  XXX=             41.1986  YYY=             -0.0337  ZZZ=              0.8297  XYY=              9.6804
  XXY=            -29.8205  XXZ=             -4.2327  XZZ=             -1.5841  YZZ=             -2.9729
  YYZ=              1.9254  XYZ=              2.3759
 Hexadecapole moment (field-independent basis, Debye-Ang**3):
 XXXX=          -3225.2174 YYYY=           -647.7529 ZZZZ=           -283.2224 XXXY=            -88.6478
 XXXZ=              4.9946 YYYX=             11.7112 YYYZ=              3.8529 ZZZX=              7.5570
 ZZZY=             -0.4927 XXYY=           -664.7548 XXZZ=           -627.4103 YYZZ=           -157.4448
 XXYZ=             -0.6094 YYXZ=              1.0850 ZZXY=              2.1319
 N-N= 7.986563015027D+02 E-N=-2.895455782586D+03  KE= 5.539832967704D+02
 No NMR shielding tensors so no spin-rotation constants.
 Leave Link  601 at Fri Sep  3 00:47:23 2021, MaxMem=  268435456 cpu:       0.4
 (Enter /sw/target/amd/app/gaussian/Gaussian09RevA.02_gcc-4.9.2/g09/l9999.exe)
 1\1\GINC-HERMITE\FOpt\RB3LYP\6-31G(d)\C11H17N1O1\JSCHLEINITZ\03-Sep-20
 21\0\\#p b3lyp 6-31G* opt scf(xqc,tight)\\opt calculation\\0,1\C,4.862
 3520317,0.4787655766,-0.8405137661\O,3.9821551025,-0.616628864,-1.0255
 727875\C,2.6982311043,-0.496544213,-0.5703248821\C,2.1812441386,0.6345
 377825,0.0739565077\C,0.8509647685,0.6407245888,0.4944370302\C,0.00400
 70391,-0.4558199025,0.292876651\C,-1.4321054006,-0.3950881983,0.821422
 1946\C,-2.2861800599,-1.6226431004,0.4482781618\N,-2.0411674696,0.9058
 679412,0.475319768\C,-3.18541564,1.2598774986,1.2991848828\C,-2.316428
 3593,1.0896075516,-0.9434165339\C,0.5425956815,-1.5769502985,-0.355136
 9131\C,1.8673863847,-1.6025219257,-0.7820986834\H,5.0055197314,0.70920
 63699,0.2238676273\H,4.5030421205,1.3793960181,-1.3565042972\H,5.81698
 32921,0.1732876466,-1.2734232673\H,2.7987124402,1.5080897931,0.2514612
 453\H,0.4484170194,1.5260505987,0.9775345363\H,-1.3649796812,-0.382184
 5199,1.9195792209\H,-3.3043541037,-1.5104947059,0.8349849416\H,-2.3511
 181373,-1.7655471537,-0.6357565362\H,-1.8704107751,-2.5373377227,0.884
 1467365\H,-2.9228596547,1.1669623773,2.3591681925\H,-3.4572206226,2.30
 50553974,1.1089475979\H,-4.0890603296,0.6467900578,1.1161930181\H,-2.5
 547694836,2.1433321799,-1.1305207252\H,-1.4277420767,0.8342794786,-1.5
 278000489\H,-3.1637442869,0.4852307455,-1.3183157669\H,-0.0720590437,-
 2.452885624,-0.5363052711\H,2.2780032701,-2.4724163735,-1.2856698334\\
 Version=AM64L-G09RevA.02\State=1-A\HF=-559.3581301\RMSD=2.631e-09\RMSF
 =7.334e-06\Dipole=0.0118296,0.3204885,0.1182049\Quadrupole=4.3452499,-
 1.1843434,-3.1609066,3.9189925,-0.833856,0.0077851\PG=C01 [X(C11H17N1O
 1)]\\@


 MAN IS THE MEASURE OF ALL THINGS.
  -- PROTAGORAS (5TH CENTURY B.C.)
 Job cpu time:  0 days  0 hours 43 minutes 26.9 seconds.
 File lengths (MBytes):  RWF=     41 Int=      0 D2E=      0 Chk=      5 Scr=      1
 Normal termination of Gaussian 09 at Fri Sep  3 00:47:24 2021.
