 Entering Gaussian System, Link 0=g09
 Input=mol_inp017.com
 Output=mol_inp017.log
 Initial command:
 /sw/target/amd/app/gaussian/Gaussian09RevA.02_gcc-4.9.2/g09/l1.exe /home/jschleinitz/optim_react/017/Gau-2803971.inp -scrdir=/home/jschleinitz/optim_react/017/
 Entering Link 1 = /sw/target/amd/app/gaussian/Gaussian09RevA.02_gcc-4.9.2/g09/l1.exe PID=   2803973.
  
 Copyright (c) 1988,1990,1992,1993,1995,1998,2003,2009, Gaussian, Inc.
                  All Rights Reserved.
  
 This is part of the Gaussian(R) 09 program.  It is based on
 the Gaussian(R) 03 system (copyright 2003, Gaussian, Inc.),
 the Gaussian(R) 98 system (copyright 1998, Gaussian, Inc.),
 the Gaussian(R) 94 system (copyright 1995, Gaussian, Inc.),
 the Gaussian 92(TM) system (copyright 1992, Gaussian, Inc.),
 the Gaussian 90(TM) system (copyright 1990, Gaussian, Inc.),
 the Gaussian 88(TM) system (copyright 1988, Gaussian, Inc.),
 the Gaussian 86(TM) system (copyright 1986, Carnegie Mellon
 University), and the Gaussian 82(TM) system (copyright 1983,
 Carnegie Mellon University). Gaussian is a federally registered
 trademark of Gaussian, Inc.
  
 This software contains proprietary and confidential information,
 including trade secrets, belonging to Gaussian, Inc.
  
 This software is provided under written license and may be
 used, copied, transmitted, or stored only in accord with that
 written license.
  
 The following legend is applicable only to US Government
 contracts under FAR:
  
                    RESTRICTED RIGHTS LEGEND
  
 Use, reproduction and disclosure by the US Government is
 subject to restrictions as set forth in subparagraphs (a)
 and (c) of the Commercial Computer Software - Restricted
 Rights clause in FAR 52.227-19.
  
 Gaussian, Inc.
 340 Quinnipiac St., Bldg. 40, Wallingford CT 06492
  
  
 ---------------------------------------------------------------
 Warning -- This program may not be used in any manner that
 competes with the business of Gaussian, Inc. or will provide
 assistance to any competitor of Gaussian, Inc.  The licensee
 of this program is prohibited from giving any competitor of
 Gaussian, Inc. access to this program.  By using this program,
 the user acknowledges that Gaussian, Inc. is engaged in the
 business of creating and licensing software in the field of
 computational chemistry and represents and warrants to the
 licensee that it is not a competitor of Gaussian, Inc. and that
 it will not use this program in any manner prohibited above.
 ---------------------------------------------------------------
  

 Cite this work as:
 Gaussian 09, Revision A.02,
 M. J. Frisch, G. W. Trucks, H. B. Schlegel, G. E. Scuseria, 
 M. A. Robb, J. R. Cheeseman, G. Scalmani, V. Barone, B. Mennucci, 
 G. A. Petersson, H. Nakatsuji, M. Caricato, X. Li, H. P. Hratchian, 
 A. F. Izmaylov, J. Bloino, G. Zheng, J. L. Sonnenberg, M. Hada, 
 M. Ehara, K. Toyota, R. Fukuda, J. Hasegawa, M. Ishida, T. Nakajima, 
 Y. Honda, O. Kitao, H. Nakai, T. Vreven, J. A. Montgomery, Jr., 
 J. E. Peralta, F. Ogliaro, M. Bearpark, J. J. Heyd, E. Brothers, 
 K. N. Kudin, V. N. Staroverov, R. Kobayashi, J. Normand, 
 K. Raghavachari, A. Rendell, J. C. Burant, S. S. Iyengar, J. Tomasi, 
 M. Cossi, N. Rega, J. M. Millam, M. Klene, J. E. Knox, J. B. Cross, 
 V. Bakken, C. Adamo, J. Jaramillo, R. Gomperts, R. E. Stratmann, 
 O. Yazyev, A. J. Austin, R. Cammi, C. Pomelli, J. W. Ochterski, 
 R. L. Martin, K. Morokuma, V. G. Zakrzewski, G. A. Voth, 
 P. Salvador, J. J. Dannenberg, S. Dapprich, A. D. Daniels, 
 O. Farkas, J. B. Foresman, J. V. Ortiz, J. Cioslowski, 
 and D. J. Fox, Gaussian, Inc., Wallingford CT, 2009.
 
 ******************************************
 Gaussian 09:  AM64L-G09RevA.02 11-Jun-2009
                 3-Sep-2021 
 ******************************************
 %chk=opt.chk
 %mem=2gb
 %nproc=1
 Will use up to    1 processors via shared memory.
 ----------------------------------
 #p b3lyp 6-31G* opt scf(xqc,tight)
 ----------------------------------
 1/14=-1,18=20,19=15,26=3,38=1/1,3;
 2/9=110,12=2,17=6,18=5,40=1/2;
 3/5=1,6=6,7=1,11=2,16=1,25=1,30=1,71=1,74=-5/1,2,3;
 4//1;
 5/5=2,8=3,13=1,32=2,38=5/2,8;
 6/7=2,8=2,9=2,10=2,28=1/1;
 7//1,2,3,16;
 1/14=-1,18=20,19=15/3(2);
 2/9=110/2;
 99//99;
 2/9=110/2;
 3/5=1,6=6,7=1,11=2,16=1,25=1,30=1,71=1,74=-5/1,2,3;
 4/5=5,16=3/1;
 5/5=2,8=3,13=1,32=2,38=5/2,8;
 7//1,2,3,16;
 1/14=-1,18=20,19=15/3(-5);
 2/9=110/2;
 6/7=2,8=2,9=2,10=2,19=2,28=1/1;
 99/9=1/99;
 Leave Link    1 at Fri Sep  3 00:05:16 2021, MaxMem=  268435456 cpu:       0.0
 (Enter /sw/target/amd/app/gaussian/Gaussian09RevA.02_gcc-4.9.2/g09/l101.exe)
 ---------------
 opt calculation
 ---------------
 Symbolic Z-matrix:
 Charge =  0 Multiplicity = 1
 C                    -3.23037   1.85005   0.16744 
 C                    -3.28194   0.43916  -0.45331 
 C                    -4.58447  -0.27554  -0.04702 
 C                    -3.18193   0.53571  -1.9893 
 Si                   -1.64345  -0.65153   0.24816 
 C                    -1.82029  -0.75707   2.11299 
 C                    -1.76121  -2.36022  -0.51768 
 O                    -0.26656   0.16519  -0.21864 
 C                     1.07398  -0.04862  -0.05824 
 C                     1.628    -1.13333   0.61523 
 C                     3.01722  -1.25425   0.72011 
 C                     3.86937  -0.29333   0.15365 
 C                     5.26614  -0.40188   0.25116 
 C                     6.09791   0.56357  -0.31852 
 C                     5.54461   1.64856  -0.99214 
 C                     4.15822   1.77073  -1.09772 
 C                     3.30765   0.80801  -0.53013 
 C                     1.9108    0.9148   -0.62657 
 H                    -4.06303   2.46351  -0.1951 
 H                    -2.2998    2.36885  -0.0895 
 H                    -3.30032   1.8125    1.26014 
 H                    -4.67445  -0.36377   1.04109 
 H                    -4.64051  -1.28451  -0.46976 
 H                    -5.45832   0.28046  -0.40548 
 H                    -3.21682  -0.45369  -2.45853 
 H                    -2.25011   1.02045  -2.30211 
 H                    -4.0136    1.12253  -2.39559 
 H                    -1.79376   0.23952   2.56279 
 H                    -2.76496  -1.23405   2.38907 
 H                    -1.00684  -1.34598   2.54642 
 H                    -2.70567  -2.84308  -0.25125 
 H                    -1.70009  -2.30229  -1.60815 
 H                    -0.94592  -2.99913  -0.16629 
 H                     1.00899  -1.89957   1.06828 
 H                     3.43093  -2.10917   1.25039 
 H                     5.71725  -1.24242   0.77352 
 H                     7.17731   0.46742  -0.23569 
 H                     6.19094   2.40107  -1.43622 
 H                     3.74369   2.62533  -1.62783 
 H                     1.46141   1.756    -1.14929 
 
 NAtoms=     40 NQM=     40 NQMF=      0 NMic=      0 NMicF=      0 NTot=     40.
                    Isotopes and Nuclear Properties:
 (Nuclear quadrupole moments (NQMom) in fm**2, nuclear magnetic moments (NMagM)
  in nuclear magnetons)

  Atom         1           2           3           4           5           6           7           8           9          10
 IAtWgt=          12          12          12          12          28          12          12          16          12          12
 AtmWgt=  12.0000000  12.0000000  12.0000000  12.0000000  27.9769284  12.0000000  12.0000000  15.9949146  12.0000000  12.0000000
 NucSpn=           0           0           0           0           0           0           0           0           0           0
 AtZEff=   0.0000000   0.0000000   0.0000000   0.0000000   0.0000000   0.0000000   0.0000000   0.0000000   0.0000000   0.0000000
 NQMom=    0.0000000   0.0000000   0.0000000   0.0000000   0.0000000   0.0000000   0.0000000   0.0000000   0.0000000   0.0000000
 NMagM=    0.0000000   0.0000000   0.0000000   0.0000000   0.0000000   0.0000000   0.0000000   0.0000000   0.0000000   0.0000000

  Atom        11          12          13          14          15          16          17          18          19          20
 IAtWgt=          12          12          12          12          12          12          12          12           1           1
 AtmWgt=  12.0000000  12.0000000  12.0000000  12.0000000  12.0000000  12.0000000  12.0000000  12.0000000   1.0078250   1.0078250
 NucSpn=           0           0           0           0           0           0           0           0           1           1
 AtZEff=   0.0000000   0.0000000   0.0000000   0.0000000   0.0000000   0.0000000   0.0000000   0.0000000   0.0000000   0.0000000
 NQMom=    0.0000000   0.0000000   0.0000000   0.0000000   0.0000000   0.0000000   0.0000000   0.0000000   0.0000000   0.0000000
 NMagM=    0.0000000   0.0000000   0.0000000   0.0000000   0.0000000   0.0000000   0.0000000   0.0000000   2.7928460   2.7928460

  Atom        21          22          23          24          25          26          27          28          29          30
 IAtWgt=           1           1           1           1           1           1           1           1           1           1
 AtmWgt=   1.0078250   1.0078250   1.0078250   1.0078250   1.0078250   1.0078250   1.0078250   1.0078250   1.0078250   1.0078250
 NucSpn=           1           1           1           1           1           1           1           1           1           1
 AtZEff=   0.0000000   0.0000000   0.0000000   0.0000000   0.0000000   0.0000000   0.0000000   0.0000000   0.0000000   0.0000000
 NQMom=    0.0000000   0.0000000   0.0000000   0.0000000   0.0000000   0.0000000   0.0000000   0.0000000   0.0000000   0.0000000
 NMagM=    2.7928460   2.7928460   2.7928460   2.7928460   2.7928460   2.7928460   2.7928460   2.7928460   2.7928460   2.7928460

  Atom        31          32          33          34          35          36          37          38          39          40
 IAtWgt=           1           1           1           1           1           1           1           1           1           1
 AtmWgt=   1.0078250   1.0078250   1.0078250   1.0078250   1.0078250   1.0078250   1.0078250   1.0078250   1.0078250   1.0078250
 NucSpn=           1           1           1           1           1           1           1           1           1           1
 AtZEff=   0.0000000   0.0000000   0.0000000   0.0000000   0.0000000   0.0000000   0.0000000   0.0000000   0.0000000   0.0000000
 NQMom=    0.0000000   0.0000000   0.0000000   0.0000000   0.0000000   0.0000000   0.0000000   0.0000000   0.0000000   0.0000000
 NMagM=    2.7928460   2.7928460   2.7928460   2.7928460   2.7928460   2.7928460   2.7928460   2.7928460   2.7928460   2.7928460
 Leave Link  101 at Fri Sep  3 00:05:16 2021, MaxMem=  268435456 cpu:       0.1
 (Enter /sw/target/amd/app/gaussian/Gaussian09RevA.02_gcc-4.9.2/g09/l103.exe)

 GradGradGradGradGradGradGradGradGradGradGradGradGradGradGradGradGradGrad
 Berny optimization.
 Initialization pass.
                           ----------------------------
                           !    Initial Parameters    !
                           ! (Angstroms and Degrees)  !
 --------------------------                            --------------------------
 ! Name  Definition              Value          Derivative Info.                !
 --------------------------------------------------------------------------------
 ! R1    R(1,2)                  1.5423         estimate D2E/DX2                !
 ! R2    R(1,19)                 1.0959         estimate D2E/DX2                !
 ! R3    R(1,20)                 1.096          estimate D2E/DX2                !
 ! R4    R(1,21)                 1.0956         estimate D2E/DX2                !
 ! R5    R(2,3)                  1.5403         estimate D2E/DX2                !
 ! R6    R(2,4)                  1.5423         estimate D2E/DX2                !
 ! R7    R(2,5)                  2.0896         estimate D2E/DX2                !
 ! R8    R(3,22)                 1.0954         estimate D2E/DX2                !
 ! R9    R(3,23)                 1.0954         estimate D2E/DX2                !
 ! R10   R(3,24)                 1.096          estimate D2E/DX2                !
 ! R11   R(4,25)                 1.0956         estimate D2E/DX2                !
 ! R12   R(4,26)                 1.096          estimate D2E/DX2                !
 ! R13   R(4,27)                 1.0959         estimate D2E/DX2                !
 ! R14   R(5,6)                  1.8762         estimate D2E/DX2                !
 ! R15   R(5,7)                  1.8762         estimate D2E/DX2                !
 ! R16   R(5,8)                  1.6676         estimate D2E/DX2                !
 ! R17   R(6,28)                 1.0937         estimate D2E/DX2                !
 ! R18   R(6,29)                 1.0937         estimate D2E/DX2                !
 ! R19   R(6,30)                 1.0938         estimate D2E/DX2                !
 ! R20   R(7,31)                 1.0937         estimate D2E/DX2                !
 ! R21   R(7,32)                 1.0937         estimate D2E/DX2                !
 ! R22   R(7,33)                 1.0938         estimate D2E/DX2                !
 ! R23   R(8,9)                  1.3669         estimate D2E/DX2                !
 ! R24   R(9,10)                 1.3918         estimate D2E/DX2                !
 ! R25   R(9,18)                 1.3969         estimate D2E/DX2                !
 ! R26   R(10,11)                1.3984         estimate D2E/DX2                !
 ! R27   R(10,34)                1.0842         estimate D2E/DX2                !
 ! R28   R(11,12)                1.4037         estimate D2E/DX2                !
 ! R29   R(11,35)                1.0878         estimate D2E/DX2                !
 ! R30   R(12,13)                1.4044         estimate D2E/DX2                !
 ! R31   R(12,17)                1.4128         estimate D2E/DX2                !
 ! R32   R(13,14)                1.3959         estimate D2E/DX2                !
 ! R33   R(13,36)                1.0876         estimate D2E/DX2                !
 ! R34   R(14,15)                1.3918         estimate D2E/DX2                !
 ! R35   R(14,37)                1.0868         estimate D2E/DX2                !
 ! R36   R(15,16)                1.3958         estimate D2E/DX2                !
 ! R37   R(15,38)                1.0868         estimate D2E/DX2                !
 ! R38   R(16,17)                1.4044         estimate D2E/DX2                !
 ! R39   R(16,39)                1.0877         estimate D2E/DX2                !
 ! R40   R(17,18)                1.4042         estimate D2E/DX2                !
 ! R41   R(18,40)                1.0876         estimate D2E/DX2                !
 ! A1    A(2,1,19)             110.7027         estimate D2E/DX2                !
 ! A2    A(2,1,20)             111.5359         estimate D2E/DX2                !
 ! A3    A(2,1,21)             111.5887         estimate D2E/DX2                !
 ! A4    A(19,1,20)            107.6125         estimate D2E/DX2                !
 ! A5    A(19,1,21)            107.4941         estimate D2E/DX2                !
 ! A6    A(20,1,21)            107.714          estimate D2E/DX2                !
 ! A7    A(1,2,3)              110.2787         estimate D2E/DX2                !
 ! A8    A(1,2,4)              109.9628         estimate D2E/DX2                !
 ! A9    A(1,2,5)              108.4312         estimate D2E/DX2                !
 ! A10   A(3,2,4)              110.2788         estimate D2E/DX2                !
 ! A11   A(3,2,5)              109.4116         estimate D2E/DX2                !
 ! A12   A(4,2,5)              108.4311         estimate D2E/DX2                !
 ! A13   A(2,3,22)             111.6453         estimate D2E/DX2                !
 ! A14   A(2,3,23)             111.6454         estimate D2E/DX2                !
 ! A15   A(2,3,24)             110.6452         estimate D2E/DX2                !
 ! A16   A(22,3,23)            107.7562         estimate D2E/DX2                !
 ! A17   A(22,3,24)            107.4734         estimate D2E/DX2                !
 ! A18   A(23,3,24)            107.4733         estimate D2E/DX2                !
 ! A19   A(2,4,25)             111.5886         estimate D2E/DX2                !
 ! A20   A(2,4,26)             111.5359         estimate D2E/DX2                !
 ! A21   A(2,4,27)             110.7027         estimate D2E/DX2                !
 ! A22   A(25,4,26)            107.7141         estimate D2E/DX2                !
 ! A23   A(25,4,27)            107.4941         estimate D2E/DX2                !
 ! A24   A(26,4,27)            107.6126         estimate D2E/DX2                !
 ! A25   A(2,5,6)              106.8056         estimate D2E/DX2                !
 ! A26   A(2,5,7)              106.8055         estimate D2E/DX2                !
 ! A27   A(2,5,8)              107.3275         estimate D2E/DX2                !
 ! A28   A(6,5,7)              110.4007         estimate D2E/DX2                !
 ! A29   A(6,5,8)              112.5576         estimate D2E/DX2                !
 ! A30   A(7,5,8)              112.5576         estimate D2E/DX2                !
 ! A31   A(5,6,28)             110.808          estimate D2E/DX2                !
 ! A32   A(5,6,29)             110.9071         estimate D2E/DX2                !
 ! A33   A(5,6,30)             110.7357         estimate D2E/DX2                !
 ! A34   A(28,6,29)            108.3324         estimate D2E/DX2                !
 ! A35   A(28,6,30)            108.0347         estimate D2E/DX2                !
 ! A36   A(29,6,30)            107.9101         estimate D2E/DX2                !
 ! A37   A(5,7,31)             110.9071         estimate D2E/DX2                !
 ! A38   A(5,7,32)             110.808          estimate D2E/DX2                !
 ! A39   A(5,7,33)             110.7357         estimate D2E/DX2                !
 ! A40   A(31,7,32)            108.3325         estimate D2E/DX2                !
 ! A41   A(31,7,33)            107.9102         estimate D2E/DX2                !
 ! A42   A(32,7,33)            108.0345         estimate D2E/DX2                !
 ! A43   A(5,8,9)              134.4511         estimate D2E/DX2                !
 ! A44   A(8,9,10)             124.6844         estimate D2E/DX2                !
 ! A45   A(8,9,18)             115.5857         estimate D2E/DX2                !
 ! A46   A(10,9,18)            119.7299         estimate D2E/DX2                !
 ! A47   A(9,10,11)            119.9418         estimate D2E/DX2                !
 ! A48   A(9,10,34)            121.7166         estimate D2E/DX2                !
 ! A49   A(11,10,34)           118.3416         estimate D2E/DX2                !
 ! A50   A(10,11,12)           120.9054         estimate D2E/DX2                !
 ! A51   A(10,11,35)           118.8386         estimate D2E/DX2                !
 ! A52   A(12,11,35)           120.2561         estimate D2E/DX2                !
 ! A53   A(11,12,13)           121.5235         estimate D2E/DX2                !
 ! A54   A(11,12,17)           119.1821         estimate D2E/DX2                !
 ! A55   A(13,12,17)           119.2944         estimate D2E/DX2                !
 ! A56   A(12,13,14)           120.7208         estimate D2E/DX2                !
 ! A57   A(12,13,36)           120.3717         estimate D2E/DX2                !
 ! A58   A(14,13,36)           118.9076         estimate D2E/DX2                !
 ! A59   A(13,14,15)           119.988          estimate D2E/DX2                !
 ! A60   A(13,14,37)           119.9674         estimate D2E/DX2                !
 ! A61   A(15,14,37)           120.0446         estimate D2E/DX2                !
 ! A62   A(14,15,16)           119.9811         estimate D2E/DX2                !
 ! A63   A(14,15,38)           120.0729         estimate D2E/DX2                !
 ! A64   A(16,15,38)           119.946          estimate D2E/DX2                !
 ! A65   A(15,16,17)           120.7302         estimate D2E/DX2                !
 ! A66   A(15,16,39)           118.9578         estimate D2E/DX2                !
 ! A67   A(17,16,39)           120.312          estimate D2E/DX2                !
 ! A68   A(12,17,16)           119.2856         estimate D2E/DX2                !
 ! A69   A(12,17,18)           119.2103         estimate D2E/DX2                !
 ! A70   A(16,17,18)           121.5042         estimate D2E/DX2                !
 ! A71   A(9,18,17)            121.0306         estimate D2E/DX2                !
 ! A72   A(9,18,40)            118.7803         estimate D2E/DX2                !
 ! A73   A(17,18,40)           120.1891         estimate D2E/DX2                !
 ! D1    D(19,1,2,3)           -61.548          estimate D2E/DX2                !
 ! D2    D(19,1,2,4)            60.2766         estimate D2E/DX2                !
 ! D3    D(19,1,2,5)           178.6761         estimate D2E/DX2                !
 ! D4    D(20,1,2,3)           178.6579         estimate D2E/DX2                !
 ! D5    D(20,1,2,4)           -59.5174         estimate D2E/DX2                !
 ! D6    D(20,1,2,5)            58.8821         estimate D2E/DX2                !
 ! D7    D(21,1,2,3)            58.1314         estimate D2E/DX2                !
 ! D8    D(21,1,2,4)           179.9561         estimate D2E/DX2                !
 ! D9    D(21,1,2,5)           -61.6444         estimate D2E/DX2                !
 ! D10   D(1,2,3,22)           -58.8328         estimate D2E/DX2                !
 ! D11   D(1,2,3,23)          -179.5287         estimate D2E/DX2                !
 ! D12   D(1,2,3,24)            60.8192         estimate D2E/DX2                !
 ! D13   D(4,2,3,22)           179.5297         estimate D2E/DX2                !
 ! D14   D(4,2,3,23)            58.8338         estimate D2E/DX2                !
 ! D15   D(4,2,3,24)           -60.8183         estimate D2E/DX2                !
 ! D16   D(5,2,3,22)            60.3485         estimate D2E/DX2                !
 ! D17   D(5,2,3,23)           -60.3474         estimate D2E/DX2                !
 ! D18   D(5,2,3,24)          -179.9995         estimate D2E/DX2                !
 ! D19   D(1,2,4,25)          -179.9553         estimate D2E/DX2                !
 ! D20   D(1,2,4,26)            59.5182         estimate D2E/DX2                !
 ! D21   D(1,2,4,27)           -60.2759         estimate D2E/DX2                !
 ! D22   D(3,2,4,25)           -58.1306         estimate D2E/DX2                !
 ! D23   D(3,2,4,26)          -178.6571         estimate D2E/DX2                !
 ! D24   D(3,2,4,27)            61.5488         estimate D2E/DX2                !
 ! D25   D(5,2,4,25)            61.6452         estimate D2E/DX2                !
 ! D26   D(5,2,4,26)           -58.8813         estimate D2E/DX2                !
 ! D27   D(5,2,4,27)          -178.6754         estimate D2E/DX2                !
 ! D28   D(1,2,5,6)             61.2478         estimate D2E/DX2                !
 ! D29   D(1,2,5,7)            179.3859         estimate D2E/DX2                !
 ! D30   D(1,2,5,8)            -59.6832         estimate D2E/DX2                !
 ! D31   D(3,2,5,6)            -59.0691         estimate D2E/DX2                !
 ! D32   D(3,2,5,7)             59.069          estimate D2E/DX2                !
 ! D33   D(3,2,5,8)            179.9999         estimate D2E/DX2                !
 ! D34   D(4,2,5,6)           -179.386          estimate D2E/DX2                !
 ! D35   D(4,2,5,7)            -61.2479         estimate D2E/DX2                !
 ! D36   D(4,2,5,8)             59.6831         estimate D2E/DX2                !
 ! D37   D(2,5,6,28)           -61.9179         estimate D2E/DX2                !
 ! D38   D(2,5,6,29)            58.4375         estimate D2E/DX2                !
 ! D39   D(2,5,6,30)           178.2141         estimate D2E/DX2                !
 ! D40   D(7,5,6,28)          -177.6751         estimate D2E/DX2                !
 ! D41   D(7,5,6,29)           -57.3197         estimate D2E/DX2                !
 ! D42   D(7,5,6,30)            62.4569         estimate D2E/DX2                !
 ! D43   D(8,5,6,28)            55.6211         estimate D2E/DX2                !
 ! D44   D(8,5,6,29)           175.9765         estimate D2E/DX2                !
 ! D45   D(8,5,6,30)           -64.2469         estimate D2E/DX2                !
 ! D46   D(2,5,7,31)           -58.4375         estimate D2E/DX2                !
 ! D47   D(2,5,7,32)            61.918          estimate D2E/DX2                !
 ! D48   D(2,5,7,33)          -178.2142         estimate D2E/DX2                !
 ! D49   D(6,5,7,31)            57.3198         estimate D2E/DX2                !
 ! D50   D(6,5,7,32)           177.6753         estimate D2E/DX2                !
 ! D51   D(6,5,7,33)           -62.4569         estimate D2E/DX2                !
 ! D52   D(8,5,7,31)          -175.9764         estimate D2E/DX2                !
 ! D53   D(8,5,7,32)           -55.6209         estimate D2E/DX2                !
 ! D54   D(8,5,7,33)            64.2469         estimate D2E/DX2                !
 ! D55   D(2,5,8,9)           -179.9997         estimate D2E/DX2                !
 ! D56   D(6,5,8,9)             62.7706         estimate D2E/DX2                !
 ! D57   D(7,5,8,9)            -62.7701         estimate D2E/DX2                !
 ! D58   D(5,8,9,10)            -0.0003         estimate D2E/DX2                !
 ! D59   D(5,8,9,18)           179.9998         estimate D2E/DX2                !
 ! D60   D(8,9,10,11)          180.0            estimate D2E/DX2                !
 ! D61   D(8,9,10,34)            0.0001         estimate D2E/DX2                !
 ! D62   D(18,9,10,11)           0.0            estimate D2E/DX2                !
 ! D63   D(18,9,10,34)        -180.0            estimate D2E/DX2                !
 ! D64   D(8,9,18,17)          179.9999         estimate D2E/DX2                !
 ! D65   D(8,9,18,40)            0.0            estimate D2E/DX2                !
 ! D66   D(10,9,18,17)           0.0            estimate D2E/DX2                !
 ! D67   D(10,9,18,40)        -179.9999         estimate D2E/DX2                !
 ! D68   D(9,10,11,12)           0.0001         estimate D2E/DX2                !
 ! D69   D(9,10,11,35)         180.0            estimate D2E/DX2                !
 ! D70   D(34,10,11,12)       -180.0            estimate D2E/DX2                !
 ! D71   D(34,10,11,35)         -0.0001         estimate D2E/DX2                !
 ! D72   D(10,11,12,13)        180.0            estimate D2E/DX2                !
 ! D73   D(10,11,12,17)         -0.0001         estimate D2E/DX2                !
 ! D74   D(35,11,12,13)          0.0001         estimate D2E/DX2                !
 ! D75   D(35,11,12,17)       -180.0            estimate D2E/DX2                !
 ! D76   D(11,12,13,14)        180.0            estimate D2E/DX2                !
 ! D77   D(11,12,13,36)         -0.0001         estimate D2E/DX2                !
 ! D78   D(17,12,13,14)          0.0            estimate D2E/DX2                !
 ! D79   D(17,12,13,36)        180.0            estimate D2E/DX2                !
 ! D80   D(11,12,17,16)       -179.9999         estimate D2E/DX2                !
 ! D81   D(11,12,17,18)          0.0            estimate D2E/DX2                !
 ! D82   D(13,12,17,16)          0.0            estimate D2E/DX2                !
 ! D83   D(13,12,17,18)        180.0            estimate D2E/DX2                !
 ! D84   D(12,13,14,15)          0.0            estimate D2E/DX2                !
 ! D85   D(12,13,14,37)        180.0            estimate D2E/DX2                !
 ! D86   D(36,13,14,15)       -180.0            estimate D2E/DX2                !
 ! D87   D(36,13,14,37)          0.0            estimate D2E/DX2                !
 ! D88   D(13,14,15,16)          0.0            estimate D2E/DX2                !
 ! D89   D(13,14,15,38)        180.0            estimate D2E/DX2                !
 ! D90   D(37,14,15,16)        180.0            estimate D2E/DX2                !
 ! D91   D(37,14,15,38)          0.0            estimate D2E/DX2                !
 ! D92   D(14,15,16,17)          0.0            estimate D2E/DX2                !
 ! D93   D(14,15,16,39)       -180.0            estimate D2E/DX2                !
 ! D94   D(38,15,16,17)       -180.0            estimate D2E/DX2                !
 ! D95   D(38,15,16,39)          0.0            estimate D2E/DX2                !
 ! D96   D(15,16,17,12)          0.0            estimate D2E/DX2                !
 ! D97   D(15,16,17,18)       -180.0            estimate D2E/DX2                !
 ! D98   D(39,16,17,12)        180.0            estimate D2E/DX2                !
 ! D99   D(39,16,17,18)          0.0001         estimate D2E/DX2                !
 ! D100  D(12,17,18,9)           0.0001         estimate D2E/DX2                !
 ! D101  D(12,17,18,40)        180.0            estimate D2E/DX2                !
 ! D102  D(16,17,18,9)        -180.0            estimate D2E/DX2                !
 ! D103  D(16,17,18,40)         -0.0001         estimate D2E/DX2                !
 --------------------------------------------------------------------------------
 Trust Radius=3.00D-01 FncErr=1.00D-07 GrdErr=1.00D-06
 Number of steps in this run= 227 maximum allowed number of steps= 240.
 GradGradGradGradGradGradGradGradGradGradGradGradGradGradGradGradGradGrad

 Leave Link  103 at Fri Sep  3 00:05:16 2021, MaxMem=  268435456 cpu:       0.0
 (Enter /sw/target/amd/app/gaussian/Gaussian09RevA.02_gcc-4.9.2/g09/l202.exe)
                          Input orientation:                          
 ---------------------------------------------------------------------
 Center     Atomic      Atomic             Coordinates (Angstroms)
 Number     Number       Type             X           Y           Z
 ---------------------------------------------------------------------
      1          6           0       -3.230366    1.850046    0.167439
      2          6           0       -3.281939    0.439157   -0.453309
      3          6           0       -4.584474   -0.275537   -0.047021
      4          6           0       -3.181930    0.535712   -1.989302
      5         14           0       -1.643449   -0.651531    0.248160
      6          6           0       -1.820287   -0.757067    2.112987
      7          6           0       -1.761214   -2.360217   -0.517683
      8          8           0       -0.266561    0.165186   -0.218635
      9          6           0        1.073985   -0.048622   -0.058241
     10          6           0        1.628001   -1.133334    0.615231
     11          6           0        3.017221   -1.254248    0.720107
     12          6           0        3.869366   -0.293325    0.153646
     13          6           0        5.266145   -0.401875    0.251158
     14          6           0        6.097911    0.563571   -0.318518
     15          6           0        5.544614    1.648563   -0.992144
     16          6           0        4.158220    1.770731   -1.097722
     17          6           0        3.307647    0.808014   -0.530131
     18          6           0        1.910800    0.914799   -0.626570
     19          1           0       -4.063028    2.463507   -0.195104
     20          1           0       -2.299802    2.368847   -0.089500
     21          1           0       -3.300320    1.812495    1.260143
     22          1           0       -4.674447   -0.363768    1.041089
     23          1           0       -4.640510   -1.284505   -0.469757
     24          1           0       -5.458320    0.280457   -0.405483
     25          1           0       -3.216821   -0.453690   -2.458526
     26          1           0       -2.250106    1.020452   -2.302112
     27          1           0       -4.013602    1.122526   -2.395585
     28          1           0       -1.793758    0.239522    2.562794
     29          1           0       -2.764961   -1.234051    2.389069
     30          1           0       -1.006836   -1.345982    2.546417
     31          1           0       -2.705671   -2.843079   -0.251250
     32          1           0       -1.700094   -2.302285   -1.608154
     33          1           0       -0.945920   -2.999128   -0.166293
     34          1           0        1.008989   -1.899571    1.068284
     35          1           0        3.430929   -2.109170    1.250393
     36          1           0        5.717245   -1.242419    0.773521
     37          1           0        7.177306    0.467420   -0.235688
     38          1           0        6.190936    2.401069   -1.436216
     39          1           0        3.743690    2.625325   -1.627826
     40          1           0        1.461412    1.756002   -1.149295
 ---------------------------------------------------------------------
                    Distance matrix (angstroms):
                    1          2          3          4          5
     1  C    0.000000
     2  C    1.542270   0.000000
     3  C    2.529368   1.540278   0.000000
     4  C    2.526134   1.542271   2.529370   0.000000
     5  Si   2.963564   2.089571   2.979619   2.963563   0.000000
     6  C    3.545493   3.186417   3.540937   4.511555   1.876163
     7  C    4.511553   3.186415   3.540934   3.545490   1.876164
     8  O    3.431027   3.036879   4.343738   3.431024   1.667557
     9  C    4.709916   4.400918   5.663018   4.709910   2.800326
    10  C    5.718811   5.265170   6.306286   5.718806   3.327050
    11  C    6.998173   6.627514   7.702735   6.998166   4.723118
    12  C    7.416227   7.214297   8.456240   7.416219   5.525249
    13  C    8.790271   8.618199   9.855941   8.790262   6.914103
    14  C    9.429100   9.381643  10.718730   9.429090   7.856606
    15  C    8.853559   8.925304  10.353446   8.853549   7.648336
    16  C    7.496541   7.585797   9.040237   7.496532   6.429472
    17  C    6.657180   6.600349   7.980793   6.657172   5.220092
    18  C    5.285520   5.217355   6.628828   5.285513   3.981360
    19  H    1.095946   2.185123   2.792167   2.777026   3.969170
    20  H    1.095957   2.195599   3.494896   2.783484   3.109260
    21  H    1.095585   2.195977   2.778058   3.493291   3.136998
    22  H    2.783812   2.194765   1.095383   3.495703   3.146187
    23  H    3.495702   2.194766   1.095382   2.783822   3.146178
    24  H    2.784893   2.182684   1.096007   2.784886   3.981092
    25  H    3.493290   2.195976   2.778051   1.095584   3.137003
    26  H    2.783490   2.195599   3.494896   1.095956   3.109252
    27  H    2.777019   2.185122   2.792173   1.095945   3.969168
    28  H    3.224183   3.369186   3.855453   4.768263   2.484773
    29  H    3.829347   3.338563   3.188089   4.740892   2.486083
    30  H    4.562698   4.166674   4.546566   5.370713   2.483853
    31  H    4.740889   3.338560   3.188084   3.829344   2.486083
    32  H    4.768261   3.369185   3.855450   3.224180   2.484773
    33  H    5.370713   4.166673   4.546565   4.562696   2.483854
    34  H    5.730906   5.118296   5.930280   5.730902   3.043950
    35  H    7.824387   7.379646   8.324192   7.824380   5.373871
    36  H    9.486328   9.236781  10.379478   9.486319   7.403038
    37  H   10.506846  10.461547  11.786732  10.506836   8.904599
    38  H    9.572683   9.723712  11.189439   9.572673   8.575143
    39  H    7.243031   7.451059   8.959479   7.243021   6.578630
    40  H    4.873953   4.971706   6.472627   4.873945   4.170043
                    6          7          8          9         10
     6  C    0.000000
     7  C    3.081234   0.000000
     8  O    2.949759   2.949759   0.000000
     9  C    3.686860   3.686857   1.366932   0.000000
    10  C    3.778299   3.778295   2.443533   1.391797   0.000000
    11  C    5.058536   5.058531   3.698548   2.415683   1.398410
    12  C    6.035414   6.035409   4.177884   2.814059   2.437702
    13  C    7.335536   7.335530   5.581496   4.218379   3.728763
    14  C    8.387739   8.387732   6.377710   5.067776   4.871496
    15  C    8.346895   8.346889   6.047188   4.872282   5.065813
    16  C    7.241613   7.241607   4.788450   3.728682   4.215425
    17  C    5.977563   5.977558   3.644890   2.438391   2.811031
    18  C    4.921516   4.921511   2.338639   1.396939   2.411824
    19  H    4.552941   5.354504   4.438017   5.720002   6.780982
    20  H    3.853858   4.778856   3.001144   4.150611   5.309384
    21  H    3.085529   4.789680   3.755543   4.933197   5.777730
    22  H    3.074066   3.860376   4.614776   5.861085   6.363524
    23  H    3.860365   3.074052   4.614769   5.861075   6.363512
    24  H    4.544715   4.544705   5.196399   6.549800   7.297712
    25  H    4.789684   3.085532   3.755550   4.933200   5.777733
    26  H    4.778851   3.853845   3.001134   4.150597   5.309369
    27  H    5.354505   4.552940   4.438009   5.719992   6.780974
    28  H    1.093718   4.031010   3.173989   3.895741   4.169673
    29  H    1.093684   3.274899   3.872982   4.704474   4.738645
    30  H    1.093794   3.314584   3.236842   3.577318   3.273693
    31  H    3.274900   1.093682   3.872981   4.704470   4.738642
    32  H    4.031009   1.093718   3.173987   3.895734   4.169665
    33  H    3.314585   1.093795   3.236843   3.577314   3.273688
    34  H    3.225139   3.225137   2.747073   2.167786   1.084229
    35  H    5.490676   5.490671   4.582813   3.393165   2.146214
    36  H    7.670992   7.670986   6.226689   4.865886   4.093760
    37  H    9.379356   9.379349   7.450020   6.127668   5.837916
    38  H    9.313987   9.313981   6.941249   5.838064   6.125424
    39  H    7.509467   7.509462   4.911234   4.091566   4.861580
    40  H    5.265695   5.265692   2.526403   2.144100   3.389626
                   11         12         13         14         15
    11  C    0.000000
    12  C    1.403710   0.000000
    13  C    2.450329   1.404380   0.000000
    14  C    3.724763   2.433849   1.395869   0.000000
    15  C    4.212580   2.808953   2.414051   1.391804   0.000000
    16  C    3.709027   2.430985   2.786968   2.413876   1.395765
    17  C    2.429067   1.412808   2.431041   2.808933   2.433927
    18  C    2.782530   2.429873   3.709768   4.213093   3.725139
    19  H    8.049176   8.405036   9.769495  10.337779   9.675029
    20  H    6.484830   6.723460   8.064521   8.592616   7.928962
    21  H    7.043286   7.554020   8.905381   9.611385   9.128665
    22  H    7.749693   8.590067   9.972001  10.897348  10.611914
    23  H    7.749680   8.590056   9.971989  10.897337  10.611905
    24  H    8.686603   9.362028  10.766193  11.560026  11.103173
    25  H    7.043286   7.554019   8.905380   9.611383   9.128663
    26  H    6.484813   6.723444   8.064504   8.592600   7.928947
    27  H    8.049165   8.405022   9.769481  10.337762   9.675012
    28  H    5.363988   6.177289   7.456358   8.407461   8.274943
    29  H    6.018261   7.063737   8.352356   9.439967   9.422903
    30  H    4.420052   5.532701   6.746098   7.895041   8.025597
    31  H    6.018256   7.063731   8.352349   9.439960   9.422896
    32  H    5.363976   6.177276   7.456345   8.407448   8.274930
    33  H    4.420045   5.532695   6.746091   7.895033   8.025590
    34  H    2.137911   3.405634   4.586302   5.821290   6.116086
    35  H    1.087773   2.166189   2.698397   4.088743   4.859752
    36  H    2.700578   2.167875   1.087598   2.144541   3.391924
    37  H    4.602607   3.416545   2.155279   1.086830   2.152442
    38  H    5.299390   3.895781   3.399848   2.152743   1.086829
    39  H    4.592563   3.421689   3.874583   3.392267   2.145107
    40  H    3.869988   3.419889   4.592787   4.858930   4.087637
                   16         17         18         19         20
    16  C    0.000000
    17  C    1.404442   0.000000
    18  C    2.450612   1.404238   0.000000
    19  H    8.299613   7.561729   6.186379   0.000000
    20  H    6.563559   5.837280   4.486855   1.768920   0.000000
    21  H    7.822473   6.919486   5.614385   1.767282   1.769774
    22  H    9.335235   8.219223   6.912402   3.145710   3.792671
    23  H    9.335227   8.219214   6.912394   3.802172   4.355513
    24  H    9.755919   8.782712   7.399676   2.599386   3.799665
    25  H    7.822472   6.919486   5.614385   3.788032   3.797357
    26  H    6.563544   5.837265   4.486841   3.131865   2.591581
    27  H    8.299596   7.561714   6.186364   2.577361   3.131845
    28  H    7.153322   5.992804   4.934753   4.207338   3.438716
    29  H    8.313655   7.040478   5.964426   4.694131   4.397789
    30  H    7.047798   5.720106   4.867399   5.600755   4.734952
    31  H    8.313649   7.040472   5.964421   5.477721   5.230207
    32  H    7.153310   5.992793   4.934743   5.503902   4.948276
    33  H    7.047791   5.720100   4.867394   6.289481   5.536610
    34  H    5.299090   3.894840   3.406827   6.808668   5.523401
    35  H    4.593063   3.419858   3.870164   8.897091   7.395217
    36  H    3.874427   3.421980   4.593786  10.503612   8.835106
    37  H    3.399500   3.895762   5.299908  11.416266   9.667077
    38  H    2.154957   3.416456   4.602618  10.328990   8.596936
    39  H    1.087739   2.167415   2.699611   7.938748   6.241476
    40  H    2.697341   2.165786   1.087572   5.650706   3.955436
                   21         22         23         24         25
    21  H    0.000000
    22  H    2.583085   0.000000
    23  H    3.792107   1.769623   0.000000
    24  H    3.127046   1.766933   1.766932   0.000000
    25  H    4.355579   3.792106   2.583088   3.127023   0.000000
    26  H    3.797360   4.355512   3.792675   3.799662   1.769773
    27  H    3.788031   3.802172   3.145731   2.599384   1.767280
    28  H    2.537887   3.313294   4.429788   4.716074   5.264913
    29  H    3.292799   2.494109   3.419520   4.166226   4.930752
    30  H    4.109811   4.084376   4.722782   5.583433   5.543435
    31  H    4.930749   3.419532   2.494093   4.166214   3.292798
    32  H    5.264909   4.429798   3.313287   4.716062   2.537892
    33  H    5.543432   4.722797   4.084363   5.583426   4.109815
    34  H    5.690904   5.887349   5.887335   6.982163   5.690908
    35  H    7.790331   8.293814   8.293800   9.352593   7.790332
    36  H    9.533403  10.432204  10.432191  11.340302   9.533402
    37  H   10.668992  11.949271  11.949260  12.638150  10.668989
    38  H    9.884367  11.482069  11.482061  11.885477   9.884364
    39  H    7.656313   9.323241   9.323235   9.574420   7.656312
    40  H    5.336916   6.851275   6.851270   7.114294   5.336918
                   26         27         28         29         30
    26  H    0.000000
    27  H    1.768919   0.000000
    28  H    4.948274   5.503901   0.000000
    29  H    5.230204   5.477725   1.773368   0.000000
    30  H    5.536602   6.289480   1.770124   1.768697   0.000000
    31  H    4.397777   4.694132   4.272336   3.092535   3.599206
    32  H    3.438702   4.207338   4.885321   4.272336   4.319211
    33  H    4.734939   5.600754   4.319213   3.599206   3.177326
    34  H    5.523387   6.808662   3.829448   4.053405   2.560252
    35  H    7.395200   8.897081   5.876743   6.360147   4.685712
    36  H    8.835088  10.503598   7.862113   8.634691   6.954650
    37  H    9.667060  11.416249   9.400182  10.422717   8.832254
    38  H    8.596922  10.328972   9.188020  10.394950   9.039341
    39  H    6.241464   7.938730   7.342798   8.566958   7.467468
    40  H    3.955425   5.650691   5.164828   6.270779   5.419672
                   31         32         33         34         35
    31  H    0.000000
    32  H    1.773367   0.000000
    33  H    1.768698   1.770122   0.000000
    34  H    4.053403   3.829442   2.560249   0.000000
    35  H    6.360143   5.876732   4.685705   2.437804   0.000000
    36  H    8.634685   7.862100   6.954642   4.763025   2.491165
    37  H   10.422710   9.400168   8.832246   6.734324   4.783575
    38  H   10.394943   9.188006   9.039333   7.184748   5.931084
    39  H    8.566952   7.342786   7.467462   5.934836   5.549541
    40  H    6.270774   5.164820   5.419668   4.299483   4.957525
                   36         37         38         39         40
    36  H    0.000000
    37  H    2.464514   0.000000
    38  H    4.287461   2.480563   0.000000
    39  H    4.961938   4.287694   2.464958   0.000000
    40  H    5.549763   5.930140   4.781928   2.488676   0.000000
 Stoichiometry    C16H22OSi
 Framework group  C1[X(C16H22OSi)]
 Deg. of freedom   114
 Full point group                 C1      NOp   1
 Largest Abelian subgroup         C1      NOp   1
 Largest concise Abelian subgroup C1      NOp   1
                         Standard orientation:                         
 ---------------------------------------------------------------------
 Center     Atomic      Atomic             Coordinates (Angstroms)
 Number     Number       Type             X           Y           Z
 ---------------------------------------------------------------------
      1          6           0        3.565612    1.693694   -1.263067
      2          6           0        3.708344    0.820263    0.000000
      3          6           0        5.069914    0.100137    0.000007
      4          6           0        3.565603    1.693698    1.263067
      5         14           0        2.173041   -0.597183   -0.000002
      6          6           0        2.400712   -1.643444   -1.540616
      7          6           0        2.400706   -1.643439    1.540618
      8          8           0        0.728287    0.235543   -0.000005
      9          6           0       -0.588351   -0.131838   -0.000003
     10          6           0       -1.043629   -1.447065   -0.000001
     11          6           0       -2.417049   -1.710251    0.000002
     12          6           0       -3.351815   -0.663057   -0.000000
     13          6           0       -4.733870   -0.912472    0.000002
     14          6           0       -5.648734    0.141794    0.000002
     15          6           0       -5.194198    1.457284   -0.000000
     16          6           0       -3.823705    1.721687   -0.000002
     17          6           0       -2.890345    0.672260   -0.000002
     18          6           0       -1.508065    0.919619   -0.000003
     19          1           0        4.341257    2.467527   -1.288682
     20          1           0        2.593034    2.197818   -1.295791
     21          1           0        3.663635    1.098731   -2.177789
     22          1           0        5.191587   -0.534025   -0.884808
     23          1           0        5.191575   -0.534037    0.884815
     24          1           0        5.891020    0.826097    0.000018
     25          1           0        3.663633    1.098739    2.177790
     26          1           0        2.593019    2.197811    1.295789
     27          1           0        4.341239    2.467538    1.288679
     28          1           0        2.310026   -1.031635   -2.442661
     29          1           0        3.384668   -2.120877   -1.546263
     30          1           0        1.644031   -2.431803   -1.588662
     31          1           0        3.384662   -2.120870    1.546271
     32          1           0        2.310014   -1.031627    2.442660
     33          1           0        1.644024   -2.431798    1.588664
     34          1           0       -0.358516   -2.287406   -0.000000
     35          1           0       -2.753019   -2.744840    0.000003
     36          1           0       -5.108379   -1.933555    0.000004
     37          1           0       -6.715657   -0.065270    0.000004
     38          1           0       -5.905297    2.279193   -0.000000
     39          1           0       -3.486887    2.755964   -0.000003
     40          1           0       -1.135320    1.941321   -0.000005
 ---------------------------------------------------------------------
 Rotational constants (GHZ):      0.9672335      0.1670139      0.1541560
 Leave Link  202 at Fri Sep  3 00:05:16 2021, MaxMem=  268435456 cpu:       0.0
 (Enter /sw/target/amd/app/gaussian/Gaussian09RevA.02_gcc-4.9.2/g09/l301.exe)
 Standard basis: 6-31G(d) (6D, 7F)
 Ernie: Thresh=  0.10000D-02 Tol=  0.10000D-05 Strict=F.
 There are   318 symmetry adapted basis functions of A   symmetry.
 Integral buffers will be    131072 words long.
 Raffenetti 2 integral format.
 Two-electron integral symmetry is turned on.
   318 basis functions,   616 primitive gaussians,   318 cartesian basis functions
    70 alpha electrons       70 beta electrons
       nuclear repulsion energy      1396.9405733922 Hartrees.
 IExCor=  402 DFT=T Ex+Corr=B3LYP ExCW=0 ScaHFX=  0.200000
 ScaDFX=  0.800000  0.720000  1.000000  0.810000 ScalE2=  1.000000  1.000000
 IRadAn=      0 IRanWt=     -1 IRanGd=            0 ICorTp=0
 NAtoms=   40 NActive=   40 NUniq=   40 SFac= 7.50D-01 NAtFMM=   80 NAOKFM=F Big=F
 Leave Link  301 at Fri Sep  3 00:05:16 2021, MaxMem=  268435456 cpu:       0.1
 (Enter /sw/target/amd/app/gaussian/Gaussian09RevA.02_gcc-4.9.2/g09/l302.exe)
 NPDir=0 NMtPBC=     1 NCelOv=     1 NCel=       1 NClECP=     1 NCelD=      1
         NCelK=      1 NCelE2=     1 NClLst=     1 CellRange=     0.0.
 One-electron integrals computed using PRISM.
 NBasis=   318 RedAO= T  NBF=   318
 NBsUse=   318 1.00D-06 NBFU=   318
 Precomputing XC quadrature grid using
 IXCGrd= 2 IRadAn=           0 IRanWt=          -1 IRanGd=           0 AccXCQ= 1.00D-10.
 NRdTot=    2549 NPtTot=      325156 NUsed=      343532 NTot=      343564
 NSgBfM=   316   316   316   316   316 NAtAll=    40    40.
 Leave Link  302 at Fri Sep  3 00:05:18 2021, MaxMem=  268435456 cpu:       2.3
 (Enter /sw/target/amd/app/gaussian/Gaussian09RevA.02_gcc-4.9.2/g09/l303.exe)
 DipDrv:  MaxL=1.
 Leave Link  303 at Fri Sep  3 00:05:18 2021, MaxMem=  268435456 cpu:       0.1
 (Enter /sw/target/amd/app/gaussian/Gaussian09RevA.02_gcc-4.9.2/g09/l401.exe)
 Harris functional with IExCor=  402 diagonalized for initial guess.
 ExpMin= 7.78D-02 ExpMax= 1.61D+04 ExpMxC= 2.43D+03 IAcc=2 IRadAn=         0 AccDes= 0.00D+00
 HarFok:  IExCor=  402 AccDes= 0.00D+00 IRadAn=         0 IDoV= 1
 ScaDFX=  1.000000  1.000000  1.000000  1.000000
 FoFCou: FMM=F IPFlag=           0 FMFlag=      100000 FMFlg1=           0
         NFxFlg=           0 DoJE=T BraDBF=F KetDBF=T FulRan=T
         Omega=  0.000000  0.000000  1.000000  0.000000  0.000000 ICntrl=     500 IOpCl=  0
         NMat0=    1 NMatS0=    1 NMatT0=    0 NMatD0=    1 NMtDS0=    0 NMtDT0=    0
         I1Cent=           4 NGrid=           0.
 Petite list used in FoFCou.
 Harris En= -987.973635961284    
 Initial guess orbital symmetries:
       Occupied  (A) (A) (A) (A) (A) (A) (A) (A) (A) (A) (A) (A)
                 (A) (A) (A) (A) (A) (A) (A) (A) (A) (A) (A) (A)
                 (A) (A) (A) (A) (A) (A) (A) (A) (A) (A) (A) (A)
                 (A) (A) (A) (A) (A) (A) (A) (A) (A) (A) (A) (A)
                 (A) (A) (A) (A) (A) (A) (A) (A) (A) (A) (A) (A)
                 (A) (A) (A) (A) (A) (A) (A) (A) (A) (A)
       Virtual   (A) (A) (A) (A) (A) (A) (A) (A) (A) (A) (A) (A)
                 (A) (A) (A) (A) (A) (A) (A) (A) (A) (A) (A) (A)
                 (A) (A) (A) (A) (A) (A) (A) (A) (A) (A) (A) (A)
                 (A) (A) (A) (A) (A) (A) (A) (A) (A) (A) (A) (A)
                 (A) (A) (A) (A) (A) (A) (A) (A) (A) (A) (A) (A)
                 (A) (A) (A) (A) (A) (A) (A) (A) (A) (A) (A) (A)
                 (A) (A) (A) (A) (A) (A) (A) (A) (A) (A) (A) (A)
                 (A) (A) (A) (A) (A) (A) (A) (A) (A) (A) (A) (A)
                 (A) (A) (A) (A) (A) (A) (A) (A) (A) (A) (A) (A)
                 (A) (A) (A) (A) (A) (A) (A) (A) (A) (A) (A) (A)
                 (A) (A) (A) (A) (A) (A) (A) (A) (A) (A) (A) (A)
                 (A) (A) (A) (A) (A) (A) (A) (A) (A) (A) (A) (A)
                 (A) (A) (A) (A) (A) (A) (A) (A) (A) (A) (A) (A)
                 (A) (A) (A) (A) (A) (A) (A) (A) (A) (A) (A) (A)
                 (A) (A) (A) (A) (A) (A) (A) (A) (A) (A) (A) (A)
                 (A) (A) (A) (A) (A) (A) (A) (A) (A) (A) (A) (A)
                 (A) (A) (A) (A) (A) (A) (A) (A) (A) (A) (A) (A)
                 (A) (A) (A) (A) (A) (A) (A) (A) (A) (A) (A) (A)
                 (A) (A) (A) (A) (A) (A) (A) (A) (A) (A) (A) (A)
                 (A) (A) (A) (A) (A) (A) (A) (A) (A) (A) (A) (A)
                 (A) (A) (A) (A) (A) (A) (A) (A)
 The electronic state of the initial guess is 1-A.
 Leave Link  401 at Fri Sep  3 00:05:45 2021, MaxMem=  268435456 cpu:      26.5
 (Enter /sw/target/amd/app/gaussian/Gaussian09RevA.02_gcc-4.9.2/g09/l502.exe)
 Closed shell SCF:
 Requested convergence on RMS density matrix=1.00D-08 within  64 cycles.
 Requested convergence on MAX density matrix=1.00D-06.
 Requested convergence on             energy=1.00D-06.
 No special actions if energy rises.
 Using DIIS extrapolation, IDIIS=  1040.
 Integral symmetry usage will be decided dynamically.
       343159 words used for storage of precomputed grid.
 IEnd=      656400 IEndB=      656400 NGot=   268435456 MDV=   267884723
 LenX=   267884723 LenY=   267783158
 Fock matrices will be formed incrementally for  20 cycles.
 Integral accuracy reduced to 1.0D-05 until final iterations.

 Cycle   1  Pass 0  IDiag  1:
 FoFCou: FMM=F IPFlag=           0 FMFlag=      100000 FMFlg1=           0
         NFxFlg=           0 DoJE=F BraDBF=F KetDBF=F FulRan=T
         Omega=  0.000000  0.000000  1.000000  0.000000  0.000000 ICntrl=       0 IOpCl=  0
         NMat0=    1 NMatS0=    1 NMatT0=    0 NMatD0=    1 NMtDS0=    0 NMtDT0=    0
         I1Cent=           0 NGrid=           0.
 Symmetry not used in FoFCou.
 E= -987.028212741181    
 DIIS: error= 4.91D-02 at cycle   1 NSaved=   1.
 NSaved= 1 IEnMin= 1 EnMin= -987.028212741181     IErMin= 1 ErrMin= 4.91D-02
 ErrMax= 4.91D-02 EMaxC= 1.00D-01 BMatC= 6.82D-01 BMatP= 6.82D-01
 IDIUse=3 WtCom= 5.09D-01 WtEn= 4.91D-01
 Coeff-Com:  0.100D+01
 Coeff-En:   0.100D+01
 Coeff:      0.100D+01
 Gap=     0.161 Goal=   None    Shift=    0.000
 GapD=    0.161 DampG=1.000 DampE=0.500 DampFc=0.5000 IDamp=-1.
 Damping current iteration by 5.00D-01
 RMSDP=5.90D-03 MaxDP=2.41D-01              OVMax= 2.47D-01

 Cycle   2  Pass 0  IDiag  1:
 RMSU=  2.04D-03    CP:  9.70D-01
 E= -987.352595057604     Delta-E=       -0.324382316423 Rises=F Damp=T
 DIIS: error= 1.05D-02 at cycle   2 NSaved=   2.
 NSaved= 2 IEnMin= 2 EnMin= -987.352595057604     IErMin= 2 ErrMin= 1.05D-02
 ErrMax= 1.05D-02 EMaxC= 1.00D-01 BMatC= 2.66D-02 BMatP= 6.82D-01
 IDIUse=3 WtCom= 8.95D-01 WtEn= 1.05D-01
 Coeff-Com:  0.636D-01 0.936D+00
 Coeff-En:   0.111D+00 0.889D+00
 Coeff:      0.685D-01 0.931D+00
 Gap=     0.165 Goal=   None    Shift=    0.000
 RMSDP=1.47D-03 MaxDP=7.22D-02 DE=-3.24D-01 OVMax= 1.61D-01

 Cycle   3  Pass 0  IDiag  1:
 RMSU=  1.01D-03    CP:  9.58D-01  9.03D-01
 E= -987.731234486489     Delta-E=       -0.378639428885 Rises=F Damp=F
 DIIS: error= 6.31D-03 at cycle   3 NSaved=   3.
 NSaved= 3 IEnMin= 3 EnMin= -987.731234486489     IErMin= 3 ErrMin= 6.31D-03
 ErrMax= 6.31D-03 EMaxC= 1.00D-01 BMatC= 1.38D-02 BMatP= 2.66D-02
 IDIUse=3 WtCom= 9.37D-01 WtEn= 6.31D-02
 Coeff-Com:  0.837D-02 0.396D+00 0.596D+00
 Coeff-En:   0.000D+00 0.000D+00 0.100D+01
 Coeff:      0.784D-02 0.371D+00 0.621D+00
 Gap=     0.161 Goal=   None    Shift=    0.000
 RMSDP=6.86D-04 MaxDP=2.80D-02 DE=-3.79D-01 OVMax= 6.44D-02

 Cycle   4  Pass 0  IDiag  1:
 RMSU=  3.66D-04    CP:  9.60D-01  9.44D-01  6.96D-01
 E= -987.739186470356     Delta-E=       -0.007951983867 Rises=F Damp=F
 DIIS: error= 5.33D-03 at cycle   4 NSaved=   4.
 NSaved= 4 IEnMin= 4 EnMin= -987.739186470356     IErMin= 4 ErrMin= 5.33D-03
 ErrMax= 5.33D-03 EMaxC= 1.00D-01 BMatC= 6.17D-03 BMatP= 1.38D-02
 IDIUse=3 WtCom= 9.47D-01 WtEn= 5.33D-02
 Coeff-Com: -0.339D-02 0.738D-01 0.400D+00 0.530D+00
 Coeff-En:   0.000D+00 0.000D+00 0.346D+00 0.654D+00
 Coeff:     -0.321D-02 0.699D-01 0.397D+00 0.537D+00
 Gap=     0.161 Goal=   None    Shift=    0.000
 RMSDP=3.22D-04 MaxDP=1.53D-02 DE=-7.95D-03 OVMax= 3.79D-02

 Cycle   5  Pass 0  IDiag  1:
 RMSU=  9.64D-05    CP:  9.60D-01  9.31D-01  7.91D-01  5.07D-01
 E= -987.745727452281     Delta-E=       -0.006540981925 Rises=F Damp=F
 DIIS: error= 1.27D-03 at cycle   5 NSaved=   5.
 NSaved= 5 IEnMin= 5 EnMin= -987.745727452281     IErMin= 5 ErrMin= 1.27D-03
 ErrMax= 1.27D-03 EMaxC= 1.00D-01 BMatC= 3.70D-04 BMatP= 6.17D-03
 IDIUse=3 WtCom= 9.87D-01 WtEn= 1.27D-02
 Coeff-Com: -0.166D-02 0.151D-01 0.182D+00 0.301D+00 0.504D+00
 Coeff-En:   0.000D+00 0.000D+00 0.000D+00 0.000D+00 0.100D+01
 Coeff:     -0.163D-02 0.149D-01 0.179D+00 0.297D+00 0.510D+00
 Gap=     0.160 Goal=   None    Shift=    0.000
 RMSDP=8.71D-05 MaxDP=3.12D-03 DE=-6.54D-03 OVMax= 1.03D-02

 Cycle   6  Pass 0  IDiag  1:
 RMSU=  3.43D-05    CP:  9.60D-01  9.31D-01  7.86D-01  5.71D-01  5.32D-01
 E= -987.746109548549     Delta-E=       -0.000382096269 Rises=F Damp=F
 DIIS: error= 4.86D-04 at cycle   6 NSaved=   6.
 NSaved= 6 IEnMin= 6 EnMin= -987.746109548549     IErMin= 6 ErrMin= 4.86D-04
 ErrMax= 4.86D-04 EMaxC= 1.00D-01 BMatC= 3.95D-05 BMatP= 3.70D-04
 IDIUse=3 WtCom= 9.95D-01 WtEn= 4.86D-03
 Coeff-Com: -0.368D-03-0.410D-03 0.538D-01 0.105D+00 0.296D+00 0.547D+00
 Coeff-En:   0.000D+00 0.000D+00 0.000D+00 0.000D+00 0.541D-01 0.946D+00
 Coeff:     -0.366D-03-0.408D-03 0.536D-01 0.104D+00 0.294D+00 0.549D+00
 Gap=     0.160 Goal=   None    Shift=    0.000
 RMSDP=2.42D-05 MaxDP=9.59D-04 DE=-3.82D-04 OVMax= 2.51D-03

 Cycle   7  Pass 0  IDiag  1:
 RMSU=  7.41D-06    CP:  9.59D-01  9.31D-01  7.90D-01  5.65D-01  6.02D-01
                    CP:  6.24D-01
 E= -987.746148007638     Delta-E=       -0.000038459089 Rises=F Damp=F
 DIIS: error= 1.12D-04 at cycle   7 NSaved=   7.
 NSaved= 7 IEnMin= 7 EnMin= -987.746148007638     IErMin= 7 ErrMin= 1.12D-04
 ErrMax= 1.12D-04 EMaxC= 1.00D-01 BMatC= 1.97D-06 BMatP= 3.95D-05
 IDIUse=3 WtCom= 9.99D-01 WtEn= 1.12D-03
 Coeff-Com: -0.774D-04-0.869D-03 0.207D-01 0.421D-01 0.137D+00 0.295D+00
 Coeff-Com:  0.506D+00
 Coeff-En:   0.000D+00 0.000D+00 0.000D+00 0.000D+00 0.000D+00 0.000D+00
 Coeff-En:   0.100D+01
 Coeff:     -0.773D-04-0.868D-03 0.207D-01 0.421D-01 0.136D+00 0.295D+00
 Coeff:      0.507D+00
 Gap=     0.160 Goal=   None    Shift=    0.000
 RMSDP=5.62D-06 MaxDP=2.58D-04 DE=-3.85D-05 OVMax= 5.43D-04

 Initial convergence to 1.0D-05 achieved.  Increase integral accuracy.
 Cycle   8  Pass 1  IDiag  1:
 E= -987.746073269650     Delta-E=        0.000074737988 Rises=F Damp=F
 DIIS: error= 3.83D-05 at cycle   1 NSaved=   1.
 NSaved= 1 IEnMin= 1 EnMin= -987.746073269650     IErMin= 1 ErrMin= 3.83D-05
 ErrMax= 3.83D-05 EMaxC= 1.00D-01 BMatC= 5.67D-07 BMatP= 5.67D-07
 IDIUse=1 WtCom= 1.00D+00 WtEn= 0.00D+00
 Coeff-Com:  0.100D+01
 Coeff:      0.100D+01
 Gap=     0.160 Goal=   None    Shift=    0.000
 RMSDP=5.62D-06 MaxDP=2.58D-04 DE= 7.47D-05 OVMax= 5.39D-04

 Cycle   9  Pass 1  IDiag  1:
 RMSU=  1.37D-05    CP:  1.00D+00
 E= -987.746073269960     Delta-E=       -0.000000000310 Rises=F Damp=F
 DIIS: error= 6.26D-05 at cycle   2 NSaved=   2.
 NSaved= 2 IEnMin= 2 EnMin= -987.746073269960     IErMin= 1 ErrMin= 3.83D-05
 ErrMax= 6.26D-05 EMaxC= 1.00D-01 BMatC= 7.51D-07 BMatP= 5.67D-07
 IDIUse=1 WtCom= 1.00D+00 WtEn= 0.00D+00
 Coeff-Com:  0.544D+00 0.456D+00
 Coeff:      0.544D+00 0.456D+00
 Gap=     0.160 Goal=   None    Shift=    0.000
 RMSDP=3.91D-06 MaxDP=1.45D-04 DE=-3.10D-10 OVMax= 5.37D-04

 Cycle  10  Pass 1  IDiag  1:
 RMSU=  2.73D-06    CP:  1.00D+00  9.67D-01
 E= -987.746073901727     Delta-E=       -0.000000631767 Rises=F Damp=F
 DIIS: error= 2.78D-05 at cycle   3 NSaved=   3.
 NSaved= 3 IEnMin= 3 EnMin= -987.746073901727     IErMin= 3 ErrMin= 2.78D-05
 ErrMax= 2.78D-05 EMaxC= 1.00D-01 BMatC= 1.06D-07 BMatP= 5.67D-07
 IDIUse=1 WtCom= 1.00D+00 WtEn= 0.00D+00
 Coeff-Com:  0.214D-01 0.269D+00 0.710D+00
 Coeff:      0.214D-01 0.269D+00 0.710D+00
 Gap=     0.161 Goal=   None    Shift=    0.000
 RMSDP=1.46D-06 MaxDP=6.38D-05 DE=-6.32D-07 OVMax= 2.33D-04

 Cycle  11  Pass 1  IDiag  1:
 RMSU=  5.83D-07    CP:  1.00D+00  9.87D-01  7.06D-01
 E= -987.746073995116     Delta-E=       -0.000000093389 Rises=F Damp=F
 DIIS: error= 1.03D-05 at cycle   4 NSaved=   4.
 NSaved= 4 IEnMin= 4 EnMin= -987.746073995116     IErMin= 4 ErrMin= 1.03D-05
 ErrMax= 1.03D-05 EMaxC= 1.00D-01 BMatC= 1.72D-08 BMatP= 1.06D-07
 IDIUse=1 WtCom= 1.00D+00 WtEn= 0.00D+00
 Coeff-Com: -0.130D-01 0.151D+00 0.459D+00 0.403D+00
 Coeff:     -0.130D-01 0.151D+00 0.459D+00 0.403D+00
 Gap=     0.160 Goal=   None    Shift=    0.000
 RMSDP=5.19D-07 MaxDP=2.01D-05 DE=-9.34D-08 OVMax= 6.82D-05

 Cycle  12  Pass 1  IDiag  1:
 RMSU=  1.62D-07    CP:  1.00D+00  9.87D-01  7.47D-01  4.71D-01
 E= -987.746074014217     Delta-E=       -0.000000019101 Rises=F Damp=F
 DIIS: error= 1.21D-06 at cycle   5 NSaved=   5.
 NSaved= 5 IEnMin= 5 EnMin= -987.746074014217     IErMin= 5 ErrMin= 1.21D-06
 ErrMax= 1.21D-06 EMaxC= 1.00D-01 BMatC= 3.71D-10 BMatP= 1.72D-08
 IDIUse=1 WtCom= 1.00D+00 WtEn= 0.00D+00
 Coeff-Com: -0.739D-02 0.539D-01 0.169D+00 0.190D+00 0.594D+00
 Coeff:     -0.739D-02 0.539D-01 0.169D+00 0.190D+00 0.594D+00
 Gap=     0.160 Goal=   None    Shift=    0.000
 RMSDP=8.88D-08 MaxDP=3.79D-06 DE=-1.91D-08 OVMax= 8.26D-06

 Cycle  13  Pass 1  IDiag  1:
 RMSU=  5.25D-08    CP:  1.00D+00  9.87D-01  7.42D-01  4.99D-01  8.38D-01
 E= -987.746074014522     Delta-E=       -0.000000000306 Rises=F Damp=F
 DIIS: error= 5.91D-07 at cycle   6 NSaved=   6.
 NSaved= 6 IEnMin= 6 EnMin= -987.746074014522     IErMin= 6 ErrMin= 5.91D-07
 ErrMax= 5.91D-07 EMaxC= 1.00D-01 BMatC= 6.60D-11 BMatP= 3.71D-10
 IDIUse=1 WtCom= 1.00D+00 WtEn= 0.00D+00
 Coeff-Com: -0.256D-02 0.139D-01 0.446D-01 0.636D-01 0.341D+00 0.540D+00
 Coeff:     -0.256D-02 0.139D-01 0.446D-01 0.636D-01 0.341D+00 0.540D+00
 Gap=     0.160 Goal=   None    Shift=    0.000
 RMSDP=3.34D-08 MaxDP=1.40D-06 DE=-3.06D-10 OVMax= 2.12D-06

 Cycle  14  Pass 1  IDiag  1:
 RMSU=  1.74D-08    CP:  1.00D+00  9.87D-01  7.43D-01  5.00D-01  8.76D-01
                    CP:  7.27D-01
 E= -987.746074014593     Delta-E=       -0.000000000071 Rises=F Damp=F
 DIIS: error= 1.08D-07 at cycle   7 NSaved=   7.
 NSaved= 7 IEnMin= 7 EnMin= -987.746074014593     IErMin= 7 ErrMin= 1.08D-07
 ErrMax= 1.08D-07 EMaxC= 1.00D-01 BMatC= 4.36D-12 BMatP= 6.60D-11
 IDIUse=1 WtCom= 1.00D+00 WtEn= 0.00D+00
 Coeff-Com: -0.414D-03 0.390D-03 0.171D-02 0.840D-02 0.902D-01 0.258D+00
 Coeff-Com:  0.642D+00
 Coeff:     -0.414D-03 0.390D-03 0.171D-02 0.840D-02 0.902D-01 0.258D+00
 Coeff:      0.642D+00
 Gap=     0.160 Goal=   None    Shift=    0.000
 RMSDP=9.61D-09 MaxDP=4.72D-07 DE=-7.09D-11 OVMax= 6.31D-07

 SCF Done:  E(RB3LYP) =  -987.746074015     A.U. after   14 cycles
             Convg  =    0.9607D-08             -V/T =  2.0081
 KE= 9.798106357491D+02 PE=-5.101037123392D+03 EE= 1.736539840236D+03
 Leave Link  502 at Fri Sep  3 00:13:15 2021, MaxMem=  268435456 cpu:     449.1
 (Enter /sw/target/amd/app/gaussian/Gaussian09RevA.02_gcc-4.9.2/g09/l508.exe)
 QCSCF skips out because SCF is already converged.
 Leave Link  508 at Fri Sep  3 00:13:15 2021, MaxMem=  268435456 cpu:       0.0
 (Enter /sw/target/amd/app/gaussian/Gaussian09RevA.02_gcc-4.9.2/g09/l601.exe)
 Copying SCF densities to generalized density rwf, IOpCl= 0 IROHF=0.

 **********************************************************************

            Population analysis using the SCF density.

 **********************************************************************

 Orbital symmetries:
       Occupied  (A) (A) (A) (A) (A) (A) (A) (A) (A) (A) (A) (A)
                 (A) (A) (A) (A) (A) (A) (A) (A) (A) (A) (A) (A)
                 (A) (A) (A) (A) (A) (A) (A) (A) (A) (A) (A) (A)
                 (A) (A) (A) (A) (A) (A) (A) (A) (A) (A) (A) (A)
                 (A) (A) (A) (A) (A) (A) (A) (A) (A) (A) (A) (A)
                 (A) (A) (A) (A) (A) (A) (A) (A) (A) (A)
       Virtual   (A) (A) (A) (A) (A) (A) (A) (A) (A) (A) (A) (A)
                 (A) (A) (A) (A) (A) (A) (A) (A) (A) (A) (A) (A)
                 (A) (A) (A) (A) (A) (A) (A) (A) (A) (A) (A) (A)
                 (A) (A) (A) (A) (A) (A) (A) (A) (A) (A) (A) (A)
                 (A) (A) (A) (A) (A) (A) (A) (A) (A) (A) (A) (A)
                 (A) (A) (A) (A) (A) (A) (A) (A) (A) (A) (A) (A)
                 (A) (A) (A) (A) (A) (A) (A) (A) (A) (A) (A) (A)
                 (A) (A) (A) (A) (A) (A) (A) (A) (A) (A) (A) (A)
                 (A) (A) (A) (A) (A) (A) (A) (A) (A) (A) (A) (A)
                 (A) (A) (A) (A) (A) (A) (A) (A) (A) (A) (A) (A)
                 (A) (A) (A) (A) (A) (A) (A) (A) (A) (A) (A) (A)
                 (A) (A) (A) (A) (A) (A) (A) (A) (A) (A) (A) (A)
                 (A) (A) (A) (A) (A) (A) (A) (A) (A) (A) (A) (A)
                 (A) (A) (A) (A) (A) (A) (A) (A) (A) (A) (A) (A)
                 (A) (A) (A) (A) (A) (A) (A) (A) (A) (A) (A) (A)
                 (A) (A) (A) (A) (A) (A) (A) (A) (A) (A) (A) (A)
                 (A) (A) (A) (A) (A) (A) (A) (A) (A) (A) (A) (A)
                 (A) (A) (A) (A) (A) (A) (A) (A) (A) (A) (A) (A)
                 (A) (A) (A) (A) (A) (A) (A) (A) (A) (A) (A) (A)
                 (A) (A) (A) (A) (A) (A) (A) (A) (A) (A) (A) (A)
                 (A) (A) (A) (A) (A) (A) (A) (A)
 The electronic state is 1-A.
 Alpha  occ. eigenvalues --  -66.15049 -19.16240 -10.25163 -10.19457 -10.19288
 Alpha  occ. eigenvalues --  -10.19197 -10.18936 -10.18749 -10.18695 -10.18521
 Alpha  occ. eigenvalues --  -10.18490 -10.18344 -10.18029 -10.17083 -10.16606
 Alpha  occ. eigenvalues --  -10.16605 -10.16520 -10.16519  -5.29049  -3.65141
 Alpha  occ. eigenvalues --   -3.64870  -3.64819  -1.03494  -0.87233  -0.81476
 Alpha  occ. eigenvalues --   -0.78660  -0.76989  -0.73985  -0.71493  -0.70268
 Alpha  occ. eigenvalues --   -0.68513  -0.67669  -0.67206  -0.62981  -0.61581
 Alpha  occ. eigenvalues --   -0.59719  -0.55357  -0.52807  -0.51339  -0.50027
 Alpha  occ. eigenvalues --   -0.46851  -0.45223  -0.44796  -0.42743  -0.42734
 Alpha  occ. eigenvalues --   -0.42701  -0.42257  -0.42146  -0.41524  -0.41116
 Alpha  occ. eigenvalues --   -0.39891  -0.39705  -0.39664  -0.39301  -0.38112
 Alpha  occ. eigenvalues --   -0.37690  -0.37525  -0.37213  -0.35698  -0.34522
 Alpha  occ. eigenvalues --   -0.33756  -0.32259  -0.32206  -0.31651  -0.31282
 Alpha  occ. eigenvalues --   -0.29492  -0.27615  -0.24262  -0.23468  -0.19993
 Alpha virt. eigenvalues --   -0.03943   0.00342   0.03554   0.06185   0.06651
 Alpha virt. eigenvalues --    0.08894   0.09048   0.10232   0.10973   0.11473
 Alpha virt. eigenvalues --    0.12023   0.12108   0.12701   0.14010   0.14619
 Alpha virt. eigenvalues --    0.15622   0.16177   0.16801   0.16803   0.17376
 Alpha virt. eigenvalues --    0.17850   0.19337   0.19521   0.19798   0.20232
 Alpha virt. eigenvalues --    0.21193   0.21270   0.21992   0.22808   0.23023
 Alpha virt. eigenvalues --    0.24060   0.24817   0.24879   0.25758   0.26236
 Alpha virt. eigenvalues --    0.27922   0.28217   0.31244   0.32645   0.34502
 Alpha virt. eigenvalues --    0.35079   0.35650   0.36859   0.38964   0.40156
 Alpha virt. eigenvalues --    0.43601   0.45764   0.47325   0.50759   0.51253
 Alpha virt. eigenvalues --    0.51475   0.52181   0.52386   0.53213   0.53801
 Alpha virt. eigenvalues --    0.54977   0.55299   0.56507   0.56674   0.58128
 Alpha virt. eigenvalues --    0.58674   0.59216   0.60213   0.61156   0.61570
 Alpha virt. eigenvalues --    0.62160   0.62336   0.62779   0.63970   0.64102
 Alpha virt. eigenvalues --    0.66043   0.66737   0.67348   0.68341   0.69036
 Alpha virt. eigenvalues --    0.70856   0.71735   0.72234   0.73337   0.73654
 Alpha virt. eigenvalues --    0.76694   0.78232   0.78283   0.80364   0.80912
 Alpha virt. eigenvalues --    0.82114   0.82650   0.82990   0.83679   0.83773
 Alpha virt. eigenvalues --    0.84324   0.85467   0.85810   0.86361   0.87462
 Alpha virt. eigenvalues --    0.87469   0.88512   0.89639   0.89873   0.90485
 Alpha virt. eigenvalues --    0.90916   0.91665   0.91880   0.92798   0.93135
 Alpha virt. eigenvalues --    0.93222   0.94080   0.95050   0.96131   0.96173
 Alpha virt. eigenvalues --    0.96513   0.97367   0.98544   0.98562   1.00859
 Alpha virt. eigenvalues --    1.01901   1.01978   1.02773   1.03532   1.04502
 Alpha virt. eigenvalues --    1.04740   1.06310   1.08096   1.12435   1.14094
 Alpha virt. eigenvalues --    1.14506   1.17516   1.19551   1.21988   1.23470
 Alpha virt. eigenvalues --    1.25863   1.26124   1.29618   1.31030   1.32503
 Alpha virt. eigenvalues --    1.39507   1.40500   1.40586   1.42824   1.43663
 Alpha virt. eigenvalues --    1.45606   1.46194   1.47348   1.47536   1.48386
 Alpha virt. eigenvalues --    1.49447   1.49577   1.50762   1.51575   1.52270
 Alpha virt. eigenvalues --    1.54341   1.60970   1.66514   1.69289   1.72428
 Alpha virt. eigenvalues --    1.72842   1.73145   1.78854   1.79668   1.82314
 Alpha virt. eigenvalues --    1.83463   1.84514   1.86767   1.86892   1.87464
 Alpha virt. eigenvalues --    1.88645   1.89574   1.90058   1.90694   1.91405
 Alpha virt. eigenvalues --    1.93874   1.95024   1.95306   1.95594   1.96694
 Alpha virt. eigenvalues --    1.97697   1.98086   1.99992   2.04449   2.06206
 Alpha virt. eigenvalues --    2.07492   2.10434   2.10518   2.13194   2.14159
 Alpha virt. eigenvalues --    2.14685   2.15963   2.18763   2.19155   2.21352
 Alpha virt. eigenvalues --    2.23786   2.25662   2.26383   2.26826   2.26871
 Alpha virt. eigenvalues --    2.28383   2.28532   2.28964   2.30006   2.30281
 Alpha virt. eigenvalues --    2.31858   2.32447   2.32765   2.33934   2.38143
 Alpha virt. eigenvalues --    2.42259   2.46116   2.49401   2.51841   2.52451
 Alpha virt. eigenvalues --    2.53047   2.61277   2.62976   2.63892   2.63956
 Alpha virt. eigenvalues --    2.66903   2.68919   2.72486   2.72530   2.76285
 Alpha virt. eigenvalues --    2.77922   2.79813   2.86228   2.89561   2.90379
 Alpha virt. eigenvalues --    3.00399   3.05805   3.10663   3.16323   3.39277
 Alpha virt. eigenvalues --    3.50301   4.09256   4.09891   4.10961   4.12361
 Alpha virt. eigenvalues --    4.13736   4.18747   4.23251   4.23479   4.25244
 Alpha virt. eigenvalues --    4.28557   4.30646   4.31191   4.39203   4.41918
 Alpha virt. eigenvalues --    4.59532   4.60936   4.84863
          Condensed to atoms (all electrons):
              1          2          3          4          5          6
     1  C    5.126376   0.376547  -0.058247  -0.057147  -0.022861  -0.002269
     2  C    0.376547   4.999260   0.371774   0.376546   0.332481  -0.021866
     3  C   -0.058247   0.371774   5.128527  -0.058247  -0.017004  -0.001910
     4  C   -0.057147   0.376546  -0.058247   5.126377  -0.022861   0.000649
     5  Si  -0.022861   0.332481  -0.017004  -0.022861  11.850168   0.376270
     6  C   -0.002269  -0.021866  -0.001910   0.000649   0.376270   5.301197
     7  C    0.000649  -0.021866  -0.001910  -0.002269   0.376270  -0.034322
     8  O   -0.001318  -0.014154   0.000206  -0.001318   0.346215  -0.017312
     9  C   -0.000074   0.000252   0.000007  -0.000074  -0.013443  -0.001620
    10  C   -0.000002  -0.000046   0.000000  -0.000002   0.003669  -0.000266
    11  C    0.000000   0.000000  -0.000000   0.000000   0.000246   0.000015
    12  C    0.000000   0.000000   0.000000   0.000000   0.000081  -0.000001
    13  C    0.000000  -0.000000   0.000000   0.000000  -0.000009   0.000000
    14  C   -0.000000  -0.000000   0.000000  -0.000000   0.000000   0.000000
    15  C    0.000000   0.000000  -0.000000   0.000000  -0.000000  -0.000000
    16  C   -0.000000  -0.000000  -0.000000  -0.000000   0.000003  -0.000000
    17  C   -0.000000  -0.000000  -0.000000  -0.000000   0.000385   0.000002
    18  C    0.000002   0.000011   0.000000   0.000002  -0.003416  -0.000065
    19  H    0.360312  -0.035247  -0.006335  -0.007157   0.004692  -0.000008
    20  H    0.371072  -0.033276   0.005518  -0.003377  -0.001902  -0.000118
    21  H    0.368755  -0.032999  -0.003748   0.005689  -0.006163   0.001270
    22  H   -0.003588  -0.033313   0.368193   0.005675  -0.004155   0.000945
    23  H    0.005675  -0.033313   0.368193  -0.003588  -0.004155  -0.000107
    24  H   -0.006474  -0.034005   0.364110  -0.006474   0.003933  -0.000023
    25  H    0.005689  -0.032999  -0.003748   0.368755  -0.006163   0.000006
    26  H   -0.003377  -0.033276   0.005518   0.371072  -0.001902   0.000037
    27  H   -0.007157  -0.035247  -0.006334   0.360312   0.004692  -0.000025
    28  H    0.000402  -0.001721   0.000009   0.000036  -0.023243   0.368682
    29  H   -0.000034  -0.001081   0.000041   0.000028  -0.012608   0.361249
    30  H    0.000028   0.001037   0.000024  -0.000007  -0.021156   0.359618
    31  H    0.000028  -0.001081   0.000041  -0.000034  -0.012608  -0.000245
    32  H    0.000036  -0.001721   0.000009   0.000402  -0.023243   0.001209
    33  H   -0.000007   0.001037   0.000024   0.000028  -0.021156  -0.001569
    34  H    0.000001  -0.000009   0.000001   0.000001   0.008646  -0.000229
    35  H   -0.000000  -0.000000   0.000000  -0.000000  -0.000073   0.000001
    36  H   -0.000000  -0.000000   0.000000  -0.000000   0.000000   0.000000
    37  H    0.000000  -0.000000  -0.000000   0.000000  -0.000000   0.000000
    38  H    0.000000  -0.000000   0.000000   0.000000   0.000000  -0.000000
    39  H   -0.000000  -0.000000   0.000000  -0.000000   0.000001   0.000000
    40  H   -0.000007  -0.000023   0.000000  -0.000007   0.000517   0.000001
              7          8          9         10         11         12
     1  C    0.000649  -0.001318  -0.000074  -0.000002   0.000000   0.000000
     2  C   -0.021866  -0.014154   0.000252  -0.000046   0.000000   0.000000
     3  C   -0.001910   0.000206   0.000007   0.000000  -0.000000   0.000000
     4  C   -0.002269  -0.001318  -0.000074  -0.000002   0.000000   0.000000
     5  Si   0.376270   0.346215  -0.013443   0.003669   0.000246   0.000081
     6  C   -0.034322  -0.017312  -0.001620  -0.000266   0.000015  -0.000001
     7  C    5.301198  -0.017312  -0.001620  -0.000266   0.000015  -0.000001
     8  O   -0.017312   8.180967   0.247797  -0.048301   0.003667   0.000399
     9  C   -0.001620   0.247797   4.499198   0.459715   0.004646  -0.034212
    10  C   -0.000266  -0.048301   0.459715   5.119442   0.456534  -0.006289
    11  C    0.000015   0.003667   0.004646   0.456534   5.168072   0.445331
    12  C   -0.000001   0.000399  -0.034212  -0.006289   0.445331   4.671102
    13  C    0.000000   0.000001  -0.000948   0.009867  -0.103823   0.445133
    14  C    0.000000  -0.000000   0.000062  -0.000381   0.008757  -0.002593
    15  C   -0.000000   0.000000  -0.000319   0.000071  -0.000796  -0.039220
    16  C   -0.000000  -0.000094   0.007668  -0.000765   0.017651  -0.030472
    17  C    0.000002   0.003454   0.012067  -0.037030  -0.024465   0.489626
    18  C   -0.000065  -0.055136   0.497202  -0.070256  -0.073946  -0.035670
    19  H   -0.000025  -0.000017   0.000001  -0.000000  -0.000000   0.000000
    20  H    0.000037   0.002513   0.000031   0.000007  -0.000000   0.000000
    21  H    0.000006  -0.000149  -0.000008   0.000001   0.000000  -0.000000
    22  H   -0.000107   0.000000  -0.000000   0.000000   0.000000  -0.000000
    23  H    0.000945   0.000000  -0.000000   0.000000   0.000000  -0.000000
    24  H   -0.000023  -0.000004  -0.000000  -0.000000   0.000000  -0.000000
    25  H    0.001270  -0.000149  -0.000008   0.000001   0.000000  -0.000000
    26  H   -0.000118   0.002514   0.000031   0.000007  -0.000000   0.000000
    27  H   -0.000008  -0.000017   0.000001  -0.000000  -0.000000   0.000000
    28  H    0.001209  -0.000580  -0.000056   0.000048  -0.000002  -0.000000
    29  H   -0.000245   0.000476   0.000032   0.000001  -0.000000   0.000000
    30  H   -0.001569  -0.000665   0.000107   0.000379   0.000015  -0.000001
    31  H    0.361249   0.000476   0.000032   0.000001  -0.000000   0.000000
    32  H    0.368682  -0.000580  -0.000056   0.000048  -0.000002  -0.000000
    33  H    0.359617  -0.000665   0.000107   0.000379   0.000015  -0.000001
    34  H   -0.000229  -0.005618  -0.037674   0.342546  -0.032203   0.002173
    35  H    0.000001  -0.000051   0.003023  -0.041629   0.352669  -0.036505
    36  H    0.000000   0.000000   0.000011   0.000217  -0.008643  -0.042333
    37  H    0.000000   0.000000  -0.000001   0.000003  -0.000202   0.002709
    38  H   -0.000000  -0.000000   0.000003  -0.000001   0.000011   0.001054
    39  H    0.000000  -0.000001   0.000171   0.000010  -0.000196   0.004655
    40  H    0.000001  -0.001699  -0.037557   0.006761   0.000040   0.004845
             13         14         15         16         17         18
     1  C    0.000000  -0.000000   0.000000  -0.000000  -0.000000   0.000002
     2  C   -0.000000  -0.000000   0.000000  -0.000000  -0.000000   0.000011
     3  C    0.000000   0.000000  -0.000000  -0.000000  -0.000000   0.000000
     4  C    0.000000  -0.000000   0.000000  -0.000000  -0.000000   0.000002
     5  Si  -0.000009   0.000000  -0.000000   0.000003   0.000385  -0.003416
     6  C    0.000000   0.000000  -0.000000  -0.000000   0.000002  -0.000065
     7  C    0.000000   0.000000  -0.000000  -0.000000   0.000002  -0.000065
     8  O    0.000001  -0.000000   0.000000  -0.000094   0.003454  -0.055136
     9  C   -0.000948   0.000062  -0.000319   0.007668   0.012067   0.497202
    10  C    0.009867  -0.000381   0.000071  -0.000765  -0.037030  -0.070256
    11  C   -0.103823   0.008757  -0.000796   0.017651  -0.024465  -0.073946
    12  C    0.445133  -0.002593  -0.039220  -0.030472   0.489626  -0.035670
    13  C    5.139478   0.508071  -0.018354  -0.077273  -0.028415   0.017453
    14  C    0.508071   4.902777   0.505894  -0.020645  -0.039784  -0.000600
    15  C   -0.018354   0.505894   4.893215   0.512542  -0.001848   0.008068
    16  C   -0.077273  -0.020645   0.512542   5.132787   0.443437  -0.092921
    17  C   -0.028415  -0.039784  -0.001848   0.443437   4.697466   0.391801
    18  C    0.017453  -0.000600   0.008068  -0.092921   0.391801   5.343772
    19  H   -0.000000  -0.000000   0.000000   0.000000   0.000000   0.000000
    20  H   -0.000000   0.000000  -0.000000  -0.000000   0.000000  -0.000019
    21  H   -0.000000   0.000000  -0.000000   0.000000  -0.000000   0.000000
    22  H   -0.000000   0.000000  -0.000000   0.000000  -0.000000  -0.000000
    23  H   -0.000000   0.000000  -0.000000   0.000000  -0.000000  -0.000000
    24  H   -0.000000  -0.000000   0.000000  -0.000000   0.000000   0.000000
    25  H   -0.000000   0.000000  -0.000000   0.000000  -0.000000   0.000000
    26  H   -0.000000   0.000000  -0.000000  -0.000000   0.000000  -0.000019
    27  H   -0.000000  -0.000000   0.000000   0.000000   0.000000   0.000000
    28  H   -0.000000   0.000000  -0.000000  -0.000000   0.000000   0.000004
    29  H   -0.000000  -0.000000   0.000000   0.000000  -0.000000   0.000001
    30  H   -0.000000   0.000000   0.000000  -0.000000  -0.000000  -0.000003
    31  H   -0.000000  -0.000000   0.000000   0.000000  -0.000000   0.000001
    32  H   -0.000000   0.000000  -0.000000  -0.000000   0.000000   0.000004
    33  H   -0.000000   0.000000   0.000000  -0.000000  -0.000000  -0.000003
    34  H   -0.000186   0.000003  -0.000000   0.000010   0.000908   0.004832
    35  H   -0.008537   0.000190   0.000014  -0.000210   0.004484   0.000610
    36  H    0.354731  -0.045433   0.004682   0.000554   0.004597  -0.000190
    37  H   -0.036735   0.356809  -0.042303   0.004365   0.001054   0.000012
    38  H    0.004417  -0.042340   0.356456  -0.036537   0.002739  -0.000202
    39  H    0.000596   0.004596  -0.045430   0.354369  -0.040446  -0.008312
    40  H   -0.000153   0.000008   0.000229  -0.009024  -0.042656   0.346873
             19         20         21         22         23         24
     1  C    0.360312   0.371072   0.368755  -0.003588   0.005675  -0.006474
[...]
     9  C   -0.000794   0.000053  -0.000297   0.006837   0.012283   0.505475
    10  C    0.009177  -0.000355   0.000059  -0.000584  -0.036128  -0.071325
    11  C   -0.092461   0.008265  -0.000644   0.015206  -0.026184  -0.066357
    12  C    0.449289  -0.004742  -0.038649  -0.031108   0.489819  -0.039732
    13  C    5.099146   0.520600  -0.019759  -0.068865  -0.031171   0.014871
    14  C    0.520600   4.906405   0.495401  -0.021684  -0.038523  -0.000485
    15  C   -0.019759   0.495401   4.896732   0.526603  -0.004886   0.007753
    16  C   -0.068865  -0.021684   0.526603   5.090493   0.446811  -0.082994
    17  C   -0.031171  -0.038523  -0.004886   0.446811   4.719776   0.393874
    18  C    0.014871  -0.000485   0.007753  -0.082994   0.393874   5.321545
    19  H   -0.000000  -0.000000   0.000000   0.000000   0.000000   0.000000
    20  H   -0.000000   0.000000  -0.000000  -0.000000   0.000001  -0.000026
    21  H   -0.000000   0.000000  -0.000000   0.000000  -0.000000   0.000001
    22  H   -0.000000   0.000000  -0.000000   0.000000  -0.000000  -0.000000
    23  H   -0.000000   0.000000  -0.000000   0.000000  -0.000000  -0.000000
    24  H   -0.000000  -0.000000   0.000000  -0.000000   0.000000   0.000000
    25  H   -0.000000   0.000000  -0.000000   0.000000  -0.000000   0.000001
    26  H   -0.000000   0.000000  -0.000000  -0.000000   0.000001  -0.000026
    27  H   -0.000000  -0.000000   0.000000   0.000000   0.000000   0.000000
    28  H   -0.000000   0.000000  -0.000000  -0.000000   0.000000   0.000005
    29  H   -0.000000  -0.000000   0.000000   0.000000  -0.000000   0.000001
    30  H   -0.000000   0.000000   0.000000  -0.000000  -0.000000  -0.000003
    31  H   -0.000000  -0.000000   0.000000   0.000000  -0.000000   0.000001
    32  H   -0.000000   0.000000  -0.000000  -0.000000   0.000000   0.000005
    33  H   -0.000000   0.000000   0.000000  -0.000000  -0.000000  -0.000003
    34  H   -0.000166   0.000003  -0.000000   0.000008   0.000840   0.005156
    35  H   -0.008424   0.000160   0.000015  -0.000203   0.004591   0.000571
    36  H    0.353255  -0.045789   0.004601   0.000493   0.004619  -0.000177
    37  H   -0.037310   0.356982  -0.041416   0.004212   0.000993   0.000011
    38  H    0.004331  -0.041792   0.356269  -0.037356   0.002911  -0.000197
    39  H    0.000543   0.004506  -0.045789   0.353182  -0.040660  -0.008228
    40  H   -0.000135   0.000008   0.000205  -0.008692  -0.042586   0.344278
             19         20         21         22         23         24
     1  C    0.363010   0.369774   0.366891  -0.003828   0.005642  -0.007121
     2  C   -0.034088  -0.032582  -0.032006  -0.032508  -0.032508  -0.032134
     3  C   -0.007237   0.005494  -0.003845   0.366777   0.366777   0.364420
     4  C   -0.007663  -0.003455   0.005584   0.005642  -0.003828  -0.007121
     5  Si   0.003430  -0.000571  -0.004472  -0.002074  -0.002074   0.002326
     6  C    0.000010  -0.000165   0.001363   0.001102  -0.000195  -0.000014
     7  C   -0.000025   0.000033  -0.000011  -0.000195   0.001102  -0.000014
     8  O    0.000006   0.004382  -0.000284  -0.000004  -0.000004  -0.000009
     9  C    0.000000   0.000085  -0.000010   0.000000   0.000000  -0.000000
    10  C   -0.000000   0.000016   0.000001   0.000000   0.000000  -0.000000
    11  C   -0.000000  -0.000000   0.000000   0.000000   0.000000   0.000000
    12  C   -0.000000   0.000000  -0.000000  -0.000000  -0.000000  -0.000000
    13  C   -0.000000  -0.000000  -0.000000  -0.000000  -0.000000  -0.000000
    14  C   -0.000000   0.000000   0.000000   0.000000   0.000000  -0.000000
    15  C    0.000000  -0.000000  -0.000000  -0.000000  -0.000000   0.000000
    16  C    0.000000  -0.000000   0.000000   0.000000   0.000000  -0.000000
    17  C    0.000000   0.000001  -0.000000  -0.000000  -0.000000   0.000000
    18  C    0.000000  -0.000026   0.000001  -0.000000  -0.000000   0.000000
    19  H    0.599563  -0.031491  -0.032977  -0.000544  -0.000109   0.007448
    20  H   -0.031491   0.554411  -0.030244  -0.000030  -0.000176  -0.000128
    21  H   -0.032977  -0.030244   0.585322   0.004077  -0.000035  -0.000494
    22  H   -0.000544  -0.000030   0.004077   0.581672  -0.032369  -0.031947
    23  H   -0.000109  -0.000176  -0.000035  -0.032369   0.581672  -0.031947
    24  H    0.007448  -0.000128  -0.000494  -0.031947  -0.031947   0.589663
    25  H   -0.000081  -0.000032  -0.000189  -0.000035   0.004077  -0.000494
    26  H   -0.000562   0.003682  -0.000032  -0.000176  -0.000030  -0.000128
    27  H    0.007724  -0.000562  -0.000081  -0.000109  -0.000544   0.007448
    28  H   -0.000036   0.000005   0.002328   0.000067   0.000008  -0.000008
    29  H   -0.000006   0.000006   0.000038   0.002014  -0.000041  -0.000008
    30  H    0.000001  -0.000009  -0.000001  -0.000014  -0.000006   0.000001
    31  H   -0.000001  -0.000001  -0.000001  -0.000041   0.002013  -0.000008
    32  H   -0.000001  -0.000002  -0.000000   0.000008   0.000067  -0.000008
    33  H    0.000000  -0.000000  -0.000000  -0.000006  -0.000014   0.000001
    34  H   -0.000000   0.000001   0.000000   0.000000   0.000000  -0.000000
    35  H    0.000000   0.000000  -0.000000  -0.000000  -0.000000  -0.000000
    36  H   -0.000000   0.000000   0.000000   0.000000   0.000000  -0.000000
    37  H   -0.000000  -0.000000  -0.000000  -0.000000  -0.000000  -0.000000
    38  H   -0.000000   0.000000  -0.000000   0.000000   0.000000  -0.000000
    39  H    0.000000   0.000000   0.000000  -0.000000  -0.000000  -0.000000
    40  H   -0.000001   0.000242  -0.000001  -0.000000  -0.000000  -0.000000
             25         26         27         28         29         30
     1  C    0.005584  -0.003455  -0.007663   0.000272  -0.000010   0.000047
     2  C   -0.032006  -0.032582  -0.034088  -0.001435  -0.000709   0.001005
     3  C   -0.003845   0.005494  -0.007237   0.000012  -0.000024   0.000036
     4  C    0.366891   0.369774   0.363010   0.000020   0.000016  -0.000008
     5  Si  -0.004472  -0.000571   0.003430  -0.020974  -0.012004  -0.019958
     6  C   -0.000011   0.000033  -0.000025   0.366977   0.356691   0.362749
     7  C    0.001363  -0.000165   0.000010   0.001113  -0.000235  -0.001474
     8  O   -0.000284   0.004382   0.000006  -0.000754   0.000503  -0.000680
     9  C   -0.000010   0.000085   0.000000  -0.000043   0.000037   0.000031
    10  C    0.000001   0.000016  -0.000000   0.000092   0.000016   0.000245
    11  C    0.000000  -0.000000  -0.000000  -0.000002   0.000000   0.000017
    12  C   -0.000000   0.000000  -0.000000  -0.000000   0.000000  -0.000001
    13  C   -0.000000  -0.000000  -0.000000  -0.000000  -0.000000  -0.000000
    14  C    0.000000   0.000000  -0.000000   0.000000  -0.000000   0.000000
    15  C   -0.000000  -0.000000   0.000000  -0.000000   0.000000   0.000000
    16  C    0.000000  -0.000000   0.000000  -0.000000   0.000000  -0.000000
    17  C   -0.000000   0.000001   0.000000   0.000000  -0.000000  -0.000000
    18  C    0.000001  -0.000026   0.000000   0.000005   0.000001  -0.000003
    19  H   -0.000081  -0.000562   0.007724  -0.000036  -0.000006   0.000001
    20  H   -0.000032   0.003682  -0.000562   0.000005   0.000006  -0.000009
    21  H   -0.000189  -0.000032  -0.000081   0.002328   0.000038  -0.000001
    22  H   -0.000035  -0.000176  -0.000109   0.000067   0.002014  -0.000014
    23  H    0.004077  -0.000030  -0.000544   0.000008  -0.000041  -0.000006
    24  H   -0.000494  -0.000128   0.007448  -0.000008  -0.000008   0.000001
    25  H    0.585322  -0.030244  -0.032977  -0.000000  -0.000001  -0.000000
    26  H   -0.030244   0.554411  -0.031491  -0.000002  -0.000001  -0.000000
    27  H   -0.032977  -0.031491   0.599563  -0.000001  -0.000001   0.000000
    28  H   -0.000000  -0.000002  -0.000001   0.528333  -0.024627  -0.023928
    29  H   -0.000001  -0.000001  -0.000001  -0.024627   0.540315  -0.025337
    30  H   -0.000000  -0.000000   0.000000  -0.023928  -0.025337   0.538953
    31  H    0.000038   0.000006  -0.000006  -0.000001   0.000052  -0.000020
    32  H    0.002328   0.000005  -0.000036  -0.000019  -0.000001   0.000002
    33  H   -0.000001  -0.000009   0.000001   0.000002  -0.000020   0.000269
    34  H    0.000000   0.000001  -0.000000  -0.000075   0.000003   0.002294
    35  H   -0.000000   0.000000   0.000000   0.000000  -0.000000  -0.000003
    36  H    0.000000   0.000000  -0.000000  -0.000000  -0.000000  -0.000000
    37  H   -0.000000  -0.000000  -0.000000  -0.000000  -0.000000  -0.000000
    38  H   -0.000000   0.000000  -0.000000  -0.000000   0.000000   0.000000
    39  H    0.000000   0.000000   0.000000   0.000000   0.000000  -0.000000
    40  H   -0.000001   0.000242  -0.000001  -0.000000  -0.000000  -0.000000
             31         32         33         34         35         36
     1  C    0.000016   0.000020  -0.000008   0.000001  -0.000000  -0.000000
     2  C   -0.000709  -0.001435   0.001005  -0.000025  -0.000000  -0.000000
     3  C   -0.000024   0.000012   0.000036   0.000001   0.000000   0.000000
     4  C   -0.000010   0.000272   0.000047   0.000001  -0.000000  -0.000000
     5  Si  -0.012004  -0.020974  -0.019958   0.009437  -0.000085   0.000000
     6  C   -0.000235   0.001113  -0.001474  -0.000136   0.000001   0.000000
     7  C    0.356691   0.366977   0.362749  -0.000136   0.000001   0.000000
     8  O    0.000503  -0.000754  -0.000680  -0.006310  -0.000054  -0.000000
     9  C    0.000037  -0.000043   0.000031  -0.038186   0.003092   0.000011
    10  C    0.000016   0.000092   0.000245   0.341999  -0.041891   0.000172
    11  C    0.000000  -0.000002   0.000017  -0.033294   0.350187  -0.008608
    12  C    0.000000  -0.000000  -0.000001   0.002300  -0.037318  -0.042232
    13  C   -0.000000  -0.000000  -0.000000  -0.000166  -0.008424   0.353255
    14  C   -0.000000   0.000000   0.000000   0.000003   0.000160  -0.045789
    15  C    0.000000  -0.000000   0.000000  -0.000000   0.000015   0.004601
    16  C    0.000000  -0.000000  -0.000000   0.000008  -0.000203   0.000493
    17  C   -0.000000   0.000000  -0.000000   0.000840   0.004591   0.004619
    18  C    0.000001   0.000005  -0.000003   0.005156   0.000571  -0.000177
    19  H   -0.000001  -0.000001   0.000000  -0.000000   0.000000  -0.000000
    20  H   -0.000001  -0.000002  -0.000000   0.000001   0.000000   0.000000
    21  H   -0.000001  -0.000000  -0.000000   0.000000  -0.000000   0.000000
    22  H   -0.000041   0.000008  -0.000006   0.000000  -0.000000   0.000000
    23  H    0.002013   0.000067  -0.000014   0.000000  -0.000000   0.000000
    24  H   -0.000008  -0.000008   0.000001  -0.000000  -0.000000  -0.000000
    25  H    0.000038   0.002328  -0.000001   0.000000  -0.000000   0.000000
    26  H    0.000006   0.000005  -0.000009   0.000001   0.000000   0.000000
    27  H   -0.000006  -0.000036   0.000001  -0.000000   0.000000  -0.000000
    28  H   -0.000001  -0.000019   0.000002  -0.000075   0.000000  -0.000000
    29  H    0.000052  -0.000001  -0.000020   0.000003  -0.000000  -0.000000
    30  H   -0.000020   0.000002   0.000269   0.002294  -0.000003  -0.000000
    31  H    0.540315  -0.024627  -0.025337   0.000003  -0.000000  -0.000000
    32  H   -0.024627   0.528333  -0.023928  -0.000075   0.000000  -0.000000
    33  H   -0.025337  -0.023928   0.538953   0.002294  -0.000003  -0.000000
    34  H    0.000003  -0.000075   0.002294   0.584124  -0.005130  -0.000012
    35  H   -0.000000   0.000000  -0.000003  -0.005130   0.597180   0.006505
    36  H   -0.000000  -0.000000  -0.000000  -0.000012   0.006505   0.606750
    37  H   -0.000000  -0.000000  -0.000000  -0.000000  -0.000011  -0.005507
    38  H    0.000000  -0.000000   0.000000  -0.000000  -0.000000  -0.000191
    39  H    0.000000   0.000000  -0.000000  -0.000000   0.000003   0.000020
    40  H   -0.000000  -0.000000  -0.000000  -0.000178   0.000019   0.000003
             37         38         39         40
     1  C    0.000000   0.000000  -0.000000  -0.000019
     2  C   -0.000000  -0.000000  -0.000000  -0.000026
     3  C   -0.000000   0.000000   0.000000   0.000000
     4  C    0.000000   0.000000  -0.000000  -0.000019
     5  Si  -0.000000   0.000000   0.000001   0.000457
     6  C    0.000000  -0.000000   0.000000   0.000001
     7  C    0.000000  -0.000000   0.000000   0.000001
     8  O    0.000000  -0.000000  -0.000000  -0.001552
     9  C   -0.000001   0.000003   0.000153  -0.037314
    10  C    0.000003  -0.000001   0.000010   0.006814
    11  C   -0.000193   0.000010  -0.000190  -0.000035
    12  C    0.002777   0.001010   0.004681   0.004609
    13  C   -0.037310   0.004331   0.000543  -0.000135
    14  C    0.356982  -0.041792   0.004506   0.000008
    15  C   -0.041416   0.356269  -0.045789   0.000205
    16  C    0.004212  -0.037356   0.353182  -0.008692
    17  C    0.000993   0.002911  -0.040660  -0.042586
    18  C    0.000011  -0.000197  -0.008228   0.344278
    19  H   -0.000000  -0.000000   0.000000  -0.000001
    20  H   -0.000000   0.000000   0.000000   0.000242
    21  H   -0.000000  -0.000000   0.000000  -0.000001
    22  H   -0.000000   0.000000  -0.000000  -0.000000
    23  H   -0.000000   0.000000  -0.000000  -0.000000
    24  H   -0.000000  -0.000000  -0.000000  -0.000000
    25  H   -0.000000  -0.000000   0.000000  -0.000001
    26  H   -0.000000   0.000000   0.000000   0.000242
    27  H   -0.000000  -0.000000   0.000000  -0.000001
    28  H   -0.000000  -0.000000   0.000000  -0.000000
    29  H   -0.000000   0.000000   0.000000  -0.000000
    30  H   -0.000000   0.000000  -0.000000  -0.000000
    31  H   -0.000000   0.000000   0.000000  -0.000000
    32  H   -0.000000  -0.000000   0.000000  -0.000000
    33  H   -0.000000   0.000000  -0.000000  -0.000000
    34  H   -0.000000  -0.000000  -0.000000  -0.000178
    35  H   -0.000011  -0.000000   0.000003   0.000019
    36  H   -0.005507  -0.000191   0.000020   0.000003
    37  H    0.598419  -0.004892  -0.000186  -0.000000
    38  H   -0.004892   0.598300  -0.005618  -0.000012
    39  H   -0.000186  -0.005618   0.603986   0.005889
    40  H   -0.000000  -0.000012   0.005889   0.596086
 Mulliken atomic charges:
              1
     1  C   -0.455762
     2  C   -0.089300
     3  C   -0.460166
     4  C   -0.455762
     5  Si   0.927587
     6  C   -0.692861
     7  C   -0.692861
     8  O   -0.637894
     9  C    0.399128
    10  C   -0.192174
    11  C   -0.207005
    12  C    0.140570
    13  C   -0.192119
    14  C   -0.139014
    15  C   -0.136197
    16  C   -0.192284
    17  C    0.140155
    18  C   -0.265953
    19  H    0.133632
    20  H    0.161342
    21  H    0.139079
    22  H    0.142519
    23  H    0.142519
    24  H    0.140276
    25  H    0.139079
    26  H    0.161342
    27  H    0.133632
    28  H    0.172671
    29  H    0.163331
    30  H    0.165794
    31  H    0.163331
    32  H    0.172671
    33  H    0.165794
    34  H    0.135255
    35  H    0.130800
    36  H    0.126087
    37  H    0.126117
    38  H    0.127225
    39  H    0.127698
    40  H    0.131717
 Sum of Mulliken atomic charges =  -0.00000
 Mulliken charges with hydrogens summed into heavy atoms:
              1
     1  C   -0.021710
     2  C   -0.089300
     3  C   -0.034852
     4  C   -0.021710
     5  Si   0.927587
     6  C   -0.191065
     7  C   -0.191064
     8  O   -0.637894
     9  C    0.399128
    10  C   -0.056918
    11  C   -0.076205
    12  C    0.140570
    13  C   -0.066032
    14  C   -0.012898
    15  C   -0.008972
    16  C   -0.064586
    17  C    0.140155
    18  C   -0.134236
 Sum of Mulliken charges with hydrogens summed into heavy atoms =  -0.00000
 Electronic spatial extent (au):  <R**2>=           6972.4497
 Charge=             -0.0000 electrons
 Dipole moment (field-independent basis, Debye):
    X=              1.0823    Y=             -1.0804    Z=              0.0000  Tot=              1.5292
 Quadrupole moment (field-independent basis, Debye-Ang):
   XX=           -108.2345   YY=           -108.8958   ZZ=           -119.7035
   XY=             -1.5022   XZ=              0.0000   YZ=              0.0000
 Traceless Quadrupole moment (field-independent basis, Debye-Ang):
   XX=              4.0434   YY=              3.3821   ZZ=             -7.4256
   XY=             -1.5022   XZ=              0.0000   YZ=              0.0000
 Octapole moment (field-independent basis, Debye-Ang**2):
  XXX=            -25.8243  YYY=             -0.8291  ZZZ=              0.0000  XYY=            -13.1100
  XXY=             -2.9173  XXZ=              0.0000  XZZ=             20.5007  YZZ=             -0.0343
  YYZ=             -0.0000  XYZ=             -0.0000
 Hexadecapole moment (field-independent basis, Debye-Ang**3):
 XXXX=          -7503.6434 YYYY=          -1216.2469 ZZZZ=           -556.1206 XXXY=            -23.4484
 XXXZ=             -0.0003 YYYX=             -5.6704 YYYZ=             -0.0001 ZZZX=              0.0000
 ZZZY=              0.0001 XXYY=          -1439.0694 XXZZ=          -1479.9334 YYZZ=           -323.0115
 XXYZ=              0.0000 YYXZ=             -0.0000 ZZXY=             -0.0351
 N-N= 1.407310410400D+03 E-N=-5.121867049037D+03  KE= 9.797343858690D+02
 No NMR shielding tensors so no spin-rotation constants.
 Leave Link  601 at Fri Sep  3 02:07:25 2021, MaxMem=  268435456 cpu:       0.7
 (Enter /sw/target/amd/app/gaussian/Gaussian09RevA.02_gcc-4.9.2/g09/l9999.exe)
 1\1\GINC-HERMITE\FOpt\RB3LYP\6-31G(d)\C16H22O1Si1\JSCHLEINITZ\03-Sep-2
 021\0\\#p b3lyp 6-31G* opt scf(xqc,tight)\\opt calculation\\0,1\C,-3.1
 086482508,1.8158512085,0.1834166433\C,-3.1723363742,0.3985130455,-0.42
 60792475\C,-4.5271487246,-0.2481314757,-0.0624333619\C,-3.0604659313,0
 .5082672454,-1.9622523905\Si,-1.7383857606,-0.6656005345,0.2545986935\
 C,-1.7907452085,-0.7817751737,2.1396697979\C,-1.7313125897,-2.39466626
 89,-0.5069869325\O,-0.3632320241,0.1921352975,-0.2372316374\C,0.980571
 8174,0.0137466275,-0.0983471277\C,1.5347830041,-1.0989169592,0.5921676
 362\C,2.899089443,-1.2352875988,0.7059065814\C,3.7871756124,-0.2814376
 683,0.1445590509\C,5.1988889424,-0.3985310557,0.2476147258\C,6.0284907
 375,0.5475983412,-0.3103408975\C,5.4772123536,1.65705672,-0.9988364232
 \C,4.1132575483,1.7996519864,-1.1163608897\C,3.2274467549,0.840198154,
 -0.5515472726\C,1.8194086306,0.9593937627,-0.655801529\H,-3.918502439,
 2.4403405319,-0.2207122501\H,-2.1588838478,2.311100085,-0.0460578846\H
 ,-3.2248453382,1.79944941,1.2741040682\H,-4.6695692291,-0.3291257442,1
 .0223591399\H,-4.6355670292,-1.251872631,-0.4918138624\H,-5.3547299018
 ,0.3614409513,-0.4524948942\H,-3.1411992938,-0.4705663063,-2.450859450
 3\H,-2.1090316397,0.9582011659,-2.2660857053\H,-3.8704959601,1.1375325
 04,-2.358544531\H,-1.7264695702,0.2094255336,2.6019766969\H,-2.7254879
 623,-1.2471357287,2.4755360222\H,-0.965525298,-1.3836770359,2.53620679
 84\H,-2.6636551599,-2.9251167715,-0.277923248\H,-1.6321788907,-2.34955
 70133,-1.5971591861\H,-0.9057233813,-3.0065194044,-0.1267849036\H,0.87
 77955041,-1.8427045011,1.0306898802\H,3.3135038333,-2.0898560788,1.235
 996162\H,5.6148548872,-1.2527418168,0.7775210198\H,7.1071531524,0.4480
 257068,-0.2254406486\H,6.1397368787,2.3993722985,-1.4363368118\H,3.692
 2549646,2.6516730618,-1.6450458382\H,1.3825167358,1.8042432554,-1.1804
 727854\\Version=AM64L-G09RevA.02\State=1-A\HF=-987.7591813\RMSD=4.698e
 -09\RMSF=1.069e-05\Dipole=-0.3874932,-0.396829,0.2331291\Quadrupole=2.
 8075983,0.5013921,-3.3089903,1.0585433,-0.4580826,-3.6461922\PG=C01 [X
 (C16H22O1Si1)]\\@


 HE THAT WALD REACHE THE SWEITE ROSE
 SULD NOW AND THEN BE SCRATCHED WT THE SCHARPE BREERES.
 -- PROVERBS AND REASONS OF THE YEAR 1585
           AS REPRINTED IN PAISLEY MAGAZINE 1828.
 Job cpu time:  0 days  2 hours  1 minutes 36.9 seconds.
 File lengths (MBytes):  RWF=     71 Int=      0 D2E=      0 Chk=      8 Scr=      1
 Normal termination of Gaussian 09 at Fri Sep  3 02:07:25 2021.
